   0.00000000       0.00000000    
  0.165000007       0.00000000    
  0.330000013       0.00000000    
  0.495000005       0.00000000    
  0.660000026       0.00000000    
  0.824999988       0.00000000    
  0.990000010       0.00000000    
   1.15499997       0.00000000    
   1.32000005       0.00000000    
   1.48500001       0.00000000    
   1.64999998       0.00000000    
   1.81500006       0.00000000    
   1.98000002       0.00000000    
   2.14499998       0.00000000    
   2.30999994       0.00000000    
   2.47499990       0.00000000    
   2.64000010       0.00000000    
   2.80500007       0.00000000    
   2.97000003       0.00000000    
   3.13499999      -1.34774084E-40
   3.29999995      -2.19300407E-40
   3.46499991      -8.34033228E-40
   3.63000011       6.06529956E-38
   3.79500008       1.49702867E-37
   3.96000004       5.50070721E-37
   4.12500000       1.82108766E-36
   4.28999996       4.57288755E-36
   4.45499992       9.23563326E-36
   4.61999989       1.68910675E-35
   4.78499985       2.81674620E-35
   4.94999981       4.20085377E-35
   5.11499977       5.64583106E-35
   5.28000021       6.48405152E-35
   5.44500017       5.43194562E-35
   5.61000013       7.01560197E-36
   5.77500010      -9.81480615E-35
   5.94000006      -2.85910716E-34
   6.10500002      -5.77057615E-34
   6.26999998      -9.77503082E-34
   6.43499994      -1.46457073E-33
   6.59999990      -1.96604589E-33
   6.76499987      -2.33727748E-33
   6.92999983      -2.35075728E-33
   7.09499979      -1.68347138E-33
   7.26000023       1.04214519E-34
   7.42500019       3.61593046E-33
   7.59000015       9.70572478E-33
   7.75500011       1.95603465E-32
   7.92000008       3.46320120E-32
   8.08500004       5.61842630E-32
   8.25000000       8.41781202E-32
   8.41499996       1.15370938E-31
   8.57999992       1.40927537E-31
   8.74499989       1.44386359E-31
   8.90999985       1.01307101E-31
   9.07499981      -1.80626653E-32
   9.23999977      -2.42523974E-31
   9.40499973      -5.90939348E-31
   9.56999969      -1.06289704E-30
   9.73499966      -1.63201554E-30
   9.89999962      -2.24365836E-30
   10.0649996      -2.81591233E-30
   10.2299995      -3.23948413E-30
   10.3950005      -3.37130012E-30
   10.5600004      -3.02040716E-30
   10.7250004      -1.93326390E-30
   10.8900003       2.04871386E-31
   11.0550003       3.73214077E-30
   11.2200003       8.92457204E-30
   11.3850002       1.58742985E-29
   11.5500002       2.43703444E-29
   11.7150002       3.38337803E-29
   11.8800001       4.33378775E-29
   12.0450001       5.16831727E-29
   12.2100000       5.74209754E-29
   12.3750000       5.86826340E-29
   12.5400000       5.27417059E-29
   12.7049999       3.54435117E-29
   12.8699999       9.27529178E-31
   13.0349998      -5.77174181E-29
   13.1999998      -1.46311875E-28
   13.3649998      -2.65958936E-28
   13.5299997      -4.08901649E-28
   13.6949997      -5.55835467E-28
   13.8599997      -6.77017483E-28
   14.0249996      -7.38598804E-28
   14.1899996      -7.13200651E-28
   14.3549995      -5.90549873E-28
   14.5200005      -3.81616543E-28
   14.6850004      -1.10236041E-28
   14.8500004       2.08967780E-28
   15.0150003       5.99014287E-28
   15.1800003       1.13912670E-27
   15.3450003       1.95339987E-27
   15.5100002       3.15613079E-27
   15.6750002       4.75905917E-27
   15.8400002       6.57182687E-27
   16.0049992       8.14882376E-27
   16.1700001       8.83827278E-27
   16.3349991       7.96178052E-27
   16.5000000       5.09564740E-27
   16.6650009       3.56922702E-28
   16.8299999      -5.45013407E-27
   16.9950008      -1.09629857E-26
   17.1599998      -1.47176161E-26
   17.3250008      -1.58401991E-26
   17.4899998      -1.47239024E-26
   17.6550007      -1.33480396E-26
   17.8199997      -1.49371737E-26
   17.9850006      -2.28582847E-26
   18.1499996      -3.89719905E-26
   18.3150005      -6.19763208E-26
   18.4799995      -8.64617252E-26
   18.6450005      -1.03311961E-25
   18.8099995      -1.01705273E-25
   18.9750004      -7.23840647E-26
   19.1399994      -1.12712985E-26
   19.3050003       7.78386312E-26
   19.4699993       1.82706398E-25
   19.6350002       2.84824738E-25
   19.7999992       3.64075258E-25
   19.9650002       4.04638313E-25
   20.1299992       4.00268516E-25
   20.2950001       3.56974794E-25
   20.4599991       2.91758332E-25
   20.6250000       2.27238557E-25
   20.7900009       1.83370619E-25
   20.9549999       1.68573055E-25
   21.1200008       1.73004543E-25
   21.2849998       1.66234477E-25
   21.4500008       1.00295529E-25
   21.6149998      -8.24901187E-26
   21.7800007      -4.38741213E-25
   21.9449997      -1.01240860E-24
   22.1100006      -1.82357090E-24
   22.2749996      -2.85726189E-24
   22.4400005      -4.05068912E-24
   22.6049995      -5.27745224E-24
   22.7700005      -6.33011375E-24
   22.9349995      -6.90742386E-24
   23.1000004      -6.61797975E-24
   23.2649994      -5.01532836E-24
   23.4300003      -1.67715240E-24
   23.5949993       3.66866469E-24
   23.7600002       1.09851137E-23
   23.9249992       1.97685340E-23
   24.0900002       2.89434896E-23
   24.2549992       3.68668527E-23
   24.4200001       4.14867535E-23
   24.5849991       4.06715320E-23
   24.7500000       3.26782127E-23
   24.9150009       1.66795251E-23
   25.0799999      -6.77280632E-24
   25.2450008      -3.54876052E-23
   25.4099998      -6.56966770E-23
   25.5750008      -9.25026565E-23
   25.7399998      -1.10685945E-22
   25.9050007      -1.15743325E-22
   26.0699997      -1.04944747E-22
   26.2350006      -7.81490294E-23
   26.3999996      -3.81374710E-23
   26.5650005       9.68773651E-24
   26.7299995       5.82509912E-23
   26.8950005       1.00235292E-22
   27.0599995       1.29687698E-22
   27.2250004       1.43397848E-22
   27.3899994       1.41660852E-22
   27.5550003       1.28155945E-22
   27.7199993       1.08884287E-22
   27.8850002       9.03664338E-23
   28.0499992       7.75358699E-23
   28.2150002       7.19096003E-23
   28.3799992       7.06154582E-23
   28.5450001       6.66885528E-23
   28.7099991       5.07385868E-23
   28.8750000       1.37048963E-23
   29.0400009      -4.99481387E-23
   29.2049999      -1.39465812E-22
   29.3700008      -2.46346796E-22
   29.5349998      -3.54825091E-22
   29.7000008      -4.44450797E-22
   29.8649998      -4.94348307E-22
   30.0300007      -4.88192062E-22
   30.1949997      -4.18618544E-22
   30.3600006      -2.89799451E-22
   30.5249996      -1.17293608E-22
   30.6900005       7.50073182E-23
   30.8549995       2.60193388E-22
   31.0200005       4.14539035E-22
   31.1849995       5.22833279E-22
   31.3500004       5.81207774E-22
   31.5149994       5.96481232E-22
   31.6800003       5.82081857E-22
   31.8449993       5.51757893E-22
   32.0099983       5.13163889E-22
   32.1749992       4.63716573E-22
   32.3400002       3.90645536E-22
   32.5050011       2.75955586E-22
   32.6699982       1.05394013E-22
   32.8349991      -1.21119293E-22
   33.0000000      -3.81180189E-22
   33.1650009      -6.27363938E-22
   33.3300018      -7.93011954E-22
   33.4949989      -8.06751968E-22
   33.6599998      -6.13493920E-22
   33.8250008      -1.97168702E-22
   33.9900017       4.01085258E-22
   34.1549988       1.07557249E-21
   34.3199997       1.66407151E-21
   34.4850006       1.97247316E-21
   34.6500015       1.81315506E-21
   34.8149986       1.05024937E-21
   34.9799995      -3.57788861E-22
   35.1450005      -2.32856108E-21
   35.3100014      -4.64746540E-21
   35.4749985      -6.98525108E-21
   35.6399994      -8.94039667E-21
   35.8050003      -1.00997921E-20
   35.9700012      -1.01069225E-20
   36.1349983      -8.72473194E-21
   36.2999992      -5.88122871E-21
   36.4650002      -1.68952155E-21
   36.6300011       3.56060460E-21
   36.7949982       9.43648935E-21
   36.9599991       1.54137562E-20
   37.1250000       2.09339267E-20
   37.2900009       2.54577823E-20
   37.4550018       2.85064243E-20
   37.6199989       2.96868336E-20
   37.7849998       2.87037586E-20
   37.9500008       2.53641315E-20
   38.1150017       1.95819210E-20
   38.2799988       1.13902980E-20
   38.4449997       9.64353048E-22
   38.6100006      -1.13479228E-20
   38.7750015      -2.49941686E-20
   38.9399986      -3.91973460E-20
   39.1049995      -5.29592500E-20
   39.2700005      -6.50982612E-20
   39.4350014      -7.43262493E-20
   39.5999985      -7.93619052E-20
   39.7649994      -7.90705566E-20
   39.9300003      -7.26134685E-20
   40.0950012      -5.95864595E-20
   40.2599983      -4.01270130E-20
   40.4249992      -1.49723084E-20
   40.5900002       1.45432036E-20
   40.7550011       4.65546167E-20
   40.9199982       7.87934188E-20
   41.0849991       1.08762424E-19
   41.2500000       1.33941983E-19
   41.4150009       1.52006962E-19
   41.5800018       1.61033971E-19
   41.7449989       1.59679837E-19
   41.9099998       1.47316163E-19
   42.0750008       1.24109313E-19
   42.2400017       9.10402995E-20
   42.4049988       4.98648093E-20
   42.5699997       3.01748601E-21
   42.7350006      -4.65312811E-20
   42.9000015      -9.54558801E-20
   43.0649986      -1.40282917E-19
   43.2299995      -1.77615543E-19
   43.3950005      -2.04366667E-19
   43.5600014      -2.17994015E-19
   43.7249985      -2.16729670E-19
   43.8899994      -1.99793547E-19
   44.0550003      -1.67575625E-19
   44.2200012      -1.21765200E-19
   44.3849983      -6.53993614E-20
   44.5499992      -2.80145717E-21
   44.7150002       6.06155756E-20
   44.8800011       1.18695507E-19
   45.0449982       1.65029692E-19
   45.2099991       1.93563779E-19
   45.3750000       1.99268003E-19
   45.5400009       1.78796679E-19
   45.7050018       1.31054154E-19
   45.8699989       5.75857293E-20
   46.0349998      -3.72693624E-20
   46.2000008      -1.46495315E-19
   46.3650017      -2.60783526E-19
   46.5299988      -3.69142092E-19
   46.6949997      -4.59663491E-19
   46.8600006      -5.20371672E-19
   47.0250015      -5.40074494E-19
   47.1899986      -5.09166942E-19
   47.3549995      -4.20361633E-19
   47.5200005      -2.69344250E-19
   47.6850014      -5.53692342E-20
   47.8499985       2.18192280E-19
   48.0149994       5.43365742E-19
   48.1800003       9.07189140E-19
   48.3450012       1.29151638E-18
   48.5099983       1.67311455E-18
   48.6749992       2.02417134E-18
   48.8400002       2.31330343E-18
   49.0050011       2.50710730E-18
   49.1699982       2.57222503E-18
   49.3349991       2.47782077E-18
   49.5000000       2.19828893E-18
   49.6650009       1.71597698E-18
   49.8300018       1.02368657E-18
   49.9949989       1.26735469E-19
   50.1599998      -9.55587788E-19
   50.3250008      -2.18929396E-18
   50.4900017      -3.52574569E-18
   50.6549988      -4.90250469E-18
   50.8199997      -6.24497498E-18
   50.9850006      -7.46883544E-18
   51.1500015      -8.48325996E-18
   51.3149986      -9.19493390E-18
   51.4799995      -9.51283595E-18
   51.6450005      -9.35371370E-18
   51.8100014      -8.64808562E-18
   51.9749985      -7.34648963E-18
   52.1399994      -5.42557276E-18
   52.3050003      -2.89355512E-18
   52.4700012       2.05491064E-19
   52.6349983       3.78905424E-18
   52.7999992       7.73572278E-18
   52.9650002       1.18871421E-17
   53.1300011       1.60524903E-17
   53.2949982       2.00153687E-17
   53.4599991       2.35428242E-17
   53.6250000       2.63960695E-17
   53.7900009       2.83423643E-17
   53.9550018       2.91674869E-17
   54.1199989       2.86881721E-17
   54.2849998       2.67639664E-17
   54.4500008       2.33079115E-17
   54.6150017       1.82955328E-17
   54.7799988       1.17716114E-17
   54.9449997       3.85427371E-18
   55.1100006      -5.26400330E-18
   55.2750015      -1.53187199E-17
   55.4399986      -2.59791225E-17
   55.6049995      -3.68572920E-17
   55.7700005      -4.75201564E-17
   55.9350014      -5.75038889E-17
   56.0999985      -6.63299259E-17
   56.2649994      -7.35219304E-17
   56.4300003      -7.86228555E-17
   56.5950012      -8.12116330E-17
   56.7599983      -8.09190758E-17
   56.9249992      -7.74428459E-17
   57.0900002      -7.05614047E-17
   57.2550011      -6.01470486E-17
   57.4199982      -4.61779136E-17
   57.5849991      -2.87488574E-17
   57.7500000      -8.08067198E-18
   57.9150009       1.54728898E-17
   58.0800018       4.14211254E-17
   58.2449989       6.91362982E-17
   58.4099998       9.78581465E-17
   58.5750008       1.26703622E-16
   58.7400017       1.54682073E-16
   58.9049988       1.80716015E-16
   59.0699997       2.03666981E-16
   59.2350006       2.22366398E-16
   59.4000015       2.35650786E-16
   59.5649986       2.42400845E-16
   59.7299995       2.41584146E-16
   59.8950005       2.32300506E-16
   60.0600014       2.13829537E-16
   60.2249985       1.85679032E-16
   60.3899994       1.47632430E-16
   60.5550003       9.97934249E-17
   60.7200012       4.26250901E-17
   60.8849983      -2.30195199E-17
   61.0499992      -9.58774725E-17
   61.2150002      -1.74269564E-16
   61.3800011      -2.56108776E-16
   61.5449982      -3.38924458E-16
   61.7099991      -4.19902793E-16
   61.8750000      -4.95942185E-16
   62.0400009      -5.63722820E-16
   62.2050018      -6.19789307E-16
   62.3699989      -6.60643824E-16
   62.5349998      -6.82849057E-16
   62.7000008      -6.83138689E-16
   62.8650017      -6.58533388E-16
   63.0299988      -6.06459867E-16
   63.1949997      -5.24870319E-16
   63.3600006      -4.12356815E-16
   63.5250015      -2.68258723E-16
   63.6899986      -9.27558781E-17
   63.8549995       1.13056174E-16
   64.0199966       3.47113069E-16
   64.1849976       6.06354517E-16
   64.3499985       8.86725017E-16
   64.5149994       1.18320285E-15
   64.6800003       1.48985737E-15
   64.8450012       1.79993167E-15
   65.0100021       2.10594985E-15
   65.1750031       2.39984403E-15
   65.3399963       2.67310046E-15
   65.5049973       2.91691974E-15
   65.6699982       3.12238897E-15
   65.8349991       3.28066533E-15
   66.0000000       3.38316225E-15
   66.1650009       3.42173824E-15
   66.3300018       3.38888565E-15
   66.4950027       3.27790866E-15
   66.6600037       3.08309172E-15
   66.8249969       2.79985195E-15
   66.9899979       2.42487216E-15
   67.1549988       1.95621179E-15
   67.3199997       1.39339884E-15
   67.4850006       7.37495705E-16
   67.6500015      -8.85113199E-18
   67.8150024      -8.41384826E-16
   67.9800034      -1.75422906E-15
   68.1449966      -2.73989726E-15
   68.3099976      -3.78932429E-15
   68.4749985      -4.89191808E-15
   68.6399994      -6.03563830E-15
   68.8050003      -7.20709757E-15
   68.9700012      -8.39169517E-15
   69.1350021      -9.57377793E-15
   69.3000031      -1.07368287E-14
   69.4649963      -1.18636849E-14
   69.6299973      -1.29367808E-14
   69.7949982      -1.39384150E-14
   69.9599991      -1.48510354E-14
   70.1250000      -1.56575480E-14
   70.2900009      -1.63416356E-14
   70.4550018      -1.68880955E-14
   70.6200027      -1.72831906E-14
   70.7850037      -1.75149998E-14
   70.9499969      -1.75737737E-14
   71.1149979      -1.74522804E-14
   71.2799988      -1.71461491E-14
   71.4449997      -1.66541585E-14
   71.6100006      -1.59785210E-14
   71.7750015      -1.51251031E-14
   71.9400024      -1.41035899E-14
   72.1050034      -1.29275888E-14
   72.2699966      -1.16146682E-14
   72.4349976      -1.01863149E-14
   72.5999985      -8.66780758E-15
   72.7649994      -7.08801702E-15
   72.9300003      -5.47911648E-15
   73.0950012      -3.87621293E-15
   73.2600021      -2.31688541E-15
   73.4250031      -8.40657807E-16
   73.5899963       5.11613247E-16
   73.7549973       1.69840366E-15
   73.9199982       2.67824703E-15
   74.0849991       3.41048922E-15
   74.2500000       3.85606540E-15
   74.4150009       3.97828167E-15
   74.5800018       3.74358281E-15
   74.7450027       3.12229008E-15
   74.9100037       2.08929274E-15
   75.0749969       6.24687593E-16
   75.2399979      -1.28565212E-15
   75.4049988      -3.64958418E-15
   75.5699997      -6.46829553E-15
   75.7350006      -9.73600507E-15
   75.9000015      -1.34397625E-14
   76.0650024      -1.75593742E-14
   76.2300034      -2.20674343E-14
   76.3949966      -2.69295135E-14
   76.5599976      -3.21044291E-14
   76.7249985      -3.75446880E-14
   76.8899994      -4.31970201E-14
   77.0550003      -4.90030447E-14
   77.2200012      -5.49000373E-14
   77.3850021      -6.08217903E-14
   77.5500031      -6.66995688E-14
   77.7149963      -7.24631401E-14
   77.8799973      -7.80418278E-14
   78.0449982      -8.33656738E-14
   78.2099991      -8.83665360E-14
   78.3750000      -9.29792945E-14
   78.5400009      -9.71429629E-14
   78.7050018      -1.00801766E-13
   78.8700027      -1.03906230E-13
   79.0350037      -1.06414098E-13
   79.1999969      -1.08291251E-13
   79.3649979      -1.09512402E-13
   79.5299988      -1.10061808E-13
   79.6949997      -1.09933709E-13
   79.8600006      -1.09132707E-13
   80.0250015      -1.07674042E-13
   80.1900024      -1.05583592E-13
   80.3550034      -1.02897874E-13
   80.5199966      -9.96637533E-14
   80.6849976      -9.59381093E-14
   80.8499985      -9.17872955E-14
   81.0149994      -8.72864132E-14
   81.1800003      -8.25185054E-14
   81.3450012      -7.75735474E-14
   81.5100021      -7.25473623E-14
   81.6750031      -6.75403540E-14
   81.8399963      -6.26562062E-14
   82.0049973      -5.80004862E-14
   82.1699982      -5.36791477E-14
   82.3349991      -4.97970873E-14
   82.5000000      -4.64566231E-14
   82.6650009      -4.37559941E-14
   82.8300018      -4.17879198E-14
   82.9950027      -4.06382081E-14
   83.1600037      -4.03844133E-14
   83.3249969      -4.10946030E-14
   83.4899979      -4.28262264E-14
   83.6549988      -4.56251011E-14
   83.8199997      -4.95245460E-14
   83.9850006      -5.45446223E-14
   84.1500015      -6.06915505E-14
   84.3150024      -6.79572365E-14
   84.4800034      -7.63189764E-14
   84.6449966      -8.57392567E-14
   84.8099976      -9.61657376E-14
   84.9749985      -1.07531361E-13
   85.1399994      -1.19754643E-13
   85.3050003      -1.32739997E-13
   85.4700012      -1.46378406E-13
   85.6350021      -1.60548075E-13
   85.8000031      -1.75115307E-13
   85.9649963      -1.89935510E-13
   86.1299973      -2.04854430E-13
   86.2949982      -2.19709342E-13
   86.4599991      -2.34330621E-13
   86.6250000      -2.48543129E-13
   86.7900009      -2.62168000E-13
   86.9550018      -2.75024307E-13
   87.1200027      -2.86930852E-13
   87.2850037      -2.97708066E-13
   87.4499969      -3.07179927E-13
   87.6149979      -3.15175891E-13
   87.7799988      -3.21532731E-13
   87.9449997      -3.26096707E-13
   88.1100006      -3.28725084E-13
   88.2750015      -3.29288300E-13
   88.4400024      -3.27671402E-13
   88.6050034      -3.23775783E-13
   88.7699966      -3.17520532E-13
   88.9349976      -3.08843744E-13
   89.0999985      -2.97703539E-13
   89.2649994      -2.84078967E-13
   89.4300003      -2.67970569E-13
   89.5950012      -2.49400923E-13
   89.7600021      -2.28414645E-13
   89.9250031      -2.05078535E-13
   90.0899963      -1.79481010E-13
   90.2549973      -1.51731682E-13
   90.4199982      -1.21960466E-13
   90.5849991      -9.03165550E-14
   90.7500000      -5.69671399E-14
   90.9150009      -2.20959776E-14
   91.0800018       1.40983654E-14
   91.2450027       5.14042917E-14
   91.4100037       8.95991113E-14
   91.5749969       1.28451164E-13
   91.7399979       1.67721983E-13
   91.9049988       2.07168497E-13
   92.0699997       2.46545379E-13
   92.2350006       2.85607285E-13
   92.4000015       3.24111262E-13
   92.5650024       3.61818919E-13
   92.7300034       3.98498780E-13
   92.8949966       4.33928447E-13
   93.0599976       4.67896501E-13
   93.2249985       5.00204858E-13
   93.3899994       5.30670072E-13
   93.5550003       5.59125554E-13
   93.7200012       5.85422498E-13
   93.8850021       6.09431884E-13
   94.0500031       6.31044913E-13
   94.2149963       6.50174630E-13
   94.3799973       6.66756147E-13
   94.5449982       6.80747505E-13
   94.7099991       6.92129784E-13
   94.8750000       7.00907323E-13
   95.0400009       7.07107495E-13
   95.2050018       7.10780610E-13
   95.3700027       7.11998873E-13
   95.5350037       7.10856179E-13
   95.6999969       7.07466746E-13
   95.8649979       7.01964149E-13
   96.0299988       6.94499688E-13
   96.1949997       6.85241198E-13
   96.3600006       6.74370661E-13
   96.5250015       6.62082910E-13
   96.6900024       6.48582804E-13
   96.8550034       6.34083498E-13
   97.0199966       6.18803403E-13
   97.1849976       6.02964022E-13
   97.3499985       5.86786858E-13
   97.5149994       5.70490920E-13
   97.6800003       5.54289795E-13
   97.8450012       5.38388399E-13
   98.0100021       5.22980801E-13
   98.1750031       5.08246928E-13
   98.3399963       4.94350166E-13
   98.5049973       4.81434933E-13
   98.6699982       4.69624285E-13
   98.8349991       4.59017861E-13
   99.0000000       4.49690334E-13
   99.1650009       4.41689789E-13
   99.3300018       4.35036799E-13
   99.4950027       4.29723558E-13
   99.6600037       4.25713582E-13
   99.8249969       4.22941874E-13
   99.9899979       4.21315381E-13
   100.154999       4.20713811E-13
   100.320000       4.20991014E-13
   100.485001       4.21976771E-13
   100.650002       4.23478906E-13
   100.815002       4.25285837E-13
   100.980003       4.27169422E-13
   101.144997       4.28888208E-13
   101.309998       4.30190849E-13
   101.474998       4.30819687E-13
   101.639999       4.30514646E-13
   101.805000       4.29017038E-13
   101.970001       4.26073564E-13
   102.135002       4.21439928E-13
   102.300003       4.14884761E-13
   102.464996       4.06192820E-13
   102.629997       3.95168544E-13
   102.794998       3.81638731E-13
   102.959999       3.65455252E-13
   103.125000       3.46497164E-13
   103.290001       3.24672553E-13
   103.455002       2.99919865E-13
   103.620003       2.72208905E-13
   103.785004       2.41541243E-13
   103.949997       2.07950478E-13
   104.114998       1.71501919E-13
   104.279999       1.32291869E-13
   104.445000       9.04467202E-14
   104.610001       4.61216555E-14
   104.775002      -5.01022212E-16
   104.940002      -4.92136883E-14
   105.105003      -9.97855498E-14
   105.269997      -1.51964975E-13
   105.434998      -2.05481967E-13
   105.599998      -2.60050770E-13
   105.764999      -3.15372674E-13
   105.930000      -3.71138694E-13
   106.095001      -4.27032704E-13
   106.260002      -4.82733970E-13
   106.425003      -5.37920186E-13
   106.589996      -5.92270373E-13
   106.754997      -6.45467783E-13
   106.919998      -6.97202658E-13
   107.084999      -7.47174891E-13
   107.250000      -7.95096736E-13
   107.415001      -8.40695298E-13
   107.580002      -8.83714705E-13
   107.745003      -9.23918819E-13
   107.910004      -9.61092317E-13
   108.074997      -9.95043024E-13
   108.239998      -1.02560354E-12
   108.404999      -1.05263205E-12
   108.570000      -1.07601363E-12
   108.735001      -1.09566143E-12
   108.900002      -1.11151659E-12
   109.065002      -1.12354950E-12
   109.230003      -1.13175897E-12
   109.394997      -1.13617286E-12
   109.559998      -1.13684745E-12
   109.724998      -1.13386676E-12
   109.889999      -1.12734138E-12
   110.055000      -1.11740814E-12
   110.220001      -1.10422760E-12
   110.385002      -1.08798354E-12
   110.550003      -1.06888055E-12
   110.714996      -1.04714230E-12
   110.879997      -1.02300937E-12
   111.044998      -9.96736981E-13
   111.209999      -9.68592611E-13
   111.375000      -9.38853487E-13
   111.540001      -9.07803617E-13
   111.705002      -8.75731345E-13
   111.870003      -8.42925827E-13
   112.035004      -8.09674701E-13
   112.199997      -7.76260458E-13
   112.364998      -7.42957508E-13
   112.529999      -7.10029095E-13
   112.695000      -6.77724370E-13
   112.860001      -6.46275243E-13
   113.025002      -6.15893567E-13
   113.190002      -5.86768373E-13
   113.355003      -5.59063212E-13
   113.519997      -5.32913937E-13
   113.684998      -5.08426200E-13
   113.849998      -4.85673947E-13
   114.014999      -4.64697616E-13
   114.180000      -4.45503226E-13
   114.345001      -4.28061503E-13
   114.510002      -4.12307531E-13
   114.675003      -3.98140939E-13
   114.839996      -3.85426418E-13
   115.004997      -3.73994943E-13
   115.169998      -3.63645095E-13
   115.334999      -3.54144963E-13
   115.500000      -3.45234556E-13
   115.665001      -3.36628539E-13
   115.830002      -3.28019377E-13
   115.995003      -3.19080808E-13
   116.160004      -3.09471931E-13
   116.324997      -2.98841382E-13
   116.489998      -2.86832109E-13
   116.654999      -2.73086322E-13
   116.820000      -2.57250574E-13
   116.985001      -2.38981334E-13
   117.150002      -2.17950264E-13
   117.315002      -1.93849846E-13
   117.480003      -1.66398755E-13
   117.644997      -1.35347164E-13
   117.809998      -1.00481804E-13
   117.974998      -6.16307000E-14
   118.139999      -1.86675711E-14
   118.305000       2.84843221E-14
   118.470001       7.98487931E-14
   118.635002       1.35394070E-13
   118.800003       1.95030529E-13
   118.964996       2.58609405E-13
   119.129997       3.25922178E-13
   119.294998       3.96700684E-13
   119.459999       4.70618173E-13
   119.625000       5.47291054E-13
   119.790001       6.26281741E-13
   119.955002       7.07101912E-13
   120.120003       7.89216891E-13
   120.285004       8.72050696E-13
   120.449997       9.54991511E-13
   120.614998       1.03739803E-12
   120.779999       1.11860618E-12
   120.945000       1.19793650E-12
   121.110001       1.27470181E-12
   121.275002       1.34821505E-12
   121.440002       1.41779795E-12
   121.605003       1.48278904E-12
   121.769997       1.54255233E-12
   121.934998       1.59648564E-12
   122.099998       1.64402888E-12
   122.264999       1.68467193E-12
   122.430000       1.71796171E-12
   122.595001       1.74350953E-12
   122.760002       1.76099673E-12
   122.925003       1.77018057E-12
   123.089996       1.77089864E-12
   123.254997       1.76307222E-12
   123.419998       1.74670922E-12
   123.584999       1.72190571E-12
   123.750000       1.68884655E-12
   123.915001       1.64780407E-12
   124.080002       1.59913706E-12
   124.245003       1.54328731E-12
   124.410004       1.48077611E-12
   124.574997       1.41219870E-12
   124.739998       1.33821795E-12
   124.904999       1.25955745E-12
   125.070000       1.17699383E-12
   125.235001       1.09134739E-12
   125.400002       1.00347302E-12
   125.565002       9.14250771E-13
   125.730003       8.24574838E-13
   125.894997       7.35344077E-13
   126.059998       6.47450789E-13
   126.224998       5.61770032E-13
   126.389999       4.79149543E-13
   126.555000       4.00399034E-13
   126.720001       3.26280507E-13
   126.885002       2.57498775E-13
   127.050003       1.94692325E-13
   127.214996       1.38425567E-13
   127.379997       8.91811107E-14
   127.544998       4.73536514E-14
   127.709999       1.32445688E-14
   127.875000      -1.29420138E-14
   128.039993      -3.11028533E-14
   128.205002      -4.12366166E-14
   128.369995      -4.34448450E-14
   128.535004      -3.79308808E-14
   128.699997      -2.49977888E-14
   128.865005      -5.04473638E-15
   129.029999       2.14375958E-14
   129.195007       5.38730403E-14
   129.360001       9.16068098E-14
   129.524994       1.33914066E-13
   129.690002       1.80008664E-13
   129.854996       2.29053538E-13
   130.020004       2.80171014E-13
   130.184998       3.32454306E-13
   130.350006       3.84978968E-13
   130.514999       4.36814728E-13
   130.679993       4.87037439E-13
   130.845001       5.34740763E-13
   131.009995       5.79047661E-13
   131.175003       6.19121887E-13
   131.339996       6.54178101E-13
   131.505005       6.83492379E-13
   131.669998       7.06410950E-13
   131.835007       7.22359347E-13
   132.000000       7.30849355E-13
   132.164993       7.31485564E-13
   132.330002       7.23970525E-13
   132.494995       7.08109081E-13
   132.660004       6.83810701E-13
   132.824997       6.51090943E-13
   132.990005       6.10071347E-13
   133.154999       5.60977968E-13
   133.320007       5.04138723E-13
   133.485001       4.39978810E-13
   133.649994       3.69015745E-13
   133.815002       2.91852480E-13
   133.979996       2.09169989E-13
   134.145004       1.21718567E-13
   134.309998       3.03083703E-14
   134.475006      -6.42007741E-14
   134.639999      -1.60910348E-13
   134.804993      -2.58894577E-13
   134.970001      -3.57212063E-13
   135.134995      -4.54918221E-13
   135.300003      -5.51077521E-13
   135.464996      -6.44775520E-13
   135.630005      -7.35131032E-13
   135.794998      -8.21308191E-13
   135.960007      -9.02527456E-13
   136.125000      -9.78076344E-13
   136.289993      -1.04731946E-12
   136.455002      -1.10970781E-12
   136.619995      -1.16478615E-12
   136.785004      -1.21220113E-12
   136.949997      -1.25170599E-12
   137.115005      -1.28316487E-12
   137.279999      -1.30655610E-12
   137.445007      -1.32197248E-12
   137.610001      -1.32962153E-12
   137.774994      -1.32982275E-12
   137.940002      -1.32300312E-12
   138.104996      -1.30969270E-12
   138.270004      -1.29051630E-12
   138.434998      -1.26618594E-12
   138.600006      -1.23749036E-12
   138.764999      -1.20528457E-12
   138.929993      -1.17047745E-12
   139.095001      -1.13401953E-12
   139.259995      -1.09688929E-12
   139.425003      -1.06007922E-12
   139.589996      -1.02458135E-12
   139.755005      -9.91372782E-13
   139.919998      -9.61401314E-13
   140.085007      -9.35570631E-13
   140.250000      -9.14727278E-13
   140.414993      -8.99646134E-13
   140.580002      -8.91018596E-13
   140.744995      -8.89441027E-13
   140.910004      -8.95403868E-13
   141.074997      -9.09282632E-13
   141.240005      -9.31330642E-13