   0.00000000       0.00000000    
  0.165000007       0.00000000    
  0.330000013       1.40595872E-17
  0.495000005       1.00342296E-16
  0.660000026       3.91539339E-16
  0.824999988       1.10060909E-15
  0.990000010       2.47260649E-15
   1.15499997       4.68930399E-15
   1.32000005       7.77077258E-15
   1.48500001       1.15304410E-14
   1.64999998       1.56168193E-14
   1.81500006       1.96289518E-14
   1.98000002       2.32530314E-14
   2.14499998       2.63569040E-14
   2.30999994       2.90057149E-14
   2.47499990       3.14035907E-14
   2.64000010       3.38010734E-14
   2.80500007       3.64120152E-14
   2.97000003       3.93635930E-14
   3.13499999       4.26736554E-14
   3.29999995       4.62330064E-14
   3.46499991       4.97852119E-14
   3.63000011       5.29098961E-14
   3.79500008       5.50395030E-14
   3.96000004       5.55291016E-14
   4.12500000       5.37744626E-14
   4.28999996       4.93406619E-14
   4.45499992       4.20493650E-14
   4.61999989       3.19894258E-14
   4.78499985       1.94458639E-14
   4.94999981       4.78171020E-15
   5.11499977      -1.16782923E-14
   5.28000021      -2.97217390E-14
   5.44500017      -4.92640325E-14
   5.61000013      -7.03188321E-14
   5.77500010      -9.29437937E-14
   5.94000006      -1.17182021E-13
   6.10500002      -1.43006361E-13
   6.26999998      -1.70267310E-13
   6.43499994      -1.98650504E-13
   6.59999990      -2.27663293E-13
   6.76499987      -2.56654561E-13
   6.92999983      -2.84884448E-13
   7.09499979      -3.11629439E-13
   7.26000023      -3.36278694E-13
   7.42500019      -3.58408426E-13
   7.59000015      -3.77789786E-13
   7.75500011      -3.94345337E-13
   7.92000008      -4.08080470E-13
   8.08500004      -4.19005081E-13
   8.25000000      -4.27089110E-13
   8.41499996      -4.32236495E-13
   8.57999992      -4.34290082E-13
   8.74499989      -4.33052438E-13
   8.90999985      -4.28316508E-13
   9.07499981      -4.19909089E-13
   9.23999977      -4.07738025E-13
   9.40499973      -3.91833240E-13
   9.56999969      -3.72372516E-13
   9.73499966      -3.49668319E-13
   9.89999962      -3.24128203E-13
   10.0649996      -2.96192297E-13
   10.2299995      -2.66280216E-13
   10.3950005      -2.34769181E-13
   10.5600004      -2.02000065E-13
   10.7250004      -1.68311301E-13
   10.8900003      -1.34072861E-13
   11.0550003      -9.97089306E-14
   11.2200003      -6.57054164E-14
   11.3850002      -3.26054423E-14
   11.5500002      -1.00820362E-15
   11.7150002       2.84274828E-14
   11.8800001       5.49807324E-14
   12.0450001       7.78751724E-14
   12.2100000       9.63006191E-14
   12.3750000       1.09444978E-13
   12.5400000       1.16522731E-13
   12.7049999       1.16786775E-13
   12.8699999       1.09524647E-13
   13.0349998       9.40467322E-14
   13.1999998       6.96847433E-14
   13.3649998       3.58126072E-14
   13.5299997      -8.11938848E-15
   13.6949997      -6.25445469E-14
   13.8599997      -1.27761408E-13
   14.0249996      -2.03941763E-13
   14.1899996      -2.91159485E-13
   14.3549995      -3.89411160E-13
   14.5200005      -4.98609021E-13
   14.6850004      -6.18549103E-13
   14.8500004      -7.48853887E-13
   15.0150003      -8.88923104E-13
   15.1800003      -1.03789525E-12
   15.3450003      -1.19465321E-12
   15.5100002      -1.35783388E-12
   15.6750002      -1.52586982E-12
   15.8400002      -1.69700007E-12
   16.0049992      -1.86929118E-12
   16.1700001      -2.04064803E-12
   16.3349991      -2.20885311E-12
   16.5000000      -2.37160942E-12
   16.6650009      -2.52660132E-12
   16.8299999      -2.67152945E-12
   16.9950008      -2.80413236E-12
   17.1599998      -2.92216208E-12
   17.3250008      -3.02339577E-12
   17.4899998      -3.10561212E-12
   17.6550007      -3.16666159E-12
   17.8199997      -3.20453516E-12
   17.9850006      -3.21747511E-12
   18.1499996      -3.20404445E-12
   18.3150005      -3.16322597E-12
   18.4799995      -3.09443335E-12
   18.6450005      -2.99751977E-12
   18.8099995      -2.87278599E-12
   18.9750004      -2.72100159E-12
   19.1399994      -2.54341838E-12
   19.3050003      -2.34177564E-12
   19.4699993      -2.11830943E-12
   19.6350002      -1.87573676E-12
   19.7999992      -1.61722166E-12
   19.9650002      -1.34636258E-12
   20.1299992      -1.06718248E-12
   20.2950001      -7.84120653E-13
   20.4599991      -5.02010326E-13
   20.6250000      -2.26021364E-13
   20.7900009       3.84382806E-14
   20.9549999       2.85852830E-13
   21.1200008       5.10740538E-13
   21.2849998       7.07784742E-13
   21.4500008       8.71937451E-13
   21.6149998       9.98492955E-13
   21.7800007       1.08315440E-12
   21.9449997       1.12208767E-12
   22.1100006       1.11198453E-12
   22.2749996       1.05012114E-12
   22.4400005       9.34403921E-13
   22.6049995       7.63429738E-13
   22.7700005       5.36495327E-13
   22.9349995       2.53668370E-13
   23.1000004      -8.41659506E-14
   23.2649994      -4.75245711E-13
   23.4300003      -9.16889828E-13
   23.5949993      -1.40546667E-12
   23.7600002      -1.93641067E-12
   23.9249992      -2.50427305E-12
   24.0900002      -3.10280187E-12
   24.2549992      -3.72498516E-12
   24.4200001      -4.36313355E-12
   24.5849991      -5.00891429E-12
   24.7500000      -5.65343085E-12
   24.9150009      -6.28733480E-12
   25.0799999      -6.90090389E-12
   25.2450008      -7.48414351E-12
   25.4099998      -8.02691420E-12
   25.5750008      -8.51906913E-12
   25.7399998      -8.95049659E-12
   25.9050007      -9.31127484E-12
   26.0699997      -9.59180131E-12
   26.2350006      -9.78299299E-12
   26.3999996      -9.87641913E-12
   26.5650005      -9.86449464E-12
   26.7299995      -9.74063538E-12
   26.8950005      -9.49928504E-12
   27.0599995      -9.13610420E-12
   27.2250004      -8.64797036E-12
   27.3899994      -8.03314273E-12
   27.5550003      -7.29127175E-12
   27.7199993      -6.42354572E-12
   27.8850002      -5.43261746E-12
   28.0499992      -4.32264858E-12
   28.2150002      -3.09926130E-12
   28.3799992      -1.76950371E-12
   28.5450001      -3.41813193E-13
   28.7099991       1.17400241E-12
   28.8750000       2.76678355E-12
   29.0400009       4.42409043E-12
   29.2049999       6.13230040E-12
   29.3700008       7.87675047E-12
   29.5349998       9.64185936E-12
   29.7000008       1.14112938E-11
   29.8649998       1.31681289E-11
   30.0300007       1.48950505E-11
   30.1949997       1.65744675E-11
   30.3600006       1.81887803E-11
   30.5249996       1.97205394E-11
   30.6900005       2.11527358E-11
   30.8549995       2.24689555E-11
   31.0200005       2.36535722E-11
   31.1849995       2.46918978E-11
   31.3500004       2.55703531E-11
   31.5149994       2.62766302E-11
   31.6800003       2.67998228E-11
   31.8449993       2.71306380E-11
   32.0099983       2.72615003E-11
   32.1749992       2.71867147E-11
   32.3400002       2.69025410E-11
   32.5050011       2.64073607E-11
   32.6699982       2.57016387E-11
   32.8349991       2.47880032E-11
   33.0000000       2.36713201E-11
   33.1650009       2.23585005E-11
   33.3300018       2.08585597E-11
   33.4949989       1.91825479E-11
   33.6599998       1.73434652E-11
   33.8250008       1.53560203E-11
   33.9900017       1.32367468E-11
   34.1549988       1.10037535E-11
   34.3199997       8.67665401E-12
   34.4850006       6.27633362E-12
   34.6500015       3.82469013E-12
   34.8149986       1.34452616E-12
   34.9799995      -1.14078592E-12
   35.1450005      -3.60752856E-12
   35.3100014      -6.03188896E-12
   35.4749985      -8.39025203E-12
   35.6399994      -1.06594412E-11
   35.8050003      -1.28170157E-11
   35.9700012      -1.48415117E-11
   36.1349983      -1.67126885E-11
   36.2999992      -1.84117686E-11
   36.4650002      -1.99215956E-11
   36.6300011      -2.12268883E-11
   36.7949982      -2.23143778E-11
   36.9599991      -2.31730815E-11
   37.1250000      -2.37944092E-11
   37.2900009      -2.41723030E-11
   37.4550018      -2.43033857E-11
   37.6199989      -2.41868661E-11
   37.7849998      -2.38246992E-11
   37.9500008      -2.32214838E-11
   38.1150017      -2.23845196E-11
   38.2799988      -2.13237483E-11
   38.4449997      -2.00517433E-11
   38.6100006      -1.85835271E-11
   38.7750015      -1.69364123E-11
   38.9399986      -1.51297759E-11
   39.1049995      -1.31848664E-11
   39.2700005      -1.11246377E-11
   39.4350014      -8.97336198E-12
   39.5999985      -6.75659181E-12
   39.7649994      -4.50063077E-12
   39.9300003      -2.23237791E-12
   40.0950012       2.10416232E-14
   40.2599983       2.23255464E-12
   40.4249992       4.37545790E-12
   40.5900002       6.42371052E-12
   40.7550011       8.35221649E-12
   40.9199982       1.01371177E-11
   41.0849991       1.17561299E-11
   41.2500000       1.31888970E-11
   41.4150009       1.44172287E-11
   41.5800018       1.54254005E-11
   41.7449989       1.62002859E-11
   41.9099998       1.67315450E-11
   42.0750008       1.70117531E-11
   42.2400017       1.70364851E-11
   42.4049988       1.68044120E-11
   42.5699997       1.63173867E-11
   42.7350006       1.55804397E-11
   42.9000015       1.46017434E-11
   43.0649986       1.33925475E-11
   43.2299995       1.19670697E-11
   43.3950005       1.03423901E-11
   43.5600014       8.53828987E-12
   43.7249985       6.57704186E-12
   43.8899994       4.48319333E-12
   44.0550003       2.28322656E-12
   44.2200012       5.22670023E-15
   44.3849983      -2.32149543E-12
   44.5499992      -4.66676047E-12
   44.7150002      -6.99983604E-12
   44.8800011      -9.28981198E-12
   45.0449982      -1.15059143E-11
   45.2099991      -1.36178985E-11
   45.3750000      -1.55964183E-11
   45.5400009      -1.74134179E-11
   45.7050018      -1.90425106E-11
   45.8699989      -2.04593339E-11
   46.0349998      -2.16418602E-11
   46.2000008      -2.25706953E-11
   46.3650017      -2.32293351E-11
   46.5299988      -2.36044205E-11
   46.6949997      -2.36859490E-11
   46.8600006      -2.34674329E-11
   47.0250015      -2.29459975E-11
   47.1899986      -2.21224705E-11
   47.3549995      -2.10013951E-11
   47.5200005      -1.95910371E-11
   47.6850014      -1.79033594E-11
   47.8499985      -1.59539344E-11
   48.0149994      -1.37618155E-11
   48.1800003      -1.13493581E-11
   48.3450012      -8.74200191E-12
   48.5099983      -5.96799433E-12
   48.6749992      -3.05808720E-12
   48.8400002      -4.51940799E-14
   49.0050011       3.03596081E-12
   49.1699982       6.14922609E-12
   49.3349991       9.25743857E-12
   49.5000000       1.23228164E-11
   49.6650009       1.53074046E-11
   49.8300018       1.81734801E-11
   49.9949989       2.08840115E-11
   50.1599998       2.34030868E-11
   50.3250008       2.56963652E-11
   50.4900017       2.77315549E-11
   50.6549988       2.94787632E-11
   50.8199997       3.09108988E-11
   50.9850006       3.20039550E-11
   51.1500015       3.27374169E-11
   51.3149986       3.30944647E-11
   51.4799995       3.30622613E-11
   51.6450005       3.26322129E-11
   51.8100014       3.18001528E-11
   51.9749985       3.05664626E-11
   52.1399994       2.89360671E-11
   52.3050003       2.69184744E-11
   52.4700012       2.45277045E-11
   52.6349983       2.17822132E-11
   52.7999992       1.87047704E-11
   52.9650002       1.53222938E-11
   53.1300011       1.16656242E-11
   53.2949982       7.76923231E-12
   53.4599991       3.67089215E-12
   53.6250000      -5.88686706E-13
   53.7900009      -4.96627002E-12
   53.9550018      -9.41650750E-12
   54.1199989      -1.38923673E-11
   54.2849998      -1.83456080E-11
   54.4500008      -2.27272697E-11
   54.6150017      -2.69882536E-11
   54.7799988      -3.10798227E-11
   54.9449997      -3.49542756E-11
   55.1100006      -3.85653454E-11
   55.2750015      -4.18688383E-11
   55.4399986      -4.48230827E-11
   55.6049995      -4.73894153E-11
   55.7700005      -4.95325829E-11
   55.9350014      -5.12212182E-11
   56.0999985      -5.24282180E-11
   56.2649994      -5.31311314E-11
   56.4300003      -5.33123511E-11
   56.5950012      -5.29594979E-11
   56.7599983      -5.20655602E-11
   56.9249992      -5.06289698E-11
   57.0900002      -4.86537546E-11
   57.2550011      -4.61493829E-11
   57.4199982      -4.31309988E-11
   57.5849991      -3.96191517E-11
   57.7500000      -3.56396579E-11
   57.9150009      -3.12234509E-11
   58.0800018      -2.64062574E-11
   58.2449989      -2.12283212E-11
   58.4099998      -1.57339679E-11
   58.5750008      -9.97120702E-12
   58.7400017      -3.99127042E-12
   58.9049988       2.15191016E-12
   59.0699997       8.40220254E-12
   59.2350006       1.47019480E-11
   59.4000015       2.09924196E-11
   59.5649986       2.72145275E-11
   59.7299995       3.33093830E-11
   59.8950005       3.92188469E-11
   60.0600014       4.48860740E-11
   60.2249985       5.02561985E-11
   60.3899994       5.52767103E-11
   60.5550003       5.98982461E-11
   60.7200012       6.40748565E-11
   60.8849983       6.77647383E-11
   61.0499992       7.09307266E-11
   61.2150002       7.35405278E-11
   61.3800011       7.55673857E-11
   61.5449982       7.69898936E-11
   61.7099991       7.77926681E-11
   61.8750000       7.79660433E-11
   62.0400009       7.75064873E-11
   62.2050018       7.64164149E-11
   62.3699989       7.47041665E-11
   62.5349998       7.23840640E-11
   62.7000008       6.94762303E-11
   62.8650017       6.60063809E-11
   63.0299988       6.20057339E-11
   63.1949997       5.75107115E-11
   63.3600006       5.25623087E-11
   63.5250015       4.72061799E-11
   63.6899986       4.14916955E-11
   63.8549995       3.54716603E-11
   64.0199966       2.92015474E-11
   64.1849976       2.27390589E-11
   64.3499985       1.61433523E-11
   64.5149994       9.47462248E-12
   64.6800003       2.79348615E-12
   64.8450012      -3.83967944E-12
   65.0100021      -1.03651410E-11
   65.1750031      -1.67245055E-11
   65.3399963      -2.28613187E-11
   65.5049973      -2.87214627E-11
   65.6699982      -3.42539191E-11
   65.8349991      -3.94112035E-11
   66.0000000      -4.41498296E-11
   66.1650009      -4.84308635E-11
   66.3300018      -5.22201553E-11
   66.4950027      -5.54887906E-11
   66.6600037      -5.82132814E-11
   66.8249969      -6.03757599E-11
   66.9899979      -6.19641213E-11
   67.1549988      -6.29720581E-11
   67.3199997      -6.33991262E-11
   67.4850006      -6.32505923E-11
   67.6500015      -6.25375654E-11
   67.8150024      -6.12766712E-11
   67.9800034      -5.94901836E-11
   68.1449966      -5.72057610E-11
   68.3099976      -5.44558704E-11
   68.4749985      -5.12776731E-11
   68.6399994      -4.77124763E-11
   68.8050003      -4.38052615E-11
   68.9700012      -3.96042921E-11
   69.1350021      -3.51603920E-11
   69.3000031      -3.05266125E-11
   69.4649963      -2.57572904E-11
   69.6299973      -2.09079750E-11
   69.7949982      -1.60343423E-11
   69.9599991      -1.11919493E-11
   70.1250000      -6.43544636E-12
   70.2900009      -1.81799996E-12
   70.4550018       2.60919650E-12
   70.6200027       6.79741506E-12
   70.7850037       1.07012003E-11
   70.9499969       1.42786980E-11
   71.1149979       1.74920686E-11
   71.2799988       2.03082690E-11
   71.4449997       2.26989712E-11
   71.6100006       2.46411676E-11
   71.7750015       2.61172819E-11
   71.9400024       2.71152510E-11
   72.1050034       2.76288211E-11
   72.2699966       2.76574944E-11
   72.4349976       2.72065183E-11
   72.5999985       2.62869344E-11
   72.7649994       2.49153250E-11
   72.9300003       2.31136429E-11
   73.0950012       2.09090575E-11
   73.2600021       1.83335014E-11
   73.4250031       1.54234420E-11
   73.5899963       1.22193349E-11
   73.7549973       8.76525675E-12
   73.9199982       5.10839114E-12
   74.0849991       1.29841038E-12
   74.2500000      -2.61303262E-12
   74.4150009      -6.57294661E-12
   74.5800018      -1.05276820E-11
   74.7450027      -1.44234711E-11
   74.9100037      -1.82071736E-11
   75.0749969      -2.18267834E-11
   75.2399979      -2.52321358E-11
   75.4049988      -2.83754409E-11
   75.5699997      -3.12118699E-11
   75.7350006      -3.37000497E-11
   75.9000015      -3.58026352E-11
   76.0650024      -3.74867186E-11
   76.2300034      -3.87242842E-11
   76.3949966      -3.94925551E-11
   76.5599976      -3.97743123E-11
   76.7249985      -3.95581519E-11
   76.8899994      -3.88386719E-11
   77.0550003      -3.76165800E-11
   77.2200012      -3.58987527E-11
   77.3850021      -3.36981935E-11
   77.5500031      -3.10339358E-11
   77.7149963      -2.79308191E-11
   77.8799973      -2.44192236E-11
   78.0449982      -2.05347458E-11
   78.2099991      -1.63178117E-11
   78.3750000      -1.18133151E-11
   78.5400009      -7.07010579E-12
   78.7050018      -2.14051129E-12
   78.8700027       2.92021485E-12
   79.0350037       8.05451626E-12
   79.1999969       1.32031816E-11
   79.3649979       1.83060043E-11
   79.5299988       2.33024780E-11
   79.6949997       2.81324530E-11
   79.8600006       3.27368931E-11
   80.0250015       3.70585021E-11
   80.1900024       4.10424576E-11
   80.3550034       4.46370302E-11
   80.5199966       4.77941679E-11
   80.6849976       5.04701073E-11
   80.8499985       5.26258655E-11
   81.0149994       5.42277438E-11
   81.1800003       5.52476363E-11
   81.3450012       5.56634877E-11
   81.5100021       5.54595744E-11
   81.6750031       5.46268412E-11
   81.8399963       5.31630261E-11
   82.0049973       5.10727884E-11
   82.1699982       4.83677855E-11
   82.3349991       4.50665338E-11
   82.5000000       4.11943049E-11
   82.6650009       3.67829482E-11
   82.8300018       3.18705236E-11
   82.9950027       2.65010184E-11
   83.1600037       2.07239243E-11
   83.3249969       1.45937273E-11
   83.4899979       8.16949026E-12
   83.6549988       1.51420619E-12
   83.8199997      -5.30577101E-12
   83.9850006      -1.22213992E-11
   84.1500015      -1.91616618E-11
   84.3150024      -2.60542803E-11
   84.4800034      -3.28264638E-11
   84.6449966      -3.94056593E-11
   84.8099976      -4.57202817E-11
   84.9749985      -5.17005466E-11
   85.1399994      -5.72790947E-11
   85.3050003      -6.23918972E-11
   85.4700012      -6.69788183E-11
   85.6350021      -7.09844336E-11
   85.8000031      -7.43583875E-11
   85.9649963      -7.70560629E-11
   86.1299973      -7.90391641E-11
   86.2949982      -8.02759942E-11
   86.4599991      -8.07418993E-11
   86.6250000      -8.04196085E-11
   86.7900009      -7.92994906E-11
   86.9550018      -7.73796929E-11
   87.1200027      -7.46661344E-11
   87.2850037      -7.11725540E-11
   87.4499969      -6.69205039E-11
   87.6149979      -6.19390372E-11
   87.7799988      -5.62647359E-11
   87.9449997      -4.99411623E-11
   88.1100006      -4.30187864E-11
   88.2750015      -3.55542019E-11
   88.4400024      -2.76098571E-11
   88.6050034      -1.92532396E-11
   88.7699966      -1.05562972E-11
   88.9349976      -1.59474474E-12
   89.0999985       7.55263820E-12
   89.2649994       1.68047225E-11
   89.4300003       2.60787902E-11
   89.5950012       3.52913185E-11
   89.7600021       4.43588256E-11
   89.9250031       5.31987406E-11
   90.0899963       6.17300447E-11
   90.2549973       6.98742869E-11
   90.4199982       7.75562045E-11
   90.5849991       8.47044934E-11
   90.7500000       9.12525056E-11
   90.9150009       9.71390191E-11
   91.0800018       1.02308856E-10
   91.2450027       1.06713513E-10
   91.4100037       1.10311357E-10
   91.5749969       1.13068561E-10
   91.7399979       1.14958848E-10
   91.9049988       1.15963968E-10
   92.0699997       1.16073914E-10
   92.2350006       1.15286947E-10
   92.4000015       1.13609851E-10
   92.5650024       1.11057698E-10
   92.7300034       1.07653796E-10
   92.8949966       1.03429550E-10
   93.0599976       9.84241924E-11
   93.2249985       9.26837426E-11
   93.3899994       8.62617061E-11
   93.5550003       7.92173063E-11
   93.7200012       7.16157827E-11
   93.8850021       6.35274888E-11
   94.0500031       5.50267470E-11
   94.2149963       4.61917934E-11
   94.3799973       3.71034280E-11
   94.5449982       2.78444767E-11
   94.7099991       1.84991449E-11
   94.8750000       9.15187804E-12
   95.0400009      -1.13351013E-13
   95.2050018      -9.21375129E-12
   95.3700027      -1.80687826E-11
   95.5350037      -2.66008587E-11
   95.6999969      -3.47361619E-11
   95.8649979      -4.24054507E-11
   96.0299988      -4.95445525E-11
   96.1949997      -5.60951702E-11
   96.3600006      -6.20052898E-11
   96.5250015      -6.72297981E-11
   96.6900024      -7.17308851E-11
   96.8550034      -7.54782833E-11
   97.0199966      -7.84497051E-11
   97.1849976      -8.06308839E-11
   97.3499985      -8.20157622E-11
   97.5149994      -8.26064564E-11
   97.6800003      -8.24132429E-11
   97.8450012      -8.14543225E-11
   98.0100021      -7.97556673E-11
   98.1750031      -7.73505496E-11
   98.3399963      -7.42791384E-11
   98.5049973      -7.05881464E-11
   98.6699982      -6.63301150E-11
   98.8349991      -6.15630116E-11
   99.0000000      -5.63494564E-11
   99.1650009      -5.07561042E-11
   99.3300018      -4.48527361E-11
   99.4950027      -3.87116936E-11
   99.6600037      -3.24068862E-11
   99.8249969      -2.60131066E-11
   99.9899979      -1.96051560E-11
   100.154999      -1.32571168E-11
   100.320000      -7.04114588E-12
   100.485001      -1.02719591E-12
   100.650002       4.71797341E-12
   100.815002       1.01315440E-11
   100.980003       1.51552989E-11
   101.144997       1.97360444E-11
   101.309998       2.38265015E-11
   101.474998       2.73855470E-11
   101.639999       3.03787794E-11
   101.805000       3.27788907E-11
   101.970001       3.45658606E-11
   102.135002       3.57272371E-11
   102.300003       3.62579931E-11
   102.464996       3.61608209E-11
   102.629997       3.54459240E-11
   102.794998       3.41307954E-11
   102.959999       3.22403146E-11
   103.125000       2.98059355E-11
   103.290001       2.68655948E-11
   103.455002       2.34631724E-11
   103.620003       1.96480263E-11
   103.785004       1.54743007E-11
   103.949997       1.10004740E-11
   104.114998       6.28851788E-12
   104.279999       1.40324080E-12
   104.445000      -3.58842340E-12
   104.610001      -8.61836037E-12
   104.775002      -1.36180451E-11
   104.940002      -1.85192764E-11
   105.105003      -2.32550021E-11
   105.269997      -2.77601102E-11
   105.434998      -3.19720396E-11
   105.599998      -3.58317612E-11
   105.764999      -3.92842009E-11
   105.930000      -4.22791455E-11
   106.095001      -4.47716447E-11
   106.260002      -4.67226605E-11
   106.425003      -4.80994931E-11
   106.589996      -4.88761566E-11
   106.754997      -4.90337423E-11
   106.919998      -4.85607110E-11
   107.084999      -4.74530693E-11
   107.250000      -4.57144600E-11
   107.415001      -4.33562040E-11
   107.580002      -4.03971578E-11
   107.745003      -3.68635782E-11
   107.910004      -3.27888550E-11
   108.074997      -2.82131974E-11
   108.239998      -2.31832383E-11
   108.404999      -1.77515520E-11
   108.570000      -1.19761284E-11
   108.735001      -5.91975731E-12
   108.900002       3.50683892E-13
   109.065002       6.76486081E-12
   109.230003       1.32497693E-11
   109.394997       1.97305384E-11
   109.559998       2.61311320E-11
   109.724998       3.23752726E-11
   109.889999       3.83872205E-11
   110.055000       4.40927468E-11
   110.220001       4.94198432E-11
   110.385002       5.42996655E-11
   110.550003       5.86671822E-11
   110.714996       6.24620772E-11
   110.879997       6.56293977E-11
   111.044998       6.81201276E-11
   111.209999       6.98919464E-11
   111.375000       7.09097295E-11
   111.540001       7.11458392E-11
   111.705002       7.05806039E-11
   111.870003       6.92025812E-11
   112.035004       6.70088915E-11
   112.199997       6.40051762E-11
   112.364998       6.02058611E-11
   112.529999       5.56341223E-11
   112.695000       5.03217329E-11
   112.860001       4.43088552E-11
   113.025002       3.76436937E-11
   113.190002       3.03820961E-11
   113.355003       2.25869653E-11
   113.519997       1.43277907E-11
   113.684998       5.67990099E-12
   113.849998      -3.27623735E-12
   114.014999      -1.24557925E-11
   114.180000      -2.17704899E-11
   114.345001      -3.11293838E-11
   114.510002      -4.04397488E-11
   114.675003      -4.96080087E-11
   114.839996      -5.85407070E-11
   115.004997      -6.71453240E-11
   115.169998      -7.53313800E-11
   115.334999      -8.30113547E-11
   115.500000      -9.01016484E-11
   115.665001      -9.65234767E-11
   115.830002      -1.02203801E-10
   115.995003      -1.07076008E-10
   116.160004      -1.11080777E-10
   116.324997      -1.14166426E-10
   116.489998      -1.16289790E-10
   116.654999      -1.17416785E-10
   116.820000      -1.17522603E-10
   116.985001      -1.16592014E-10
   117.150002      -1.14619675E-10
   117.315002      -1.11610374E-10
   117.480003      -1.07578980E-10
   117.644997      -1.02550163E-10
   117.809998      -9.65586361E-11
   117.974998      -8.96485941E-11
   118.139999      -8.18733345E-11
   118.305000      -7.32950575E-11
   118.470001      -6.39839848E-11
   118.635002      -5.40177902E-11
   118.800003      -4.34807988E-11
   118.964996      -3.24634798E-11
   119.129997      -2.10612309E-11
   119.294998      -9.37365463E-12
   119.459999       2.49663246E-12
   119.625000       1.44447128E-11
   119.790001       2.63645720E-11
   119.955002       3.81501358E-11
   120.120003       4.96962298E-11
   120.285004       6.08996395E-11
   120.449997       7.16601570E-11
   120.614998       8.18816195E-11
   120.779999       9.14728016E-11
   120.945000       1.00348431E-10
   121.110001       1.08430015E-10
   121.275002       1.15646458E-10
   121.440002       1.21934851E-10
   121.605003       1.27241273E-10
   121.769997       1.31521113E-10
   121.934998       1.34739622E-10
   122.099998       1.36872347E-10
   122.264999       1.37904813E-10
   122.430000       1.37833106E-10
   122.595001       1.36664124E-10
   122.760002       1.34414688E-10
   122.925003       1.31112177E-10
   123.089996       1.26793701E-10
   123.254997       1.21506000E-10
   123.419998       1.15305016E-10
   123.584999       1.08254954E-10
   123.750000       1.00427597E-10
   123.915001       9.19020623E-11
   124.080002       8.27634697E-11
   124.245003       7.31021979E-11
   124.410004       6.30129976E-11
   124.574997       5.25942519E-11
   124.739998       4.19463318E-11
   124.904999       3.11714023E-11
   125.070000       2.03715482E-11
   125.235001       9.64812865E-12
   125.400002      -8.98939126E-13
   125.565002      -1.11730477E-11
   125.730003      -2.10809790E-11
   125.894997      -3.05342036E-11
   126.059998      -3.94499121E-11
   126.224998      -4.77516152E-11
   126.389999      -5.53698719E-11
   126.555000      -6.22431967E-11
   126.720001      -6.83183787E-11
   126.885002      -7.35510472E-11
   127.050003      -7.79061399E-11
   127.214996      -8.13580661E-11
   127.379997      -8.38911510E-11
   127.544998      -8.54996143E-11
   127.709999      -8.61874738E-11
   127.875000      -8.59685864E-11
   128.039993      -8.48662737E-11
   128.205002      -8.29130861E-11
   128.369995      -8.01503447E-11
   128.535004      -7.66277181E-11
   128.699997      -7.24025354E-11
   128.865005      -6.75391826E-11
   129.029999      -6.21083948E-11
   129.195007      -5.61863091E-11
   129.360001      -4.98536941E-11
   129.524994      -4.31951350E-11
   129.690002      -3.62977530E-11
   129.854996      -2.92505846E-11
   130.020004      -2.21432889E-11
   130.184998      -1.50653517E-11
   130.350006      -8.10490303E-12
   130.514999      -1.34779818E-12
   130.679993       5.12322823E-12
   130.845001       1.12297428E-11
   131.009995       1.68981461E-11
   131.175003       2.20607751E-11
   131.339996       2.66565450E-11
   131.505005       3.06316743E-11
   131.669998       3.39401354E-11
   131.835007       3.65444827E-11
   132.000000       3.84159891E-11
   132.164993       3.95351946E-11
   132.330002       3.98920168E-11
   132.494995       3.94858313E-11
   132.660004       3.83257211E-11
   132.824997       3.64300291E-11
   132.990005       3.38266672E-11
   133.154999       3.05522829E-11
   133.320007       2.66521336E-11
   133.485001       2.21795568E-11
   133.649994       1.71952487E-11
   133.815002       1.17665756E-11
   133.979996       5.96716470E-12
   134.145004      -1.24298588E-13
   134.309998      -6.42486064E-12
   134.475006      -1.28481756E-11
   134.639999      -1.93056612E-11
   134.804993      -2.57074431E-11
   134.970001      -3.19633278E-11
   135.134995      -3.79840361E-11
   135.300003      -4.36819574E-11
   135.464996      -4.89723748E-11
   135.630005      -5.37744536E-11
   135.794998      -5.80122894E-11
   135.960007      -6.16157819E-11
   136.125000      -6.45215409E-11
   136.289993      -6.66737221E-11
   136.455002      -6.80246207E-11
   136.619995      -6.85354065E-11
   136.785004      -6.81767004E-11
   136.949997      -6.69290248E-11
   137.115005      -6.47831025E-11
   137.279999      -6.17399604E-11
   137.445007      -5.78112280E-11
   137.610001      -5.30190059E-11
   137.774994      -4.73957922E-11
   137.940002      -4.09842230E-11
   138.104996      -3.38367633E-11
   138.270004      -2.60151553E-11
   138.434998      -1.75899451E-11
   138.600006      -8.63974777E-12
   138.764999       7.49592662E-13
   138.929993       1.04856332E-11
   139.095001       2.04705992E-11
   139.259995       3.06020487E-11
   139.425003       4.07742416E-11
   139.589996       5.08790926E-11
   139.755005       6.08073800E-11
   139.919998       7.04501041E-11
   140.085007       7.96991778E-11
   140.250000       8.84491647E-11
   140.414993       9.65980351E-11
   140.580002       1.04048187E-10
   140.744995       1.10708123E-10
   140.910004       1.16492968E-10
   141.074997       1.21325644E-10
   141.240005       1.25137845E-10