   0.00000000       0.00000000    
  0.165000007       0.00000000    
  0.330000013       3.83896550E-15
  0.495000005       2.09075192E-14
  0.660000026       6.11625280E-14
  0.824999988       1.30390111E-13
  0.990000010       2.28543801E-13
   1.15499997       3.51912672E-13
   1.32000005       4.97365929E-13
   1.48500001       6.65614970E-13
   1.64999998       8.61163842E-13
   1.81500006       1.08886717E-12
   1.98000002       1.34928581E-12
   2.14499998       1.63583209E-12
   2.30999994       1.93552618E-12
   2.47499990       2.23284889E-12
   2.64000010       2.51422147E-12
   2.80500007       2.77033734E-12
   2.97000003       2.99506058E-12
   3.13499999       3.18187902E-12
   3.29999995       3.32045307E-12
   3.46499991       3.39565854E-12
   3.63000011       3.38983746E-12
   3.79500008       3.28688465E-12
   3.96000004       3.07567253E-12
   4.12500000       2.75083754E-12
   4.28999996       2.31070935E-12
   4.45499992       1.75398552E-12
   4.61999989       1.07744759E-12
   4.78499985       2.76214706E-13
   4.94999981      -6.53675681E-13
   5.11499977      -1.71204793E-12
   5.28000021      -2.89273206E-12
   5.44500017      -4.18409881E-12
   5.61000013      -5.57145389E-12
   5.77500010      -7.03963970E-12
   5.94000006      -8.57420124E-12
   6.10500002      -1.01605391E-11
   6.26999998      -1.17818134E-11
   6.43499994      -1.34171545E-11
   6.59999990      -1.50414577E-11
   6.76499987      -1.66269984E-11
   6.92999983      -1.81459622E-11
   7.09499979      -1.95725103E-11
   7.26000023      -2.08834113E-11
   7.42500019      -2.20572362E-11
   7.59000015      -2.30730539E-11
   7.75500011      -2.39097474E-11
   7.92000008      -2.45466095E-11
   8.08500004      -2.49650387E-11
   8.25000000      -2.51504009E-11
   8.41499996      -2.50931585E-11
   8.57999992      -2.47888463E-11
   8.74499989      -2.42372060E-11
   8.90999985      -2.34413027E-11
   9.07499981      -2.24073156E-11
   9.23999977      -2.11452435E-11
   9.40499973      -1.96700503E-11
   9.56999969      -1.80025335E-11
   9.73499966      -1.61693419E-11
   9.89999962      -1.42020883E-11
   10.0649996      -1.21360613E-11
   10.2299995      -1.00091749E-11
   10.3950005      -7.86163409E-12
   10.5600004      -5.73620752E-12
   10.7250004      -3.67862641E-12
   10.8900003      -1.73745642E-12
   11.0550003       3.68410475E-14
   11.2200003       1.59349042E-12
   11.3850002       2.88303279E-12
   11.5500002       3.85842703E-12
   11.7150002       4.47539358E-12
   11.8800001       4.69228215E-12
   12.0450001       4.47005844E-12
   12.2100000       3.77293682E-12
   12.3750000       2.56974260E-12
   12.5400000       8.35592934E-13
   12.7049999      -1.44679765E-12
   12.8699999      -4.28669210E-12
   13.0349998      -7.68576869E-12
   13.1999998      -1.16388886E-11
   13.3649998      -1.61344722E-11
   13.5299997      -2.11540594E-11
   13.6949997      -2.66712138E-11
   13.8599997      -3.26504761E-11
   14.0249996      -3.90471266E-11
   14.1899996      -4.58081108E-11
   14.3549995      -5.28737852E-11
   14.5200005      -6.01796876E-11
   14.6850004      -6.76574768E-11
   14.8500004      -7.52348392E-11
   15.0150003      -8.28349056E-11
   15.1800003      -9.03760400E-11
   15.3450003      -9.77728523E-11
   15.5100002      -1.04938495E-10
   15.6750002      -1.11787475E-10
   15.8400002      -1.18237919E-10
   16.0049992      -1.24212557E-10
   16.1700001      -1.29638439E-10
   16.3349991      -1.34446329E-10
   16.5000000      -1.38570891E-10
   16.6650009      -1.41952478E-10
   16.8299999      -1.44539797E-10
   16.9950008      -1.46292825E-10
   17.1599998      -1.47184376E-10
   17.3250008      -1.47200002E-10
   17.4899998      -1.46336637E-10
   17.6550007      -1.44601206E-10
   17.8199997      -1.42010612E-10
   17.9850006      -1.38593192E-10
   18.1499996      -1.34390984E-10
   18.3150005      -1.29461400E-10
   18.4799995      -1.23877103E-10
   18.6450005      -1.17723928E-10
   18.8099995      -1.11097874E-10
   18.9750004      -1.04102636E-10
   19.1399994      -9.68488484E-11
   19.3050003      -8.94548463E-11
   19.4699993      -8.20478616E-11
   19.6350002      -7.47639659E-11
   19.7999992      -6.77459269E-11
   19.9650002      -6.11391632E-11
   20.1299992      -5.50874658E-11
   20.2950001      -4.97299008E-11
   20.4599991      -4.51998855E-11
   20.6250000      -4.16257410E-11
   20.7900009      -3.91311844E-11
   20.9549999      -3.78341698E-11
   21.1200008      -3.78435373E-11
   21.2849998      -3.92543532E-11
   21.4500008      -4.21437746E-11
   21.6149998      -4.65689501E-11
   21.7800007      -5.25673220E-11
   21.9449997      -6.01582117E-11
   22.1100006      -6.93438154E-11
   22.2749996      -8.01082117E-11
   22.4400005      -9.24144442E-11
   22.6049995      -1.06200944E-10
   22.7700005      -1.21379407E-10
   22.9349995      -1.37835146E-10
   23.1000004      -1.55429905E-10
   23.2649994      -1.74005338E-10
   23.4300003      -1.93385266E-10
   23.5949993      -2.13375748E-10
   23.7600002      -2.33763675E-10
   23.9249992      -2.54315402E-10
   24.0900002      -2.74777645E-10
   24.2549992      -2.94880870E-10
   24.4200001      -3.14344772E-10
   24.5849991      -3.32883471E-10
   24.7500000      -3.50208862E-10
   24.9150009      -3.66031844E-10
   25.0799999      -3.80062287E-10
   25.2450008      -3.92010063E-10
   25.4099998      -4.01588013E-10
   25.5750008      -4.08517747E-10
   25.7399998      -4.12535756E-10
   25.9050007      -4.13398787E-10
   26.0699997      -4.10886630E-10
   26.2350006      -4.04802775E-10
   26.3999996      -3.94974609E-10
   26.5650005      -3.81254639E-10
   26.7299995      -3.63523905E-10
   26.8950005      -3.41696976E-10
   27.0599995      -3.15726473E-10
   27.2250004      -2.85605789E-10
   27.3899994      -2.51369175E-10
   27.5550003      -2.13090212E-10
   27.7199993      -1.70880241E-10
   27.8850002      -1.24888030E-10
   28.0499992      -7.53012028E-11
   28.2150002      -2.23481633E-11
   28.3799992       3.37011426E-11
   28.5450001       9.25366520E-11
   28.7099991       1.53811797E-10
   28.8750000       2.17148119E-10
   29.0400009       2.82139312E-10
   29.2049999       3.48353790E-10
   29.3700008       4.15336432E-10
   29.5349998       4.82610063E-10
   29.7000008       5.49678913E-10
   29.8649998       6.16033113E-10
   30.0300007       6.81155465E-10
   30.1949997       7.44527273E-10
   30.3600006       8.05633782E-10
   30.5249996       8.63968064E-10
   30.6900005       9.19034238E-10
   30.8549995       9.70350911E-10
   31.0200005       1.01745590E-09
   31.1849995       1.05991216E-09
   31.3500004       1.09731335E-09
   31.5149994       1.12928944E-09
   31.6800003       1.15551024E-09
   31.8449993       1.17568744E-09
   32.0099983       1.18957733E-09
   32.1749992       1.19698318E-09
   32.3400002       1.19775756E-09
   32.5050011       1.19180599E-09
   32.6699982       1.17908927E-09
   32.8349991       1.15962462E-09
   33.0000000       1.13348453E-09
   33.1650009       1.10079723E-09
   33.3300018       1.06174425E-09
   33.4949989       1.01655995E-09
   33.6599998       9.65530655E-10
   33.8250008       9.08992770E-10
   33.9900017       8.47331039E-10
   34.1549988       7.80974341E-10
   34.3199997       7.10391523E-10
   34.4850006       6.36086850E-10
   34.6500015       5.58595226E-10
   34.8149986       4.78478313E-10
   34.9799995       3.96319921E-10
   35.1450005       3.12721515E-10
   35.3100014       2.28296312E-10
   35.4749985       1.43663095E-10
   35.6399994       5.94396338E-11
   35.8050003      -2.37632101E-11
   35.9700012      -1.05346759E-10
   36.1349983      -1.84729218E-10
   36.2999992      -2.61350386E-10
   36.4650002      -3.34676731E-10
   36.6300011      -4.04206890E-10
   36.7949982      -4.69477179E-10
   36.9599991      -5.30066269E-10
   37.1250000      -5.85599125E-10
   37.2900009      -6.35749231E-10
   37.4550018      -6.80240697E-10
   37.6199989      -7.18850035E-10
   37.7849998      -7.51407880E-10
   37.9500008      -7.77801268E-10
   38.1150017      -7.97975186E-10
   38.2799988      -8.11933021E-10
   38.4449997      -8.19735613E-10
   38.6100006      -8.21499369E-10
   38.7750015      -8.17393209E-10
   38.9399986      -8.07636180E-10
   39.1049995      -7.92495014E-10
   39.2700005      -7.72281850E-10
   39.4350014      -7.47351847E-10
   39.5999985      -7.18099136E-10
   39.7649994      -6.84951595E-10
   39.9300003      -6.48365084E-10
   40.0950012      -6.08816775E-10
   40.2599983      -5.66800051E-10
   40.4249992      -5.22819565E-10
   40.5900002      -4.77386852E-10
   40.7550011      -4.31015973E-10
   40.9199982      -3.84218102E-10
   41.0849991      -3.37495060E-10
   41.2500000      -2.91332625E-10
   41.4150009      -2.46194287E-10
   41.5800018      -2.02516254E-10
   41.7449989      -1.60703964E-10
   41.9099998      -1.21129565E-10
   42.0750008      -8.41291967E-11
   42.2400017      -4.99998098E-11
   42.4049988      -1.89950243E-11
   42.5699997       8.67865502E-12
   42.7350006       3.28646346E-11
   42.9000015       5.34570860E-11
   43.0649986       7.03999775E-11
   43.2299995       8.36852254E-11
   43.3950005       9.33509658E-11
   43.5600014       9.94807986E-11
   43.7249985       1.02203607E-10
   43.8899994       1.01692980E-10
   44.0550003       9.81652537E-11
   44.2200012       9.18753407E-11
   44.3849983       8.31111152E-11
   44.5499992       7.21872978E-11
   44.7150002       5.94403068E-11
   44.8800011       4.52243555E-11
   45.0449982       2.99083709E-11
   45.2099991       1.38724822E-11
   45.3750000      -2.49700911E-12
   45.5400009      -1.88142939E-11
   45.7050018      -3.47015784E-11
   45.8699989      -4.97959729E-11
   46.0349998      -6.37546543E-11
   46.2000008      -7.62582220E-11
   46.3650017      -8.70131467E-11
   46.5299988      -9.57546334E-11
   46.6949997      -1.02250722E-10
   46.8600006      -1.06307539E-10
   47.0250015      -1.07774213E-10
   47.1899986      -1.06546390E-10
   47.3549995      -1.02567350E-10
   47.5200005      -9.58273183E-11
   47.6850014      -8.63621050E-11
   47.8499985      -7.42523473E-11
   48.0149994      -5.96238406E-11
   48.1800003      -4.26482946E-11
   48.3450012      -2.35432420E-11
   48.5099983      -2.56993190E-12
   48.6749992       1.99709103E-11
   48.8400002       4.37446711E-11
   49.0050011       6.83883505E-11
   49.1699982       9.35150637E-11
   49.3349991       1.18717480E-10
   49.5000000       1.43571141E-10
   49.6650009       1.67638833E-10
   49.8300018       1.90477634E-10
   49.9949989       2.11646534E-10
   50.1599998       2.30712741E-10
   50.3250008       2.47257020E-10
   50.4900017       2.60878513E-10
   50.6549988       2.71199535E-10
   50.8199997       2.77870643E-10
   50.9850006       2.80576284E-10
   51.1500015       2.79040485E-10
   51.3149986       2.73031930E-10
   51.4799995       2.62367961E-10
   51.6450005       2.46917486E-10
   51.8100014       2.26603347E-10
   51.9749985       2.01404310E-10
   52.1399994       1.71357373E-10
   52.3050003       1.36559694E-10
   52.4700012       9.71699179E-11
   52.6349983       5.34083125E-11
   52.7999992       5.55556816E-12
   52.9650002      -4.60493137E-11
   53.1300011      -1.01011664E-10
   53.2949982      -1.58883864E-10
   53.4599991      -2.19168170E-10
   53.6250000      -2.81320078E-10
   53.7900009      -3.44752615E-10
   53.9550018      -4.08841516E-10
   54.1199989      -4.72931805E-10
   54.2849998      -5.36344302E-10
   54.4500008      -5.98382399E-10
   54.6150017      -6.58338550E-10
   54.7799988      -7.15500548E-10
   54.9449997      -7.69158459E-10
   55.1100006      -8.18611512E-10
   55.2750015      -8.63176031E-10
   55.4399986      -9.02193265E-10
   55.6049995      -9.35037270E-10
   55.7700005      -9.61121738E-10
   55.9350014      -9.79905934E-10
   56.0999985      -9.90901250E-10
   56.2649994      -9.93676363E-10
   56.4300003      -9.87863569E-10
   56.5950012      -9.73163661E-10
   56.7599983      -9.49351153E-10
   56.9249992      -9.16278164E-10
   57.0900002      -8.73877359E-10
   57.2550011      -8.22163670E-10
   57.4199982      -7.61235741E-10
   57.5849991      -6.91276314E-10
   57.7500000      -6.12552620E-10
   57.9150009      -5.25415822E-10
   58.0800018      -4.30300046E-10
   58.2449989      -3.27719574E-10
   58.4099998      -2.18265517E-10
   58.5750008      -1.02601316E-10
   58.7400017       1.85424089E-11
   58.9049988       1.44373430E-10
   59.0699997       2.74043704E-10
   59.2350006       4.06655792E-10
   59.4000015       5.41269751E-10
   59.5649986       6.76911249E-10
   59.7299995       8.12579615E-10
   59.8950005       9.47257273E-10
   60.0600014       1.07991838E-09
   60.2249985       1.20953780E-09
   60.3899994       1.33509970E-09
   60.5550003       1.45560619E-09
   60.7200012       1.57008628E-09
   60.8849983       1.67760450E-09
   61.0499992       1.77726955E-09
   61.2150002       1.86824356E-09
   61.3800011       1.94974925E-09
   61.5449982       2.02107753E-09
   61.7099991       2.08159334E-09
   61.8750000       2.13074114E-09
   62.0400009       2.16805063E-09
   62.2050018       2.19314056E-09
   62.3699989       2.20572383E-09
   62.5349998       2.20560969E-09
   62.7000008       2.19270668E-09
   62.8650017       2.16702323E-09
   63.0299988       2.12866680E-09
   63.1949997       2.07784301E-09
   63.3600006       2.01485428E-09
   63.5250015       1.94009675E-09
   63.6899986       1.85405824E-09
   63.8549995       1.75731407E-09
   64.0199966       1.65052139E-09
   64.1849976       1.53441382E-09
   64.3499985       1.40979350E-09
   64.5149994       1.27752431E-09
   64.6800003       1.13852372E-09
   64.8450012       9.93755522E-10
   65.0100021       8.44221637E-10
   65.1750031       6.90953461E-10
   65.3399963       5.35002820E-10
   65.5049973       3.77432002E-10
   65.6699982       2.19303700E-10
   65.8349991       6.16716261E-11
   66.0000000      -9.44283055E-11
   66.1650009      -2.47986159E-10
   66.3300018      -3.98025946E-10
   66.4950027      -5.43613488E-10
   66.6600037      -6.83864576E-10
   66.8249969      -8.17952650E-10
   66.9899979      -9.45115874E-10
   67.1549988      -1.06466291E-09
   67.3199997      -1.17597820E-09
   67.4850006      -1.27852473E-09
   67.6500015      -1.37184741E-09
   67.8150024      -1.45557577E-09
   67.9800034      -1.52942614E-09
   68.1449966      -1.59320290E-09
   68.3099976      -1.64679947E-09
   68.4749985      -1.69019720E-09
   68.6399994      -1.72346359E-09
   68.8050003      -1.74674819E-09
   68.9700012      -1.76027992E-09
   69.1350021      -1.76436232E-09
   69.3000031      -1.75936943E-09
   69.4649963      -1.74574177E-09
   69.6299973      -1.72398018E-09
   69.7949982      -1.69463965E-09
   69.9599991      -1.65832170E-09
   70.1250000      -1.61566582E-09
   70.2900009      -1.56734292E-09
   70.4550018      -1.51404655E-09
   70.6200027      -1.45648660E-09
   70.7850037      -1.39538159E-09
   70.9499969      -1.33145184E-09
   71.1149979      -1.26541089E-09
   71.2799988      -1.19795796E-09
   71.4449997      -1.12977006E-09
   71.6100006      -1.06149556E-09
   71.7750015      -9.93747751E-10
   71.9400024      -9.27100563E-10
   72.1050034      -8.62083127E-10
   72.2699966      -7.99175948E-10
   72.4349976      -7.38806349E-10
   72.5999985      -6.81344814E-10
   72.7649994      -6.27101926E-10
   72.9300003      -5.76326986E-10
   73.0950012      -5.29207234E-10
   73.2600021      -4.85868401E-10
   73.4250031      -4.46375353E-10
   73.5899963      -4.10733170E-10
   73.7549973      -3.78888754E-10
   73.9199982      -3.50733054E-10
   74.0849991      -3.26104366E-10
   74.2500000      -3.04792247E-10
   74.4150009      -2.86542429E-10
   74.5800018      -2.71062006E-10
   74.7450027      -2.58024685E-10
   74.9100037      -2.47076498E-10
   75.0749969      -2.37841219E-10
   75.2399979      -2.29926758E-10
   75.4049988      -2.22931423E-10
   75.5699997      -2.16450649E-10
   75.7350006      -2.10083451E-10
   75.9000015      -2.03438794E-10
   76.0650024      -1.96141534E-10
   76.2300034      -1.87838092E-10
   76.3949966      -1.78202092E-10
   76.5599976      -1.66939546E-10
   76.7249985      -1.53793853E-10
   76.8899994      -1.38550046E-10
   77.0550003      -1.21038540E-10
   77.2200012      -1.01137862E-10
   77.3850021      -7.87770266E-11
   77.5500031      -5.39372852E-11
   77.7149963      -2.66534728E-11
   77.8799973       2.98546647E-12
   78.0449982       3.48366579E-11
   78.2099991       6.87044796E-11
   78.3750000       1.04342542E-10
   78.5400009       1.41456472E-10
   78.7050018       1.79707069E-10
   78.8700027       2.18713880E-10
   79.0350037       2.58059268E-10
   79.1999969       2.97293107E-10
   79.3649979       3.35938249E-10
   79.5299988       3.73496539E-10
   79.6949997       4.09455608E-10
   79.8600006       4.43295345E-10
   80.0250015       4.74494777E-10
   80.1900024       5.02538566E-10
   80.3550034       5.26923782E-10
   80.5199966       5.47166756E-10
   80.6849976       5.62810187E-10
   80.8499985       5.73430026E-10
   81.0149994       5.78642190E-10
   81.1800003       5.78109005E-10
   81.3450012       5.71544478E-10
   81.5100021       5.58719571E-10
   81.6750031       5.39466527E-10
   81.8399963       5.13683207E-10
   82.0049973       4.81336471E-10
   82.1699982       4.42465176E-10
   82.3349991       3.97182315E-10
   82.5000000       3.45676154E-10
   82.6650009       2.88210456E-10
   82.8300018       2.25123836E-10
   82.9950027       1.56828592E-10
   83.1600037       8.38083075E-11
   83.3249969       6.61501279E-12
   83.4899979      -7.41347261E-11
   83.6549988      -1.57764357E-10
   83.8199997      -2.43542686E-10
   83.9850006      -3.30689781E-10
   84.1500015      -4.18383772E-10
   84.3150024      -5.05768039E-10
   84.4800034      -5.91959093E-10
   84.6449966      -6.76054934E-10
   84.8099976      -7.57143792E-10
   84.9749985      -8.34313063E-10
   85.1399994      -9.06657860E-10
   85.3050003      -9.73290337E-10
   85.4700012      -1.03334807E-09
   85.6350021      -1.08600406E-09
   85.8000031      -1.13047471E-09
   85.9649963      -1.16602983E-09
   86.1299973      -1.19199983E-09
   86.2949982      -1.20778421E-09
   86.4599991      -1.21285770E-09
   86.6250000      -1.20677668E-09
   86.7900009      -1.18918464E-09
   86.9550018      -1.15981758E-09
   87.1200027      -1.11850895E-09
   87.2850037      -1.06519293E-09
   87.4499969      -9.99906935E-10
   87.6149979      -9.22792676E-10
   87.7799988      -8.34096237E-10
   87.9449997      -7.34166672E-10
   88.1100006      -6.23455121E-10
   88.2750015      -5.02512143E-10
   88.4400024      -3.71984998E-10
   88.6050034      -2.32613442E-10
   88.7699966      -8.52241056E-11
   88.9349976       6.92761473E-11
   89.0999985       2.29907912E-10
   89.2649994       3.95627253E-10
   89.4300003       5.65333946E-10
   89.5950012       7.37879646E-10
   89.7600021       9.12077081E-10
   89.9250031       1.08670983E-09
   90.0899963       1.26054267E-09
   90.2549973       1.43233336E-09
   90.4199982       1.60084324E-09
   90.5849991       1.76484771E-09
   90.7500000       1.92314653E-09
   90.9150009       2.07457362E-09
   91.0800018       2.21800578E-09
   91.2450027       2.35237363E-09
   91.4100037       2.47667131E-09
   91.5749969       2.58996491E-09
   91.7399979       2.69140155E-09
   91.9049988       2.78021584E-09
   92.0699997       2.85573498E-09
   92.2350006       2.91738500E-09
   92.4000015       2.96469493E-09
   92.5650024       2.99730041E-09
   92.7300034       3.01494762E-09
   92.8949966       3.01749603E-09
   93.0599976       3.00491831E-09
   93.2249985       2.97729907E-09
   93.3899994       2.93483327E-09
   93.5550003       2.87782376E-09
   93.7200012       2.80667867E-09
   93.8850021       2.72190692E-09
   94.0500031       2.62411493E-09
   94.2149963       2.51400012E-09
   94.3799973       2.39234321E-09
   94.5449982       2.26000130E-09
   94.7099991       2.11789786E-09
   94.8750000       1.96701633E-09
   95.0400009       1.80838944E-09
   95.2050018       1.64309233E-09
   95.3700027       1.47223200E-09
   95.5350037       1.29693800E-09
   95.6999969       1.11835130E-09
   95.8649979       9.37614320E-10
   96.0299988       7.55860707E-10
   96.1949997       5.74206294E-10
   96.3600006       3.93740457E-10
   96.5250015       2.15517798E-10
   96.6900024       4.05498100E-11
   96.8550034      -1.30203279E-10
   97.0199966      -2.95840380E-10
   97.1849976      -4.55526450E-10
   97.3499985      -6.08498141E-10
   97.5149994      -7.54068308E-10
   97.6800003      -8.91629548E-10
   97.8450012      -1.02065745E-09
   98.0100021      -1.14071275E-09
   98.1750031      -1.25144295E-09
   98.3399963      -1.35258438E-09
   98.5049973      -1.44396117E-09
   98.6699982      -1.52548418E-09
   98.8349991      -1.59714852E-09
   99.0000000      -1.65903025E-09
   99.1650009      -1.71128256E-09
   99.3300018      -1.75413140E-09
   99.4950027      -1.78787074E-09
   99.6600037      -1.81285764E-09
   99.8249969      -1.82950533E-09
   99.9899979      -1.83827709E-09
   100.154999      -1.83967830E-09
   100.320000      -1.83424897E-09
   100.485001      -1.82255622E-09
   100.650002      -1.80518622E-09
   100.815002      -1.78273718E-09
   100.980003      -1.75581161E-09
   101.144997      -1.72500847E-09
   101.309998      -1.69091674E-09
   101.474998      -1.65410741E-09
   101.639999      -1.61512692E-09
   101.805000      -1.57449076E-09
   101.970001      -1.53267810E-09
   102.135002      -1.49012680E-09
   102.300003      -1.44722923E-09
   102.464996      -1.40432932E-09
   102.629997      -1.36171863E-09
   102.794998      -1.31963507E-09
   102.959999      -1.27826050E-09
   103.125000      -1.23772037E-09
   103.290001      -1.19808419E-09
   103.455002      -1.15936694E-09
   103.620003      -1.12153065E-09
   103.785004      -1.08448772E-09
   103.949997      -1.04810394E-09
   104.114998      -1.01220232E-09
   104.279999      -9.76567938E-10
   104.445000      -9.40952427E-10
   104.610001      -9.05080177E-10
   104.775002      -8.68654870E-10
   104.940002      -8.31365976E-10
   105.105003      -7.92895694E-10
   105.269997      -7.52925555E-10
   105.434998      -7.11143811E-10
   105.599998      -6.67251587E-10
   105.764999      -6.20970220E-10
   105.930000      -5.72047798E-10
   106.095001      -5.20265941E-10
   106.260002      -4.65445849E-10
   106.425003      -4.07453987E-10
   106.589996      -3.46206785E-10
   106.754997      -2.81674795E-10
   106.919998      -2.13886631E-10
   107.084999      -1.42931764E-10
   107.250000      -6.89632518E-11
   107.415001       7.80085632E-12
   107.580002       8.70770192E-11
   107.745003       1.68516742E-10
   107.910004       2.51708127E-10
   108.074997       3.36178002E-10
   108.239998       4.21394725E-10
   108.404999       5.06771958E-10
   108.570000       5.91672933E-10
   108.735001       6.75416001E-10
   108.900002       7.57281127E-10
   109.065002       8.36517300E-10
   109.230003       9.12349973E-10
   109.394997       9.83988890E-10
   109.559998       1.05063624E-09
   109.724998       1.11149490E-09
   109.889999       1.16577770E-09
   110.055000       1.21271659E-09
   110.220001       1.25157285E-09
   110.385002       1.28164612E-09
   110.550003       1.30228417E-09
   110.714996       1.31289080E-09
   110.879997       1.31293298E-09
   111.044998       1.30194999E-09
   111.209999       1.27955957E-09
   111.375000       1.24546606E-09
   111.540001       1.19946675E-09
   111.705002       1.14145782E-09
   111.870003       1.07143783E-09
   112.035004       9.89510696E-10
   112.199997       8.95887364E-10
   112.364998       7.90886967E-10
   112.529999       6.74937550E-10
   112.695000       5.48576184E-10
   112.860001       4.12448242E-10
   113.025002       2.67303790E-10
   113.190002       1.13993558E-10
   113.355003      -4.65374302E-11
   113.519997      -2.13256482E-10
   113.684998      -3.85050242E-10
   113.849998      -5.60731794E-10
   114.014999      -7.39048267E-10
   114.180000      -9.18690235E-10
   114.345001      -1.09830178E-09
   114.510002      -1.27649291E-09
   114.675003      -1.45185142E-09
   114.839996      -1.62295566E-09
   115.004997      -1.78838544E-09
   115.169998      -1.94673366E-09
   115.334999      -2.09661710E-09
   115.500000      -2.23668950E-09
   115.665001      -2.36565323E-09
   115.830002      -2.48227283E-09
   115.995003      -2.58538702E-09
   116.160004      -2.67391953E-09
   116.324997      -2.74688827E-09
   116.489998      -2.80341461E-09
   116.654999      -2.84273050E-09
   116.820000      -2.86418689E-09
   116.985001      -2.86726287E-09
   117.150002      -2.85157031E-09
   117.315002      -2.81686052E-09
   117.480003      -2.76302692E-09
   117.644997      -2.69010703E-09
   117.809998      -2.59828181E-09
   117.974998      -2.48787568E-09
   118.139999      -2.35935627E-09
   118.305000      -2.21333218E-09
   118.470001      -2.05055062E-09
   118.635002      -1.87189197E-09
   118.800003      -1.67836234E-09
   118.964996      -1.47108647E-09
   119.129997      -1.25129818E-09
   119.294998      -1.02033104E-09
   119.459999      -7.79609710E-10
   119.625000      -5.30638922E-10
   119.790001      -2.74992779E-10
   119.955002      -1.43013561E-11
   120.120003       2.49762683E-10
   120.285004       5.15498089E-10
   120.449997       7.81188614E-10
   120.614998       1.04511610E-09
   120.779999       1.30557321E-09
   120.945000       1.56087687E-09
   121.110001       1.80938076E-09
   121.275002       2.04948991E-09
   121.440002       2.27967378E-09
   121.605003       2.49847809E-09
   121.769997       2.70453637E-09
   121.934998       2.89657809E-09
   122.099998       3.07344039E-09
   122.264999       3.23407368E-09
   122.430000       3.37755091E-09
   122.595001       3.50307472E-09
   122.760002       3.60998276E-09
   122.925003       3.69775166E-09
   123.089996       3.76599996E-09
   123.254997       3.81448695E-09
   123.419998       3.84311516E-09
   123.584999       3.85192722E-09
   123.750000       3.84110566E-09
   123.915001       3.81096976E-09
   124.080002       3.76197029E-09
   124.245003       3.69468456E-09
   124.410004       3.60980756E-09
   124.574997       3.50814511E-09
   124.739998       3.39060446E-09
   124.904999       3.25818461E-09
   125.070000       3.11196691E-09
   125.235001       2.95310643E-09
   125.400002       2.78281820E-09
   125.565002       2.60236832E-09
   125.730003       2.41305820E-09
   125.894997       2.21621432E-09
   126.059998       2.01317540E-09
   126.224998       1.80528226E-09
   126.389999       1.59386604E-09
   126.555000       1.38023848E-09
   126.720001       1.16568044E-09
   126.885002       9.51431378E-10
   127.050003       7.38679118E-10
   127.214996       5.28551425E-10
   127.379997       3.22108368E-10
   127.544998       1.20336241E-10
   127.709999      -7.58575355E-11
   127.875000      -2.65649225E-10
   128.039993      -4.48302923E-10
   128.205002      -6.23174123E-10
   128.369995      -7.89711907E-10
   128.535004      -9.47459555E-10
   128.699997      -1.09605358E-09
   128.865005      -1.23522181E-09
   129.029999      -1.36478018E-09
   129.195007      -1.48462975E-09
   129.360001      -1.59475277E-09
   129.524994      -1.69520786E-09
   129.690002      -1.78612536E-09
   129.854996      -1.86770044E-09
   130.020004      -1.94018601E-09
   130.184998      -2.00388417E-09
   130.350006      -2.05913842E-09
   130.514999      -2.10632556E-09
   130.679993      -2.14584883E-09
   130.845001      -2.17812990E-09
   131.009995      -2.20360064E-09
   131.175003      -2.22269581E-09
   131.339996      -2.23584529E-09
   131.505005      -2.24346475E-09
   131.669998      -2.24594987E-09
   131.835007      -2.24367014E-09
   132.000000      -2.23696373E-09
   132.164993      -2.22613350E-09
   132.330002      -2.21144281E-09
   132.494995      -2.19311147E-09
   132.660004      -2.17131291E-09
   132.824997      -2.14617235E-09
   132.990005      -2.11776485E-09
   133.154999      -2.08611706E-09
   133.320007      -2.05120854E-09
   133.485001      -2.01297312E-09
   133.649994      -1.97130290E-09
   133.815002      -1.92605043E-09
   133.979996      -1.87703186E-09
   134.145004      -1.82403159E-09
   134.309998      -1.76680859E-09
   134.475006      -1.70510250E-09
   134.639999      -1.63864122E-09
   134.804993      -1.56714841E-09
   134.970001      -1.49034962E-09
   135.134995      -1.40797918E-09
   135.300003      -1.31978739E-09
   135.464996      -1.22554811E-09
   135.630005      -1.12506626E-09
   135.794998      -1.01818654E-09
   135.960007      -9.04800568E-10
   136.125000      -7.84853738E-10
   136.289993      -6.58350541E-10
   136.455002      -5.25359423E-10
   136.619995      -3.86017412E-10
   136.785004      -2.40534342E-10
   136.949997      -8.91974203E-11
   137.115005       6.76252804E-11
   137.279999       2.29482794E-10
   137.445007       3.95840888E-10
   137.610001       5.66083236E-10
   137.774994       7.39513450E-10
   137.940002       9.15357512E-10
   138.104996       1.09276610E-09
   138.270004       1.27081812E-09
   138.434998       1.44852486E-09
   138.600006       1.62483615E-09
   138.764999       1.79864867E-09
   138.929993       1.96881467E-09
   139.095001       2.13415130E-09
   139.259995       2.29345010E-09
   139.425003       2.44548626E-09
   139.589996       2.58902788E-09
   139.755005       2.72284595E-09
   139.919998       2.84572788E-09
   140.085007       2.95648905E-09
   140.250000       3.05398662E-09
   140.414993       3.13713100E-09
   140.580002       3.20489635E-09
   140.744995       3.25633276E-09
   140.910004       3.29057492E-09
   141.074997       3.30685324E-09
   141.240005       3.30450467E-09