  -30.00000        9.8404830E-18
  -29.85750        9.8575444E-18
  -29.71500        9.8833773E-18
  -29.57250        9.9064540E-18
  -29.43000        9.9186673E-18
  -29.28750        9.9198593E-18
  -29.14500        9.9175299E-18
  -29.00250        9.9219380E-18
  -28.86000        9.9395933E-18
  -28.71750        9.9690583E-18
  -28.57500        1.0001610E-17
  -28.43250        1.0026345E-17
  -28.29000        1.0036668E-17
  -28.14750        1.0034238E-17
  -28.00500        1.0027999E-17
  -27.86250        1.0028878E-17
  -27.72000        1.0043319E-17
  -27.57750        1.0069542E-17
  -27.43500        1.0098720E-17
  -27.29250        1.0120369E-17
  -27.15000        1.0128663E-17
  -27.00750        1.0125884E-17
  -26.86500        1.0120963E-17
  -26.72250        1.0124006E-17
  -26.58000        1.0140147E-17
  -26.43750        1.0166457E-17
  -26.29500        1.0193726E-17
  -26.15250        1.0212079E-17
  -26.01000        1.0216954E-17
  -25.86750        1.0211875E-17
  -25.72500        1.0206311E-17
  -25.58250        1.0209947E-17
  -25.44000        1.0226830E-17
  -25.29750        1.0252929E-17
  -25.15500        1.0278592E-17
  -25.01250        1.0294377E-17
  -24.87000        1.0296765E-17
  -24.72750        1.0290250E-17
  -24.58500        1.0284599E-17
  -24.44250        1.0288914E-17
  -24.30000        1.0306134E-17
  -24.15750        1.0331285E-17
  -24.01500        1.0354554E-17
  -23.87250        1.0367304E-17
  -23.73000        1.0367373E-17
  -23.58750        1.0360438E-17
  -23.44500        1.0356578E-17
  -23.30250        1.0364140E-17
  -23.16000        1.0384597E-17
  -23.01750        1.0411554E-17
  -22.87500        1.0434516E-17
  -22.73250        1.0445155E-17
  -22.59000        1.0442313E-17
  -22.44750        1.0432705E-17
  -22.30500        1.0426874E-17
  -22.16250        1.0432848E-17
  -22.02000        1.0451317E-17
  -21.87750        1.0475247E-17
  -21.73500        1.0494176E-17
  -21.59250        1.0500590E-17
  -21.45000        1.0494531E-17
  -21.30750        1.0483623E-17
  -21.16500        1.0478477E-17
  -21.02250        1.0486236E-17
  -20.88000        1.0506168E-17
  -20.73750        1.0529960E-17
  -20.59500        1.0546609E-17
  -20.45250        1.0548973E-17
  -20.31000        1.0538058E-17
  -20.16750        1.0522479E-17
  -20.02500        1.0513383E-17
  -19.88250        1.0517893E-17
  -19.74000        1.0534990E-17
  -19.59750        1.0556289E-17
  -19.45500        1.0571224E-17
  -19.31250        1.0573531E-17
  -19.17000        1.0565078E-17
  -19.02750        1.0554758E-17
  -18.88500        1.0553083E-17
  -18.74250        1.0565746E-17
  -18.60000        1.0590013E-17
  -18.45750        1.0616139E-17
  -18.31500        1.0632983E-17
  -18.17250        1.0634470E-17
  -18.03000        1.0623046E-17
  -17.88750        1.0608091E-17
  -17.74500        1.0600254E-17
  -17.60250        1.0605138E-17
  -17.46000        1.0620104E-17
  -17.31750        1.0636099E-17
  -17.17500        1.0643356E-17
  -17.03250        1.0637505E-17
  -16.89000        1.0622398E-17
  -16.74750        1.0607935E-17
  -16.60500        1.0604214E-17
  -16.46250        1.0615511E-17
  -16.32000        1.0637740E-17
  -16.17750        1.0660883E-17
  -16.03500        1.0674946E-17
  -15.89250        1.0675835E-17
  -15.75000        1.0667642E-17
  -15.60750        1.0659991E-17
  -15.46500        1.0662086E-17
  -15.32250        1.0677072E-17
  -15.18000        1.0700106E-17
  -15.03750        1.0721301E-17
  -14.89500        1.0731725E-17
  -14.75250        1.0728805E-17
  -14.61000        1.0717873E-17
  -14.46750        1.0708914E-17
  -14.32500        1.0710495E-17
  -14.18250        1.0724568E-17
  -14.04000        1.0745293E-17
  -13.89750        1.0762599E-17
  -13.75500        1.0768308E-17
  -13.61250        1.0761134E-17
  -13.47000        1.0747508E-17
  -13.32750        1.0737726E-17
  -13.18500        1.0739771E-17
  -13.04250        1.0754524E-17
  -12.90000        1.0775282E-17
  -12.75750        1.0791859E-17
  -12.61500        1.0796793E-17
  -12.47250        1.0789880E-17
  -12.33000        1.0778285E-17
  -12.18750        1.0772151E-17
  -12.04500        1.0778375E-17
  -11.90250        1.0796318E-17
  -11.76000        1.0818095E-17
  -11.61750        1.0833273E-17
  -11.47500        1.0835184E-17
  -11.33250        1.0825006E-17
  -11.19000        1.0811151E-17
  -11.04750        1.0804300E-17
  -10.90500        1.0811041E-17
  -10.76250        1.0829954E-17
  -10.62000        1.0852503E-17
  -10.47750        1.0868198E-17
  -10.33500        1.0870923E-17
  -10.19250        1.0862614E-17
  -10.05000        1.0852046E-17
  -9.907500        1.0849479E-17
  -9.765000        1.0860361E-17
  -9.622500        1.0881919E-17
  -9.480000        1.0904710E-17
  -9.337500        1.0918227E-17
  -9.195000        1.0917203E-17
  -9.052500        1.0904835E-17
  -8.910000        1.0890954E-17
  -8.767500        1.0886235E-17
  -8.625000        1.0895901E-17
  -8.482500        1.0916678E-17
  -8.340000        1.0938819E-17
  -8.197500        1.0951974E-17
  -8.055000        1.0951366E-17
  -7.912500        1.0940588E-17
  -7.770000        1.0929328E-17
  -7.627500        1.0927433E-17
  -7.485000        1.0938883E-17
  -7.342500        1.0959316E-17
  -7.200000        1.0978608E-17
  -7.057500        1.0986947E-17
  -6.915000        1.0980762E-17
  -6.772500        1.0964946E-17
  -6.630000        1.0950032E-17
  -6.487500        1.0946022E-17
  -6.345000        1.0956566E-17
  -6.202500        1.0976949E-17
  -6.060000        1.0997085E-17
  -5.917500        1.1007651E-17
  -5.775000        1.1005684E-17
  -5.632500        1.0996254E-17
  -5.490000        1.0989257E-17
  -5.347500        1.0993284E-17
  -5.205000        1.1010297E-17
  -5.062500        1.1034331E-17
  -4.920000        1.1055017E-17
  -4.777500        1.1063760E-17
  -4.635000        1.1058889E-17
  -4.492500        1.1046623E-17
  -4.350000        1.1037317E-17
  -4.207500        1.1039250E-17
  -4.065000        1.1053705E-17
  -3.922500        1.1074298E-17
  -3.780000        1.1090940E-17
  -3.637500        1.1096000E-17
  -3.495000        1.1088939E-17
  -3.352500        1.1076609E-17
  -3.210000        1.1069048E-17
  -3.067500        1.1073344E-17
  -2.925000        1.1089297E-17
  -2.782500        1.1109521E-17
  -2.640000        1.1123926E-17
  -2.497500        1.1125864E-17
  -2.355000        1.1116206E-17
  -2.212500        1.1102866E-17
  -2.070000        1.1096053E-17
  -1.927500        1.1102115E-17
  -1.785000        1.1119700E-17
  -1.642500        1.1140573E-17
  -1.500000        1.1154583E-17
  -1.357500        1.1155805E-17
  -1.215000        1.1146110E-17
  -1.072500        1.1134011E-17
 -0.9300000        1.1129478E-17
 -0.7875000        1.1137850E-17
 -0.6450000        1.1156549E-17
 -0.5025000        1.1176601E-17
 -0.3600000        1.1188057E-17
 -0.2175000        1.1186054E-17
 -7.5000003E-02    1.1173840E-17
  6.7500003E-02    1.1160909E-17
  0.2100000        1.1157338E-17
  0.3525000        1.1167736E-17
  0.4950000        1.1188438E-17
  0.6375000        1.1209658E-17
  0.7800000        1.1221325E-17
  0.9225000        1.1219091E-17
   1.065000        1.1206912E-17
   1.207500        1.1194636E-17
   1.350000        1.1192053E-17
   1.492500        1.1202983E-17
   1.635000        1.1222972E-17
   1.777500        1.1241982E-17
   1.920000        1.1250477E-17
   2.062500        1.1245232E-17
   2.205000        1.1231367E-17
   2.347500        1.1219357E-17
   2.490000        1.1218817E-17
   2.632500        1.1232756E-17
   2.775000        1.1255762E-17
   2.917500        1.1277200E-17
   3.060000        1.1287507E-17
   3.202500        1.1283811E-17
   3.345000        1.1271514E-17
   3.487500        1.1260931E-17
   3.630000        1.1260999E-17
   3.772500        1.1273880E-17
   3.915000        1.1293671E-17
   4.057500        1.1310012E-17
   4.200000        1.1314388E-17
   4.342500        1.1305324E-17
   4.485000        1.1289350E-17
   4.627500        1.1277160E-17
   4.770000        1.1277269E-17
   4.912500        1.1290988E-17
   5.055000        1.1311717E-17
   5.197500        1.1328966E-17
   5.340000        1.1334647E-17
   5.482500        1.1327880E-17
   5.625000        1.1315395E-17
   5.767500        1.1307360E-17
   5.910000        1.1311173E-17
   6.052500        1.1326960E-17
   6.195000        1.1347533E-17
   6.337500        1.1362770E-17
   6.480000        1.1365785E-17
   6.622500        1.1357120E-17
   6.765000        1.1344436E-17
   6.907500        1.1337899E-17
   7.050000        1.1344040E-17
   7.192500        1.1361829E-17
   7.335000        1.1383319E-17
   7.477500        1.1398458E-17
   7.620000        1.1401151E-17
   7.762500        1.1392908E-17
   7.905000        1.1381867E-17
   8.047500        1.1377803E-17
   8.190000        1.1386164E-17
   8.332500        1.1404742E-17
   8.475000        1.1425011E-17
   8.617500        1.1437317E-17
   8.760000        1.1436755E-17
   8.902500        1.1426164E-17
   9.045000        1.1414413E-17
   9.187500        1.1410997E-17
   9.330000        1.1420223E-17
   9.472500        1.1438517E-17
   9.615000        1.1456496E-17
   9.757500        1.1464592E-17
   9.900000        1.1458826E-17
   10.04250        1.1443252E-17
   10.18500        1.1427568E-17
   10.32750        1.1421349E-17
   10.47000        1.1428355E-17
   10.61250        1.1444362E-17
   10.75500        1.1459829E-17
   10.89750        1.1465790E-17
   11.04000        1.1459407E-17
   11.18250        1.1445808E-17
   11.32500        1.1435076E-17
   11.46750        1.1436182E-17
   11.61000        1.1451509E-17
   11.75250        1.1475290E-17
   11.89500        1.1496917E-17
   12.03750        1.1507172E-17
   12.18000        1.1503640E-17
   12.32250        1.1492076E-17
   12.46500        1.1482880E-17
   12.60750        1.1484825E-17
   12.75000        1.1499774E-17
   12.89250        1.1521585E-17
   13.03500        1.1539829E-17
   13.17750        1.1546100E-17
   13.32000        1.1539112E-17
   13.46250        1.1525495E-17
   13.60500        1.1515825E-17
   13.74750        1.1518263E-17
   13.89000        1.1533623E-17
   14.03250        1.1554836E-17
   14.17500        1.1571134E-17
   14.31750        1.1574458E-17
   14.46000        1.1564234E-17
   14.60250        1.1547686E-17
   14.74500        1.1535503E-17
   14.88750        1.1535478E-17
   15.03000        1.1547948E-17
   15.17250        1.1565727E-17
   15.31500        1.1578581E-17
   15.45750        1.1579478E-17
   15.60000        1.1568876E-17
   15.74250        1.1554453E-17
   15.88500        1.1546464E-17
   16.02750        1.1551540E-17
   16.17000        1.1568670E-17
   16.31250        1.1589781E-17
   16.45500        1.1604561E-17
   16.59750        1.1606601E-17
   16.74000        1.1597159E-17
   16.88250        1.1584303E-17
   17.02500        1.1577979E-17
   17.16750        1.1583980E-17
   17.31000        1.1600484E-17
   17.45250        1.1619221E-17
   17.59500        1.1630533E-17
   17.73750        1.1629260E-17
   17.88000        1.1617864E-17
   18.02250        1.1604929E-17
   18.16500        1.1599939E-17
   18.30750        1.1607528E-17
   18.45000        1.1624677E-17
   18.59250        1.1642570E-17
   18.73500        1.1651966E-17
   18.87750        1.1648836E-17
   19.02000        1.1636831E-17
   19.16250        1.1625100E-17
   19.30500        1.1622749E-17
   19.44750        1.1633335E-17
   19.59000        1.1652693E-17
   19.73250        1.1671444E-17
   19.87500        1.1680657E-17
   20.01750        1.1677230E-17
   20.16000        1.1665738E-17
   20.30250        1.1655616E-17
   20.44500        1.1655379E-17
   20.58750        1.1667405E-17
   20.73000        1.1686420E-17
   20.87250        1.1702666E-17
   21.01500        1.1707808E-17
   21.15750        1.1700051E-17
   21.30000        1.1685325E-17
   21.44250        1.1673816E-17
   21.58500        1.1673910E-17
   21.72750        1.1687172E-17
   21.87000        1.1707426E-17
   22.01250        1.1724458E-17
   22.15500        1.1730158E-17
   22.29750        1.1723372E-17
   22.44000        1.1710561E-17
   22.58250        1.1701845E-17
   22.72500        1.1704816E-17
   22.86750        1.1719865E-17
   23.01000        1.1739834E-17
   23.15250        1.1754240E-17
   23.29500        1.1755548E-17
   23.43750        1.1743720E-17
   23.58000        1.1726301E-17
   23.72250        1.1713989E-17
   23.86500        1.1714323E-17
   24.00750        1.1727268E-17
   24.15000        1.1745339E-17
   24.29250        1.1758183E-17
   24.43500        1.1758842E-17
   24.57750        1.1747951E-17
   24.72000        1.1733349E-17
   24.86250        1.1725335E-17
   25.00500        1.1730456E-17
   25.14750        1.1747532E-17
   25.29000        1.1768337E-17
   25.43250        1.1782497E-17
   25.57500        1.1783692E-17
   25.71750        1.1773399E-17
   25.86000        1.1759986E-17
   26.00250        1.1753679E-17
   26.14500        1.1760450E-17
   26.28750        1.1778486E-17
   26.43000        1.1799343E-17
   26.57250        1.1813053E-17
   26.71500        1.1814100E-17
   26.85750        1.1804666E-17
   27.00000        1.1793213E-17
   27.14250        1.1789282E-17
   27.28500        1.1797678E-17
   27.42750        1.1815538E-17
   27.57000        1.1834060E-17
   27.71250        1.1843821E-17
   27.85500        1.1840460E-17
   27.99750        1.1827311E-17
   28.14000        1.1813388E-17
   28.28250        1.1807969E-17
   28.42500        1.1815054E-17
   28.56750        1.1831037E-17
   28.71000        1.1846987E-17
   28.85250        1.1854127E-17
   28.99500        1.1849185E-17
   29.13750        1.1836385E-17
   29.28000        1.1824861E-17
   29.42250        1.1823100E-17
   29.56500        1.1833773E-17
   29.70750        1.1852107E-17
   29.85000        1.1868766E-17
   29.99250        1.1875522E-17
   30.13500        1.1870234E-17
   30.27750        1.1858148E-17
   30.42000        1.1848698E-17
   30.56250        1.1849753E-17
   30.70500        1.1862792E-17
   30.84750        1.1881950E-17
   30.99000        1.1897503E-17
   31.13250        1.1901714E-17
   31.27500        1.1893496E-17
   31.41750        1.1879069E-17
   31.56000        1.1868200E-17
   31.70250        1.1868307E-17
   31.84500        1.1879977E-17
   31.98750        1.1896626E-17
   32.13000        1.1908513E-17
   32.27250        1.1908691E-17
   32.41500        1.1897283E-17
   32.55750        1.1881497E-17
   32.70000        1.1871321E-17
   32.84250        1.1873499E-17
   32.98500        1.1887413E-17
   33.12750        1.1905352E-17
   33.27000        1.1917062E-17
   33.41250        1.1915838E-17
   33.55500        1.1902513E-17
   33.69750        1.1884953E-17
   33.84000        1.1873351E-17
   33.98250        1.1874150E-17
   34.12500        1.1886253E-17
   34.26750        1.1901775E-17
   34.41000        1.1910914E-17
   34.55250        1.1907976E-17
   34.69500        1.1894945E-17
   34.83750        1.1880412E-17
   34.98000        1.1874517E-17
   35.12250        1.1882909E-17
   35.26500        1.1903368E-17
   35.40750        1.1927087E-17
   35.55000        1.1943879E-17
   35.69250        1.1948175E-17
   35.83500        1.1942226E-17
   35.97750        1.1934621E-17
   36.12000        1.1935013E-17
   36.26250        1.1948247E-17
   36.40500        1.1971408E-17
   36.54750        1.1995542E-17
   36.69000        1.2011008E-17
   36.83250        1.2013218E-17
   36.97500        1.2005322E-17
   37.11750        1.1996228E-17
   37.26000        1.1995173E-17
   37.40250        1.2006115E-17
   37.54500        1.2025330E-17
   37.68750        1.2043628E-17
   37.83000        1.2051867E-17
   37.97250        1.2046411E-17
   38.11500        1.2031280E-17
   38.25750        1.2015697E-17
   38.40000        1.2008548E-17
   38.54250        1.2013104E-17
   38.68500        1.2025168E-17
   38.82750        1.2035756E-17
   38.97000        1.2036649E-17
   39.11250        1.2025456E-17
   39.25500        1.2007111E-17
   39.39750        1.1990925E-17
   39.54000        1.1984984E-17
   39.68250        1.1991293E-17
   39.82500        1.2004608E-17
   39.96750        1.2015655E-17
   40.11000        1.2016780E-17
   40.25250        1.2006604E-17
   40.39500        1.1990856E-17
   40.53750        1.1978895E-17
   40.68000        1.1978022E-17
   40.82250        1.1989033E-17
   40.96500        1.2005716E-17
   41.10750        1.2018583E-17
   41.25000        1.2020596E-17
   41.39250        1.2011407E-17
   41.53500        1.1997543E-17
   41.67750        1.1988431E-17
   41.82000        1.1990667E-17
   41.96250        1.2004002E-17
   42.10500        1.2021495E-17
   42.24750        1.2033751E-17
   42.39000        1.2034667E-17
   42.53250        1.2025231E-17
   42.67500        1.2013013E-17
   42.81750        1.2007671E-17
   42.96000        1.2015126E-17
   43.10250        1.2033955E-17
   43.24500        1.2056157E-17
   43.38750        1.2071878E-17
   43.53000        1.2075241E-17
   43.67250        1.2067796E-17
   43.81500        1.2057489E-17
   43.95750        1.2053787E-17
   44.10000        1.2061886E-17
   44.24250        1.2079508E-17
   44.38500        1.2098215E-17
   44.52750        1.2108490E-17
   44.67000        1.2105504E-17
   44.81250        1.2092114E-17
   44.95500        1.2077260E-17
   45.09750        1.2070703E-17
   45.24000        1.2077249E-17
   45.38250        1.2093918E-17
   45.52500        1.2111761E-17
   45.66750        1.2121218E-17
   45.81000        1.2117832E-17
   45.95250        1.2104878E-17
   46.09500        1.2091341E-17
   46.23750        1.2086468E-17
   46.38000        1.2094182E-17
   46.52250        1.2110701E-17
   46.66500        1.2126797E-17
   46.80750        1.2133338E-17
   46.95000        1.2126775E-17
   47.09250        1.2111291E-17
   47.23500        1.2096315E-17
   47.37750        1.2090916E-17
   47.52000        1.2098428E-17
   47.66250        1.2114531E-17
   47.80500        1.2129924E-17
   47.94750        1.2135947E-17
   48.09000        1.2129791E-17
   48.23250        1.2116140E-17
   48.37500        1.2104308E-17
   48.51750        1.2102601E-17
   48.66000        1.2113311E-17
   48.80250        1.2131365E-17
   48.94500        1.2147408E-17
   49.08750        1.2153459E-17
   49.23000        1.2147702E-17
   49.37250        1.2135544E-17
   49.51500        1.2126297E-17
   49.65750        1.2127524E-17
   49.80000        1.2140451E-17
   49.94250        1.2159226E-17
   50.08500        1.2174440E-17
   50.22750        1.2178796E-17
   50.37000        1.2171471E-17
   50.51250        1.2158560E-17
   50.65500        1.2149334E-17
   50.79750        1.2150615E-17
   50.94000        1.2162645E-17
   51.08250        1.2178988E-17
   51.22500        1.2190468E-17
   51.36750        1.2190787E-17
   51.51000        1.2180379E-17
   51.65250        1.2166168E-17
   51.79500        1.2157369E-17
   51.93750        1.2159871E-17
   52.08000        1.2172629E-17
   52.22250        1.2188234E-17
   52.36500        1.2197361E-17
   52.50750        1.2194391E-17
   52.65000        1.2180824E-17
   52.79250        1.2164407E-17
   52.93500        1.2154492E-17
   53.07750        1.2156437E-17
   53.22000        1.2168427E-17
   53.36250        1.2182642E-17
   53.50500        1.2190078E-17
   53.64750        1.2186089E-17
   53.79000        1.2173306E-17
   53.93250        1.2160119E-17
   54.07500        1.2155637E-17
   54.21750        1.2164143E-17
   54.36000        1.2182405E-17
   54.50250        1.2201482E-17
   54.64500        1.2211982E-17
   54.78750        1.2209605E-17
   54.93000        1.2197676E-17
   55.07250        1.2185111E-17
   55.21500        1.2181052E-17
   55.35750        1.2189386E-17
   55.50000        1.2206445E-17
   55.64250        1.2223272E-17
   55.78500        1.2231080E-17
   55.92750        1.2226630E-17
   56.07000        1.2214266E-17
   56.21250        1.2203369E-17
   56.35500        1.2202743E-17
   56.49750        1.2215304E-17
   56.64000        1.2236258E-17
   56.78250        1.2255875E-17
   56.92500        1.2265205E-17
   57.06750        1.2261333E-17
   57.21000        1.2249020E-17
   57.35250        1.2237777E-17
   57.49500        1.2236116E-17
   57.63750        1.2246468E-17
   57.78000        1.2263757E-17
   57.92250        1.2278521E-17
   58.06500        1.2282640E-17
   58.20750        1.2274244E-17
   58.35000        1.2258839E-17
   58.49250        1.2245985E-17
   58.63500        1.2243548E-17
   58.77750        1.2252965E-17
   58.92000        1.2268410E-17
   59.06250        1.2280318E-17
   59.20500        1.2281164E-17
   59.34750        1.2270012E-17
   59.49000        1.2253110E-17
   59.63250        1.2240179E-17
   59.77500        1.2238648E-17
   59.91750        1.2249298E-17
   60.06000        1.2265914E-17
   60.20250        1.2279125E-17
   60.34500        1.2282082E-17
   60.48750        1.2274538E-17
   60.63000        1.2262877E-17
   60.77250        1.2256102E-17
   60.91500        1.2260231E-17
   61.05750        1.2274528E-17
   61.20000        1.2291853E-17
   61.34250        1.2302929E-17
   61.48500        1.2301953E-17
   61.62750        1.2290138E-17
   61.77000        1.2275054E-17
   61.91250        1.2266157E-17
   62.05500        1.2269188E-17
   62.19750        1.2282831E-17
   62.34000        1.2299627E-17
   62.48250        1.2310568E-17
   62.62500        1.2310575E-17
   62.76750        1.2301540E-17
   62.91000        1.2291076E-17
   63.05250        1.2287754E-17
   63.19500        1.2295725E-17
   63.33750        1.2312019E-17
   63.48000        1.2328187E-17
   63.62250        1.2335322E-17
   63.76500        1.2329447E-17
   63.90750        1.2313984E-17
   64.05000        1.2297810E-17
   64.19250        1.2290031E-17
   64.33500        1.2294615E-17
   64.47750        1.2308101E-17
   64.62000        1.2321782E-17
   64.76250        1.2327024E-17
   64.90500        1.2320533E-17
   65.04750        1.2306361E-17
   65.19000        1.2293455E-17
   65.33250        1.2290200E-17
   65.47500        1.2299284E-17
   65.61750        1.2315979E-17
   65.76000        1.2330915E-17
   65.90250        1.2335705E-17
   66.04500        1.2328039E-17
   66.18750        1.2313168E-17
   66.33000        1.2300865E-17
   66.47250        1.2299657E-17
   66.61500        1.2311782E-17
   66.75750        1.2331880E-17
   66.90000        1.2350209E-17
   67.04250        1.2358455E-17
   67.18500        1.2354648E-17
   67.32750        1.2344255E-17
   67.47000        1.2336769E-17
   67.61250        1.2339904E-17
   67.75500        1.2354852E-17
   67.89750        1.2375486E-17
   68.04000        1.2391982E-17
   68.18250        1.2396691E-17
   68.32500        1.2388729E-17
   68.46750        1.2374508E-17
   68.61000        1.2363918E-17
   68.75250        1.2364414E-17
   68.89500        1.2376567E-17
   69.03750        1.2393744E-17
   69.18000        1.2406082E-17
   69.32250        1.2406378E-17
   69.46500        1.2394353E-17
   69.60750        1.2376754E-17
   69.75000        1.2363265E-17
   69.89250        1.2360706E-17
   70.03500        1.2369039E-17
   70.17750        1.2381550E-17
   70.32000        1.2389085E-17
   70.46250        1.2385757E-17
   70.60500        1.2372649E-17
   70.74750        1.2357274E-17
   70.89000        1.2349115E-17
   71.03250        1.2353928E-17
   71.17500        1.2370254E-17
   71.31750        1.2390218E-17
   71.46000        1.2404151E-17
   71.60250        1.2406231E-17
   71.74500        1.2397764E-17
   71.88750        1.2386154E-17
   72.03000        1.2380229E-17
   72.17250        1.2384786E-17
   72.31500        1.2397660E-17
   72.45750        1.2411105E-17
   72.60000        1.2416620E-17
   72.74250        1.2410281E-17
   72.88500        1.2395304E-17
   73.02750        1.2380267E-17
   73.17000        1.2374037E-17
   73.31250        1.2380456E-17
   73.45500        1.2396010E-17
   73.59750        1.2411885E-17
   73.74000        1.2419192E-17
   73.88250        1.2414209E-17
   74.02500        1.2400488E-17
   74.16750        1.2386562E-17
   74.31000        1.2380672E-17
   74.45250        1.2385705E-17
   74.59500        1.2397433E-17
   74.73750        1.2407143E-17
   74.88000        1.2407038E-17
   75.02250        1.2395160E-17
   75.16500        1.2376800E-17
   75.30750        1.2361502E-17
   75.45000        1.2357446E-17
   75.59250        1.2366568E-17
   75.73500        1.2383368E-17
   75.87750        1.2398160E-17
   76.02000        1.2402818E-17
   76.16250        1.2395579E-17
   76.30500        1.2382027E-17
   76.44750        1.2371664E-17
   76.59000        1.2372131E-17
   76.73250        1.2384575E-17
   76.87500        1.2402950E-17
   77.01750        1.2417683E-17
   77.16000        1.2421495E-17
   77.30250        1.2413850E-17
   77.44500        1.2401351E-17
   77.58750        1.2393795E-17
   77.73000        1.2398262E-17
   77.87250        1.2414770E-17
   78.01500        1.2436129E-17
   78.15750        1.2452095E-17
   78.30000        1.2455351E-17
   78.44250        1.2445759E-17
   78.58500        1.2430330E-17
   78.72750        1.2418977E-17
   78.87000        1.2418578E-17
   79.01250        1.2428940E-17
   79.15500        1.2443063E-17
   79.29750        1.2451503E-17
   79.44000        1.2448213E-17
   79.58250        1.2434298E-17
   79.72500        1.2417436E-17
   79.86750        1.2407299E-17
   80.01000        1.2409740E-17
   80.15250        1.2423241E-17
   80.29500        1.2439767E-17
   80.43750        1.2449511E-17
   80.58000        1.2446693E-17
   80.72250        1.2432935E-17
   80.86500        1.2416208E-17
   81.00750        1.2406027E-17
   81.15000        1.2407778E-17
   81.29250        1.2419605E-17
   81.43500        1.2433688E-17
   81.57750        1.2441109E-17
   81.72000        1.2437314E-17
   81.86250        1.2424885E-17
   82.00500        1.2411911E-17
   82.14750        1.2406996E-17
   82.29000        1.2413917E-17
   82.43250        1.2429203E-17
   82.57500        1.2444108E-17
   82.71750        1.2449791E-17
   82.86000        1.2442610E-17
   83.00250        1.2426303E-17
   83.14500        1.2409773E-17
   83.28750        1.2401820E-17
   83.43000        1.2405985E-17
   83.57250        1.2418614E-17
   83.71500        1.2431296E-17
   83.85750        1.2436134E-17
   84.00000        1.2430649E-17
   84.14250        1.2419322E-17
   84.28500        1.2410814E-17
   84.42750        1.2412571E-17
   84.57000        1.2426109E-17
   84.71250        1.2445859E-17
   84.85500        1.2462316E-17
   84.99750        1.2467640E-17
   85.14000        1.2460311E-17
   85.28250        1.2446046E-17
   85.42500        1.2434401E-17
   85.56750        1.2433094E-17
   85.71000        1.2443452E-17
   85.85250        1.2459737E-17
   85.99500        1.2472720E-17
   86.13750        1.2475361E-17
   86.28000        1.2467120E-17
   86.42250        1.2454295E-17
   86.56500        1.2446162E-17
   86.70750        1.2449252E-17
   86.85000        1.2463236E-17
   86.99250        1.2480939E-17
   87.13500        1.2492521E-17
   87.27750        1.2491330E-17
   87.42000        1.2477928E-17
   87.56250        1.2459846E-17
   87.70500        1.2447200E-17
   87.84750        1.2446763E-17
   87.99000        1.2458060E-17
   88.13250        1.2473773E-17
   88.27500        1.2484235E-17
   88.41750        1.2483273E-17
   88.56000        1.2471893E-17
   88.70250        1.2457591E-17
   88.84500        1.2449719E-17
   88.98750        1.2453695E-17
   89.13000        1.2467587E-17
   89.27250        1.2483135E-17
   89.41500        1.2490613E-17
   89.55750        1.2484639E-17
   89.70000        1.2467456E-17
   89.84250        1.2447678E-17
   89.98500        1.2435298E-17
   90.12750        1.2435897E-17
   90.27000        1.2447515E-17
   90.41250        1.2462043E-17
   90.55500        1.2470237E-17
   90.69750        1.2467334E-17
   90.84000        1.2455882E-17
   90.98250        1.2444103E-17
   91.12500        1.2440810E-17
   91.26750        1.2449959E-17
   91.41000        1.2468152E-17
   91.55250        1.2486584E-17
   91.69500        1.2496274E-17
   91.83750        1.2493413E-17
   91.98000        1.2481621E-17
   92.12250        1.2469741E-17
   92.26500        1.2466528E-17
   92.40750        1.2475418E-17
   92.55000        1.2492515E-17
   92.69250        1.2508992E-17
   92.83500        1.2516424E-17
   92.97750        1.2511814E-17
   93.12000        1.2499296E-17
   93.26250        1.2487505E-17
   93.40500        1.2484236E-17
   93.54750        1.2491669E-17
   93.69000        1.2505043E-17
   93.83250        1.2515607E-17
   93.97500        1.2516028E-17
   94.11750        1.2504987E-17
   94.26000        1.2488136E-17
   94.40250        1.2474830E-17
   94.54500        1.2472585E-17
   94.68750        1.2482610E-17
   94.83000        1.2499104E-17
   94.97250        1.2512729E-17
   95.11500        1.2516185E-17
   95.25750        1.2508493E-17
   95.40000        1.2495423E-17
   95.54250        1.2485821E-17
   95.68500        1.2486082E-17
   95.82750        1.2496155E-17
   95.97000        1.2509513E-17
   96.11250        1.2517134E-17
   96.25500        1.2513087E-17
   96.39750        1.2498324E-17
   96.54000        1.2480342E-17
   96.68250        1.2468880E-17
   96.82500        1.2470199E-17
   96.96750        1.2483383E-17
   97.11000        1.2500894E-17
   97.25250        1.2513042E-17
   97.39500        1.2513717E-17
   97.53750        1.2503927E-17
   97.68000        1.2491028E-17
   97.82250        1.2484128E-17
   97.96500        1.2488459E-17
   98.10750        1.2502114E-17
   98.25000        1.2517152E-17
   98.39250        1.2524422E-17
   98.53500        1.2519187E-17
   98.67750        1.2504158E-17
   98.82000        1.2488062E-17
   98.96250        1.2480590E-17
   99.10500        1.2486696E-17
   99.24750        1.2503679E-17
   99.39000        1.2522787E-17