   0.00000000       0.00000000    
  0.165000007       2.24451195E-14
  0.330000013       6.26603533E-14
  0.495000005       1.09585152E-13
  0.660000026       1.52589570E-13
  0.824999988       1.87648806E-13
  0.990000010       2.19301451E-13
   1.15499997       2.57367424E-13
   1.32000005       3.10504958E-13
   1.48500001       3.80511486E-13
   1.64999998       4.60762613E-13
   1.81500006       5.39671714E-13
   1.98000002       6.07053904E-13
   2.14499998       6.59579975E-13
   2.30999994       7.02098915E-13
   2.47499990       7.44105786E-13
   2.64000010       7.93520143E-13
   2.80500007       8.51505986E-13
   2.97000003       9.11395850E-13
   3.13499999       9.62317791E-13
   3.29999995       9.95327735E-13
   3.46499991       1.00839259E-12
   3.63000011       1.00728139E-12
   3.79500008       1.00186537E-12
   3.96000004       1.00004358E-12
   4.12500000       1.00288170E-12
   4.28999996       1.00381585E-12
   4.45499992       9.92370140E-13
   4.61999989       9.60196549E-13
   4.78499985       9.05914991E-13
   4.94999981       8.35956358E-13
   5.11499977       7.60966919E-13
   5.28000021       6.89914868E-13
   5.44500017       6.25348406E-13
   5.61000013       5.62547513E-13
   5.77500010       4.93015242E-13
   5.94000006       4.10236488E-13
   6.10500002       3.14325768E-13
   6.26999998       2.12843035E-13
   6.43499994       1.17272010E-13
   6.59999990       3.71648547E-14
   6.76499987      -2.46720165E-14
   6.92999983      -7.31392892E-14
   7.09499979      -1.17312925E-13
   7.26000023      -1.64335166E-13
   7.42500019      -2.14140636E-13
   7.59000015      -2.58028597E-13
   7.75500011      -2.82010662E-13
   7.92000008      -2.73249441E-13
   8.08500004      -2.26179549E-13
   8.25000000      -1.45023736E-13
   8.41499996      -4.13282012E-14
   8.57999992       7.22000720E-14
   8.74499989       1.88289095E-13
   8.90999985       3.08648262E-13
   9.07499981       4.42616701E-13
   9.23999977       6.01684121E-13
   9.40499973       7.92845065E-13
   9.56999969       1.01436546E-12
   9.73499966       1.25623828E-12
   9.89999962       1.50508512E-12
   10.0649996       1.75082973E-12
   10.2299995       1.99148770E-12
   10.3950005       2.23337516E-12
   10.5600004       2.48649582E-12
   10.7250004       2.75749345E-12
   10.8900003       3.04396157E-12
   11.0550003       3.33330130E-12
   11.2200003       3.60698190E-12
   11.3850002       3.84817091E-12
   11.5500002       4.04878778E-12
   11.7150002       4.21218789E-12
   11.8800001       4.34984080E-12
   12.0450001       4.47352788E-12
   12.2100000       4.58703995E-12
   12.3750000       4.68180529E-12
   12.5400000       4.73900042E-12
   12.7049999       4.73735808E-12
   12.8699999       4.66279879E-12
   13.0349998       4.51485594E-12
   13.1999998       4.30633047E-12
   13.3649998       4.05607882E-12
   13.5299997       3.77849401E-12
   13.6949997       3.47518845E-12
   13.8599997       3.13344554E-12
   14.0249996       2.73259670E-12
   14.1899996       2.25529231E-12
   14.3549995       1.69784748E-12
   14.5200005       1.07407204E-12
   14.6850004       4.10237220E-13
   14.8500004      -2.66487326E-13
   15.0150003      -9.40169600E-13
   15.1800003      -1.61230545E-12
   15.3450003      -2.29851273E-12
   15.5100002      -3.01718112E-12
   15.6750002      -3.77599601E-12
   15.8400002      -4.56368233E-12
   16.0049992      -5.35175116E-12
   16.1700001      -6.10577951E-12
   16.3349991      -6.80045039E-12
   16.5000000      -7.43028382E-12
   16.6650009      -8.01000672E-12
   16.8299999      -8.56396551E-12
   16.9950008      -9.11001916E-12
   17.1599998      -9.64660123E-12
   17.3250008      -1.01502747E-11
   17.4899998      -1.05855992E-11
   17.6550007      -1.09223811E-11
   17.8199997      -1.11511043E-11
   17.9850006      -1.12879888E-11
   18.1499996      -1.13665371E-11
   18.3150005      -1.14198200E-11
   18.4799995      -1.14629417E-11
   18.6450005      -1.14853621E-11
   18.8099995      -1.14575155E-11
   18.9750004      -1.13483728E-11
   19.1399994      -1.11443797E-11
   19.3050003      -1.08591703E-11
   19.4699993      -1.05283005E-11
   19.6350002      -1.01914579E-11
   19.7999992      -9.87167639E-12
   19.9650002      -9.56300317E-12
   20.1299992      -9.23367719E-12
   20.2950001      -8.84345201E-12
   20.4599991      -8.36584621E-12
   20.6250000      -7.80318692E-12
   20.7900009      -7.18610544E-12
   20.9549999      -6.55760472E-12
   21.1200008      -5.95034438E-12
   21.2849998      -5.36961231E-12
   21.4500008      -4.79134874E-12
   21.6149998      -4.17628085E-12
   21.7800007      -3.49227461E-12
   21.9449997      -2.73243212E-12
   22.1100006      -1.91876614E-12
   22.2749996      -1.08934942E-12
   22.4400005      -2.76082407E-13
   22.6049995       5.14485102E-13
   22.7700005       1.30646774E-12
   22.9349995       2.14297742E-12
   23.1000004       3.06382589E-12
   23.2649994       4.08483880E-12
   23.4300003       5.19010919E-12
   23.5949993       6.34137057E-12
   23.7600002       7.49913066E-12
   23.9249992       8.64375758E-12
   24.0900002       9.78481879E-12
   24.2549992       1.09535601E-11
   24.4200001       1.21828329E-11
   24.5849991       1.34856570E-11
   24.7500000       1.48442526E-11
   24.9150009       1.62154786E-11
   25.0799999       1.75495105E-11
   25.2450008       1.88114056E-11
   25.4099998       1.99938226E-11
   25.5750008       2.11142735E-11
   25.7399998       2.21989198E-11
   25.9050007       2.32622845E-11
   26.0699997       2.42941865E-11
   26.2350006       2.52609097E-11
   26.3999996       2.61195527E-11
   26.5650005       2.68372165E-11
   26.7299995       2.74042612E-11
   26.8950005       2.78343633E-11
   27.0599995       2.81516373E-11
   27.2250004       2.83722143E-11
   27.3899994       2.84906248E-11
   27.5550003       2.84784488E-11
   27.7199993       2.82958067E-11
   27.8850002       2.79092010E-11
   28.0499992       2.73059752E-11
   28.2150002       2.64976686E-11
   28.3799992       2.55109059E-11
   28.5450001       2.43711128E-11
   28.7099991       2.30881252E-11
   28.8750000       2.16513769E-11
   29.0400009       2.00368975E-11
   29.2049999       1.82218823E-11
   29.3700008       1.61986969E-11
   29.5349998       1.39808312E-11
   29.7000008       1.15980220E-11
   29.8649998       9.08370601E-12
   30.0300007       6.46199587E-12
   30.1949997       3.74124126E-12
   30.3600006       9.17322533E-13
   30.5249996      -2.01571420E-12
   30.6900005      -5.05405743E-12
   30.8549995      -8.17823153E-12
   31.0200005      -1.13561573E-11
   31.1849995      -1.45533533E-11
   31.3500004      -1.77445020E-11
   31.5149994      -2.09199758E-11
   31.6800003      -2.40837610E-11
   31.8449993      -2.72439970E-11
   32.0099983      -3.04012579E-11
   32.1749992      -3.35408437E-11
   32.3400002      -3.66329571E-11
   32.5050011      -3.96403431E-11
   32.6699982      -4.25289214E-11
   32.8349991      -4.52756756E-11
   33.0000000      -4.78697325E-11
   33.1650009      -5.03064847E-11
   33.3300018      -5.25783479E-11
   33.4949989      -5.46673887E-11
   33.6599998      -5.65438044E-11
   33.8250008      -5.81708154E-11
   33.9900017      -5.95130265E-11
   34.1549988      -6.05436118E-11
   34.3199997      -6.12466536E-11
   34.4850006      -6.16139223E-11
   34.6500015      -6.16384929E-11
   34.8149986      -6.13093049E-11
   34.9799995      -6.06099892E-11
   35.1450005      -5.95226091E-11
   35.3100014      -5.80341920E-11
   35.4749985      -5.61421118E-11
   35.6399994      -5.38551773E-11
   35.8050003      -5.11897295E-11
   35.9700012      -4.81627724E-11
   36.1349983      -4.47858174E-11
   36.2999992      -4.10626221E-11
   36.4650002      -3.69919061E-11
   36.6300011      -3.25734335E-11
   36.7949982      -2.78143533E-11
   36.9599991      -2.27326907E-11
   37.1250000      -1.73567324E-11
   37.2900009      -1.17212221E-11
   37.4550018      -5.86276774E-12
   37.6199989       1.83101649E-13
   37.7849998       6.38215175E-12
   37.9500008       1.26995636E-11
   38.1150017       1.90976557E-11
   38.2799988       2.55349387E-11
   38.4449997       3.19671997E-11
   38.6100006       3.83499101E-11
   38.7750015       4.46405239E-11
   38.9399986       5.07994515E-11
   39.1049995       5.67891741E-11
   39.2700005       6.25724542E-11
   39.4350014       6.81106352E-11
   39.5999985       7.33631558E-11
   39.7649994       7.82884729E-11
   39.9300003       8.28458413E-11
   40.0950012       8.69971387E-11
   40.2599983       9.07080452E-11
   40.4249992       9.39484046E-11
   40.5900002       9.66920155E-11
   40.7550011       9.89162016E-11
   40.9199982       1.00601305E-10
   41.0849991       1.01729986E-10
   41.2500000       1.02286471E-10
   41.4150009       1.02256023E-10
   41.5800018       1.01625368E-10
   41.7449989       1.00384416E-10
   41.9099998       9.85292889E-11
   42.0750008       9.60654473E-11
   42.2400017       9.30095029E-11
   42.4049988       8.93883509E-11
   42.5699997       8.52354645E-11
   42.7350006       8.05858366E-11
   42.9000015       7.54717192E-11
   43.0649986       6.99212702E-11
   43.2299995       6.39608297E-11
   43.3950005       5.76192219E-11
   43.5600014       5.09316339E-11
   43.7249985       4.39403722E-11
   43.8899994       3.66917191E-11
   44.0550003       2.92303126E-11
   44.2200012       2.15943010E-11
   44.3849983       1.38141408E-11
   44.5499992       5.91618724E-12
   44.7150002      -2.07080035E-12
   44.8800011      -1.01099979E-11
   45.0449982      -1.81552707E-11
   45.2099991      -2.61557546E-11
   45.3750000      -3.40642480E-11
   45.5400009      -4.18449407E-11
   45.7050018      -4.94760899E-11
   45.8699989      -5.69456357E-11
   46.0349998      -6.42417508E-11
   46.2000008      -7.13433271E-11
   46.3650017      -7.82157186E-11
   46.5299988      -8.48144402E-11
   46.6949997      -9.10949857E-11
   46.8600006      -9.70234448E-11
   47.0250015      -1.02581832E-10
   47.1899986      -1.07764651E-10
   47.3549995      -1.12568302E-10
   47.5200005      -1.16978857E-10
   47.6850014      -1.20965474E-10
   47.8499985      -1.24483437E-10
   48.0149994      -1.27485980E-10
   48.1800003      -1.29938643E-10
   48.3450012      -1.31828493E-10
   48.5099983      -1.33162661E-10
   48.6749992      -1.33956665E-10
   48.8400002      -1.34218428E-10
   49.0050011      -1.33937014E-10
   49.1699982      -1.33082420E-10
   49.3349991      -1.31617328E-10
   49.5000000      -1.29514621E-10
   49.6650009      -1.26771427E-10
   49.8300018      -1.23411684E-10
   49.9949989      -1.19475360E-10
   50.1599998      -1.14999919E-10
   50.3250008      -1.10003825E-10
   50.4900017      -1.04481257E-10
   50.6549988      -9.84111334E-11
   50.8199997      -9.17756704E-11
   50.9850006      -8.45783305E-11
   51.1500015      -7.68509839E-11
   51.3149986      -6.86460541E-11
   51.4799995      -6.00177547E-11
   51.6450005      -5.10027472E-11
   51.8100014      -4.16114296E-11
   51.9749985      -3.18353954E-11
   52.1399994      -2.16677093E-11
   52.3050003      -1.11251269E-11
   52.4700012      -2.59847943E-13
   52.6349983       1.08463559E-11
   52.7999992       2.21032758E-11
   52.9650002       3.34376589E-11
   53.1300011       4.48090558E-11
   53.2949982       5.62072056E-11
   53.4599991       6.76316364E-11
   53.6250000       7.90643453E-11
   53.7900009       9.04501266E-11
   53.9550018       1.01695839E-10
   54.1199989       1.12689372E-10
   54.2849998       1.23328611E-10
   54.4500008       1.33544925E-10
   54.6150017       1.43308365E-10
   54.7799988       1.52612117E-10
   54.9449997       1.61444275E-10
   55.1100006       1.69762968E-10
   55.2750015       1.77488579E-10
   55.4399986       1.84517693E-10
   55.6049995       1.90751193E-10
   55.7700005       1.96121119E-10
   55.9350014       2.00601147E-10
   56.0999985       2.04195244E-10
   56.2649994       2.06910392E-10
   56.4300003       2.08729270E-10
   56.5950012       2.09598644E-10
   56.7599983       2.09440743E-10
   56.9249992       2.08182194E-10
   57.0900002       2.05785014E-10
   57.2550011       2.02262346E-10
   57.4199982       1.97670019E-10
   57.5849991       1.92077562E-10
   57.7500000       1.85534241E-10
   57.9150009       1.78047799E-10
   58.0800018       1.69587497E-10
   58.2449989       1.60109412E-10
   58.4099998       1.49590063E-10
   58.5750008       1.38050446E-10
   58.7400017       1.25557412E-10
   58.9049988       1.12202705E-10
   59.0699997       9.80717105E-11
   59.2350006       8.32196881E-11
   59.4000015       6.76687803E-11
   59.5649986       5.14273311E-11
   59.7299995       3.45205080E-11
   59.8950005       1.70149797E-11
   60.0600014      -9.76161209E-13
   60.2249985      -1.93111603E-11
   60.3899994      -3.78502542E-11
   60.5550003      -5.64825096E-11
   60.7200012      -7.51343987E-11
   60.8849983      -9.37560168E-11
   61.0499992      -1.12292911E-10
   61.2150002      -1.30659580E-10
   61.3800011      -1.48729390E-10
   61.5449982      -1.66346437E-10
   61.7099991      -1.83352986E-10
   61.8750000      -1.99617559E-10
   62.0400009      -2.15049215E-10
   62.2050018      -2.29590749E-10
   62.3699989      -2.43195825E-10
   62.5349998      -2.55803101E-10
   62.7000008      -2.67321859E-10
   62.8650017      -2.77636442E-10
   63.0299988      -2.86627111E-10
   63.1949997      -2.94195140E-10
   63.3600006      -3.00278941E-10
   63.5250015      -3.04852643E-10
   63.6899986      -3.07908837E-10
   63.8549995      -3.09435366E-10
   64.0199966      -3.09399312E-10
   64.1849976      -3.07746967E-10
   64.3499985      -3.04419046E-10
   64.5149994      -2.99373443E-10
   64.6800003      -2.92602997E-10
   64.8450012      -2.84139295E-10
   65.0100021      -2.74041262E-10
   65.1750031      -2.62375122E-10
   65.3399963      -2.49196858E-10
   65.5049973      -2.34546021E-10
   65.6699982      -2.18453450E-10
   65.8349991      -2.00958347E-10
   66.0000000      -1.82124579E-10
   66.1650009      -1.62047931E-10
   66.3300018      -1.40850720E-10
   66.4950027      -1.18667229E-10
   66.6600037      -9.56278737E-11
   66.8249969      -7.18506019E-11
   66.9899979      -4.74430252E-11
   67.1549988      -2.25134494E-11
   67.3199997       2.81655753E-12
   67.4850006       2.84050509E-11
   67.6500015       5.40924944E-11
   67.8150024       7.97129168E-11
   67.9800034       1.05107568E-10
   68.1449966       1.30133987E-10
   68.3099976       1.54666113E-10
   68.4749985       1.78586201E-10
   68.6399994       2.01773417E-10
   68.8050003       2.24096103E-10
   68.9700012       2.45411858E-10
   69.1350021       2.65576117E-10
   69.3000031       2.84454599E-10
   69.4649963       3.01933339E-10
   69.6299973       3.17921800E-10
   69.7949982       3.32347844E-10
   69.9599991       3.45147744E-10
   70.1250000       3.56257190E-10
   70.2900009       3.65607489E-10
   70.4550018       3.73129111E-10
   70.6200027       3.78759246E-10
   70.7850037       3.82450016E-10
   70.9499969       3.84172139E-10
   71.1149979       3.83913318E-10
   71.2799988       3.81673110E-10
   71.4449997       3.77458093E-10
   71.6100006       3.71280673E-10
   71.7750015       3.63162667E-10
   71.9400024       3.53141183E-10
   72.1050034       3.41272982E-10
   72.2699966       3.27634142E-10
   72.4349976       3.12314341E-10
   72.5999985       2.95408198E-10
   72.7649994       2.77008166E-10
   72.9300003       2.57202037E-10
   73.0950012       2.36076519E-10
   73.2600021       2.13724330E-10
   73.4250031       1.90250968E-10
   73.5899963       1.65777198E-10
   73.7549973       1.40436482E-10
   73.9199982       1.14368633E-10
   74.0849991       8.77133297E-11
   74.2500000       6.06065614E-11
   74.4150009       3.31811315E-11
   74.5800018       5.56980633E-12
   74.7450027      -2.20919498E-11
   74.9100037      -4.96659033E-11
   75.0749969      -7.70141312E-11
   75.2399979      -1.04003410E-10
   75.4049988      -1.30507938E-10
   75.5699997      -1.56408567E-10
   75.7350006      -1.81588716E-10
   75.9000015      -2.05929149E-10
   76.0650024      -2.29305450E-10
   76.2300034      -2.51589888E-10
   76.3949966      -2.72657757E-10
   76.5599976      -2.92395580E-10
   76.7249985      -3.10707099E-10
   76.8899994      -3.27515265E-10
   77.0550003      -3.42759127E-10
   77.2200012      -3.56388086E-10
   77.3850021      -3.68356984E-10
   77.5500031      -3.78623299E-10
   77.7149963      -3.87148230E-10
   77.8799973      -3.93898997E-10
   78.0449982      -3.98851091E-10
   78.2099991      -4.01988220E-10
   78.3750000      -4.03300837E-10
   78.5400009      -4.02784389E-10
   78.7050018      -4.00438877E-10
   78.8700027      -3.96270766E-10
   79.0350037      -3.90296379E-10
   79.1999969      -3.82544357E-10
   79.3649979      -3.73056086E-10
   79.5299988      -3.61883107E-10
   79.6949997      -3.49083235E-10
   79.8600006      -3.34717393E-10
   80.0250015      -3.18848947E-10
   80.1900024      -3.01545705E-10
   80.3550034      -2.82883467E-10
   80.5199966      -2.62948718E-10
   80.6849976      -2.41838966E-10
   80.8499985      -2.19660692E-10
   81.0149994      -1.96525823E-10
   81.1800003      -1.72548753E-10
   81.3450012      -1.47844875E-10
   81.5100021      -1.22530444E-10
   81.6750031      -9.67224009E-11
   81.8399963      -7.05374578E-11
   82.0049973      -4.40898706E-11
   82.1699982      -1.74894127E-11
   82.3349991       9.15875275E-12
   82.5000000       3.57513880E-11
   82.6650009       6.21824536E-11
   82.8300018       8.83385448E-11
   82.9950027       1.14097537E-10
   83.1600037       1.39331463E-10
   83.3249969       1.63913161E-10
   83.4899979       1.87723531E-10
   83.6549988       2.10655979E-10
   83.8199997       2.32616135E-10
   83.9850006       2.53517457E-10
   84.1500015       2.73276068E-10
   84.3150024       2.91807800E-10
   84.4800034       3.09029857E-10
   84.6449966       3.24865662E-10
   84.8099976       3.39250045E-10
   84.9749985       3.52131047E-10
   85.1399994       3.63467173E-10
   85.3050003       3.73221454E-10
   85.4700012       3.81356363E-10
   85.6350021       3.87833210E-10
   85.8000031       3.92616689E-10
   85.9649963       3.95682903E-10
   86.1299973       3.97025385E-10
   86.2949982       3.96655597E-10
   86.4599991       3.94596578E-10
   86.6250000       3.90872834E-10
   86.7900009       3.85501964E-10
   86.9550018       3.78492737E-10
   87.1200027       3.69851011E-10
   87.2850037       3.59590441E-10
   87.4499969       3.47741808E-10
   87.6149979       3.34356348E-10
   87.7799988       3.19501037E-10
   87.9449997       3.03249537E-10
   88.1100006       2.85674262E-10
   88.2750015       2.66844713E-10
   88.4400024       2.46833137E-10
   88.6050034       2.25723343E-10
   88.7699966       2.03617345E-10
   88.9349976       1.80634147E-10
   89.0999985       1.56900631E-10
   89.2649994       1.32539285E-10
   89.4300003       1.07658951E-10
   89.5950012       8.23545815E-11
   89.7600021       5.67156773E-11
   89.9250031       3.08387725E-11
   90.0899963       4.83636612E-12
   90.2549973      -2.11630401E-11
   90.4199982      -4.70241762E-11
   90.5849991      -7.26180366E-11
   90.7500000      -9.78312362E-11
   90.9150009      -1.22566041E-10
   91.0800018      -1.46731211E-10
   91.2450027      -1.70229192E-10
   91.4100037      -1.92947852E-10
   91.5749969      -2.14761972E-10
   91.7399979      -2.35544473E-10
   91.9049988      -2.55181209E-10
   92.0699997      -2.73580880E-10
   92.2350006      -2.90675123E-10
   92.4000015      -3.06408232E-10
   92.5650024      -3.20724169E-10
   92.7300034      -3.33557959E-10
   92.8949966      -3.44837797E-10
   93.0599976      -3.54496182E-10
   93.2249985      -3.62484015E-10
   93.3899994      -3.68778730E-10
   93.5550003      -3.73381326E-10
   93.7200012      -3.76303932E-10
   93.8850021      -3.77554848E-10
   94.0500031      -3.77130466E-10
   94.2149963      -3.75018627E-10
   94.3799973      -3.71212061E-10
   94.5449982      -3.65723951E-10
   94.7099991      -3.58596014E-10
   94.8750000      -3.49894697E-10
   95.0400009      -3.39696660E-10
   95.2050018      -3.28072597E-10
   95.3700027      -3.15078408E-10
   95.5350037      -3.00759473E-10
   95.6999969      -2.85165586E-10
   95.8649979      -2.68367800E-10
   96.0299988      -2.50467230E-10
   96.1949997      -2.31589817E-10
   96.3600006      -2.11869702E-10
   96.5250015      -1.91429539E-10
   96.6900024      -1.70368539E-10
   96.8550034      -1.48764556E-10
   97.0199966      -1.26688493E-10
   97.1849976      -1.04222471E-10
   97.3499985      -8.14713436E-11
   97.5149994      -5.85610033E-11
   97.6800003      -3.56247844E-11
   97.8450012      -1.27856606E-11
   98.0100021       9.85551918E-12
   98.1750031       3.22193140E-11
   98.3399963       5.42355813E-11
   98.5049973       7.58274207E-11
   98.6699982       9.69010497E-11
   98.8349991       1.17347951E-10
   99.0000000       1.37058379E-10
   99.1650009       1.55938734E-10
   99.3300018       1.73923043E-10
   99.4950027       1.90972099E-10
   99.6600037       2.07060147E-10
   99.8249969       2.22156626E-10
   99.9899979       2.36212716E-10
   100.154999       2.49160054E-10
   100.320000       2.60922312E-10
   100.485001       2.71433764E-10
   100.650002       2.80654944E-10
   100.815002       2.88577995E-10
   100.980003       2.95219016E-10
   101.144997       3.00602043E-10
   101.309998       3.04743009E-10
   101.474998       3.07641773E-10
   101.639999       3.09285375E-10
   101.805000       3.09660297E-10
   101.970001       3.08766762E-10
   102.135002       3.06627362E-10
   102.300003       3.03286091E-10
   102.464996       2.98798930E-10
   102.629997       2.93220837E-10
   102.794998       2.86596108E-10
   102.959999       2.78956885E-10
   103.125000       2.70329759E-10
   103.290001       2.60747091E-10
   103.455002       2.50256399E-10
   103.620003       2.38922826E-10
   103.785004       2.26823435E-10
   103.949997       2.14035484E-10
   104.114998       2.00624878E-10
   104.279999       1.86640453E-10
   104.445000       1.72117126E-10
   104.610001       1.57086830E-10
   104.775002       1.41591835E-10
   104.940002       1.25693803E-10
   105.105003       1.09473805E-10
   105.269997       9.30225758E-11
   105.434998       7.64257824E-11
   105.599998       5.97511068E-11
   105.764999       4.30441099E-11
   105.930000       2.63350210E-11
   106.095001       9.65329726E-12
   106.260002      -6.95747192E-12
   106.425003      -2.34323845E-11
   106.589996      -3.96899805E-11
   106.754997      -5.56469246E-11
   106.919998      -7.12350318E-11
   107.084999      -8.64115376E-11
   107.250000      -1.01156500E-10
   107.415001      -1.15458282E-10
   107.580002      -1.29294367E-10
   107.745003      -1.42617862E-10
   107.910004      -1.55357366E-10
   108.074997      -1.67430722E-10
   108.239998      -1.78765641E-10
   108.404999      -1.89315980E-10
   108.570000      -1.99064779E-10
   108.735001      -2.08012052E-10
   108.900002      -2.16154053E-10
   109.065002      -2.23465649E-10
   109.230003      -2.29896310E-10
   109.394997      -2.35382602E-10
   109.559998      -2.39871067E-10
   109.724998      -2.43339071E-10
   109.889999      -2.45801934E-10
   110.055000      -2.47301929E-10
   110.220001      -2.47884657E-10
   110.385002      -2.47575460E-10
   110.550003      -2.46368731E-10
   110.714996      -2.44235576E-10
   110.879997      -2.41146103E-10
   111.044998      -2.37092984E-10
   111.209999      -2.32103503E-10
   111.375000      -2.26232644E-10
   111.540001      -2.19541080E-10
   111.705002      -2.12070472E-10
   111.870003      -2.03830008E-10
   112.035004      -1.94802549E-10
   112.199997      -1.84967514E-10
   112.364998      -1.74328524E-10
   112.529999      -1.62930877E-10
   112.695000      -1.50859505E-10
   112.860001      -1.38218367E-10
   113.025002      -1.25102803E-10
   113.190002      -1.11579718E-10
   113.355003      -9.76860953E-11
   113.519997      -8.34461458E-11
   113.684998      -6.88970409E-11
   113.849998      -5.41084677E-11
   114.014999      -3.91848151E-11
   114.180000      -2.42483325E-11
   114.345001      -9.41225656E-12
   114.510002       5.24172502E-12
   114.675003       1.96697589E-11
   114.839996       3.38529690E-11
   115.004997       4.77729835E-11
   115.169998       6.13893728E-11
   115.334999       7.46313358E-11
   115.500000       8.74077338E-11
   115.665001       9.96296379E-11
   115.830002       1.11232530E-10
   115.995003       1.22185970E-10
   116.160004       1.32485425E-10
   116.324997       1.42130974E-10
   116.489998       1.51104518E-10
   116.654999       1.59358013E-10
   116.820000       1.66819086E-10
   116.985001       1.73410800E-10
   117.150002       1.79075435E-10
   117.315002       1.83789733E-10
   117.480003       1.87564159E-10
   117.644997       1.90427535E-10
   117.809998       1.92405591E-10
   117.974998       1.93505378E-10
   118.139999       1.93713309E-10
   118.305000       1.93007374E-10
   118.470001       1.91376207E-10
   118.635002       1.88834434E-10
   118.800003       1.85425869E-10
   118.964996       1.81213072E-10
   119.129997       1.76258910E-10
   119.294998       1.70610179E-10
   119.459999       1.64291789E-10
   119.625000       1.57314439E-10
   119.790001       1.49691232E-10
   119.955002       1.41454445E-10
   120.120003       1.32663436E-10
   120.285004       1.23399596E-10
   120.449997       1.13750856E-10
   120.614998       1.03793772E-10
   120.779999       9.35821420E-11
   120.945000       8.31475444E-11
   121.110001       7.25111776E-11
   121.275002       6.17005405E-11
   121.440002       5.07624325E-11
   121.605003       3.97658226E-11
   121.769997       2.87934399E-11
   121.934998       1.79265890E-11
   122.099998       7.23082184E-12
   122.264999      -3.25047172E-12
   122.430000      -1.34919974E-11
   122.595001      -2.34747066E-11
   122.760002      -3.31727805E-11
   122.925003      -4.25462929E-11
   123.089996      -5.15433356E-11
   123.254997      -6.01101391E-11
   123.419998      -6.82038800E-11
   123.584999      -7.58010738E-11
   123.750000      -8.28970850E-11
   123.915001      -8.94967225E-11
   124.080002      -9.56009230E-11
   124.245003      -1.01196128E-10
   124.410004      -1.06252181E-10
   124.574997      -1.10729891E-10
   124.739998      -1.14594570E-10
   124.904999      -1.17828775E-10
   125.070000      -1.20437799E-10
   125.235001      -1.22445165E-10
   125.400002      -1.23880586E-10
   125.565002      -1.24766850E-10
   125.730003      -1.25112407E-10
   125.894997      -1.24913649E-10
   126.059998      -1.24165456E-10
   126.224998      -1.22874141E-10
   126.389999      -1.21065866E-10
   126.555000      -1.18785357E-10
   126.720001      -1.16085433E-10
   126.885002      -1.13012384E-10
   127.050003      -1.09594799E-10
   127.214996      -1.05841343E-10
   127.379997      -1.01748401E-10
   127.544998      -9.73133449E-11
   127.709999      -9.25461235E-11
   127.875000      -8.74734521E-11
   128.039993      -8.21336402E-11
   128.205002      -7.65658023E-11
   128.369995      -7.07998660E-11
   128.535004      -6.48533727E-11
   128.699997      -5.87367863E-11
   128.865005      -5.24641337E-11
   129.029999      -4.60624212E-11
   129.195007      -3.95740524E-11
   129.360001      -3.30503125E-11
   129.524994      -2.65391667E-11
   129.690002      -2.00739512E-11
   129.854996      -1.36691127E-11
   130.020004      -7.32545882E-12
   130.184998      -1.04186375E-12
   130.350006       5.17305643E-12
   130.514999       1.12957499E-11
   130.679993       1.72916924E-11
   130.845001       2.31260740E-11
   131.009995       2.87749997E-11
   131.175003       3.42309306E-11
   131.339996       3.94993552E-11
   131.505005       4.45887459E-11
   131.669998       4.94995295E-11
   131.835007       5.42182271E-11
   132.000000       5.87197443E-11
   132.164993       6.29760410E-11
   132.330002       6.69658773E-11
   132.494995       7.06800798E-11
   132.660004       7.41194328E-11
   132.824997       7.72869824E-11
   132.990005       8.01795713E-11
   133.154999       8.27838492E-11
   133.320007       8.50791937E-11
   133.485001       8.70457872E-11
   133.649994       8.86729579E-11
   133.815002       8.99627733E-11
   133.979996       9.09269118E-11
   134.145004       9.15784948E-11
   134.309998       9.19237672E-11
   134.475006       9.19583437E-11
   134.639999       9.16699217E-11
   134.804993       9.10457959E-11
   134.970001       9.00805333E-11
   135.134995       8.87791576E-11
   135.300003       8.71542907E-11
   135.464996       8.52188875E-11
   135.630005       8.29793040E-11
   135.794998       8.04326813E-11
   135.960007       7.75703321E-11
   136.125000       7.43850537E-11
   136.289993       7.08782200E-11
   136.455002       6.70626263E-11
   136.619995       6.29596722E-11
   136.785004       5.85929846E-11
   136.949997       5.39824574E-11
   137.115005       4.91423464E-11
   137.279999       4.40843022E-11
   137.445007       3.88230975E-11
   137.610001       3.33811936E-11
   137.774994       2.77890107E-11
   137.940002       2.20804867E-11
   138.104996       1.62865259E-11
   138.270004       1.04303025E-11
   138.434998       4.52748169E-12
   138.600006      -1.40864696E-12
   138.764999      -7.36012206E-12
   138.929993      -1.32995880E-11
   139.095001      -1.91908052E-11
   139.259995      -2.49941370E-11
   139.425003      -3.06738558E-11
   139.589996      -3.62029226E-11
   139.755005      -4.15625624E-11
   139.919998      -4.67369685E-11
   140.085007      -5.17065939E-11
   140.250000      -5.64444255E-11
   140.414993      -6.09177639E-11
   140.580002      -6.50946727E-11
   140.744995      -6.89511781E-11
   140.910004      -7.24747970E-11
   141.074997      -7.56617685E-11
   141.240005      -7.85093934E-11