   0.00000000       0.00000000    
  0.165000007       7.30265154E-17
  0.330000013       1.00814412E-15
  0.495000005       2.99199290E-15
  0.660000026       4.01759035E-15
  0.824999988      -4.72645443E-16
  0.990000010      -1.59300317E-14
   1.15499997      -4.55601235E-14
   1.32000005      -8.73817620E-14
   1.48500001      -1.33423790E-13
   1.64999998      -1.72093635E-13
   1.81500006      -1.93067743E-13
   1.98000002      -1.92482586E-13
   2.14499998      -1.75675894E-13
   2.30999994      -1.55663175E-13
   2.47499990      -1.47547122E-13
   2.64000010      -1.61154022E-13
   2.80500007      -1.95294871E-13
   2.97000003      -2.36544942E-13
   3.13499999      -2.63489561E-13
   3.29999995      -2.54874030E-13
   3.46499991      -1.98219913E-13
   3.63000011      -9.51669841E-14
   3.79500008       3.87779273E-14
   3.96000004       1.79938556E-13
   4.12500000       3.05134607E-13
   4.28999996       3.99680668E-13
   4.45499992       4.61556791E-13
   4.61999989       5.00395135E-13
   4.78499985       5.32186491E-13
   4.94999981       5.72273240E-13
   5.11499977       6.29569042E-13
   5.28000021       7.03998762E-13
   5.44500017       7.87511386E-13
   5.61000013       8.67535481E-13
   5.77500010       9.31067181E-13
   5.94000006       9.67845378E-13
   6.10500002       9.71961227E-13
   6.26999998       9.42175157E-13
   6.43499994       8.81645885E-13
   6.59999990       7.97560802E-13
   6.76499987       7.00558372E-13
   6.92999983       6.03392716E-13
   7.09499979       5.18408829E-13
   7.26000023       4.54076962E-13
   7.42500019       4.11690647E-13
   7.59000015       3.83812394E-13
   7.75500011       3.55740394E-13
   7.92000008       3.10147578E-13
   8.08500004       2.33542623E-13
   8.25000000       1.22090882E-13
   8.41499996      -1.57485736E-14
   8.57999992      -1.61180029E-13
   8.74499989      -2.91147748E-13
   8.90999985      -3.86275647E-13
   9.07499981      -4.37542363E-13
   9.23999977      -4.49040978E-13
   9.40499973      -4.35799346E-13
   9.56999969      -4.17705069E-13
   9.73499966      -4.12127526E-13
   9.89999962      -4.28171279E-13
   10.0649996      -4.64546533E-13
   10.2299995      -5.11360431E-13
   10.3950005      -5.54530543E-13
   10.5600004      -5.80713429E-13
   10.7250004      -5.80858712E-13
   10.8900003      -5.51507191E-13
   11.0550003      -4.94141024E-13
   11.2200003      -4.13622126E-13
   11.3850002      -3.16740883E-13
   11.5500002      -2.11298522E-13
   11.7150002      -1.05474182E-13
   11.8800001      -6.94753322E-15
   12.0450001       7.84833082E-14
   12.2100000       1.48460888E-13
   12.3750000       2.04959002E-13
   12.5400000       2.53641075E-13
   12.7049999       3.01417908E-13
   12.8699999       3.52905910E-13
   13.0349998       4.07266587E-13
   13.1999998       4.57004226E-13
   13.3649998       4.89552138E-13
   13.5299997       4.91246746E-13
   13.6949997       4.52135427E-13
   13.8599997       3.69594492E-13
   14.0249996       2.49169961E-13
   14.1899996       1.02264558E-13
   14.3549995      -5.82958093E-14
   14.5200005      -2.22862798E-13
   14.6850004      -3.87793449E-13
   14.8500004      -5.55488110E-13
   15.0150003      -7.31922389E-13
   15.1800003      -9.23027063E-13
   15.3450003      -1.13161444E-12
   15.5100002      -1.35609200E-12
   15.6750002      -1.59120427E-12
   15.8400002      -1.83004024E-12
   16.0049992      -2.06607799E-12
   16.1700001      -2.29426677E-12
   16.3349991      -2.51090533E-12
   16.5000000      -2.71282302E-12
   16.6650009      -2.89672583E-12
   16.8299999      -3.05932818E-12
   16.9950008      -3.19828322E-12
   17.1599998      -3.31324876E-12
   17.3250008      -3.40618657E-12
   17.4899998      -3.48031760E-12
   17.6550007      -3.53794793E-12
   17.8199997      -3.57816359E-12
   17.9850006      -3.59565676E-12
   18.1499996      -3.58152960E-12
   18.3150005      -3.52598289E-12
   18.4799995      -3.42182944E-12
   18.6450005      -3.26724715E-12
   18.8099995      -3.06643014E-12
   18.9750004      -2.82774737E-12
   19.1399994      -2.56021484E-12
   19.3050003      -2.26992383E-12
   19.4699993      -1.95808430E-12
   19.6350002      -1.62151867E-12
   19.7999992      -1.25525317E-12
   19.9650002      -8.55859437E-13
   20.1299992      -4.23899983E-13
   20.2950001       3.56186706E-14
   20.4599991       5.14841967E-13
   20.6250000       1.00570431E-12
   20.7900009       1.50216059E-12
   20.9549999       2.00093154E-12
   21.1200008       2.50058026E-12
   21.2849998       2.99968340E-12
   21.4500008       3.49525031E-12
   21.6149998       3.98231925E-12
   21.7800007       4.45489305E-12
   21.9449997       4.90758172E-12
   22.1100006       5.33689499E-12
   22.2749996       5.74141646E-12
   22.4400005       6.12082954E-12
   22.6049995       6.47452144E-12
   22.7700005       6.80076958E-12
   22.9349995       7.09712801E-12
   23.1000004       7.36183163E-12
   23.2649994       7.59532628E-12
   23.4300003       7.80078953E-12
   23.5949993       7.98298320E-12
   23.7600002       8.14569592E-12
   23.9249992       8.28893898E-12
   24.0900002       8.40738937E-12
   24.2549992       8.49105248E-12
   24.4200001       8.52806714E-12
   24.5849991       8.50846997E-12
   24.7500000       8.42723721E-12
   24.9150009       8.28523274E-12
   25.0799999       8.08762432E-12
   25.2450008       7.84057975E-12
   25.4099998       7.54780266E-12
   25.5750008       7.20847123E-12
   25.7399998       6.81742900E-12
   25.9050007       6.36732290E-12
   26.0699997       5.85162170E-12
   26.2350006       5.26720681E-12
   26.3999996       4.61563556E-12
   26.5650005       3.90289277E-12
   26.7299995       3.13806945E-12
   26.8950005       2.33169061E-12
   27.0599995       1.49422575E-12
   27.2250004       6.34895511E-13
   27.3899994      -2.39373679E-13
   27.5550003      -1.12495180E-12
   27.7199993      -2.02221898E-12
   27.8850002      -2.93547456E-12
   28.0499992      -3.87156496E-12
   28.2150002      -4.83715932E-12
   28.3799992      -5.83529882E-12
   28.5450001      -6.86244030E-12
   28.7099991      -7.90728507E-12
   28.8750000      -8.95219922E-12
   29.0400009      -9.97693855E-12
   29.2049999      -1.09633812E-11
   29.3700008      -1.18994458E-11
   29.5349998      -1.27806645E-11
   29.7000008      -1.36088233E-11
   29.8649998      -1.43882900E-11
   30.0300007      -1.51215689E-11
   30.1949997      -1.58058757E-11
   30.3600006      -1.64320155E-11
   30.5249996      -1.69857826E-11
   30.6900005      -1.74510927E-11
   30.8549995      -1.78135250E-11
   31.0200005      -1.80630701E-11
   31.1849995      -1.81953515E-11
   31.3500004      -1.82113317E-11
   31.5149994      -1.81159480E-11
   31.6800003      -1.79162536E-11
   31.8449993      -1.76194736E-11
   32.0099983      -1.72311731E-11
   32.1749992      -1.67535170E-11
   32.3400002      -1.61839535E-11
   32.5050011      -1.55146989E-11
   32.6699982      -1.47335720E-11
   32.8349991      -1.38263576E-11
   33.0000000      -1.27803775E-11
   33.1650009      -1.15883475E-11
   33.3300018      -1.02512564E-11
   33.4949989      -8.77919265E-12
   33.6599998      -7.18971410E-12
   33.8250008      -5.50428193E-12
   33.9900017      -3.74402506E-12
   34.1549988      -1.92636206E-12
   34.3199997      -6.35112283E-14
   34.4850006       1.83679265E-12
   34.6500015       3.76897905E-12
   34.8149986       5.72681919E-12
   34.9799995       7.70126411E-12
   35.1450005       9.67966332E-12
   35.3100014       1.16463575E-11
   35.4749985       1.35841121E-11
   35.6399994       1.54756694E-11
   35.8050003       1.73049006E-11
   35.9700012       1.90573859E-11
   36.1349983       2.07205676E-11
   36.2999992       2.22837668E-11
   36.4650002       2.37382388E-11
   36.6300011       2.50772493E-11
   36.7949982       2.62959394E-11
   36.9599991       2.73906869E-11
   37.1250000       2.83579445E-11
   37.2900009       2.91927628E-11
   37.4550018       2.98874814E-11
   37.6199989       3.04311194E-11
   37.7849998       3.08098096E-11
   37.9500008       3.10082932E-11
   38.1150017       3.10122206E-11
   38.2799988       3.08106284E-11
   38.4449997       3.03978266E-11
   38.6100006       2.97743462E-11
   38.7750015       2.89465674E-11
   38.9399986       2.79252541E-11
   39.1049995       2.67233510E-11
   39.2700005       2.53535838E-11
   39.4350014       2.38265276E-11
   39.5999985       2.21495409E-11
   39.7649994       2.03267906E-11
   39.9300003       1.83602768E-11
   40.0950012       1.62515851E-11
   40.2599983       1.40039768E-11
   40.4249992       1.16243942E-11
   40.5900002       9.12497855E-12
   40.7550011       6.52371343E-12
   40.9199982       3.84404748E-12
   41.0849991       1.11344105E-12
   41.2500000      -1.63897433E-12
   41.4150009      -4.38527643E-12
   41.5800018      -7.10150645E-12
   41.7449989      -9.76954975E-12
   41.9099998      -1.23776180E-11
   42.0750008      -1.49190035E-11
   42.2400017      -1.73895100E-11
   42.4049988      -1.97842159E-11
   42.5699997      -2.20947288E-11
   42.7350006      -2.43078960E-11
   42.9000015      -2.64065436E-11
   43.0649986      -2.83720686E-11
   43.2299995      -3.01879216E-11
   43.3950005      -3.18427923E-11
   43.5600014      -3.33323195E-11
   43.7249985      -3.46587377E-11
   43.8899994      -3.58285623E-11
   44.0550003      -3.68491210E-11
   44.2200012      -3.77250765E-11
   44.3849983      -3.84560855E-11
   44.5499992      -3.90360279E-11
   44.7150002      -3.94539158E-11
   44.8800011      -3.96958820E-11
   45.0449982      -3.97476566E-11
   45.2099991      -3.95969091E-11
   45.3750000      -3.92351290E-11
   45.5400009      -3.86588921E-11
   45.7050018      -3.78705574E-11
   45.8699989      -3.68783580E-11
   46.0349998      -3.56957415E-11
   46.2000008      -3.43399198E-11
   46.3650017      -3.28297424E-11
   46.5299988      -3.11832435E-11
   46.6949997      -2.94154943E-11
   46.8600006      -2.75372902E-11
   47.0250015      -2.55550216E-11
   47.1899986      -2.34717107E-11
   47.3549995      -2.12887503E-11
   47.5200005      -1.90077173E-11
   47.6850014      -1.66316353E-11
   47.8499985      -1.41654440E-11
   48.0149994      -1.16158949E-11
   48.1800003      -8.99119060E-12
   48.3450012      -6.30073294E-12
   48.5099983      -3.55509307E-12
   48.6749992      -7.65989811E-13
   48.8400002       2.05403901E-12
   49.0050011       4.89261192E-12
   49.1699982       7.73902210E-12
   49.3349991       1.05857823E-11
   49.5000000       1.34294555E-11
   49.6650009       1.62701484E-11
   49.8300018       1.91095213E-11
   49.9949989       2.19477388E-11
   50.1599998       2.47803167E-11
   50.3250008       2.75959620E-11
   50.4900017       3.03762744E-11
   50.6549988       3.30974172E-11
   50.8199997       3.57334128E-11
   50.9850006       3.82598953E-11
   51.1500015       4.06573143E-11
   51.3149986       4.29127324E-11
   51.4799995       4.50198281E-11
   51.6450005       4.69772971E-11
   51.8100014       4.87860169E-11
   51.9749985       5.04458003E-11
   52.1399994       5.19523279E-11
   52.3050003       5.32948928E-11
   52.4700012       5.44554540E-11
   52.6349983       5.54094340E-11
   52.7999992       5.61283346E-11
   52.9650002       5.65839424E-11
   53.1300011       5.67532861E-11
   53.2949982       5.66230396E-11
   53.4599991       5.61920024E-11
   53.6250000       5.54705969E-11
   53.7900009       5.44771936E-11
   53.9550018       5.32319744E-11
   54.1199989       5.17502256E-11
   54.2849998       5.00372487E-11
   54.4500008       4.80866007E-11
   54.6150017       4.58824957E-11
   54.7799988       4.34054910E-11
   54.9449997       4.06397242E-11
   55.1100006       3.75792522E-11
   55.2750015       3.42314857E-11
   55.4399986       3.06168112E-11
   55.6049995       2.67647380E-11
   55.7700005       2.27082103E-11
   55.9350014       1.84777645E-11
   56.0999985       1.40971826E-11
   56.2649994       9.58150573E-12
   56.4300003       4.93740595E-12
   56.5950012       1.65452599E-13
   56.7599983      -4.73629989E-12
   56.9249992      -9.76808044E-12
   57.0900002      -1.49238625E-11
   57.2550011      -2.01871974E-11
   57.4199982      -2.55284006E-11
   57.5849991      -3.09041473E-11
   57.7500000      -3.62602830E-11
   57.9150009      -4.15378218E-11
   58.0800018      -4.66808189E-11
   58.2449989      -5.16440467E-11
   58.4099998      -5.63977684E-11
   58.5750008      -6.09278253E-11
   58.7400017      -6.52308277E-11
   58.9049988      -6.93058458E-11
   59.0699997      -7.31457048E-11
   59.2350006      -7.67307259E-11
   59.4000015      -8.00270475E-11
   59.5649986      -8.29897678E-11
   59.7299995      -8.55693502E-11
   59.8950005      -8.77190334E-11
   60.0600014      -8.94007923E-11
   60.2249985      -9.05886685E-11
   60.3899994      -9.12694295E-11
   60.5550003      -9.14412504E-11
   60.7200012      -9.11116252E-11
   60.8849983      -9.02945774E-11
   61.0499992      -8.90074334E-11
   61.2150002      -8.72667980E-11
   61.3800011      -8.50841619E-11
   61.5449982      -8.24620441E-11
   61.7099991      -7.93924509E-11
   61.8750000      -7.58587984E-11
   62.0400009      -7.18417340E-11
   62.2050018      -6.73273451E-11
   62.3699989      -6.23153196E-11
   62.5349998      -5.68240038E-11
   62.7000008      -5.08905938E-11
   62.8650017      -4.45663159E-11
   63.0299988      -3.79082980E-11
   63.1949997      -3.09711423E-11
   63.3600006      -2.38009456E-11
   63.5250015      -1.64332541E-11
   63.6899986      -8.89486922E-12
   63.8549995      -1.20809536E-12
   64.0199966       6.60462830E-12
   64.1849976       1.45169397E-11
   64.3499985       2.24961525E-11
   64.5149994       3.05020696E-11
   64.6800003       3.84864328E-11
   64.8450012       4.63930318E-11
   65.0100021       5.41587643E-11
   65.1750031       6.17164445E-11
   65.3399963       6.89992993E-11
   65.5049973       7.59467558E-11
   65.6699982       8.25096033E-11
   65.8349991       8.86527032E-11
   66.0000000       9.43540523E-11
   66.1650009       9.96000851E-11
   66.3300018       1.04378881E-10
   66.4950027       1.08673584E-10
   66.6600037       1.12458508E-10
   66.8249969       1.15699325E-10
   66.9899979       1.18357213E-10
   67.1549988       1.20394972E-10
   67.3199997       1.21783389E-10
   67.4850006       1.22505395E-10
   67.6500015       1.22557547E-10
   67.8150024       1.21948646E-10
   67.9800034       1.20696453E-10
   68.1449966       1.18823881E-10
   68.3099976       1.16355210E-10
   68.4749985       1.13312665E-10
   68.6399994       1.09713877E-10
   68.8050003       1.05569907E-10
   68.9700012       1.00884988E-10
   69.1350021       9.56581481E-11
   69.3000031       8.98873476E-11
   69.4649963       8.35753897E-11
   69.6299973       7.67363395E-11
   69.7949982       6.94005756E-11
   69.9599991       6.16163232E-11
   70.1250000       5.34469552E-11
   70.2900009       4.49644141E-11
   70.4550018       3.62407292E-11
   70.6200027       2.73401995E-11
   70.7850037       1.83144316E-11
   70.9499969       9.20169409E-12
   71.1149979       3.01898534E-14
   71.2799988      -9.17618585E-12
   71.4449997      -1.83915782E-11
   71.6100006      -2.75834980E-11
   71.7750015      -3.67103778E-11
   71.9400024      -4.57217320E-11
   72.1050034      -5.45601446E-11
   72.2699966      -6.31643904E-11
   72.4349976      -7.14732301E-11
   72.5999985      -7.94293242E-11
   72.7649994      -8.69830666E-11
   72.9300003      -9.40958839E-11
   73.0950012      -1.00742054E-10
   73.2600021      -1.06908177E-10
   73.4250031      -1.12589646E-10
   73.5899963      -1.17784657E-10
   73.7549973      -1.22487034E-10
   73.9199982      -1.26680097E-10
   74.0849991      -1.30333633E-10
   74.2500000      -1.33405564E-10
   74.4150009      -1.35847888E-10
   74.5800018      -1.37615488E-10
   74.7450027      -1.38675349E-10
   74.9100037      -1.39012871E-10
   75.0749969      -1.38634354E-10
   75.2399979      -1.37564363E-10
   75.4049988      -1.35839492E-10
   75.5699997      -1.33500169E-10
   75.7350006      -1.30582739E-10
   75.9000015      -1.27113611E-10
   76.0650024      -1.23106469E-10
   76.2300034      -1.18562729E-10
   76.3949966      -1.13475118E-10
   76.5599976      -1.07833159E-10
   76.7249985      -1.01630239E-10
   76.8899994      -9.48707016E-11
   77.0550003      -8.75755510E-11
   77.2200012      -7.97855532E-11
   77.3850021      -7.15605492E-11
   77.5500031      -6.29744173E-11
   77.7149963      -5.41066567E-11
   77.8799973      -4.50321828E-11
   78.0449982      -3.58121068E-11
   78.2099991      -2.64881901E-11
   78.3750000      -1.70828525E-11
   78.5400009      -7.60488981E-12
   78.7050018       1.94053367E-12
   78.8700027       1.15405125E-11
   79.0350037       2.11652449E-11
   79.1999969       3.07638602E-11
   79.3649979       4.02665956E-11
   79.5299988       4.95925176E-11
   79.6949997       5.86605833E-11
   79.8600006       6.74005365E-11
   80.0250015       7.57608559E-11
   80.1900024       8.37116973E-11
   80.3550034       9.12425482E-11
   80.5199966       9.83556916E-11
   80.6849976       1.05057504E-10
   80.8499985       1.11349874E-10
   81.0149994       1.17223370E-10
   81.1800003       1.22653623E-10
   81.3450012       1.27600902E-10
   81.5100021       1.32013359E-10
   81.6750031       1.35833178E-10
   81.8399963       1.39004849E-10
   82.0049973       1.41483880E-10
   82.1699982       1.43244278E-10
   82.3349991       1.44282822E-10
   82.5000000       1.44618387E-10
   82.6650009       1.44286222E-10
   82.8300018       1.43328210E-10
   82.9950027       1.41781642E-10
   83.1600037       1.39670067E-10
   83.3249969       1.36998773E-10
   83.4899979       1.33756214E-10
   83.6549988       1.29921060E-10
   83.8199997       1.25472369E-10
   83.9850006       1.20399996E-10
   84.1500015       1.14711823E-10
   84.3150024       1.08436655E-10
   84.4800034       1.01622093E-10
   84.6449966       9.43288364E-11
   84.8099976       8.66230004E-11
   84.9749985       7.85683255E-11
   85.1399994       7.02196981E-11
   85.3050003       6.16190501E-11
   85.4700012       5.27940365E-11
   85.6350021       4.37600026E-11
   85.8000031       3.45250495E-11
   85.9649963       2.50976791E-11
   86.1299973       1.54954868E-11
   86.2949982       5.75264099E-12
   86.4599991      -4.07597090E-12
   86.6250000      -1.39159153E-11
   86.7900009      -2.36797353E-11
   86.9550018      -3.32775474E-11
   87.1200027      -4.26289108E-11
   87.2850037      -5.16724927E-11
   87.4499969      -6.03708333E-11
   87.6149979      -6.87091009E-11
   87.7799988      -7.66882877E-11
   87.9449997      -8.43152631E-11
   88.1100006      -9.15922893E-11
   88.2750015      -9.85088747E-11
   88.4400024      -1.05037562E-10
   88.6050034      -1.11134213E-10
   88.7699966      -1.16742435E-10
   88.9349976      -1.21800861E-10
   89.0999985      -1.26252023E-10
   89.2649994      -1.30050720E-10
   89.4300003      -1.33170641E-10
   89.5950012      -1.35607456E-10
   89.7600021      -1.37377415E-10
   89.9250031      -1.38511452E-10
   90.0899963      -1.39045817E-10
   90.2549973      -1.39011552E-10
   90.4199982      -1.38425785E-10
   90.5849991      -1.37287140E-10
   90.7500000      -1.35577438E-10
   90.9150009      -1.33268743E-10
   91.0800018      -1.30334271E-10
   91.2450027      -1.26759478E-10
   91.4100037      -1.22550581E-10
   91.5749969      -1.17737570E-10
   91.7399979      -1.12371543E-10
   91.9049988      -1.06517149E-10
   92.0699997      -1.00242488E-10
   92.2350006      -9.36095992E-11
   92.4000015      -8.66675134E-11
   92.5650024      -7.94493082E-11
   92.7300034      -7.19733162E-11
   92.8949966      -6.42478917E-11
   93.0599976      -5.62781974E-11
   93.2249985      -4.80739094E-11
   93.3899994      -3.96558029E-11
   93.5550003      -3.10603106E-11
   93.7200012      -2.23406606E-11
   93.8850021      -1.35641949E-11
   94.0500031      -4.80575649E-12
   94.2149963       3.86130797E-12
   94.3799973       1.23746100E-11
   94.5449982       2.06899064E-11
   94.7099991       2.87839509E-11
   94.8750000       3.66515845E-11
   95.0400009       4.42978570E-11
   95.2050018       5.17272961E-11
   95.3700027       5.89336219E-11
   95.5350037       6.58930133E-11
   95.6999969       7.25631083E-11
   95.8649979       7.88878268E-11
   96.0299988       8.48064119E-11
   96.1949997       9.02639838E-11
   96.3600006       9.52206161E-11
   96.5250015       9.96566163E-11
   96.6900024       1.03572997E-10
   96.8550034       1.06987641E-10
   97.0199966       1.09928386E-10
   97.1849976       1.12424813E-10
   97.3499985       1.14500361E-10
   97.5149994       1.16166167E-10
   97.6800003       1.17417770E-10
   97.8450012       1.18235310E-10
   98.0100021       1.18587362E-10
   98.1750031       1.18438120E-10
   98.3399963       1.17756319E-10
   98.5049973       1.16524262E-10
   98.6699982       1.14744304E-10
   98.8349991       1.12440904E-10
   99.0000000       1.09657450E-10
   99.1650009       1.06448517E-10
   99.3300018       1.02869741E-10
   99.4950027       9.89683058E-11
   99.6600037       9.47766102E-11
   99.8249969       9.03109046E-11
   99.9899979       8.55747626E-11
   100.154999       8.05657763E-11
   100.320000       7.52830784E-11
   100.485001       6.97334135E-11
   100.650002       6.39343162E-11
   100.815002       5.79142602E-11
   100.980003       5.17104241E-11
   101.144997       4.53652255E-11
   101.309998       3.89226186E-11
   101.474998       3.24247712E-11
   101.639999       2.59089573E-11
   101.805000       1.94049412E-11
   101.970001       1.29329724E-11
   102.135002       6.50307629E-12
   102.300003       1.16532245E-13
   102.464996      -6.23032745E-12
   102.629997      -1.25402770E-11
   102.794998      -1.88087219E-11
   102.959999      -2.50184682E-11
   103.125000      -3.11376445E-11
   103.290001      -3.71215107E-11
   103.455002      -4.29180129E-11
   103.620003      -4.84753730E-11
   103.785004      -5.37495951E-11
   103.949997      -5.87100507E-11
   104.114998      -6.33420191E-11
   104.279999      -6.76460138E-11
   104.445000      -7.16345941E-11
   104.610001      -7.53276330E-11
   104.775002      -7.87468424E-11
   104.940002      -8.19102286E-11
   105.105003      -8.48268747E-11
   105.269997      -8.74928741E-11
   105.434998      -8.98896790E-11
   105.599998      -9.19858564E-11
   105.764999      -9.37426456E-11
   105.930000      -9.51226944E-11
   106.095001      -9.60996352E-11
   106.260002      -9.66655020E-11
   106.425003      -9.68331040E-11
   106.589996      -9.66321329E-11
   106.754997      -9.60996629E-11
   106.919998      -9.52682933E-11
   107.084999      -9.41558290E-11
   107.250000      -9.27600705E-11
   107.415001      -9.10602982E-11
   107.580002      -8.90247112E-11
   107.745003      -8.66211963E-11
   107.910004      -8.38276254E-11
   108.074997      -8.06389400E-11
   108.239998      -7.70693787E-11
   108.404999      -7.31502983E-11
   108.570000      -6.89246160E-11
   108.735001      -6.44398285E-11
   108.900002      -5.97406638E-11
   109.065002      -5.48627671E-11
   109.230003      -4.98281555E-11
   109.394997      -4.46434695E-11
   109.559998      -3.93019089E-11
   109.724998      -3.37893810E-11
   109.889999      -2.80940132E-11
   110.055000      -2.22169332E-11
   110.220001      -1.61808570E-11
   110.385002      -1.00333439E-11
   110.550003      -3.84279284E-12
   110.714996       2.31213161E-12
   110.879997       8.35668340E-12
   111.044998       1.42332144E-11
   111.209999       1.99090484E-11
   111.375000       2.53766071E-11
   111.540001       3.06462355E-11
   111.705002       3.57345958E-11
   111.870003       4.06528179E-11
   112.035004       4.53981193E-11
   112.199997       4.99508351E-11
   112.364998       5.42768296E-11
   112.529999       5.83335671E-11
   112.695000       6.20774820E-11
   112.860001       6.54707122E-11
   113.025002       6.84860779E-11
   113.190002       7.11099443E-11
   113.355003       7.33428179E-11
   113.519997       7.51976259E-11
   113.684998       7.66955874E-11
   113.849998       7.78597881E-11
   114.014999       7.87077903E-11
   114.180000       7.92449856E-11
   114.345001       7.94610835E-11
   114.510002       7.93313956E-11
   114.675003       7.88233714E-11
   114.839996       7.79067297E-11
   115.004997       7.65641717E-11
   115.169998       7.47992571E-11
   115.334999       7.26387769E-11
   115.500000       7.01289651E-11
   115.665001       6.73269288E-11
   115.830002       6.42900178E-11
   115.995003       6.10664852E-11
   116.160004       5.76897211E-11
   116.324997       5.41769130E-11
   116.489998       5.05316761E-11
   116.654999       4.67490040E-11
   116.820000       4.28212535E-11
   116.985001       3.87437894E-11
   117.150002       3.45197343E-11
   117.315002       3.01632885E-11
   117.480003       2.57013473E-11
   117.644997       2.11727615E-11
   117.809998       1.66249115E-11
   117.974998       1.21078017E-11
   118.139999       7.66675091E-12
   118.305000       3.33569760E-12
   118.470001      -8.66830533E-13
   118.635002      -4.93748575E-12
   118.800003      -8.88361260E-12
   118.964996      -1.27157850E-11
   119.129997      -1.64399223E-11
   119.294998      -2.00514813E-11
   119.459999      -2.35335414E-11
   119.625000      -2.68589664E-11
   119.790001      -2.99954124E-11
   119.955002      -3.29112917E-11
   120.120003      -3.55808126E-11
   120.285004      -3.79872245E-11
   120.449997      -4.01239320E-11
   120.614998      -4.19941130E-11
   120.779999      -4.36092829E-11
   120.945000      -4.49871147E-11
   121.110001      -4.61483039E-11
   121.275002      -4.71124771E-11
   121.440002      -4.78935849E-11
   121.605003      -4.84959468E-11
   121.769997      -4.89125095E-11
   121.934998      -4.91264043E-11
   122.099998      -4.91159960E-11
   122.264999      -4.88621400E-11
   122.430000      -4.83554412E-11
   122.595001      -4.76010134E-11
   122.760002      -4.66190628E-11
   122.925003      -4.54412237E-11
   123.089996      -4.41040607E-11
   123.254997      -4.26420114E-11
   123.419998      -4.10818948E-11
   123.584999      -3.94401387E-11
   123.750000      -3.77227589E-11
   123.915001      -3.59272022E-11
   124.080002      -3.40449023E-11
   124.245003      -3.20638932E-11
   124.410004      -2.99714593E-11
   124.574997      -2.77571559E-11
   124.739998      -2.54162698E-11
   124.904999      -2.29531723E-11
   125.070000      -2.03833790E-11
   125.235001      -1.77331500E-11
   125.400002      -1.50359950E-11
   125.565002      -1.23266492E-11
   125.730003      -9.63426301E-12
   125.894997      -6.97706129E-12
   126.059998      -4.36047032E-12
   126.224998      -1.77939499E-12
   126.389999       7.76222348E-13
   126.555000       3.31456845E-12
   126.720001       5.83624035E-12
   126.885002       8.33137986E-12
   127.050003       1.07802847E-11
   127.214996       1.31568176E-11
   127.379997       1.54332241E-11
   127.544998       1.75848051E-11
   127.709999       1.95933911E-11
   127.875000       2.14492556E-11
   128.039993       2.31515085E-11
   128.205002       2.47071912E-11
   128.369995       2.61291856E-11
   128.535004       2.74330957E-11
   128.699997       2.86334029E-11
   128.865005       2.97395719E-11
   129.029999       3.07530564E-11
   129.195007       3.16663223E-11
   129.360001       3.24645692E-11
   129.524994       3.31298843E-11
   129.690002       3.36466653E-11
   129.854996       3.40064886E-11
   130.020004       3.42107662E-11
   130.184998       3.42702568E-11
   130.350006       3.42016450E-11
   130.514999       3.40224307E-11
   130.679993       3.37459852E-11
   130.845001       3.33783869E-11
   131.009995       3.29178837E-11
   131.175003       3.23566868E-11
   131.339996       3.16841969E-11
   131.505005       3.08903771E-11
   131.669998       2.99683403E-11
   131.835007       2.89156199E-11
   132.000000       2.77342472E-11
   132.164993       2.64300699E-11
   132.330002       2.50117219E-11
   132.494995       2.34895367E-11
   132.660004       2.18744328E-11
   132.824997       2.01767787E-11
   132.990005       1.84053207E-11
   133.154999       1.65664600E-11
   133.320007       1.46641241E-11
   133.485001       1.27004986E-11
   133.649994       1.06775266E-11
   133.815002       8.59897223E-12
   133.979996       6.47245538E-12
   134.145004       4.31076745E-12
   134.309998       2.13198187E-12
   134.475006      -4.18488486E-14
   134.639999      -2.18728594E-12
   134.804993      -4.28282800E-12
   134.970001      -6.31223199E-12
   135.134995      -8.26693314E-12
   135.300003      -1.01468035E-11
   135.464996      -1.19589729E-11
   135.630005      -1.37149164E-11
   135.794998      -1.54264917E-11
   135.960007      -1.71018841E-11
   136.125000      -1.87424434E-11
   136.289993      -2.03412044E-11
   136.455002      -2.18832626E-11
   136.619995      -2.33478428E-11
   136.785004      -2.47114169E-11
   136.949997      -2.59512689E-11
   137.115005      -2.70489429E-11
   137.279999      -2.79930419E-11
   137.445007      -2.87809030E-11
   137.610001      -2.94186966E-11
   137.774994      -2.99196015E-11
   137.940002      -3.03000541E-11
   138.104996      -3.05745360E-11
   138.270004      -3.07500934E-11
   138.434998      -3.08224071E-11
   138.600006      -3.07749659E-11
   138.764999      -3.05823006E-11
   138.929993      -3.02169019E-11
   139.095001      -2.96579150E-11
   139.259995      -2.88989718E-11
   139.425003      -2.79524303E-11
   139.589996      -2.68483395E-11
   139.755005      -2.56282218E-11
   139.919998      -2.43355145E-11
   140.085007      -2.30056963E-11
   140.250000      -2.16590808E-11
   140.414993      -2.02982318E-11
   140.580002      -1.89103976E-11
   140.744995      -1.74736874E-11
   140.910004      -1.59648492E-11
   141.074997      -1.43663085E-11
   141.240005      -1.26707672E-11