   0.00000000       0.00000000    
  0.165000007      -1.88726140E-15
  0.330000013      -5.47916010E-15
  0.495000005      -1.18888121E-14
  0.660000026      -2.48746336E-14
  0.824999988      -5.03862258E-14
  0.990000010      -9.37510161E-14
   1.15499997      -1.55640664E-13
   1.32000005      -2.29131574E-13
   1.48500001      -3.00032595E-13
   1.64999998      -3.51143295E-13
   1.81500006      -3.68973081E-13
   1.98000002      -3.49898767E-13
   2.14499998      -3.02724100E-13
   2.30999994      -2.46240040E-13
   2.47499990      -2.02780989E-13
   2.64000010      -1.90608244E-13
   2.80500007      -2.18299906E-13
   2.97000003      -2.83128149E-13
   3.13499999      -3.73413160E-13
   3.29999995      -4.73141220E-13
   3.46499991      -5.66528703E-13
   3.63000011      -6.40890661E-13
   3.79500008      -6.87549030E-13
   3.96000004      -7.01666752E-13
   4.12500000      -6.82149432E-13
   4.28999996      -6.32100871E-13
   4.45499992      -5.59352749E-13
   4.61999989      -4.76026879E-13
   4.78499985      -3.96326960E-13
   4.94999981      -3.32669141E-13
   5.11499977      -2.91346103E-13
   5.28000021      -2.69520300E-13
   5.44500017      -2.55077128E-13
   5.61000013      -2.29801448E-13
   5.77500010      -1.74975011E-13
   5.94000006      -7.74682781E-14
   6.10500002       6.58521360E-14
   6.26999998       2.46994591E-13
   6.43499994       4.49393669E-13
   6.59999990       6.53196139E-13
   6.76499987       8.41343163E-13
   6.92999983       1.00428216E-12
   7.09499979       1.14177266E-12
   7.26000023       1.26146142E-12
   7.42500019       1.37518458E-12
   7.59000015       1.49474411E-12
   7.75500011       1.62885449E-12
   7.92000008       1.78207004E-12
   8.08500004       1.95527513E-12
   8.25000000       2.14648611E-12
   8.41499996       2.35084847E-12
   8.57999992       2.55973389E-12
   8.74499989       2.76004068E-12
   8.90999985       2.93530716E-12
   9.07499981       3.06949930E-12
   9.23999977       3.15266433E-12
   9.40499973       3.18593784E-12
   9.56999969       3.18288343E-12
   9.73499966       3.16545184E-12
   9.89999962       3.15552662E-12
   10.0649996       3.16564808E-12
   10.2299995       3.19336940E-12
   10.3950005       3.22211008E-12
   10.5600004       3.22811374E-12
   10.7250004       3.18994896E-12
   10.8900003       3.09580053E-12
   11.0550003       2.94523672E-12
   11.2200003       2.74543582E-12
   11.3850002       2.50501789E-12
   11.5500002       2.22970774E-12
   11.7150002       1.92237068E-12
   11.8800001       1.58665127E-12
   12.0450001       1.23074695E-12
   12.2100000       8.67634469E-13
   12.3750000       5.10470138E-13
   12.5400000       1.65415817E-13
   12.7049999      -1.73589035E-13
   12.8699999      -5.24117750E-13
   13.0349998      -9.07853274E-13
   13.1999998      -1.33977844E-12
   13.3649998      -1.81959049E-12
   13.5299997      -2.33002506E-12
   13.6949997      -2.84303917E-12
   13.8599997      -3.33050189E-12
   14.0249996      -3.77378510E-12
   14.1899996      -4.16767142E-12
   14.3549995      -4.51752654E-12
   14.5200005      -4.83248294E-12
   14.6850004      -5.11920150E-12
   14.8500004      -5.37966590E-12
   15.0150003      -5.61330800E-12
   15.1800003      -5.82078092E-12
   15.3450003      -6.00577444E-12
   15.5100002      -6.17295885E-12
   15.6750002      -6.32316118E-12
   15.8400002      -6.44909039E-12
   16.0049992      -6.53496918E-12
   16.1700001      -6.56117608E-12
   16.3349991      -6.51198409E-12
   16.5000000      -6.38253859E-12
   16.6650009      -6.18146029E-12
   16.8299999      -5.92778994E-12
   16.9950008      -5.64387469E-12
   17.1599998      -5.34763249E-12
   17.3250008      -5.04750929E-12
   17.4899998      -4.74171657E-12
   17.6550007      -4.42117523E-12
   17.8199997      -4.07419064E-12
   17.9850006      -3.69073001E-12
   18.1499996      -3.26503690E-12
   18.3150005      -2.79643799E-12
   18.4799995      -2.28891905E-12
   18.6450005      -1.75013552E-12
   18.8099995      -1.19024148E-12
   18.9750004      -6.20653539E-13
   19.1399994      -5.27896615E-14
   19.3050003       5.03157195E-13
   19.4699993       1.03938147E-12
   19.6350002       1.55157831E-12
   19.7999992       2.03993593E-12
   19.9650002       2.50967346E-12
   20.1299992       2.97052357E-12
   20.2950001       3.43458465E-12
   20.4599991       3.91251918E-12
   20.6250000       4.40903434E-12
   20.7900009       4.91947021E-12
   20.9549999       5.42943468E-12
   21.1200008       5.91833960E-12
   21.2849998       6.36582106E-12
   21.4500008       6.75835906E-12
   21.6149998       7.09309781E-12
   21.7800007       7.37720995E-12
   21.9449997       7.62344528E-12
   22.1100006       7.84443083E-12
   22.2749996       8.04869713E-12
   22.4400005       8.24004753E-12
   22.6049995       8.41957233E-12
   22.7700005       8.58791423E-12
   22.9349995       8.74541585E-12
   23.1000004       8.88959479E-12
   23.2649994       9.01172539E-12
   23.4300003       9.09547004E-12
   23.5949993       9.11957749E-12
   23.7600002       9.06419124E-12
   23.9249992       8.91787859E-12
   24.0900002       8.68162139E-12
   24.2549992       8.36744389E-12
   24.4200001       7.99227438E-12
   24.5849991       7.57024478E-12
   24.7500000       7.10743660E-12
   24.9150009       6.60141386E-12
   25.0799999       6.04503036E-12
   25.2450008       5.43168115E-12
   25.4099998       4.75882701E-12
   25.5750008       4.02824692E-12
   25.7399998       3.24384031E-12
   25.9050007       2.40932599E-12
   26.0699997       1.52789933E-12
   26.2350006       6.04175184E-13
   26.3999996      -3.53223120E-13
   26.5650005      -1.33081382E-12
   26.7299995      -2.31251888E-12
   26.8950005      -3.28433526E-12
   27.0599995      -4.23896768E-12
   27.2250004      -5.17775493E-12
   27.3899994      -6.10860494E-12
   27.5550003      -7.04078939E-12
   27.7199993      -7.97902976E-12
   27.8850002      -8.91952397E-12
   28.0499992      -9.84937045E-12
   28.2150002      -1.07491264E-11
   28.3799992      -1.15969604E-11
   28.5450001      -1.23726134E-11
   28.7099991      -1.30600747E-11
   28.8750000      -1.36487497E-11
   29.0400009      -1.41334860E-11
   29.2049999      -1.45139022E-11
   29.3700008      -1.47932413E-11
   29.5349998      -1.49768982E-11
   29.7000008      -1.50707294E-11
   29.8649998      -1.50793752E-11
   30.0300007      -1.50049348E-11
   30.1949997      -1.48461278E-11
   30.3600006      -1.45980068E-11
   30.5249996      -1.42522131E-11
   30.6900005      -1.37980825E-11
   30.8549995      -1.32248908E-11
   31.0200005      -1.25252421E-11
   31.1849995      -1.16987843E-11
   31.3500004      -1.07546029E-11
   31.5149994      -9.71064288E-12
   31.6800003      -8.58957610E-12
   31.8449993      -7.41232076E-12
   32.0099983      -6.19203733E-12
   32.1749992      -4.93168744E-12
   32.3400002      -3.62666928E-12
   32.5050011      -2.27137254E-12
   32.6699982      -8.66154858E-13
   32.8349991       5.79090595E-13
   33.0000000       2.04664844E-12
   33.1650009       3.51666417E-12
   33.3300018       4.97307100E-12
   33.4949989       6.40601504E-12
   33.6599998       7.80938942E-12
   33.8250008       9.17546247E-12
   33.9900017       1.04906795E-11
   34.1549988       1.17361077E-11
   34.3199997       1.28929150E-11
   34.4850006       1.39496409E-11
   34.6500015       1.49064216E-11
   34.8149986       1.57728674E-11
   34.9799995       1.65602324E-11
   35.1450005       1.72721802E-11
   35.3100014       1.78996401E-11
   35.4749985       1.84228934E-11
   35.6399994       1.88196871E-11
   35.8050003       1.90745111E-11
   35.9700012       1.91835055E-11
   36.1349983       1.91522995E-11
   36.2999992       1.89886770E-11
   36.4650002       1.86951964E-11
   36.6300011       1.82667961E-11
   36.7949982       1.76950607E-11
   36.9599991       1.69763318E-11
   37.1250000       1.61182977E-11
   37.2900009       1.51405711E-11
   37.4550018       1.40685337E-11
   37.6199989       1.29239779E-11
   37.7849998       1.17180848E-11
   37.9500008       1.04508303E-11
   38.1150017       9.11693897E-12
   38.2799988       7.71460847E-12
   38.4449997       6.25176430E-12
   38.6100006       4.74647318E-12
   38.7750015       3.22180433E-12
   38.9399986       1.69867451E-12
   39.1049995       1.91015023E-13
   39.2700005      -1.29427166E-12
   39.4350014      -2.75333207E-12
   39.5999985      -4.18052745E-12
   39.7649994      -5.56608622E-12
   39.9300003      -6.89760055E-12
   40.0950012      -8.16406664E-12
   40.2599983      -9.35958516E-12
   40.4249992      -1.04842151E-11
   40.5900002      -1.15413998E-11
   40.7550011      -1.25335107E-11
   40.9199982      -1.34581252E-11
   41.0849991      -1.43070937E-11
   41.2500000      -1.50687796E-11
   41.4150009      -1.57321552E-11
   41.5800018      -1.62906546E-11
   41.7449989      -1.67440402E-11
   41.9099998      -1.70977399E-11
   42.0750008      -1.73601584E-11
   42.2400017      -1.75392235E-11
   42.4049988      -1.76394576E-11
   42.5699997      -1.76606230E-11
   42.7350006      -1.75983377E-11
   42.9000015      -1.74464453E-11
   43.0649986      -1.72002239E-11
   43.2299995      -1.68590870E-11
   43.3950005      -1.64275416E-11
   43.5600014      -1.59137460E-11
   43.7249985      -1.53262038E-11
   43.8899994      -1.46702494E-11
   44.0550003      -1.39462348E-11
   44.2200012      -1.31505874E-11
   44.3849983      -1.22792904E-11
   44.5499992      -1.13318669E-11
   44.7150002      -1.03136215E-11
   44.8800011      -9.23496783E-12
   45.0449982      -8.10839330E-12
   45.2099991      -6.94517317E-12
   45.3750000      -5.75401402E-12
   45.5400009      -4.54243284E-12
   45.7050018      -3.31963515E-12
   45.8699989      -2.09838505E-12
   46.0349998      -8.93817247E-13
   46.2000008       2.80807251E-13
   46.3650017       1.41911016E-12
   46.5299988       2.52414474E-12
   46.6949997       3.60634547E-12
   46.8600006       4.67737828E-12
   47.0250015       5.74291699E-12
   47.1899986       6.79825380E-12
   47.3549995       7.82917654E-12
   47.5200005       8.81759943E-12
   47.6850014       9.74877817E-12
   47.8499985       1.06162041E-11
   48.0149994       1.14218886E-11
   48.1800003       1.21725199E-11
   48.3450012       1.28742624E-11
   48.5099983       1.35293027E-11
   48.6749992       1.41356770E-11
   48.8400002       1.46896349E-11
   49.0050011       1.51882153E-11
   49.1699982       1.56299123E-11
   49.3349991       1.60130850E-11
   49.5000000       1.63335751E-11
   49.6650009       1.65837587E-11
   49.8300018       1.67543913E-11
   49.9949989       1.68386242E-11
   50.1599998       1.68359580E-11
   50.3250008       1.67537668E-11
   50.4900017       1.66052640E-11
   50.6549988       1.64047560E-11
   50.8199997       1.61624377E-11
   50.9850006       1.58811280E-11
   51.1500015       1.55560651E-11
   51.3149986       1.51773542E-11
   51.4799995       1.47334714E-11
   51.6450005       1.42143181E-11
   51.8100014       1.36129632E-11
   51.9749985       1.29261020E-11
   52.1399994       1.21537285E-11
   52.3050003       1.12984075E-11
   52.4700012       1.03643179E-11
   52.6349983       9.35611571E-12
   52.7999992       8.27779078E-12
   52.9650002       7.13198207E-12
   53.1300011       5.92011379E-12
   53.2949982       4.64335861E-12
   53.4599991       3.30388668E-12
   53.6250000       1.90567007E-12
   53.7900009       4.54510127E-13
   53.9550018      -1.04245117E-12
   54.1199989      -2.57700046E-12
   54.2849998      -4.13946351E-12
   54.4500008      -5.71789144E-12
   54.6150017      -7.29778217E-12
   54.7799988      -8.86325041E-12
   54.9449997      -1.03997410E-11
   55.1100006      -1.18970589E-11
   55.2750015      -1.33507936E-11
   55.4399986      -1.47607013E-11
   55.6049995      -1.61263728E-11
   55.7700005      -1.74423132E-11
   55.9350014      -1.86952571E-11
   56.0999985      -1.98655623E-11
   56.2649994      -2.09320564E-11
   56.4300003      -2.18776924E-11
   56.5950012      -2.26926811E-11
   56.7599983      -2.33733172E-11
   56.9249992      -2.39174843E-11
   57.0900002      -2.43199853E-11
   57.2550011      -2.45710379E-11
   57.4199982      -2.46592052E-11
   57.5849991      -2.45769533E-11
   57.7500000      -2.43251634E-11
   57.9150009      -2.39133748E-11
   58.0800018      -2.33551668E-11
   58.2449989      -2.26612860E-11
   58.4099998      -2.18345932E-11
   58.5750008      -2.08699620E-11
   58.7400017      -1.97590781E-11
   58.9049988      -1.84970459E-11
   59.0699997      -1.70866724E-11
   59.2350006      -1.55378817E-11
   59.4000015      -1.38631398E-11
   59.5649986      -1.20723501E-11
   59.7299995      -1.01710342E-11
   59.8950005      -8.16332245E-12
   60.0600014      -6.05788336E-12
   60.2249985      -3.87269123E-12
   60.3899994      -1.63505244E-12
   60.5550003       6.23846406E-13
   60.7200012       2.87704366E-12
   60.8849983       5.10791409E-12
   61.0499992       7.31068157E-12
   61.2150002       9.48505424E-12
   61.3800011       1.16280787E-11
   61.5449982       1.37278591E-11
   61.7099991       1.57624504E-11
   61.8750000       1.77041402E-11
   62.0400009       1.95262504E-11
   62.2050018       2.12084829E-11
   62.3699989       2.27383199E-11
   62.5349998       2.41085728E-11
   62.7000008       2.53136991E-11
   62.8650017       2.63477469E-11
   63.0299988       2.72053022E-11
   63.1949997       2.78844014E-11
   63.3600006       2.83887826E-11
   63.5250015       2.87271873E-11
   63.6899986       2.89091789E-11
   63.8549995       2.89393284E-11
   64.0199966       2.88129069E-11
   64.1849976       2.85156499E-11
   64.3499985       2.80282620E-11
   64.5149994       2.73338869E-11
   64.6800003       2.64254261E-11
   64.8450012       2.53096641E-11
   65.0100021       2.40066751E-11
   65.1750031       2.25449780E-11
   65.3399963       2.09545974E-11
   65.5049973       1.92606226E-11
   65.6699982       1.74795074E-11
   65.8349991       1.56188725E-11
   66.0000000       1.36802757E-11
   66.1650009       1.16633795E-11
   66.3300018       9.56975558E-12
   66.4950027       7.40503492E-12
   66.6600037       5.17912232E-12
   66.8249969       2.90517436E-12
   66.9899979       5.98504644E-13
   67.1549988      -1.72369606E-12
   67.3199997      -4.04182287E-12
   67.4850006      -6.33342294E-12
   67.6500015      -8.57405206E-12
   67.8150024      -1.07400243E-11
   67.9800034      -1.28123675E-11
   68.1449966      -1.47801233E-11
   68.3099976      -1.66409317E-11
   68.4749985      -1.83978943E-11
   68.6399994      -2.00536462E-11
   68.8050003      -2.16043728E-11
   68.9700012      -2.30368676E-11
   69.1350021      -2.43303520E-11
   69.3000031      -2.54624030E-11
   69.4649963      -2.64161158E-11
   69.6299973      -2.71849886E-11
   69.7949982      -2.77732767E-11
   69.9599991      -2.81920737E-11
   70.1250000      -2.84535746E-11
   70.2900009      -2.85667549E-11
   70.4550018      -2.85364111E-11
   70.6200027      -2.83652025E-11
   70.7850037      -2.80565484E-11
   70.9499969      -2.76158298E-11
   71.1149979      -2.70489360E-11
   71.2799988      -2.63590469E-11
   71.4449997      -2.55441449E-11
   71.6100006      -2.45973294E-11
   71.7750015      -2.35103412E-11
   71.9400024      -2.22785471E-11
   72.1050034      -2.09045455E-11
   72.2699966      -1.93982972E-11
   72.4349976      -1.77736419E-11
   72.5999985      -1.60432969E-11
   72.7649994      -1.42151603E-11
   72.9300003      -1.22920528E-11
   73.0950012      -1.02748131E-11
   73.2600021      -8.16684134E-12
   73.4250031      -5.97747893E-12
   73.5899963      -3.72241951E-12
   73.7549973      -1.42127672E-12
   73.9199982       9.06011594E-13
   74.0849991       3.24179030E-12
   74.2500000       5.57111388E-12
   74.4150009       7.88028670E-12
   74.5800018       1.01550469E-11
   74.7450027       1.23798237E-11
   74.9100037       1.45386845E-11
   75.0749969       1.66172336E-11
   75.2399979       1.86040489E-11
   75.4049988       2.04905468E-11
   75.5699997       2.22691553E-11
   75.7350006       2.39308434E-11
   75.9000015       2.54634820E-11
   76.0650024       2.68520362E-11
   76.2300034       2.80805015E-11
   76.3949966       2.91345455E-11
   76.5599976       3.00035413E-11
   76.7249985       3.06810966E-11
   76.8899994       3.11640574E-11
   77.0550003       3.14507830E-11
   77.2200012       3.15396632E-11
   77.3850021       3.14285022E-11
   77.5500031       3.11148572E-11
   77.7149963       3.05968237E-11
   77.8799973       2.98739193E-11
   78.0449982       2.89476741E-11
   78.2099991       2.78219461E-11
   78.3750000       2.65030914E-11
   78.5400009       2.50000350E-11
   78.7050018       2.33242158E-11
   78.8700027       2.14893242E-11
   79.0350037       1.95108426E-11
   79.1999969       1.74056550E-11
   79.3649979       1.51917767E-11
   79.5299988       1.28882530E-11
   79.6949997       1.05149136E-11
   79.8600006       8.09160464E-12
   80.0250015       5.63696008E-12
   80.1900024       3.16704779E-12
   80.3550034       6.94704819E-13
   80.5199966      -1.76977931E-12
   80.6849976      -4.21664917E-12
   80.8499985      -6.63412728E-12
   81.0149994      -9.00662270E-12
   81.1800003      -1.13147573E-11
   81.3450012      -1.35374342E-11
   81.5100021      -1.56549114E-11
   81.6750031      -1.76513179E-11
   81.8399963      -1.95154014E-11
   82.0049973      -2.12393263E-11
   82.1699982      -2.28165976E-11
   82.3349991      -2.42406321E-11
   82.5000000      -2.55049419E-11
   82.6650009      -2.66047063E-11
   82.8300018      -2.75382946E-11
   82.9950027      -2.83072038E-11
   83.1600037      -2.89139459E-11
   83.3249969      -2.93586891E-11
   83.4899979      -2.96370220E-11
   83.6549988      -2.97404983E-11
   83.8199997      -2.96603089E-11
   83.9850006      -2.93924017E-11
   84.1500015      -2.89412990E-11
   84.3150024      -2.83202871E-11
   84.4800034      -2.75476673E-11
   84.6449966      -2.66410990E-11
   84.8099976      -2.56129475E-11
   84.9749985      -2.44691663E-11
   85.1399994      -2.32119463E-11
   85.3050003      -2.18442764E-11
   85.4700012      -2.03734356E-11
   85.6350021      -1.88114767E-11
   85.8000031      -1.71727806E-11
   85.9649963      -1.54706786E-11
   86.1299973      -1.37155148E-11
   86.2949982      -1.19153359E-11
   86.4599991      -1.00784294E-11
   86.6250000      -8.21548992E-12
   86.7900009      -6.33925985E-12
   86.9550018      -4.46142168E-12
   87.1200027      -2.58849235E-12
   87.2850037      -7.19648625E-13
   87.4499969       1.15172206E-12
   87.6149979       3.03293111E-12
   87.7799988       4.92595071E-12
   87.9449997       6.82362847E-12
   88.1100006       8.71026688E-12
   88.2750015       1.05661530E-11
   88.4400024       1.23734521E-11
   88.6050034       1.41202770E-11
   88.7699966       1.58010497E-11
   88.9349976       1.74136192E-11
   89.0999985       1.89553269E-11
   89.2649994       2.04205715E-11
   89.4300003       2.18010870E-11
   89.5950012       2.30881928E-11
   89.7600021       2.42751583E-11
   89.9250031       2.53579172E-11
   90.0899963       2.63336766E-11
   90.2549973       2.71986132E-11
   90.4199982       2.79463952E-11
   90.5849991       2.85686769E-11
   90.7500000       2.90572774E-11
   90.9150009       2.94067895E-11
   91.0800018       2.96158167E-11
   91.2450027       2.96861424E-11
   91.4100037       2.96203097E-11
   91.5749969       2.94189256E-11
   91.7399979       2.90790690E-11
   91.9049988       2.85945226E-11
   92.0699997       2.79574402E-11
   92.2350006       2.71605568E-11
   92.4000015       2.61991782E-11
   92.5650024       2.50723574E-11
   92.7300034       2.37835081E-11
   92.8949966       2.23402876E-11
   93.0599976       2.07539021E-11
   93.2249985       1.90378130E-11
   93.3899994       1.72060855E-11
   93.5550003       1.52716919E-11
   93.7200012       1.32456155E-11
   93.8850021       1.11369585E-11
   94.0500031       8.95384201E-12
   94.2149963       6.70445817E-12
   94.3799973       4.39745853E-12
   94.5449982       2.04145273E-12
   94.7099991      -3.55801434E-13
   94.8750000      -2.78757898E-12
   95.0400009      -5.24713606E-12
   95.2050018      -7.72570376E-12
   95.3700027      -1.02107055E-11
   95.5350037      -1.26854300E-11
   95.6999969      -1.51307022E-11
   95.8649979      -1.75277744E-11
   96.0299988      -1.98608317E-11
   96.1949997      -2.21176116E-11
   96.3600006      -2.42878235E-11
   96.5250015      -2.63605821E-11
   96.6900024      -2.83227330E-11
   96.8550034      -3.01594479E-11
   97.0199966      -3.18567950E-11
   97.1849976      -3.34046228E-11
   97.3499985      -3.47975815E-11
   97.5149994      -3.60332250E-11
   97.6800003      -3.71080076E-11
   97.8450012      -3.80134327E-11
   98.0100021      -3.87347932E-11
   98.1750031      -3.92534304E-11
   98.3399963      -3.95513101E-11
   98.5049973      -3.96154429E-11
   98.6699982      -3.94397154E-11
   98.8349991      -3.90234511E-11
   99.0000000      -3.83678991E-11
   99.1650009      -3.74730455E-11
   99.3300018      -3.63364859E-11
   99.4950027      -3.49546468E-11
   99.6600037      -3.33251274E-11
   99.8249969      -3.14482849E-11
   99.9899979      -2.93271067E-11
   100.154999      -2.69658549E-11
   100.320000      -2.43691196E-11
   100.485001      -2.15425698E-11
   100.650002      -1.84954344E-11
   100.815002      -1.52433413E-11
   100.980003      -1.18096973E-11
   101.144997      -8.22426502E-12
   101.309998      -4.51948158E-12
   101.474998      -7.26293700E-13
   101.639999       3.12843067E-12
   101.805000       7.02180111E-12
   101.970001       1.09325075E-11
   102.135002       1.48377820E-11
   102.300003       1.87112808E-11
   102.464996       2.25226799E-11
   102.629997       2.62386571E-11
   102.794998       2.98242819E-11
   102.959999       3.32442338E-11
   103.125000       3.64637730E-11
   103.290001       3.94499849E-11
   103.455002       4.21734418E-11
   103.620003       4.46100171E-11
   103.785004       4.67417910E-11
   103.949997       4.85563152E-11
   104.114998       5.00442257E-11
   104.279999       5.11963388E-11
   104.445000       5.20016981E-11
   104.610001       5.24475810E-11
   104.775002       5.25213484E-11
   104.940002       5.22129007E-11
   105.105003       5.15164196E-11
   105.269997       5.04307637E-11
   105.434998       4.89588682E-11
   105.599998       4.71074464E-11
   105.764999       4.48875416E-11
   105.930000       4.23158730E-11
   106.095001       3.94155195E-11
   106.260002       3.62149408E-11
   106.425003       3.27450150E-11
   106.589996       2.90353592E-11
   106.754997       2.51119854E-11
   106.919998       2.09977521E-11
   107.084999       1.67155005E-11
   107.250000       1.22920415E-11
   107.415001       7.76058297E-12
   107.580002       3.16006249E-12
   107.745003      -1.46814418E-12
   107.910004      -6.08412886E-12
   108.074997      -1.06515239E-11
   108.239998      -1.51367946E-11
   108.404999      -1.95066012E-11
   108.570000      -2.37254834E-11
   108.735001      -2.77557075E-11
   108.900002      -3.15596438E-11
   109.065002      -3.51032571E-11
   109.230003      -3.83582437E-11
   109.394997      -4.13016357E-11
   109.559998      -4.39131440E-11
   109.724998      -4.61724131E-11
   109.889999      -4.80585571E-11
   110.055000      -4.95526849E-11
   110.220001      -5.06421467E-11
   110.385002      -5.13239624E-11
   110.550003      -5.16050119E-11
   110.714996      -5.14987671E-11
   110.879997      -5.10201950E-11
   111.044998      -5.01817476E-11
   111.209999      -4.89926433E-11
   111.375000      -4.74614549E-11
   111.540001      -4.56002007E-11
   111.705002      -4.34272444E-11
   111.870003      -4.09673129E-11
   112.035004      -3.82488208E-11
   112.199997      -3.53004431E-11
   112.364998      -3.21489814E-11
   112.529999      -2.88197157E-11
   112.695000      -2.53387623E-11
   112.860001      -2.17354919E-11
   113.025002      -1.80435892E-11
   113.190002      -1.42999015E-11
   113.355003      -1.05417420E-11
   113.519997      -6.80436697E-12
   113.684998      -3.11946476E-12
   113.849998       4.84789021E-13
   114.014999       3.98285918E-12
   114.180000       7.35088899E-12
   114.345001       1.05663464E-11
   114.510002       1.36081589E-11
   114.675003       1.64571759E-11
   114.839996       1.90964883E-11
   115.004997       2.15116952E-11
   115.169998       2.36911012E-11
   115.334999       2.56259354E-11
   115.500000       2.73105497E-11
   115.665001       2.87422169E-11
   115.830002       2.99204585E-11
   115.995003       3.08464435E-11
   116.160004       3.15227913E-11
   116.324997       3.19543315E-11
   116.489998       3.21491306E-11
   116.654999       3.21191858E-11
   116.820000       3.18797523E-11
   116.985001       3.14474280E-11
   117.150002       3.08377074E-11
   117.315002       3.00636807E-11
   117.480003       2.91369949E-11
   117.644997       2.80708182E-11
   117.809998       2.68832751E-11
   117.974998       2.55990871E-11
   118.139999       2.42480359E-11
   118.305000       2.28605693E-11
   118.470001       2.14626025E-11
   118.635002       2.00720811E-11
   118.800003       1.86988879E-11
   118.964996       1.73477829E-11
   119.129997       1.60223970E-11
   119.294998       1.47278474E-11
   119.459999       1.34708434E-11
   119.625000       1.22577261E-11
   119.790001       1.10924958E-11
   119.955002       9.97662630E-12
   120.120003       8.91068903E-12
   120.285004       7.89689234E-12
   120.449997       6.94008869E-12
   120.614998       6.04630799E-12
   120.779999       5.21900275E-12
   120.945000       4.45527296E-12
   121.110001       3.74432516E-12
   121.275002       3.06955936E-12
   121.440002       2.41324300E-12
   121.605003       1.76151639E-12
   121.769997       1.10708860E-12
   121.934998       4.48828312E-13
   122.099998      -2.11409097E-13
   122.264999      -8.72489797E-13
   122.430000      -1.53640924E-12
   122.595001      -2.20872040E-12
   122.760002      -2.89744921E-12
   122.925003      -3.61192977E-12
   123.089996      -4.36228484E-12
   123.254997      -5.15944145E-12
   123.419998      -6.01474036E-12
   123.584999      -6.93847844E-12
   123.750000      -7.93752217E-12
   123.915001      -9.01312011E-12
   124.080002      -1.01603049E-11
   124.245003      -1.13694297E-11
   124.410004      -1.26293524E-11
   124.574997      -1.39306249E-11
   124.739998      -1.52671816E-11
   124.904999      -1.66358455E-11
   125.070000      -1.80342217E-11
   125.235001      -1.94583672E-11
   125.400002      -2.09012928E-11
   125.565002      -2.23526354E-11
   125.730003      -2.37987911E-11
   125.894997      -2.52230181E-11
   126.059998      -2.66051521E-11
   126.224998      -2.79214863E-11
   126.389999      -2.91456720E-11
   126.555000      -3.02509441E-11
   126.720001      -3.12129905E-11
   126.885002      -3.20122331E-11
   127.050003      -3.26341246E-11
   127.214996      -3.30673093E-11
   127.379997      -3.33006574E-11
   127.544998      -3.33207975E-11
   127.709999      -3.31116384E-11
   127.875000      -3.26558051E-11
   128.039993      -3.19369704E-11
   128.205002      -3.09416902E-11
   128.369995      -2.96598163E-11
   128.535004      -2.80839327E-11
   128.699997      -2.62090020E-11
   128.865005      -2.40334003E-11
   129.029999      -2.15613152E-11
   129.195007      -1.88053774E-11
   129.360001      -1.57876420E-11
   129.524994      -1.25380088E-11
   129.690002      -9.09058159E-12
   129.854996      -5.47972258E-12
   130.020004      -1.73786311E-12
   130.184998       2.10401900E-12
   130.350006       6.01396840E-12
   130.514999       9.95662407E-12
   130.679993       1.38926327E-11
   130.845001       1.77805028E-11
   131.009995       2.15797085E-11
   131.175003       2.52531399E-11
   131.339996       2.87673999E-11
   131.505005       3.20910833E-11
   131.669998       3.51925329E-11
   131.835007       3.80390996E-11
   132.000000       4.05988645E-11
   132.164993       4.28441865E-11
   132.330002       4.47551093E-11
   132.494995       4.63205654E-11
   132.660004       4.75366864E-11
   132.824997       4.84032155E-11
   132.990005       4.89201978E-11
   133.154999       4.90867069E-11
   133.320007       4.89020074E-11
   133.485001       4.83680006E-11
   133.649994       4.74911048E-11
   133.815002       4.62822593E-11
   133.979996       4.47552308E-11
   134.145004       4.29245806E-11
   134.309998       4.08049636E-11
   134.475006       3.84124260E-11
   134.639999       3.57668166E-11
   134.804993       3.28934900E-11
   134.970001       2.98228837E-11
   135.134995       2.65877008E-11
   135.300003       2.32189632E-11
   135.464996       1.97429868E-11
   135.630005       1.61807547E-11
   135.794998       1.25498683E-11
   135.960007       8.86776590E-12
   136.125000       5.15426807E-12
   136.289993       1.43221860E-12
   136.455002      -2.27383628E-12
   136.619995      -5.93976604E-12
   136.785004      -9.54324900E-12
   136.949997      -1.30638174E-11
   137.115005      -1.64817153E-11
   137.279999      -1.97766248E-11
   137.445007      -2.29274134E-11
   137.610001      -2.59132316E-11
   137.774994      -2.87155213E-11
   137.940002      -3.13198217E-11
   138.104996      -3.37163492E-11
   138.270004      -3.58990719E-11
   138.434998      -3.78637018E-11
   138.600006      -3.96054231E-11
   138.764999      -4.11171062E-11
   138.929993      -4.23885059E-11
   139.095001      -4.34064555E-11
   139.259995      -4.41559740E-11
   139.425003      -4.46217716E-11
   139.589996      -4.47900744E-11
   139.755005      -4.46502453E-11
   139.919998      -4.41960600E-11
   140.085007      -4.34261377E-11
   140.250000      -4.23437327E-11
   140.414993      -4.09560164E-11
   140.580002      -3.92733832E-11
   140.744995      -3.73091107E-11
   140.910004      -3.50793422E-11
   141.074997      -3.26030869E-11
   141.240005      -2.99019004E-11