   0.00000000       0.00000000    
  0.165000007      -1.21602178E-15
  0.330000013      -3.85676335E-15
  0.495000005      -8.79513950E-15
  0.660000026      -1.79672222E-14
  0.824999988      -3.40700233E-14
  0.990000010      -5.93274074E-14
   1.15499997      -9.38194089E-14
   1.32000005      -1.34381750E-13
   1.48500001      -1.74984986E-13
   1.64999998      -2.08768671E-13
   1.81500006      -2.30926145E-13
   1.98000002      -2.41009334E-13
   2.14499998      -2.43401680E-13
   2.30999994      -2.45648472E-13
   2.47499990      -2.55492974E-13
   2.64000010      -2.78101408E-13
   2.80500007      -3.14734594E-13
   2.97000003      -3.63188944E-13
   3.13499999      -4.19339829E-13
   3.29999995      -4.78676018E-13
   3.46499991      -5.37038404E-13
   3.63000011      -5.90591378E-13
   3.79500008      -6.35724546E-13
   3.96000004      -6.69586294E-13
   4.12500000      -6.91293160E-13
   4.28999996      -7.03027697E-13
   4.45499992      -7.09970819E-13
   4.61999989      -7.18582203E-13
   4.78499985      -7.33835681E-13
   4.94999981      -7.56864135E-13
   5.11499977      -7.84417128E-13
   5.28000021      -8.10528673E-13
   5.44500017      -8.29447025E-13
   5.61000013      -8.38086707E-13
   5.77500010      -8.36615662E-13
   5.94000006      -8.27076146E-13
   6.10500002      -8.11274171E-13
   6.26999998      -7.89592729E-13
   6.43499994      -7.61580903E-13
   6.59999990      -7.27705222E-13
   6.76499987      -6.90625454E-13
   6.92999983      -6.54577954E-13
   7.09499979      -6.22840538E-13
   7.26000023      -5.94859448E-13
   7.42500019      -5.65220776E-13
   7.59000015      -5.25681495E-13
   7.75500011      -4.69428695E-13
   7.92000008      -3.95052643E-13
   8.08500004      -3.07614746E-13
   8.25000000      -2.15917860E-13
   8.41499996      -1.27545462E-13
   8.57999992      -4.47754118E-14
   8.74499989       3.60034641E-14
   8.90999985       1.21010122E-13
   9.07499981       2.14161046E-13
   9.23999977       3.13899297E-13
   9.40499973       4.13976660E-13
   9.56999969       5.07687208E-13
   9.73499966       5.92594225E-13
   9.89999962       6.72382126E-13
   10.0649996       7.54388414E-13
   10.2299995       8.44371936E-13
   10.3950005       9.42043752E-13
   10.5600004       1.04047326E-12
   10.7250004       1.12990509E-12
   10.8900003       1.20351895E-12
   11.0550003       1.26129792E-12
   11.2200003       1.30940950E-12
   11.3850002       1.35554946E-12
   11.5500002       1.40346589E-12
   11.7150002       1.45044014E-12
   11.8800001       1.48943900E-12
   12.0450001       1.51441219E-12
   12.2100000       1.52503585E-12
   12.3750000       1.52757158E-12
   12.5400000       1.53116614E-12
   12.7049999       1.54200914E-12
   12.8699999       1.55921391E-12
   13.0349998       1.57511038E-12
   13.1999998       1.57968235E-12
   13.3649998       1.56617254E-12
   13.5299997       1.53427488E-12
   13.6949997       1.48915710E-12
   13.8599997       1.43744153E-12
   14.0249996       1.38317591E-12
   14.1899996       1.32647148E-12
   14.3549995       1.26530611E-12
   14.5200005       1.19860643E-12
   14.6850004       1.12791514E-12
   14.8500004       1.05617587E-12
   15.0150003       9.84551850E-13
   15.1800003       9.09852814E-13
   15.3450003       8.24875324E-13
   15.5100002       7.21913306E-13
   15.6750002       5.97368888E-13
   15.8400002       4.54480583E-13
   16.0049992       3.02378971E-13
   16.1700001       1.52062390E-13
   16.3349991       1.18230663E-14
   16.5000000      -1.15233954E-13
   16.6650009      -2.30600586E-13
   16.8299999      -3.37874639E-13
   16.9950008      -4.40606536E-13
   17.1599998      -5.42002803E-13
   17.3250008      -6.46108167E-13
   17.4899998      -7.58670091E-13
   17.6550007      -8.86022701E-13
   17.8199997      -1.03202863E-12
   17.9850006      -1.19499549E-12
   18.1499996      -1.36700948E-12
   18.3150005      -1.53676887E-12
   18.4799995      -1.69458609E-12
   18.6450005      -1.83655109E-12
   18.8099995      -1.96521033E-12
   18.9750004      -2.08638445E-12
   19.1399994      -2.20439053E-12
   19.3050003      -2.31900024E-12
   19.4699993      -2.42615368E-12
   19.6350002      -2.52163546E-12
   19.7999992      -2.60468621E-12
   19.9650002      -2.67854879E-12
   20.1299992      -2.74727463E-12
   20.2950001      -2.81111310E-12
   20.4599991      -2.86419976E-12
   20.6250000      -2.89691968E-12
   20.7900009      -2.90198421E-12
   20.9549999      -2.88029561E-12
   21.1200008      -2.84227329E-12
   21.2849998      -2.80305054E-12
   21.4500008      -2.77404358E-12
   21.6149998      -2.75608139E-12
   21.7800007      -2.73857803E-12
   21.9449997      -2.70546823E-12
   22.1100006      -2.64426024E-12
   22.2749996      -2.55254216E-12
   22.4400005      -2.43795739E-12
   22.6049995      -2.31199413E-12
   22.7700005      -2.18198138E-12
   22.9349995      -2.04673236E-12
   23.1000004      -1.89861885E-12
   23.2649994      -1.73030589E-12
   23.4300003      -1.54118927E-12
   23.5949993      -1.33881686E-12
   23.7600002      -1.13415570E-12
   23.9249992      -9.33903779E-13
   24.0900002      -7.35142687E-13
   24.2549992      -5.26108616E-13
   24.4200001      -2.92705937E-13
   24.5849991      -2.65425889E-14
   24.7500000       2.70695955E-13
   24.9150009       5.89192811E-13
   25.0799999       9.17622532E-13
   25.2450008       1.24980050E-12
   25.4099998       1.58694119E-12
   25.5750008       1.93433095E-12
   25.7399998       2.29510551E-12
   25.9050007       2.66568863E-12
   26.0699997       3.03609980E-12
   26.2350006       3.39485406E-12
   26.3999996       3.73503182E-12
   26.5650005       4.05743321E-12
   26.7299995       4.36890151E-12
   26.8950005       4.67719179E-12
   27.0599995       4.98592920E-12
   27.2250004       5.29271462E-12
   27.3899994       5.59092226E-12
   27.5550003       5.87310886E-12
   27.7199993       6.13316169E-12
   27.8850002       6.36576078E-12
   28.0499992       6.56417585E-12
   28.2150002       6.71894962E-12
   28.3799992       6.81937362E-12
   28.5450001       6.85738315E-12
   28.7099991       6.83134018E-12
   28.8750000       6.74683573E-12
   29.0400009       6.61351095E-12
   29.2049999       6.43963615E-12
   29.3700008       6.22776743E-12
   29.5349998       5.97408928E-12
   29.7000008       5.67148021E-12
   29.8649998       5.31387000E-12
   30.0300007       4.89875371E-12
   30.1949997       4.42646484E-12
   30.3600006       3.89748346E-12
   30.5249996       3.31072778E-12
   30.6900005       2.66500168E-12
   30.8549995       1.96314818E-12
   31.0200005       1.21586183E-12
   31.1849995       4.41679354E-13
   31.3500004      -3.37993630E-13
   31.5149994      -1.10648567E-12
   31.6800003      -1.85751956E-12
   31.8449993      -2.59510664E-12
   32.0099983      -3.32738871E-12
   32.1749992      -4.05806638E-12
   32.3400002      -4.78075565E-12
   32.5050011      -5.47980498E-12
   32.6699982      -6.13688874E-12
   32.8349991      -6.73894360E-12
   33.0000000      -7.28226767E-12
   33.1650009      -7.77034773E-12
   33.3300018      -8.20739657E-12
   33.4949989      -8.59242105E-12
   33.6599998      -8.91819604E-12
   33.8250008      -9.17584064E-12
   33.9900017      -9.36160698E-12
   34.1549988      -9.48075386E-12
   34.3199997      -9.54526475E-12
   34.4850006      -9.56648129E-12
   34.6500015      -9.54743402E-12
   34.8149986      -9.48010333E-12
   34.9799995      -9.34977182E-12
   35.1450005      -9.14395382E-12
   35.3100014      -8.86038552E-12
   35.4749985      -8.50914998E-12
   35.6399994      -8.10779222E-12
   35.8050003      -7.67267846E-12
   35.9700012      -7.21200573E-12
   36.1349983      -6.72437453E-12
   36.2999992      -6.20299732E-12
   36.4650002      -5.64201810E-12
   36.6300011      -5.04053006E-12
   36.7949982      -4.40200133E-12
   36.9599991      -3.73039577E-12
   37.1250000      -3.02654603E-12
   37.2900009      -2.28790793E-12
   37.4550018      -1.51209210E-12
   37.6199989      -7.01603651E-13
   37.7849998       1.33734657E-13
   37.9500008       9.78639804E-13
   38.1150017       1.81745764E-12
   38.2799988       2.63925080E-12
   38.4449997       3.43974545E-12
   38.6100006       4.21926730E-12
   38.7750015       4.97849028E-12
   38.9399986       5.71508032E-12
   39.1049995       6.42327077E-12
   39.2700005       7.09607113E-12
   39.4350014       7.72792334E-12
   39.5999985       8.31554010E-12
   39.7649994       8.85640606E-12
   39.9300003       9.34643855E-12
   40.0950012       9.77909594E-12
   40.2599983       1.01470308E-11
   40.4249992       1.04452731E-11
   40.5900002       1.06734977E-11
   40.7550011       1.08353604E-11
   40.9199982       1.09350367E-11
   41.0849991       1.09732492E-11
   41.2500000       1.09456671E-11
   41.4150009       1.08449855E-11
   41.5800018       1.06653393E-11
   41.7449989       1.04059174E-11
   41.9099998       1.00711288E-11
   42.0750008       9.66713341E-12
   42.2400017       9.19724366E-12
   42.4049988       8.65973786E-12
   42.5699997       8.04997388E-12
   42.7350006       7.36562374E-12
   42.9000015       6.61146528E-12
   43.0649986       5.80030338E-12
   43.2299995       4.94922029E-12
   43.3950005       4.07363596E-12
   43.5600014       3.18330453E-12
   43.7249985       2.28301622E-12
   43.8899994       1.37743809E-12
   44.0550003       4.76392797E-13
   44.2200012      -4.03590898E-13
   44.3849983      -1.24313103E-12
   44.5499992      -2.02703132E-12
   44.7150002      -2.74978673E-12
   44.8800011      -3.41567269E-12
   45.0449982      -4.03305341E-12
   45.2099991      -4.60663669E-12
   45.3750000      -5.13287112E-12
   45.5400009      -5.60177642E-12
   45.7050018      -6.00410260E-12
   45.8699989      -6.33904864E-12
   46.0349998      -6.61719247E-12
   46.2000008      -6.85638395E-12
   46.3650017      -7.07297979E-12
   46.5299988      -7.27385817E-12
   46.6949997      -7.45416229E-12
   46.8600006      -7.60188787E-12
   47.0250015      -7.70607102E-12
   47.1899986      -7.76320935E-12
   47.3549995      -7.77812884E-12
   47.5200005      -7.75949617E-12
   47.6850014      -7.71381310E-12
   47.8499985      -7.64247519E-12
   48.0149994      -7.54394030E-12
   48.1800003      -7.41914256E-12
   48.3450012      -7.27574728E-12
   48.5099983      -7.12757414E-12
   48.6749992      -6.98892073E-12
   48.8400002      -6.86722944E-12
   49.0050011      -6.75889292E-12
   49.1699982      -6.65113754E-12
   49.3349991      -6.52898525E-12
   49.5000000      -6.38306638E-12
   49.6650009      -6.21365719E-12
   49.8300018      -6.02888746E-12
   49.9949989      -5.83877608E-12
   50.1599998      -5.64919162E-12
   50.3250008      -5.45932917E-12
   50.4900017      -5.26354481E-12
   50.6549988      -5.05539447E-12
   50.8199997      -4.83062115E-12
   50.9850006      -4.58711368E-12
   51.1500015      -4.32253712E-12
   51.3149986      -4.03218691E-12
   51.4799995      -3.70937829E-12
   51.6450005      -3.34855819E-12
   51.8100014      -2.94898849E-12
   51.9749985      -2.51612208E-12
   52.1399994      -2.05920263E-12
   52.3050003      -1.58629099E-12
   52.4700012      -1.09972968E-12
   52.6349983      -5.94890890E-13
   52.7999992      -6.28506307E-14
   52.9650002       5.04866765E-13
   53.1300011       1.11247155E-12
   53.2949982       1.75906089E-12
   53.4599991       2.44042351E-12
   53.6250000       3.15138042E-12
   53.7900009       3.88649789E-12
   53.9550018       4.63869134E-12
   54.1199989       5.39740128E-12
   54.2849998       6.14870958E-12
   54.4500008       6.87849647E-12
   54.6150017       7.57732852E-12
   54.7799988       8.24396454E-12
   54.9449997       8.88483818E-12
   55.1100006       9.50920592E-12
   55.2750015       1.01225998E-11
   55.4399986       1.07224446E-11
   55.6049995       1.12984613E-11
   55.7700005       1.18373080E-11
   55.9350014       1.23282226E-11
   56.0999985       1.27658153E-11
   56.2649994       1.31483210E-11
   56.4300003       1.34729051E-11
   56.5950012       1.37317987E-11
   56.7599983       1.39124476E-11
   56.9249992       1.40020148E-11
   57.0900002       1.39932909E-11
   57.2550011       1.38878587E-11
   57.4199982       1.36939236E-11
   57.5849991       1.34198451E-11
   57.7500000       1.30672886E-11
   57.9150009       1.26284122E-11
   58.0800018       1.20888976E-11
   58.2449989       1.14349355E-11
   58.4099998       1.06597934E-11
   58.5750008       9.76602479E-12
   58.7400017       8.76250288E-12
   58.9049988       7.65886660E-12
   59.0699997       6.46159471E-12
   59.2350006       5.17451620E-12
   59.4000015       3.80325025E-12
   59.5649986       2.36017672E-12
   59.7299995       8.65977429E-13
   59.8950005      -6.53980288E-13
   60.0600014      -2.17666358E-12
   60.2249985      -3.68776841E-12
   60.3899994      -5.18372888E-12
   60.5550003      -6.66833472E-12
   60.7200012      -8.14609491E-12
   60.8849983      -9.61619239E-12
   61.0499992      -1.10699444E-11
   61.2150002      -1.24921835E-11
   61.3800011      -1.38645102E-11
   61.5449982      -1.51677282E-11
   61.7099991      -1.63822081E-11
   61.8750000      -1.74870153E-11
   62.0400009      -1.84599107E-11
   62.2050018      -1.92797826E-11
   62.3699989      -1.99310447E-11
   62.5349998      -2.04076443E-11
   62.7000008      -2.07141006E-11
   62.8650017      -2.08623934E-11
   63.0299988      -2.08660988E-11
   63.1949997      -2.07346518E-11
   63.3600006      -2.04705385E-11
   63.5250015      -2.00703308E-11
   63.6899986      -1.95282696E-11
   63.8549995      -1.88400597E-11
   64.0199966      -1.80050367E-11
   64.1849976      -1.70265226E-11
   64.3499985      -1.59114683E-11
   64.5149994      -1.46706692E-11
   64.6800003      -1.33196457E-11
   64.8450012      -1.18791045E-11
   65.0100021      -1.03734478E-11
   65.1750031      -8.82693224E-12
   65.3399963      -7.25871793E-12
   65.5049973      -5.67931422E-12
   65.6699982      -4.09047622E-12
   65.8349991      -2.48886025E-12
   66.0000000      -8.71643415E-13
   66.1650009       7.58745063E-13
   66.3300018       2.39285545E-12
   66.4950027       4.01561163E-12
   66.6600037       5.60928387E-12
   66.8249969       7.15593730E-12
   66.9899979       8.63834872E-12
   67.1549988       1.00399342E-11
   67.3199997       1.13452303E-11
   67.4850006       1.25419449E-11
   67.6500015       1.36240177E-11
   67.8150024       1.45937117E-11
   67.9800034       1.54606813E-11
   68.1449966       1.62375790E-11
   68.3099976       1.69339126E-11
   68.4749985       1.75513076E-11
   68.6399994       1.80827488E-11
   68.8050003       1.85162233E-11
   68.9700012       1.88406651E-11
   69.1350021       1.90509674E-11
   69.3000031       1.91495257E-11
   69.4649963       1.91441307E-11
   69.6299973       1.90441204E-11
   69.7949982       1.88574191E-11
   69.9599991       1.85899473E-11
   70.1250000       1.82467878E-11
   70.2900009       1.78332557E-11
   70.4550018       1.73540626E-11
   70.6200027       1.68106813E-11
   70.7850037       1.61987680E-11
   70.9499969       1.55080272E-11
   71.1149979       1.47256513E-11
   71.2799988       1.38421956E-11
   71.4449997       1.28568406E-11
   71.6100006       1.17790352E-11
   71.7750015       1.06255239E-11
   71.9400024       9.41430701E-12
   72.1050034       8.15888329E-12
   72.2699966       6.86577921E-12
   72.4349976       5.53623033E-12
   72.5999985       4.17032988E-12
   72.7649994       2.77076474E-12
   72.9300003       1.34387185E-12
   73.0950012      -1.02031902E-13
   73.2600021      -1.55931344E-12
   73.4250031      -3.02227731E-12
   73.5899963      -4.48594807E-12
   73.7549973      -5.94326541E-12
   73.9199982      -7.38300133E-12
   74.0849991      -8.79035299E-12
   74.2500000      -1.01503545E-11
   74.4150009      -1.14523183E-11
   74.5800018      -1.26925128E-11
   74.7450027      -1.38733122E-11
   74.9100037      -1.49991061E-11
   75.0749969      -1.60712624E-11
   75.2399979      -1.70848995E-11
   75.4049988      -1.80290487E-11
   75.5699997      -1.88896832E-11
   75.7350006      -1.96534594E-11
   75.9000015      -2.03099464E-11
   76.0650024      -2.08514126E-11
   76.2300034      -2.12710440E-11
   76.3949966      -2.15615303E-11
   76.5599976      -2.17154558E-11
   76.7249985      -2.17276145E-11
   76.8899994      -2.15976872E-11
   77.0550003      -2.13314054E-11
   77.2200012      -2.09390040E-11
   77.3850021      -2.04315124E-11
   77.5500031      -1.98167784E-11
   77.7149963      -1.90971267E-11
   77.8799973      -1.82698058E-11
   78.0449982      -1.73297540E-11
   78.2099991      -1.62732466E-11
   78.3750000      -1.51008182E-11
   78.5400009      -1.38185444E-11
   78.7050018      -1.24377340E-11
   78.8700027      -1.09736187E-11
   79.0350037      -9.44358307E-12
   79.1999969      -7.86523104E-12
   79.3649979      -6.25427791E-12
   79.5299988      -4.62244652E-12
   79.6949997      -2.97604736E-12
   79.8600006      -1.31600904E-12
   80.0250015       3.60294910E-13
   80.1900024       2.05577417E-12
   80.3550034       3.77013178E-12
   80.5199966       5.49743497E-12
   80.6849976       7.22553050E-12
   80.8499985       8.93738382E-12
   81.0149994       1.06133513E-11
   81.1800003       1.22335597E-11
   81.3450012       1.37797655E-11
   81.5100021       1.52368586E-11
   81.6750031       1.65942139E-11
   81.8399963       1.78467865E-11
   82.0049973       1.89952984E-11
   82.1699982       2.00446049E-11
   82.3349991       2.10001357E-11
   82.5000000       2.18633202E-11
   82.6650009       2.26279637E-11
   82.8300018       2.32794929E-11
   82.9950027       2.37978682E-11
   83.1600037       2.41631142E-11
   83.3249969       2.43610288E-11
   83.4899979       2.43865379E-11
   83.6549988       2.42434319E-11
   83.8199997       2.39413038E-11
   83.9850006       2.34916375E-11
   84.1500015       2.29052281E-11
   84.3150024       2.21915732E-11
   84.4800034       2.13594420E-11
   84.6449966       2.04170812E-11
   84.8099976       1.93709458E-11
   84.9749985       1.82236934E-11
   85.1399994       1.69730046E-11
   85.3050003       1.56130751E-11
   85.4700012       1.41390953E-11
   85.6350021       1.25528260E-11
   85.8000031       1.08664440E-11
   85.9649963       9.10221204E-12
   86.1299973       7.28778322E-12
   86.2949982       5.44927124E-12
   86.4599991       3.60544320E-12
   86.6250000       1.76568113E-12
   86.7900009      -6.78445269E-14
   86.9550018      -1.89574550E-12
   87.1200027      -3.71734197E-12
   87.2850037      -5.52897138E-12
   87.4499969      -7.32453334E-12
   87.6149979      -9.09662883E-12
   87.7799988      -1.08365383E-11
   87.9449997      -1.25326268E-11
   88.1100006      -1.41686038E-11
   88.2750015      -1.57237730E-11
   88.4400024      -1.71765640E-11
   88.6050034      -1.85103773E-11
   88.7699966      -1.97189001E-11
   88.9349976      -2.08077323E-11
   89.0999985      -2.17909215E-11
   89.2649994      -2.26837247E-11
   89.4300003      -2.34951017E-11
   89.5950012      -2.42234444E-11
   89.7600021      -2.48573627E-11
   89.9250031      -2.53803957E-11
   90.0899963      -2.57766759E-11
   90.2549973      -2.60347993E-11
   90.4199982      -2.61484445E-11
   90.5849991      -2.61149592E-11
   90.7500000      -2.59339477E-11
   90.9150009      -2.56072594E-11
   91.0800018      -2.51402822E-11
   91.2450027      -2.45427810E-11
   91.4100037      -2.38276031E-11
   91.5749969      -2.30069262E-11
   91.7399979      -2.20877362E-11
   91.9049988      -2.10690475E-11
   92.0699997      -1.99428356E-11
   92.2350006      -1.86984629E-11
   92.4000015      -1.73283402E-11
   92.5650024      -1.58319313E-11
   92.7300034      -1.42160589E-11
   92.8949966      -1.24919537E-11
   93.0599976      -1.06710318E-11
   93.2249985      -8.76209522E-12
   93.3899994      -6.77105594E-12
   93.5550003      -4.70263195E-12
   93.7200012      -2.56216532E-12
   93.8850021      -3.55994504E-13
   94.0500031       1.90978201E-12
   94.2149963       4.23085395E-12
   94.3799973       6.60474149E-12
   94.5449982       9.02849843E-12
   94.7099991       1.14949907E-11
   94.8750000       1.39897902E-11
   95.0400009       1.64906266E-11
   95.2050018       1.89698760E-11
   95.3700027       2.13987803E-11
   95.5350037       2.37512839E-11
   95.6999969       2.60057097E-11
   95.8649979       2.81440374E-11
   96.0299988       3.01499624E-11
   96.1949997       3.20073933E-11
   96.3600006       3.37002475E-11
   96.5250015       3.52132941E-11
   96.6900024       3.65328427E-11
   96.8550034       3.76462889E-11
   97.0199966       3.85407366E-11
   97.1849976       3.92016836E-11
   97.3499985       3.96130802E-11
   97.5149994       3.97591092E-11
   97.6800003       3.96268886E-11
   97.8450012       3.92085184E-11
   98.0100021       3.85012786E-11
   98.1750031       3.75060226E-11
   98.3399963       3.62250611E-11
   98.5049973       3.46609234E-11
   98.6699982       3.28169263E-11
   98.8349991       3.06988532E-11
   99.0000000       2.83163683E-11
   99.1650009       2.56829280E-11
   99.3300018       2.28142939E-11
   99.4950027       1.97268001E-11
   99.6600037       1.64369230E-11
   99.8249969       1.29630334E-11
   99.9899979       9.32829508E-12
   100.154999       5.56301489E-12
   100.320000       1.70440561E-12
   100.485001      -2.20640325E-12
   100.650002      -6.12880970E-12
   100.815002      -1.00265629E-11
   100.980003      -1.38691758E-11
   101.144997      -1.76308742E-11
   101.309998      -2.12884588E-11
   101.474998      -2.48197522E-11
   101.639999      -2.82036061E-11
   101.805000      -3.14208382E-11
   101.970001      -3.44545399E-11
   102.135002      -3.72887415E-11
   102.300003      -3.99057627E-11
   102.464996      -4.22839021E-11
   102.629997      -4.43975030E-11
   102.794998      -4.62201978E-11
   102.959999      -4.77299970E-11
   103.125000      -4.89138140E-11
   103.290001      -4.97689494E-11
   103.455002      -5.03008329E-11
   103.620003      -5.05182805E-11
   103.785004      -5.04288521E-11
   103.949997      -5.00364958E-11
   104.114998      -4.93420096E-11
   104.279999      -4.83450224E-11
   104.445000      -4.70459054E-11
   104.610001      -4.54465042E-11
   104.775002      -4.35501149E-11
   104.940002      -4.13619798E-11
   105.105003      -3.88911299E-11
   105.269997      -3.61530320E-11
   105.434998      -3.31712748E-11
   105.599998      -2.99764345E-11
   105.764999      -2.66016723E-11
   105.930000      -2.30765598E-11
   106.095001      -1.94222676E-11
   106.260002      -1.56503699E-11
   106.425003      -1.17659398E-11
   106.589996      -7.77320656E-12
   106.754997      -3.68072456E-12
   106.919998       4.96017181E-13
   107.084999       4.73500362E-12
   107.250000       9.00967235E-12
   107.415001       1.32904842E-11
   107.580002       1.75451442E-11
   107.745003       2.17384166E-11
   107.910004       2.58330510E-11
   108.074997       2.97929667E-11
   108.239998       3.35878721E-11
   108.404999       3.71969539E-11
   108.570000       4.06090196E-11
   108.735001       4.38183344E-11
   108.900002       4.68177684E-11
   109.065002       4.95926043E-11
   109.230003       5.21181952E-11
   109.394997       5.43624173E-11
   109.559998       5.62911558E-11
   109.724998       5.78738620E-11
   109.889999       5.90863400E-11
   110.055000       5.99105696E-11
   110.220001       6.03331760E-11
   110.385002       6.03447778E-11
   110.550003       5.99413227E-11
   110.714996       5.91264399E-11
   110.879997       5.79122722E-11
   111.044998       5.63171905E-11
   111.209999       5.43605265E-11
   111.375000       5.20569109E-11
   111.540001       4.94135115E-11
   111.705002       4.64321047E-11
   111.870003       4.31151122E-11
   112.035004       3.94724531E-11
   112.199997       3.55256970E-11
   112.364998       3.13075815E-11
   112.529999       2.68579204E-11
   112.695000       2.22184719E-11
   112.860001       1.74297521E-11
   113.025002       1.25305721E-11
   113.190002       7.55904627E-12
   113.355003       2.55287761E-12
   113.519997      -2.45238617E-12
   113.684998      -7.42643620E-12
   113.849998      -1.23462386E-11
   114.014999      -1.71949226E-11
   114.180000      -2.19568478E-11
   114.345001      -2.66110398E-11
   114.510002      -3.11265076E-11
   114.675003      -3.54619389E-11
   114.839996      -3.95704164E-11
   115.004997      -4.34068996E-11
   115.169998      -4.69350288E-11
   115.334999      -5.01307398E-11
   115.500000      -5.29815983E-11
   115.665001      -5.54838293E-11
   115.830002      -5.76388937E-11
   115.995003      -5.94510829E-11
   116.160004      -6.09263195E-11
   116.324997      -6.20709803E-11
   116.489998      -6.28902347E-11
   116.654999      -6.33859493E-11
   116.820000      -6.35554456E-11
   116.985001      -6.33924233E-11
   117.150002      -6.28904706E-11
   117.315002      -6.20476170E-11
   117.480003      -6.08699827E-11
   117.644997      -5.93726457E-11
   117.809998      -5.75773491E-11
   117.974998      -5.55083514E-11
   118.139999      -5.31883322E-11
   118.305000      -5.06358219E-11
   118.470001      -4.78645283E-11
   118.635002      -4.48838328E-11
   118.800003      -4.16995605E-11
   118.964996      -3.83147576E-11
   119.129997      -3.47308189E-11
   119.294998      -3.09497879E-11
   119.459999      -2.69775452E-11
   119.625000      -2.28269261E-11
   119.790001      -1.85192504E-11
   119.955002      -1.40828989E-11
   120.120003      -9.54929885E-12
   120.285004      -4.94779174E-12
   120.449997      -3.01692671E-13
   120.614998       4.37303796E-12
   120.779999       9.06638046E-12
   120.945000       1.37712220E-11
   121.110001       1.84803596E-11
   121.275002       2.31844734E-11
   121.440002       2.78710735E-11
   121.605003       3.25237129E-11
   121.769997       3.71210181E-11
   121.934998       4.16359065E-11
   122.099998       4.60360222E-11
   122.264999       5.02860045E-11
   122.430000       5.43515163E-11
   122.595001       5.82032825E-11
   122.760002       6.18193829E-11
   122.925003       6.51841220E-11
   123.089996       6.82841561E-11
   123.254997       7.11036091E-11
   123.419998       7.36207206E-11
   123.584999       7.58074298E-11
   123.750000       7.76317829E-11
   123.915001       7.90615490E-11
   124.080002       8.00671196E-11
   124.245003       8.06228001E-11
   124.410004       8.07069828E-11
   124.574997       8.03024036E-11
   124.739998       7.93973567E-11
   124.904999       7.79877135E-11
   125.070000       7.60781368E-11
   125.235001       7.36811098E-11
   125.400002       7.08134384E-11
   125.565002       6.74914707E-11
   125.730003       6.37275649E-11
   125.894997       5.95296520E-11
   126.059998       5.49043137E-11
   126.224998       4.98617085E-11
   126.389999       4.44198706E-11
   126.555000       3.86062467E-11
   126.720001       3.24562703E-11
   126.885002       2.60103120E-11
   127.050003       1.93109539E-11
   127.214996       1.24019761E-11
   127.379997       5.32849676E-12
   127.544998      -1.86292171E-12
   127.709999      -9.12562213E-12
   127.875000      -1.64153691E-11
   128.039993      -2.36927127E-11
   128.205002      -3.09231876E-11
   128.369995      -3.80744082E-11
   128.535004      -4.51112099E-11
   128.699997      -5.19911822E-11
   128.865005      -5.86634283E-11
   129.029999      -6.50714344E-11
   129.195007      -7.11589121E-11
   129.360001      -7.68757141E-11
   129.524994      -8.21810606E-11
   129.690002      -8.70429909E-11
   129.854996      -9.14354148E-11
   130.020004      -9.53347748E-11
   130.184998      -9.87185472E-11
   130.350006      -1.01565832E-10
   130.514999      -1.03858845E-10
   130.679993      -1.05583292E-10
   130.845001      -1.06726801E-10
   131.009995      -1.07276452E-10
   131.175003      -1.07217249E-10
   131.339996      -1.06533261E-10
   131.505005      -1.05211659E-10
   131.669998      -1.03247647E-10
   131.835007      -1.00647761E-10
   132.000000      -9.74296130E-11
   132.164993      -9.36181896E-11
   132.330002      -8.92406843E-11
   132.494995      -8.43225559E-11
   132.660004      -7.88863350E-11
   132.824997      -7.29530464E-11
   132.990005      -6.65444227E-11
   133.154999      -5.96843408E-11
   133.320007      -5.23986653E-11
   133.485001      -4.47146729E-11
   133.649994      -3.66614482E-11
   133.815002      -2.82721260E-11
   133.979996      -1.95874740E-11
   134.145004      -1.06585886E-11
   134.309998      -1.54687233E-12
   134.475006       7.67948292E-12
   134.639999       1.69512859E-11
   134.804993       2.62039140E-11
   134.970001       3.53804312E-11
   135.134995       4.44314481E-11
   135.300003       5.33124656E-11
   135.464996       6.19805457E-11
   135.630005       7.03915676E-11
   135.794998       7.84986867E-11
   135.960007       8.62514712E-11
   136.125000       9.35952843E-11
   136.289993       1.00471222E-10
   136.455002       1.06817555E-10
   136.619995       1.12573222E-10
   136.785004       1.17683238E-10
   136.949997       1.22104049E-10
   137.115005       1.25806310E-10
   137.279999       1.28773811E-10
   137.445007       1.30998573E-10
   137.610001       1.32474406E-10
   137.774994       1.33191888E-10
   137.940002       1.33136641E-10
   138.104996       1.32291150E-10
   138.270004       1.30638472E-10
   138.434998       1.28165770E-10
   138.600006       1.24866673E-10
   138.764999       1.20742874E-10
   138.929993       1.15805802E-10
   139.095001       1.10078856E-10
   139.259995       1.03599532E-10
   139.425003       9.64192892E-11
   139.589996       8.85999607E-11
   139.755005       8.02071118E-11
   139.919998       7.13026096E-11
   140.085007       6.19400781E-11
   140.250000       5.21653450E-11
   140.414993       4.20215460E-11
   140.580002       3.15561917E-11
   140.744995       2.08264673E-11
   140.910004       9.90040168E-12
   141.074997      -1.14584037E-12
   141.240005      -1.22323965E-11