   0.00000000       0.00000000    
  0.165000007      -2.53348015E-13
  0.330000013      -6.48779804E-13
  0.495000005      -1.02429718E-12
  0.660000026      -1.25863209E-12
  0.824999988      -1.33645395E-12
  0.990000010      -1.34948986E-12
   1.15499997      -1.43417949E-12
   1.32000005      -1.68403009E-12
   1.48500001      -2.08922571E-12
   1.64999998      -2.53913644E-12
   1.81500006      -2.88561753E-12
   1.98000002      -3.02903514E-12
   2.14499998      -2.97598383E-12
   2.30999994      -2.83490462E-12
   2.47499990      -2.75252477E-12
   2.64000010      -2.82845167E-12
   2.80500007      -3.05752147E-12
   2.97000003      -3.33310267E-12
   3.13499999      -3.50930352E-12
   3.29999995      -3.48617511E-12
   3.46499991      -3.26872058E-12
   3.63000011      -2.96532156E-12
   3.79500008      -2.72577620E-12
   3.96000004      -2.65397123E-12
   4.12500000      -2.74542737E-12
   4.28999996      -2.88663039E-12
   4.45499992      -2.91815270E-12
   4.61999989      -2.72654317E-12
   4.78499985      -2.31197938E-12
   4.94999981      -1.79100615E-12
   5.11499977      -1.33046840E-12
   5.28000021      -1.04954316E-12
   5.44500017      -9.47434188E-13
   5.61000013      -9.01317649E-13
   5.77500010      -7.38518025E-13
   5.94000006      -3.41837452E-13
   6.10500002       2.75207889E-13
   6.26999998       9.70864556E-13
   6.43499994       1.55705646E-12
   6.59999990       1.91317448E-12
   6.76499987       2.06218181E-12
   6.92999983       2.16007832E-12
   7.09499979       2.40207572E-12
   7.26000023       2.90124326E-12
   7.42500019       3.61462748E-12
   7.59000015       4.36440901E-12
   7.75500011       4.94326195E-12
   7.92000008       5.23978083E-12
   8.08500004       5.30576754E-12
   8.25000000       5.32240137E-12
   8.41499996       5.48556166E-12
   8.57999992       5.88189263E-12
   8.74499989       6.43351084E-12
   8.90999985       6.94600150E-12
   9.07499981       7.22897870E-12
   9.23999977       7.21278289E-12
   9.40499973       6.98802995E-12
   9.56999969       6.74443314E-12
   9.73499966       6.64931608E-12
   9.89999962       6.74353021E-12
   10.0649996       6.91956995E-12
   10.2299995       6.99290495E-12
   10.3950005       6.81843037E-12
   10.5600004       6.37748751E-12
   10.7250004       5.78283385E-12
   10.8900003       5.20300946E-12
   11.0550003       4.75769727E-12
   11.2200003       4.45031338E-12
   11.3850002       4.17620192E-12
   11.5500002       3.79508230E-12
   11.7150002       3.21788494E-12
   11.8800001       2.45425750E-12
   12.0450001       1.59700291E-12
   12.2100000       7.61007468E-13
   12.3750000       1.92382494E-14
   12.5400000      -6.26591769E-13
   12.7049999      -1.23048414E-12
   12.8699999      -1.86012187E-12
   13.0349998      -2.55799808E-12
   13.1999998      -3.32564141E-12
   13.3649998      -4.13137450E-12
   13.5299997      -4.92843570E-12
   13.6949997      -5.67054129E-12
   13.8599997      -6.32160773E-12
   14.0249996      -6.86394561E-12
   14.1899996      -7.30724248E-12
   14.3549995      -7.69212471E-12
   14.5200005      -8.07771038E-12
   14.6850004      -8.51042153E-12
   14.8500004      -8.98790157E-12
   15.0150003      -9.44362036E-12
   15.1800003      -9.77138162E-12
   15.3450003      -9.88425054E-12
   15.5100002      -9.77466632E-12
   15.6750002      -9.53333679E-12
   15.8400002      -9.30522152E-12
   16.0049992      -9.20186757E-12
   16.1700001      -9.22370774E-12
   16.3349991      -9.24724013E-12
   16.5000000      -9.09444742E-12
   16.6650009      -8.64701800E-12
   16.8299999      -7.93285923E-12
   16.9950008      -7.12384882E-12
   17.1599998      -6.43839496E-12
   17.3250008      -6.00627924E-12
   17.4899998      -5.78306500E-12
   17.6550007      -5.57415962E-12
   17.8199997      -5.15890195E-12
   17.9850006      -4.43768459E-12
   18.1499996      -3.50584037E-12
   18.3150005      -2.60240397E-12
   18.4799995      -1.96275374E-12
   18.6450005      -1.66871909E-12
   18.8099995      -1.59420112E-12
   18.9750004      -1.48404607E-12
   19.1399994      -1.11733225E-12
   19.3050003      -4.50261166E-13
   19.4699993       3.54037437E-13
   19.6350002       1.02843591E-12
   19.7999992       1.37090784E-12
   19.9650002       1.37053368E-12
   20.1299992       1.20993135E-12
   20.2950001       1.14445768E-12
   20.4599991       1.33787350E-12
   20.6250000       1.76040183E-12
   20.7900009       2.21231475E-12
   20.9549999       2.45398992E-12
   21.1200008       2.35610923E-12
   21.2849998       1.97431806E-12
   21.4500008       1.50505303E-12
   21.6149998       1.15684166E-12
   21.7800007       1.02291699E-12
   21.9449997       1.03469208E-12
   22.1100006       1.01913638E-12
   22.2749996       8.16161320E-13
   22.4400005       3.78288682E-13
   22.6049995      -2.07059427E-13
   22.7700005      -7.78489794E-13
   22.9349995      -1.19869685E-12
   23.1000004      -1.42615162E-12
   23.2649994      -1.52125838E-12
   23.4300003      -1.59324149E-12
   23.5949993      -1.72886456E-12
   23.7600002      -1.94765840E-12
   23.9249992      -2.20363853E-12
   24.0900002      -2.42156360E-12
   24.2549992      -2.53865939E-12
   24.4200001      -2.52816604E-12
   24.5849991      -2.39950464E-12
   24.7500000      -2.18508761E-12
   24.9150009      -1.92587916E-12
   25.0799999      -1.65976000E-12
   25.2450008      -1.40955346E-12
   25.4099998      -1.16948389E-12
   25.5750008      -8.97482826E-13
   25.7399998      -5.25494470E-13
   25.9050007       7.97190141E-15
   26.0699997       7.16651239E-13
   26.2350006       1.54403042E-12
   26.3999996       2.38209257E-12
   26.5650005       3.12892876E-12
   26.7299995       3.75308335E-12
   26.8950005       4.32048451E-12
   27.0599995       4.95849022E-12
   27.2250004       5.77236522E-12
   27.3899994       6.76567179E-12
   27.5550003       7.82036848E-12
   27.7199993       8.75738457E-12
   27.8850002       9.44460916E-12
   28.0499992       9.88291740E-12
   28.2150002       1.02097150E-11
   28.3799992       1.06111170E-11
   28.5450001       1.11956937E-11
   28.7099991       1.19123730E-11
   28.8750000       1.25700049E-11
   29.0400009       1.29503483E-11
   29.2049999       1.29427745E-11
   29.3700008       1.26115507E-11
   29.5349998       1.21490379E-11
   29.7000008       1.17435697E-11
   29.8649998       1.14490162E-11
   30.0300007       1.11436268E-11
   30.1949997       1.06072260E-11
   30.3600006       9.66672575E-12
   30.5249996       8.31346363E-12
   30.6900005       6.71396792E-12
   30.8549995       5.10663734E-12
   31.0200005       3.65315200E-12
   31.1849995       2.34346548E-12
   31.3500004       1.01677976E-12
   31.5149994      -5.17223634E-13
   31.6800003      -2.33932079E-12
   31.8449993      -4.35670467E-12
   32.0099983      -6.35476437E-12
   32.1749992      -8.12726882E-12
   32.3400002      -9.59626302E-12
   32.5050011      -1.08425144E-11
   32.6699982      -1.20297140E-11
   32.8349991      -1.32772925E-11
   33.0000000      -1.45690768E-11
   33.1650009      -1.57572583E-11
   33.3300018      -1.66544330E-11
   33.4949989      -1.71474085E-11
   33.6599998      -1.72553118E-11
   33.8250008      -1.70964284E-11
   33.9900017      -1.67920903E-11
   34.1549988      -1.63770039E-11
   34.3199997      -1.57767341E-11
   34.4850006      -1.48633536E-11
   34.6500015      -1.35457678E-11
   34.8149986      -1.18302200E-11
   34.9799995      -9.81145287E-12
   35.1450005      -7.60624463E-12
   35.3100014      -5.28065742E-12
   35.4749985      -2.82294240E-12
   35.6399994      -1.77432139E-13
   35.8050003       2.69043511E-12
   35.9700012       5.74847158E-12
   36.1349983       8.90434688E-12
   36.2999992       1.20563655E-11
   36.4650002       1.51474285E-11
   36.6300011       1.81805300E-11
   36.7949982       2.11851647E-11
   36.9599991       2.41626250E-11
   37.1250000       2.70545062E-11
   37.2900009       2.97603608E-11
   37.4550018       3.21916174E-11
   37.6199989       3.43194223E-11
   37.7849998       3.61773632E-11
   37.9500008       3.78139950E-11
   38.1150017       3.92297028E-11
   38.2799988       4.03467919E-11
   38.4449997       4.10393559E-11
   38.6100006       4.12050186E-11
   38.7750015       4.08275011E-11
   38.9399986       3.99822224E-11
   39.1049995       3.87767457E-11
   39.2700005       3.72661034E-11
   39.4350014       3.54041622E-11
   39.5999985       3.30695644E-11
   39.7649994       3.01523390E-11
   39.9300003       2.66423376E-11
   40.0950012       2.26560038E-11
   40.2599983       1.83786372E-11
   40.4249992       1.39585097E-11
   40.5900002       9.42489056E-12
   40.7550011       4.68821379E-12
   40.9199982      -3.74769470E-13
   41.0849991      -5.80743179E-12
   41.2500000      -1.15093759E-11
   41.4150009      -1.72679683E-11
   41.5800018      -2.28662558E-11
   41.7449989      -2.81952430E-11
   41.9099998      -3.32942632E-11
   42.0750008      -3.82912035E-11
   42.2400017      -4.32823256E-11
   42.4049988      -4.82328448E-11
   42.5699997      -5.29658158E-11
   42.7350006      -5.72472347E-11
   42.9000015      -6.09102838E-11
   43.0649986      -6.39356762E-11
   43.2299995      -6.64352046E-11
   43.3950005      -6.85512133E-11
   43.5600014      -7.03401781E-11
   43.7249985      -7.17179371E-11
   43.8899994      -7.25010538E-11
   44.0550003      -7.25144111E-11
   44.2200012      -7.16924714E-11
   44.3849983      -7.01084885E-11
   44.5499992      -6.79163739E-11
   44.7150002      -6.52479668E-11
   44.8800011      -6.21352483E-11
   45.0449982      -5.85064219E-11
   45.2099991      -5.42528140E-11
   45.3750000      -4.93178137E-11
   45.5400009      -4.37482689E-11
   45.7050018      -3.76785582E-11
   45.8699989      -3.12639532E-11
   46.0349998      -2.46112575E-11
   46.2000008      -1.77511027E-11
   46.3650017      -1.06637216E-11
   46.5299988      -3.33350556E-12
   46.6949997       4.20773008E-12
   46.8600006       1.18746827E-11
   47.0250015       1.95559645E-11
   47.1899986       2.71491128E-11
   47.3549995       3.45777157E-11
   47.5200005       4.17841942E-11
   47.6850014       4.87122946E-11
   47.8499985       5.52987933E-11
   48.0149994       6.14816947E-11
   48.1800003       6.72139705E-11
   48.3450012       7.24650062E-11
   48.5099983       7.72023626E-11
   48.6749992       8.13667814E-11
   48.8400002       8.48645529E-11
   49.0050011       8.75921835E-11
   49.1699982       8.94830599E-11
   49.3349991       9.05438849E-11
   49.5000000       9.08493003E-11
   49.6650009       9.04898587E-11
   49.8300018       8.95037100E-11
   49.9949989       8.78399506E-11
   50.1599998       8.53853724E-11
   50.3250008       8.20441354E-11
   50.4900017       7.78197992E-11
   50.6549988       7.28413857E-11
   50.8199997       6.73086101E-11
   50.9850006       6.13863682E-11
   51.1500015       5.51168902E-11
   51.3149986       4.84118128E-11
   51.4799995       4.11354492E-11
   51.6450005       3.32287566E-11
   51.8100014       2.47919046E-11
   51.9749985       1.60669845E-11
   52.1399994       7.32701833E-12
   52.3050003      -1.25869269E-12
   52.4700012      -9.69393316E-12
   52.6349983      -1.81114845E-11
   52.7999992      -2.66421087E-11
   52.9650002      -3.52820793E-11
   53.1300011      -4.38474812E-11
   53.2949982      -5.20472589E-11
   53.4599991      -5.96283647E-11
   53.6250000      -6.64981126E-11
   53.7900009      -7.27434640E-11
   53.9550018      -7.85352061E-11
   54.1199989      -8.39811554E-11
   54.2849998      -8.90258700E-11
   54.4500008      -9.34625849E-11
   54.6150017      -9.70476199E-11
   54.7799988      -9.96404209E-11
   54.9449997      -1.01276751E-10
   55.1100006      -1.02129305E-10
   55.2750015      -1.02384941E-10
   55.4399986      -1.02121839E-10
   55.6049995      -1.01266592E-10
   55.7700005      -9.96554853E-11
   55.9350014      -9.71545205E-11
   56.0999985      -9.37562597E-11
   56.2649994      -8.95913621E-11
   56.4300003      -8.48526457E-11
   56.5950012      -7.96876037E-11
   56.7599983      -7.41323600E-11
   56.9249992      -6.81269624E-11
   57.0900002      -6.15948126E-11
   57.2550011      -5.45274173E-11
   57.4199982      -4.70170396E-11
   57.5849991      -3.92201376E-11
   57.7500000      -3.12831636E-11
   57.9150009      -2.32853077E-11
   58.0800018      -1.52356738E-11
   58.2449989      -7.12024667E-12
   58.4099998       1.04100832E-12
   58.5750008       9.17007095E-12
   58.7400017       1.71545174E-11
   58.9049988       2.48965206E-11
   59.0699997       3.23472811E-11
   59.2350006       3.95008921E-11
   59.4000015       4.63551315E-11
   59.5649986       5.28729942E-11
   59.7299995       5.89778990E-11
   59.8950005       6.45880224E-11
   60.0600014       6.96628172E-11
   60.2249985       7.42231415E-11
   60.3899994       7.83254156E-11
   60.5550003       8.20062421E-11
   60.7200012       8.52390658E-11
   60.8849983       8.79387049E-11
   61.0499992       9.00152869E-11
   61.2150002       9.14412296E-11
   61.3800011       9.22818905E-11
   61.5449982       9.26634811E-11
   61.7099991       9.26966212E-11
   61.8750000       9.24075746E-11
   62.0400009       9.17273063E-11
   62.2050018       9.05496789E-11
   62.3699989       8.88213947E-11
   62.5349998       8.66014829E-11
   62.7000008       8.40469916E-11
   62.8650017       8.13315665E-11
   63.0299988       7.85506313E-11
   63.1949997       7.56780125E-11
   63.3600006       7.26047070E-11
   63.5250015       6.92347429E-11
   63.6899986       6.55729915E-11
   63.8549995       6.17447204E-11
   64.0199966       5.79327003E-11
   64.1849976       5.42740852E-11
   64.3499985       5.07865867E-11
   64.5149994       4.73733032E-11
   64.6800003       4.39019376E-11
   64.8450012       4.03038158E-11
   65.0100021       3.66256261E-11
   65.1750031       3.30001339E-11
   65.3399963       2.95575231E-11
   65.5049973       2.63388495E-11
   65.6699982       2.32698010E-11
   65.8349991       2.02103976E-11
   66.0000000       1.70443590E-11
   66.1650009       1.37465872E-11
   66.3300018       1.03848397E-11
   66.4950027       7.05826717E-12
   66.6600037       3.81797241E-12
   66.8249969       6.24463426E-13
   66.9899979      -2.63142242E-12
   67.1549988      -6.06226918E-12
   67.3199997      -9.72044927E-12
   67.4850006      -1.35799852E-11
   67.6500015      -1.75723412E-11
   67.8150024      -2.16465786E-11
   67.9800034      -2.58096530E-11
   68.1449966      -3.01202639E-11
   68.3099976      -3.46447593E-11
   68.4749985      -3.94099267E-11
   68.6399994      -4.43868484E-11
   68.8050003      -4.95146389E-11
   68.9700012      -5.47428630E-11
   69.1350021      -6.00590896E-11
   69.3000031      -6.54814467E-11
   69.4649963      -7.10241727E-11
   69.6299973      -7.66647440E-11
   69.7949982      -8.23390869E-11
   69.9599991      -8.79683479E-11
   70.1250000      -9.34950242E-11
   70.2900009      -9.88990070E-11
   70.4550018      -1.04179596E-10
   70.6200027      -1.09317173E-10
   70.7850037      -1.14245259E-10
   70.9499969      -1.18857063E-10
   71.1149979      -1.23044519E-10
   71.2799988      -1.26741520E-10
   71.4449997      -1.29937880E-10
   71.6100006      -1.32650502E-10
   71.7750015      -1.34870670E-10
   71.9400024      -1.36526554E-10
   72.1050034      -1.37491116E-10
   72.2699966      -1.37633932E-10
   72.4349976      -1.36882172E-10
   72.5999985      -1.35246842E-10
   72.7649994      -1.32793193E-10
   72.9300003      -1.29573699E-10
   73.0950012      -1.25570346E-10
   73.2600021      -1.20689139E-10
   73.4250031      -1.14813783E-10
   73.5899963      -1.07883633E-10
   73.7549973      -9.99416730E-11
   73.9199982      -9.11169265E-11
   74.0849991      -8.15509604E-11
   74.2500000      -7.13178544E-11
   74.4150009      -6.03934958E-11
   74.5800018      -4.86975599E-11
   74.7450027      -3.61811761E-11
   74.9100037      -2.29008774E-11
   75.0749969      -9.02693979E-12
   75.2399979       5.22151940E-12
   75.4049988       1.96720175E-11
   75.5699997       3.42602127E-11
   75.7350006       4.90152571E-11
   75.9000015       6.39783088E-11
   76.0650024       7.91093996E-11
   76.2300034       9.42459236E-11
   76.3949966       1.09141501E-10
   76.5599976       1.23559454E-10
   76.7249985       1.37358333E-10
   76.8899994       1.50512533E-10
   77.0550003       1.63055028E-10
   77.2200012       1.74982223E-10
   77.3850021       1.86185484E-10
   77.5500031       1.96455754E-10
   77.7149963       2.05557349E-10
   77.8799973       2.13321055E-10
   78.0449982       2.19695137E-10
   78.2099991       2.24721894E-10
   78.3750000       2.28458086E-10
   78.5400009       2.30893887E-10
   78.7050018       2.31923855E-10
   78.8700027       2.31387451E-10
   79.0350037       2.29149880E-10
   79.1999969       2.25168592E-10
   79.3649979       2.19503471E-10
   79.5299988       2.12267773E-10
   79.6949997       2.03555756E-10
   79.8600006       1.93395924E-10
   80.0250015       1.81758011E-10
   80.1900024       1.68604755E-10
   80.3550034       1.53950450E-10
   80.5199966       1.37887646E-10
   80.6849976       1.20567348E-10
   80.8499985       1.02150351E-10
   81.0149994       8.27645869E-11
   81.1800003       6.24957169E-11
   81.3450012       4.14126650E-11
   81.5100021       1.96063964E-11
   81.6750031      -2.78610121E-12
   81.8399963      -2.55864618E-11
   82.0049973      -4.86006894E-11
   82.1699982      -7.16450649E-11
   82.3349991      -9.45550166E-11
   82.5000000      -1.17175311E-10
   82.6650009      -1.39344591E-10
   82.8300018      -1.60889940E-10
   82.9950027      -1.81636359E-10
   83.1600037      -2.01422143E-10
   83.3249969      -2.20105420E-10
   83.4899979      -2.37554504E-10
   83.6549988      -2.53629923E-10
   83.8199997      -2.68174760E-10
   83.9850006      -2.81025730E-10
   84.1500015      -2.92041030E-10
   84.3150024      -3.01126596E-10
   84.4800034      -3.08239573E-10
   84.6449966      -3.13363391E-10
   84.8099976      -3.16468823E-10
   84.9749985      -3.17489507E-10
   85.1399994      -3.16331766E-10
   85.3050003      -3.12916859E-10
   85.4700012      -3.07229076E-10
   85.6350021      -2.99336778E-10
   85.8000031      -2.89368446E-10
   85.9649963      -2.77457002E-10
   86.1299973      -2.63687183E-10
   86.2949982      -2.48082110E-10
   86.4599991      -2.30640174E-10
   86.6250000      -2.11400120E-10
   86.7900009      -1.90492053E-10
   86.9550018      -1.68139488E-10
   87.1200027      -1.44608894E-10
   87.2850037      -1.20137358E-10
   87.4499969      -9.48839271E-11
   87.6149979      -6.89356627E-11
   87.7799988      -4.23641747E-11
   87.9449997      -1.52956658E-11
   88.1100006       1.20509991E-11
   88.2750015       3.93834271E-11
   88.4400024       6.64004615E-11
   88.6050034       9.28622110E-11
   88.7699966       1.18622279E-10
   88.9349976       1.43603837E-10
   89.0999985       1.67737130E-10
   89.2649994       1.90899227E-10
   89.4300003       2.12894147E-10
   89.5950012       2.33484371E-10
   89.7600021       2.52453336E-10
   89.9250031       2.69659683E-10
   90.0899963       2.85051510E-10
   90.2549973       2.98634867E-10
   90.4199982       3.10417969E-10
   90.5849991       3.20366234E-10
   90.7500000       3.28393812E-10
   90.9150009       3.34393541E-10
   91.0800018       3.38285205E-10
   91.2450027       3.40052680E-10
   91.4100037       3.39750422E-10
   91.5749969       3.37478101E-10
   91.7399979       3.33340189E-10
   91.9049988       3.27413513E-10
   92.0699997       3.19739069E-10
   92.2350006       3.10339782E-10
   92.4000015       2.99252734E-10
   92.5650024       2.86558000E-10
   92.7300034       2.72389333E-10
   92.8949966       2.56922178E-10
   93.0599976       2.40344494E-10
   93.2249985       2.22824217E-10
   93.3899994       2.04488260E-10
   93.5550003       1.85423316E-10
   93.7200012       1.65698719E-10
   93.8850021       1.45400150E-10
   94.0500031       1.24656688E-10
   94.2149963       1.03645002E-10
   94.3799973       8.25658777E-11
   94.5449982       6.16036319E-11
   94.7099991       4.08896667E-11
   94.8750000       2.04918322E-11
   95.0400009       4.37872259E-13
   95.2050018      -1.92388050E-11
   95.3700027      -3.84573588E-11
   95.5350037      -5.70780680E-11
   95.6999969      -7.49305479E-11
   95.8649979      -9.18669862E-11
   96.0299988      -1.07809088E-10
   96.1949997      -1.22759733E-10
   96.3600006      -1.36770872E-10
   96.5250015      -1.49886520E-10
   96.6900024      -1.62095962E-10
   96.8550034      -1.73327186E-10
   97.0199966      -1.83485588E-10
   97.1849976      -1.92514241E-10
   97.3499985      -2.00437528E-10
   97.5149994      -2.07359338E-10
   97.6800003      -2.13415535E-10
   97.8450012      -2.18709037E-10
   98.0100021      -2.23267488E-10
   98.1750031      -2.27049102E-10
   98.3399963      -2.29992553E-10
   98.5049973      -2.32078662E-10
   98.6699982      -2.33364633E-10
   98.8349991      -2.33969677E-10
   99.0000000      -2.34021302E-10
   99.1650009      -2.33596753E-10
   99.3300018      -2.32695668E-10
   99.4950027      -2.31260164E-10
   99.6600037      -2.29227665E-10
   99.8249969      -2.26583127E-10
   99.9899979      -2.23377553E-10
   100.154999      -2.19702756E-10
   100.320000      -2.15639687E-10
   100.485001      -2.11212936E-10
   100.650002      -2.06378983E-10
   100.815002      -2.01052952E-10
   100.980003      -1.95155267E-10
   101.144997      -1.88648819E-10
   101.309998      -1.81545418E-10
   101.474998      -1.73880327E-10
   101.639999      -1.65673281E-10
   101.805000      -1.56901006E-10
   101.970001      -1.47496779E-10
   102.135002      -1.37375694E-10
   102.300003      -1.26468711E-10
   102.464996      -1.14745644E-10
   102.629997      -1.02216166E-10
   102.794998      -8.89117391E-11
   102.959999      -7.48618181E-11
   103.125000      -6.00789210E-11
   103.290001      -4.45595817E-11
   103.455002      -2.82988043E-11
   103.620003      -1.13082330E-11
   103.785004       6.37183925E-12
   103.949997       2.46718340E-11
   104.114998       4.35020422E-11
   104.279999       6.27656122E-11
   104.445000       8.23685981E-11
   104.610001       1.02222883E-10
   104.775002       1.22241356E-10
   104.940002       1.42328024E-10
   105.105003       1.62367925E-10
   105.269997       1.82221987E-10
   105.434998       2.01730119E-10
   105.599998       2.20722080E-10
   105.764999       2.39031711E-10
   105.930000       2.56507648E-10
   106.095001       2.73015027E-10
   106.260002       2.88427476E-10
   106.425003       3.02614267E-10
   106.589996       3.15431348E-10
   106.754997       3.26723232E-10
   106.919998       3.36336542E-10
   107.084999       3.44138162E-10
   107.250000       3.50027674E-10
   107.415001       3.53936186E-10
   107.580002       3.55812768E-10
   107.745003       3.55606600E-10
   107.910004       3.53257396E-10
   108.074997       3.48700735E-10
   108.239998       3.41885548E-10
   108.404999       3.32793598E-10
   108.570000       3.21447813E-10
   108.735001       3.07904813E-10
   108.900002       2.92235985E-10
   109.065002       2.74509832E-10
   109.230003       2.54785942E-10
   109.394997       2.33124936E-10
   109.559998       2.09605958E-10
   109.724998       1.84340959E-10
   109.889999       1.57475588E-10
   110.055000       1.29176878E-10
   110.220001       9.96157740E-11
   110.385002       6.89563823E-11
   110.550003       3.73577454E-11
   110.714996       4.98579476E-12
   110.879997      -2.79737049E-11
   111.044998      -6.13105816E-11
   111.209999      -9.47969897E-11
   111.375000      -1.28200936E-10
   111.540001      -1.61298253E-10
   111.705002      -1.93876387E-10
   111.870003      -2.25729727E-10
   112.035004      -2.56651617E-10
   112.199997      -2.86429880E-10
   112.364998      -3.14848897E-10
   112.529999      -3.41696310E-10
   112.695000      -3.66769781E-10
   112.860001      -3.89880267E-10
   113.025002      -4.10852324E-10
   113.190002      -4.29524055E-10
   113.355003      -4.45749021E-10
   113.519997      -4.59399130E-10
   113.684998      -4.70365857E-10
   113.849998      -4.78556972E-10
   114.014999      -4.83890594E-10
   114.180000      -4.86291230E-10
   114.345001      -4.85692486E-10
   114.510002      -4.82048068E-10
   114.675003      -4.75343986E-10
   114.839996      -4.65604194E-10
   115.004997      -4.52883814E-10
   115.169998      -4.37253095E-10
   115.334999      -4.18782786E-10
   115.500000      -3.97542443E-10
   115.665001      -3.73614639E-10
   115.830002      -3.47117557E-10
   115.995003      -3.18220561E-10
   116.160004      -2.87139507E-10
   116.324997      -2.54112592E-10
   116.489998      -2.19369661E-10
   116.654999      -1.83115398E-10
   116.820000      -1.45538553E-10
   116.985001      -1.06842646E-10
   117.150002      -6.72778361E-11
   117.315002      -2.71515605E-11
   117.480003       1.31927143E-11
   117.644997       5.34178743E-11
   117.809998       9.32315197E-11
   117.974998       1.32395844E-10
   118.139999       1.70702327E-10
   118.305000       2.07927689E-10
   118.470001       2.43800757E-10
   118.635002       2.78004203E-10
   118.800003       3.10212994E-10
   118.964996       3.40147382E-10
   119.129997       3.67607611E-10
   119.294998       3.92469307E-10
   119.459999       4.14642348E-10
   119.625000       4.34020542E-10
   119.790001       4.50455145E-10
   119.955002       4.63770300E-10
   120.120003       4.73812101E-10
   120.285004       4.80500195E-10
   120.449997       4.83850793E-10
   120.614998       4.83956319E-10
   120.779999       4.80935403E-10
   120.945000       4.74884576E-10
   121.110001       4.65860961E-10
   121.275002       4.53905413E-10
   121.440002       4.39089709E-10
   121.605003       4.21557872E-10
   121.769997       4.01535194E-10
   121.934998       3.79300175E-10
   122.099998       3.55136753E-10
   122.264999       3.29294980E-10
   122.430000       3.01980912E-10
   122.595001       2.73379042E-10
   122.760002       2.43689791E-10
   122.925003       2.13158560E-10
   123.089996       1.82078866E-10
   123.254997       1.50768162E-10
   123.419998       1.19530358E-10
   123.584999       8.86249824E-11
   123.750000       5.82576279E-11
   123.915001       2.85939848E-11
   124.080002      -2.12562620E-13
   124.245003      -2.79953161E-11
   124.410004      -5.45640581E-11
   124.574997      -7.97154009E-11
   124.739998      -1.03258894E-10
   124.904999      -1.25046501E-10
   125.070000      -1.44991144E-10
   125.235001      -1.63064479E-10
   125.400002      -1.79274054E-10
   125.565002      -1.93630584E-10
   125.730003      -2.06122452E-10
   125.894997      -2.16712259E-10
   126.059998      -2.25359273E-10
   126.224998      -2.32057012E-10
   126.389999      -2.36864278E-10
   126.555000      -2.39909564E-10
   126.720001      -2.41362458E-10
   126.885002      -2.41385550E-10
   127.050003      -2.40094084E-10
   127.214996      -2.37547898E-10
   127.379997      -2.33782105E-10
   127.544998      -2.28859029E-10
   127.709999      -2.22908469E-10
   127.875000      -2.16129753E-10
   128.039993      -2.08750614E-10
   128.205002      -2.00966632E-10
   128.369995      -1.92897615E-10
   128.535004      -1.84589052E-10
   128.699997      -1.76057988E-10
   128.865005      -1.67354380E-10
   129.029999      -1.58598287E-10
   129.195007      -1.49968010E-10
   129.360001      -1.41645751E-10
   129.524994      -1.33755063E-10
   129.690002      -1.26329905E-10
   129.854996      -1.19335167E-10
   130.020004      -1.12724677E-10
   130.184998      -1.06499073E-10
   130.350006      -1.00725581E-10
   130.514999      -9.55077892E-11
   130.679993      -9.09256906E-11
   130.845001      -8.69854119E-11
   131.009995      -8.36107086E-11
   131.175003      -8.06802958E-11
   131.339996      -7.80853715E-11
   131.505005      -7.57697030E-11
   131.669998      -7.37279751E-11
   131.835007      -7.19668145E-11
   132.000000      -7.04568973E-11
   132.164993      -6.91086702E-11
   132.330002      -6.77863390E-11
   132.494995      -6.63483157E-11
   132.660004      -6.46859649E-11
   132.824997      -6.27362329E-11
   132.990005      -6.04636133E-11
   133.154999      -5.78281555E-11
   133.320007      -5.47637664E-11
   133.485001      -5.11817359E-11
   133.649994      -4.69942453E-11
   133.815002      -4.21389659E-11
   133.979996      -3.65868065E-11
   134.145004      -3.03293154E-11
   134.309998      -2.33581227E-11
   134.475006      -1.56541082E-11
   134.639999      -7.19477863E-12
   134.804993       2.02697082E-12
   134.970001       1.19893123E-11
   135.134995       2.26457082E-11
   135.300003       3.39450551E-11
   135.464996       4.58520409E-11
   135.630005       5.83501372E-11
   135.794998       7.14222084E-11
   135.960007       8.50213580E-11
   136.125000       9.90540705E-11
   136.289993       1.13390290E-10
   136.455002       1.27895958E-10
   136.619995       1.42465886E-10
   136.785004       1.57032803E-10
   136.949997       1.71544140E-10
   137.115005       1.85921112E-10
   137.279999       2.00028716E-10
   137.445007       2.13679505E-10
   137.610001       2.26671237E-10
   137.774994       2.38834647E-10
   137.940002       2.50059307E-10
   138.104996       2.60279714E-10
   138.270004       2.69430783E-10
   138.434998       2.77404461E-10
   138.600006       2.84037766E-10
   138.764999       2.89142738E-10
   138.929993       2.92559310E-10
   139.095001       2.94196084E-10
   139.259995       2.94032826E-10
   139.425003       2.92082747E-10
   139.589996       2.88342406E-10
   139.755005       2.82762480E-10
   139.919998       2.75260481E-10
   140.085007       2.65765299E-10
   140.250000       2.54263027E-10
   140.414993       2.40813397E-10
   140.580002       2.25526167E-10
   140.744995       2.08515566E-10
   140.910004       1.89864444E-10
   141.074997       1.69622524E-10
   141.240005       1.47838505E-10