  -30.00000        9.7844703E-19
  -29.85750        9.8019931E-19
  -29.71500        9.8339739E-19
  -29.57250        9.8751313E-19
  -29.43000        9.9190536E-19
  -29.28750        9.9594789E-19
  -29.14500        9.9914867E-19
  -29.00250        1.0012395E-18
  -28.86000        1.0022155E-18
  -28.71750        1.0023274E-18
  -28.57500        1.0020215E-18
  -28.43250        1.0018472E-18
  -28.29000        1.0023454E-18
  -28.14750        1.0039349E-18
  -28.00500        1.0068211E-18
  -27.86250        1.0109470E-18
  -27.72000        1.0159937E-18
  -27.57750        1.0214397E-18
  -27.43500        1.0266649E-18
  -27.29250        1.0310777E-18
  -27.15000        1.0342388E-18
  -27.00750        1.0359522E-18
  -26.86500        1.0363039E-18
  -26.72250        1.0356401E-18
  -26.58000        1.0344944E-18
  -26.43750        1.0334807E-18
  -26.29500        1.0331694E-18
  -26.15250        1.0339829E-18
  -26.01000        1.0361166E-18
  -25.86750        1.0395032E-18
  -25.72500        1.0438284E-18
  -25.58250        1.0485913E-18
  -25.44000        1.0532018E-18
  -25.29750        1.0570996E-18
  -25.15500        1.0598680E-18
  -25.01250        1.0613225E-18
  -24.87000        1.0615525E-18
  -24.72750        1.0609017E-18
  -24.58500        1.0598956E-18
  -24.44250        1.0591290E-18
  -24.30000        1.0591394E-18
  -24.15750        1.0602959E-18
  -24.01500        1.0627270E-18
  -23.87250        1.0662985E-18
  -23.73000        1.0706459E-18
  -23.58750        1.0752527E-18
  -23.44500        1.0795497E-18
  -23.30250        1.0830297E-18
  -23.16000        1.0853455E-18
  -23.01750        1.0863798E-18
  -22.87500        1.0862705E-18
  -22.73250        1.0853875E-18
  -22.59000        1.0842603E-18
  -22.44750        1.0834696E-18
  -22.30500        1.0835256E-18
  -22.16250        1.0847577E-18
  -22.02000        1.0872431E-18
  -21.87750        1.0907911E-18
  -21.73500        1.0949849E-18
  -21.59250        1.0992757E-18
  -21.45000        1.1030962E-18
  -21.30750        1.1059808E-18
  -21.16500        1.1076600E-18
  -21.02250        1.1081115E-18
  -20.88000        1.1075636E-18
  -20.73750        1.1064504E-18
  -20.59500        1.1053281E-18
  -20.45250        1.1047659E-18
  -20.31000        1.1052330E-18
  -20.16750        1.1070011E-18
  -20.02500        1.1100846E-18
  -19.88250        1.1142304E-18
  -19.74000        1.1189652E-18
  -19.59750        1.1236929E-18
  -19.45500        1.1278210E-18
  -19.31250        1.1308870E-18
  -19.17000        1.1326598E-18
  -19.02750        1.1331900E-18
  -18.88500        1.1327970E-18
  -18.74250        1.1320055E-18
  -18.60000        1.1314348E-18
  -18.45750        1.1316762E-18
  -18.31500        1.1331742E-18
  -18.17250        1.1361389E-18
  -18.03000        1.1404998E-18
  -17.88750        1.1459093E-18
  -17.74500        1.1518007E-18
  -17.60250        1.1574886E-18
  -17.46000        1.1622930E-18
  -17.31750        1.1656711E-18
  -17.17500        1.1673277E-18
  -17.03250        1.1672735E-18
  -16.89000        1.1658277E-18
  -16.74750        1.1635550E-18
  -16.60500        1.1611490E-18
  -16.46250        1.1592980E-18
  -16.32000        1.1585500E-18
  -16.17750        1.1592134E-18
  -16.03500        1.1613068E-18
  -15.89250        1.1645704E-18
  -15.75000        1.1685227E-18
  -15.60750        1.1725632E-18
  -15.46500        1.1760861E-18
  -15.32250        1.1785990E-18
  -15.18000        1.1798134E-18
  -15.03750        1.1797026E-18
  -14.89500        1.1785041E-18
  -14.75250        1.1766703E-18
  -14.61000        1.1747735E-18
  -14.46750        1.1733820E-18
  -14.32500        1.1729364E-18
  -14.18250        1.1736523E-18
  -14.04000        1.1754733E-18
  -13.89750        1.1780837E-18
  -13.75500        1.1809790E-18
  -13.61250        1.1835741E-18
  -13.47000        1.1853276E-18
  -13.32750        1.1858536E-18
  -13.18500        1.1850027E-18
  -13.04250        1.1828948E-18
  -12.90000        1.1799018E-18
  -12.75750        1.1765832E-18
  -12.61500        1.1735877E-18
  -12.47250        1.1715370E-18
  -12.33000        1.1709036E-18
  -12.18750        1.1719235E-18
  -12.04500        1.1745455E-18
  -11.90250        1.1784415E-18
  -11.76000        1.1830694E-18
  -11.61750        1.1877845E-18
  -11.47500        1.1919698E-18
  -11.33250        1.1951553E-18
  -11.19000        1.1971045E-18
  -11.04750        1.1978511E-18
  -10.90500        1.1976772E-18
  -10.76250        1.1970430E-18
  -10.62000        1.1964859E-18
  -10.47750        1.1965093E-18
  -10.33500        1.1974795E-18
  -10.19250        1.1995518E-18
  -10.05000        1.2026353E-18
  -9.907500        1.2064051E-18
  -9.765000        1.2103619E-18
  -9.622500        1.2139279E-18
  -9.480000        1.2165628E-18
  -9.337500        1.2178742E-18
  -9.195000        1.2177021E-18
  -9.052500        1.2161508E-18
  -8.910000        1.2135672E-18
  -8.767500        1.2104668E-18
  -8.625000        1.2074257E-18
  -8.482500        1.2049659E-18
  -8.340000        1.2034567E-18
  -8.197500        1.2030526E-18
  -8.055000        1.2036757E-18
  -7.912500        1.2050445E-18
  -7.770000        1.2067388E-18
  -7.627500        1.2082906E-18
  -7.485000        1.2092814E-18
  -7.342500        1.2094296E-18
  -7.200000        1.2086574E-18
  -7.057500        1.2071087E-18
  -6.915000        1.2051307E-18
  -6.772500        1.2032015E-18
  -6.630000        1.2018298E-18
  -6.487500        1.2014446E-18
  -6.345000        1.2022972E-18
  -6.202500        1.2044055E-18
  -6.060000        1.2075486E-18
  -5.917500        1.2113128E-18
  -5.775000        1.2151822E-18
  -5.632500        1.2186418E-18
  -5.490000        1.2212795E-18
  -5.347500        1.2228656E-18
  -5.205000        1.2233896E-18
  -5.062500        1.2230625E-18
  -4.920000        1.2222714E-18
  -4.777500        1.2215029E-18
  -4.635000        1.2212440E-18
  -4.492500        1.2218799E-18
  -4.350000        1.2236061E-18
  -4.207500        1.2263762E-18
  -4.065000        1.2298987E-18
  -3.922500        1.2336865E-18
  -3.780000        1.2371530E-18
  -3.637500        1.2397319E-18
  -3.495000        1.2409962E-18
  -3.352500        1.2407472E-18
  -3.210000        1.2390577E-18
  -3.067500        1.2362578E-18
  -2.925000        1.2328709E-18
  -2.782500        1.2295161E-18
  -2.640000        1.2267942E-18
  -2.497500        1.2251814E-18
  -2.355000        1.2249452E-18
  -2.212500        1.2261021E-18
  -2.070000        1.2284157E-18
  -1.927500        1.2314491E-18
  -1.785000        1.2346497E-18
  -1.642500        1.2374674E-18
  -1.500000        1.2394668E-18
  -1.357500        1.2404227E-18
  -1.215000        1.2403670E-18
  -1.072500        1.2395804E-18
 -0.9300000        1.2385275E-18
 -0.7875000        1.2377523E-18
 -0.6450000        1.2377580E-18
 -0.5025000        1.2388947E-18
 -0.3600000        1.2412857E-18
 -0.2175000        1.2447977E-18
 -7.5000003E-02    1.2490628E-18
  6.7500003E-02    1.2535471E-18
  0.2100000        1.2576512E-18
  0.3525000        1.2608229E-18
  0.4950000        1.2626670E-18
  0.6375000        1.2630246E-18
  0.7800000        1.2620138E-18
  0.9225000        1.2600150E-18
   1.065000        1.2575970E-18
   1.207500        1.2554079E-18
   1.350000        1.2540435E-18
   1.492500        1.2539218E-18
   1.635000        1.2551980E-18
   1.777500        1.2577316E-18
   1.920000        1.2611221E-18
   2.062500        1.2647889E-18
   2.205000        1.2680895E-18
   2.347500        1.2704439E-18
   2.490000        1.2714441E-18
   2.632500        1.2709320E-18
   2.775000        1.2690284E-18
   2.917500        1.2661129E-18
   3.060000        1.2627584E-18
   3.202500        1.2596270E-18
   3.345000        1.2573483E-18
   3.487500        1.2563977E-18
   3.630000        1.2570064E-18
   3.772500        1.2591176E-18
   3.915000        1.2624009E-18
   4.057500        1.2663263E-18
   4.200000        1.2702784E-18
   4.342500        1.2736811E-18
   4.485000        1.2761103E-18
   4.627500        1.2773678E-18
   4.770000        1.2775020E-18
   4.912500        1.2767793E-18
   5.055000        1.2756154E-18
   5.197500        1.2744808E-18
   5.340000        1.2738016E-18
   5.482500        1.2738716E-18
   5.625000        1.2747905E-18
   5.767500        1.2764422E-18
   5.910000        1.2785132E-18
   6.052500        1.2805561E-18
   6.195000        1.2820848E-18
   6.337500        1.2826861E-18
   6.480000        1.2821183E-18
   6.622500        1.2803761E-18
   6.765000        1.2777052E-18
   6.907500        1.2745601E-18
   7.050000        1.2715141E-18
   7.192500        1.2691495E-18
   7.335000        1.2679407E-18
   7.477500        1.2681685E-18
   7.620000        1.2698708E-18
   7.762500        1.2728432E-18
   7.905000        1.2766811E-18
   8.047500        1.2808569E-18
   8.190000        1.2848181E-18
   8.332500        1.2880905E-18
   8.475000        1.2903660E-18
   8.617500        1.2915613E-18
   8.760000        1.2918317E-18
   8.902500        1.2915391E-18
   9.045000        1.2911691E-18
   9.187500        1.2912223E-18
   9.330000        1.2921004E-18
   9.472500        1.2940134E-18
   9.615000        1.2969279E-18
   9.757500        1.3005689E-18
   9.900000        1.3044783E-18
   10.04250        1.3081018E-18
   10.18500        1.3108997E-18
   10.32750        1.3124483E-18
   10.47000        1.3125221E-18
   10.61250        1.3111358E-18
   10.75500        1.3085467E-18
   10.89750        1.3052098E-18
   11.04000        1.3017005E-18
   11.18250        1.2986082E-18
   11.32500        1.2964266E-18
   11.46750        1.2954608E-18
   11.61000        1.2957718E-18
   11.75250        1.2971711E-18
   11.89500        1.2992712E-18
   12.03750        1.3015752E-18
   12.18000        1.3035869E-18
   12.32250        1.3049192E-18
   12.46500        1.3053712E-18
   12.60750        1.3049640E-18
   12.75000        1.3039293E-18
   12.89250        1.3026584E-18
   13.03500        1.3016203E-18
   13.17750        1.3012669E-18
   13.32000        1.3019421E-18
   13.46250        1.3038080E-18
   13.60500        1.3068027E-18
   13.74750        1.3106427E-18
   13.89000        1.3148676E-18
   14.03250        1.3189279E-18
   14.17500        1.3222927E-18
   14.31750        1.3245595E-18
   14.46000        1.3255396E-18
   14.60250        1.3252936E-18
   14.74500        1.3241163E-18
   14.88750        1.3224684E-18
   15.03000        1.3208779E-18
   15.17250        1.3198343E-18
   15.31500        1.3196946E-18
   15.45750        1.3206173E-18
   15.60000        1.3225383E-18
   15.74250        1.3251872E-18
   15.88500        1.3281380E-18
   16.02750        1.3308918E-18
   16.17000        1.3329720E-18
   16.31250        1.3340232E-18
   16.45500        1.3338901E-18
   16.59750        1.3326594E-18
   16.74000        1.3306539E-18
   16.88250        1.3283739E-18
   17.02500        1.3263985E-18
   17.16750        1.3252646E-18
   17.31000        1.3253554E-18
   17.45250        1.3268206E-18
   17.59500        1.3295497E-18
   17.73750        1.3331947E-18
   17.88000        1.3372388E-18
   18.02250        1.3410942E-18
   18.16500        1.3442076E-18
   18.30750        1.3461545E-18
   18.45000        1.3467102E-18
   18.59250        1.3458883E-18
   18.73500        1.3439333E-18
   18.87750        1.3412782E-18
   19.02000        1.3384626E-18
   19.16250        1.3360275E-18
   19.30500        1.3344109E-18
   19.44750        1.3338597E-18
   19.59000        1.3343863E-18
   19.73250        1.3357752E-18
   19.87500        1.3376388E-18
   20.01750        1.3395120E-18
   20.16000        1.3409544E-18
   20.30250        1.3416462E-18
   20.44500        1.3414503E-18
   20.58750        1.3404342E-18
   20.73000        1.3388503E-18
   20.87250        1.3370840E-18
   21.01500        1.3355715E-18
   21.15750        1.3347165E-18
   21.30000        1.3348078E-18
   21.44250        1.3359576E-18
   21.58500        1.3380753E-18
   21.72750        1.3408820E-18
   21.87000        1.3439695E-18
   22.01250        1.3468856E-18
   22.15500        1.3492358E-18
   22.29750        1.3507735E-18
   22.44000        1.3514524E-18
   22.58250        1.3514378E-18
   22.72500        1.3510656E-18
   22.86750        1.3507664E-18
   23.01000        1.3509717E-18
   23.15250        1.3520205E-18
   23.29500        1.3540870E-18
   23.43750        1.3571388E-18
   23.58000        1.3609340E-18
   23.72250        1.3650606E-18
   23.86500        1.3690038E-18
   24.00750        1.3722400E-18
   24.15000        1.3743375E-18
   24.29250        1.3750446E-18
   24.43500        1.3743476E-18
   24.57750        1.3724784E-18
   24.72000        1.3698714E-18
   24.86250        1.3670746E-18
   25.00500        1.3646376E-18
   25.14750        1.3630007E-18
   25.29000        1.3624098E-18
   25.43250        1.3628795E-18
   25.57500        1.3642004E-18
   25.71750        1.3659977E-18
   25.86000        1.3678104E-18
   26.00250        1.3691907E-18
   26.14500        1.3697944E-18
   26.28750        1.3694495E-18
   26.43000        1.3681995E-18
   26.57250        1.3663038E-18
   26.71500        1.3641933E-18
   26.85750        1.3623944E-18
   27.00000        1.3614220E-18
   27.14250        1.3616701E-18
   27.28500        1.3633219E-18
   27.42750        1.3663050E-18
   27.57000        1.3703001E-18
   27.71250        1.3748042E-18
   27.85500        1.3792327E-18
   27.99750        1.3830355E-18
   28.14000        1.3858000E-18
   28.28250        1.3873215E-18
   28.42500        1.3876289E-18
   28.56750        1.3869655E-18
   28.71000        1.3857298E-18
   28.85250        1.3843938E-18
   28.99500        1.3834081E-18
   29.13750        1.3831129E-18
   29.28000        1.3836656E-18
   29.42250        1.3850059E-18
   29.56500        1.3868634E-18
   29.70750        1.3888123E-18
   29.85000        1.3903632E-18
   29.99250        1.3910750E-18
   30.13500        1.3906608E-18
   30.27750        1.3890629E-18
   30.42000        1.3864741E-18
   30.56250        1.3833073E-18
   30.70500        1.3801170E-18
   30.84750        1.3774911E-18
   30.99000        1.3759385E-18
   31.13250        1.3757954E-18
   31.27500        1.3771609E-18
   31.41750        1.3798809E-18
   31.56000        1.3835709E-18
   31.70250        1.3876840E-18
   31.84500        1.3916070E-18
   31.98750        1.3947726E-18
   32.13000        1.3967677E-18
   32.27250        1.3974132E-18
   32.41500        1.3968028E-18
   32.55750        1.3952852E-18
   32.70000        1.3933931E-18
   32.84250        1.3917363E-18
   32.98500        1.3908770E-18
   33.12750        1.3912232E-18
   33.27000        1.3929515E-18
   33.41250        1.3959806E-18
   33.55500        1.3999911E-18
   33.69750        1.4044889E-18
   33.84000        1.4088977E-18
   33.98250        1.4126578E-18
   34.12500        1.4153253E-18
   34.26750        1.4166480E-18
   34.41000        1.4166066E-18
   34.55250        1.4154145E-18
   34.69500        1.4134705E-18
   34.83750        1.4112730E-18
   34.98000        1.4093160E-18
   35.12250        1.4079857E-18
   35.26500        1.4074821E-18
   35.40750        1.4077879E-18
   35.55000        1.4086847E-18
   35.69250        1.4098129E-18
   35.83500        1.4107605E-18
   35.97750        1.4111553E-18
   36.12000        1.4107469E-18
   36.26250        1.4094600E-18
   36.40500        1.4074147E-18
   36.54750        1.4049117E-18
   36.69000        1.4023835E-18
   36.83250        1.4003232E-18
   36.97500        1.3991963E-18
   37.11750        1.3993502E-18
   37.26000        1.4009429E-18
   37.40250        1.4039037E-18
   37.54500        1.4079388E-18
   37.68750        1.4125854E-18
   37.83000        1.4173018E-18
   37.97250        1.4215725E-18
   38.11500        1.4250039E-18
   38.25750        1.4273901E-18
   38.40000        1.4287354E-18
   38.54250        1.4292307E-18
   38.68500        1.4291976E-18
   38.82750        1.4290094E-18
   38.97000        1.4290161E-18
   39.11250        1.4294722E-18
   39.25500        1.4304874E-18
   39.39750        1.4320083E-18
   39.54000        1.4338246E-18
   39.68250        1.4356124E-18
   39.82500        1.4370041E-18
   39.96750        1.4376723E-18
   40.11000        1.4374131E-18
   40.25250        1.4362052E-18
   40.39500        1.4342313E-18
   40.53750        1.4318487E-18
   40.68000        1.4295233E-18
   40.82250        1.4277316E-18
   40.96500        1.4268635E-18
   41.10750        1.4271452E-18
   41.25000        1.4285974E-18
   41.39250        1.4310346E-18
   41.53500        1.4341017E-18
   41.67750        1.4373446E-18
   41.82000        1.4402866E-18
   41.96250        1.4425164E-18
   42.10500        1.4437562E-18
   42.24750        1.4439113E-18
   42.39000        1.4430848E-18
   42.53250        1.4415530E-18
   42.67500        1.4397048E-18
   42.81750        1.4379564E-18
   42.96000        1.4366577E-18
   43.10250        1.4360185E-18
   43.24500        1.4360647E-18
   43.38750        1.4366404E-18
   43.53000        1.4374544E-18
   43.67250        1.4381583E-18
   43.81500        1.4384304E-18
   43.95750        1.4380536E-18
   44.10000        1.4369671E-18
   44.24250        1.4352855E-18
   44.38500        1.4332825E-18
   44.52750        1.4313438E-18
   44.67000        1.4298950E-18
   44.81250        1.4293221E-18
   44.95500        1.4298902E-18
   45.09750        1.4316820E-18
   45.24000        1.4345701E-18
   45.38250        1.4382309E-18
   45.52500        1.4422031E-18
   45.66750        1.4459769E-18
   45.81000        1.4490968E-18
   45.95250        1.4512531E-18
   46.09500        1.4523377E-18
   46.23750        1.4524557E-18
   46.38000        1.4518947E-18
   46.52250        1.4510566E-18
   46.66500        1.4503759E-18
   46.80750        1.4502354E-18
   46.95000        1.4508964E-18
   47.09250        1.4524523E-18
   47.23500        1.4548147E-18
   47.37750        1.4577260E-18
   47.52000        1.4608080E-18
   47.66250        1.4636353E-18
   47.80500        1.4658213E-18
   47.94750        1.4671037E-18
   48.09000        1.4674023E-18
   48.23250        1.4668406E-18
   48.37500        1.4657159E-18
   48.51750        1.4644308E-18
   48.66000        1.4633991E-18
   48.80250        1.4629533E-18
   48.94500        1.4632735E-18
   49.08750        1.4643542E-18
   49.23000        1.4660119E-18
   49.37250        1.4679255E-18
   49.51500        1.4697020E-18
   49.65750        1.4709485E-18
   49.80000        1.4713438E-18
   49.94250        1.4707038E-18
   50.08500        1.4690195E-18
   50.22750        1.4664729E-18
   50.37000        1.4634146E-18
   50.51250        1.4603081E-18
   50.65500        1.4576423E-18
   50.79750        1.4558371E-18
   50.94000        1.4551562E-18
   51.08250        1.4556516E-18
   51.22500        1.4571569E-18
   51.36750        1.4593281E-18
   51.51000        1.4617201E-18
   51.65250        1.4638775E-18
   51.79500        1.4654246E-18
   51.93750        1.4661309E-18
   52.08000        1.4659480E-18
   52.22250        1.4650108E-18
   52.36500        1.4636120E-18
   52.50750        1.4621458E-18
   52.65000        1.4610395E-18
   52.79250        1.4606700E-18
   52.93500        1.4612883E-18
   53.07750        1.4629645E-18
   53.22000        1.4655618E-18
   53.36250        1.4687608E-18
   53.50500        1.4721200E-18
   53.64750        1.4751667E-18
   53.79000        1.4774969E-18
   53.93250        1.4788540E-18
   54.07500        1.4791781E-18
   54.21750        1.4786110E-18
   54.36000        1.4774610E-18
   54.50250        1.4761408E-18
   54.64500        1.4750879E-18
   54.78750        1.4746852E-18
   54.93000        1.4751903E-18
   55.07250        1.4766855E-18
   55.21500        1.4790570E-18
   55.35750        1.4820102E-18
   55.50000        1.4851192E-18
   55.64250        1.4879113E-18
   55.78500        1.4899616E-18
   55.92750        1.4909848E-18
   56.07000        1.4908964E-18
   56.21250        1.4898279E-18
   56.35500        1.4880954E-18
   56.49750        1.4861301E-18
   56.64000        1.4843851E-18
   56.78250        1.4832474E-18
   56.92500        1.4829644E-18
   57.06750        1.4836041E-18
   57.21000        1.4850486E-18
   57.35250        1.4870169E-18
   57.49500        1.4891187E-18
   57.63750        1.4909256E-18
   57.78000        1.4920553E-18
   57.92250        1.4922543E-18
   58.06500        1.4914609E-18
   58.20750        1.4898320E-18
   58.35000        1.4877202E-18
   58.49250        1.4856067E-18
   58.63500        1.4839975E-18
   58.77750        1.4833158E-18
   58.92000        1.4838082E-18
   59.06250        1.4854975E-18
   59.20500        1.4881826E-18
   59.34750        1.4914874E-18
   59.49000        1.4949395E-18
   59.63250        1.4980580E-18
   59.77500        1.5004406E-18
   59.91750        1.5018299E-18
   60.06000        1.5021591E-18
   60.20250        1.5015613E-18
   60.34500        1.5003504E-18
   60.48750        1.4989665E-18
   60.63000        1.4978902E-18
   60.77250        1.4975410E-18
   60.91500        1.4981824E-18
   61.05750        1.4998567E-18
   61.20000        1.5023674E-18
   61.34250        1.5053201E-18
   61.48500        1.5082081E-18
   61.62750        1.5105225E-18
   61.77000        1.5118608E-18
   61.91250        1.5120074E-18
   62.05500        1.5109665E-18
   62.19750        1.5089571E-18
   62.34000        1.5063655E-18
   62.48250        1.5036747E-18
   62.62500        1.5013807E-18
   62.76750        1.4999073E-18
   62.91000        1.4995305E-18
   63.05250        1.5003254E-18
   63.19500        1.5021469E-18
   63.33750        1.5046520E-18
   63.48000        1.5073666E-18
   63.62250        1.5097816E-18
   63.76500        1.5114621E-18
   63.90750        1.5121384E-18
   64.05000        1.5117606E-18
   64.19250        1.5105024E-18
   64.33500        1.5087155E-18
   64.47750        1.5068519E-18
   64.62000        1.5053729E-18
   64.76250        1.5046640E-18
   64.90500        1.5049712E-18
   65.04750        1.5063625E-18
   65.19000        1.5087209E-18
   65.33250        1.5117678E-18
   65.47500        1.5151075E-18
   65.61750        1.5183023E-18
   65.76000        1.5209534E-18
   65.90250        1.5227798E-18
   66.04500        1.5236741E-18
   66.18750        1.5237192E-18
   66.33000        1.5231602E-18
   66.47250        1.5223403E-18
   66.61500        1.5216129E-18
   66.75750        1.5212632E-18
   66.90000        1.5214460E-18
   67.04250        1.5221640E-18
   67.18500        1.5232781E-18
   67.32750        1.5245434E-18
   67.47000        1.5256625E-18
   67.61250        1.5263424E-18
   67.75500        1.5263525E-18
   67.89750        1.5255724E-18
   68.04000        1.5240281E-18
   68.18250        1.5219012E-18
   68.32500        1.5195125E-18
   68.46750        1.5172667E-18
   68.61000        1.5155726E-18
   68.75250        1.5147560E-18
   68.89500        1.5149839E-18
   69.03750        1.5162281E-18
   69.18000        1.5182718E-18
   69.32250        1.5207609E-18
   69.46500        1.5232800E-18
   69.60750        1.5254344E-18
   69.75000        1.5269227E-18
   69.89250        1.5275781E-18
   70.03500        1.5273896E-18
   70.17750        1.5264971E-18
   70.32000        1.5251650E-18
   70.46250        1.5237421E-18
   70.60500        1.5225992E-18
   70.74750        1.5220643E-18
   70.89000        1.5223491E-18
   71.03250        1.5234988E-18
   71.17500        1.5253739E-18
   71.31750        1.5276747E-18
   71.46000        1.5300057E-18
   71.60250        1.5319670E-18
   71.74500        1.5332452E-18
   71.88750        1.5336786E-18
   72.03000        1.5332844E-18
   72.17250        1.5322446E-18
   72.31500        1.5308594E-18
   72.45750        1.5294846E-18
   72.60000        1.5284640E-18
   72.74250        1.5280764E-18
   72.88500        1.5284896E-18
   73.02750        1.5297313E-18
   73.17000        1.5316858E-18
   73.31250        1.5341074E-18
   73.45500        1.5366666E-18
   73.59750        1.5390171E-18
   73.74000        1.5408746E-18
   73.88250        1.5420831E-18
   74.02500        1.5426515E-18
   74.16750        1.5427489E-18
   74.31000        1.5426557E-18
   74.45250        1.5426866E-18
   74.59500        1.5431111E-18
   74.73750        1.5440827E-18
   74.88000        1.5456093E-18
   75.02250        1.5475476E-18
   75.16500        1.5496337E-18
   75.30750        1.5515327E-18
   75.45000        1.5528980E-18
   75.59250        1.5534370E-18
   75.73500        1.5529721E-18
   75.87750        1.5514859E-18
   76.02000        1.5491463E-18
   76.16250        1.5462911E-18
   76.30500        1.5433755E-18
   76.44750        1.5408869E-18
   76.59000        1.5392411E-18
   76.73250        1.5386942E-18
   76.87500        1.5392868E-18
   77.01750        1.5408401E-18
   77.16000        1.5429992E-18
   77.30250        1.5453137E-18
   77.44500        1.5473299E-18
   77.58750        1.5486779E-18
   77.73000        1.5491369E-18
   77.87250        1.5486701E-18
   78.01500        1.5474315E-18
   78.15750        1.5457448E-18
   78.30000        1.5440488E-18
   78.44250        1.5428232E-18
   78.58500        1.5424964E-18
   78.72750        1.5433516E-18
   78.87000        1.5454612E-18
   79.01250        1.5486594E-18
   79.15500        1.5525720E-18
   79.29750        1.5566968E-18
   79.44000        1.5605128E-18
   79.58250        1.5635904E-18
   79.72500        1.5656744E-18
   79.86750        1.5667224E-18
   80.01000        1.5668912E-18
   80.15250        1.5664842E-18
   80.29500        1.5658809E-18
   80.43750        1.5654544E-18
   80.58000        1.5654987E-18
   80.72250        1.5661714E-18
   80.86500        1.5674535E-18
   81.00750        1.5691443E-18
   81.15000        1.5708863E-18
   81.29250        1.5722274E-18
   81.43500        1.5727177E-18
   81.57750        1.5720130E-18
   81.72000        1.5699667E-18
   81.86250        1.5666776E-18
   82.00500        1.5624853E-18
   82.14750        1.5579035E-18
   82.29000        1.5535198E-18
   82.43250        1.5498800E-18
   82.57500        1.5473902E-18
   82.71750        1.5462528E-18
   82.86000        1.5464470E-18
   83.00250        1.5477486E-18
   83.14500        1.5497792E-18
   83.28750        1.5520763E-18
   83.43000        1.5541759E-18
   83.57250        1.5556939E-18
   83.71500        1.5563976E-18
   83.85750        1.5562545E-18
   84.00000        1.5554391E-18
   84.14250        1.5542947E-18
   84.28500        1.5532543E-18
   84.42750        1.5527367E-18
   84.57000        1.5530476E-18
   84.71250        1.5543063E-18
   84.85500        1.5564220E-18
   84.99750        1.5591193E-18
   85.14000        1.5619997E-18
   85.28250        1.5646253E-18
   85.42500        1.5666009E-18
   85.56750        1.5676429E-18
   85.71000        1.5676268E-18
   85.85250        1.5666064E-18
   85.99500        1.5648102E-18
   86.13750        1.5626067E-18
   86.28000        1.5604437E-18
   86.42250        1.5587663E-18
   86.56500        1.5579285E-18
   86.70750        1.5581225E-18
   86.85000        1.5593373E-18
   86.99250        1.5613703E-18
   87.13500        1.5638799E-18
   87.27750        1.5664697E-18
   87.42000        1.5687788E-18
   87.56250        1.5705558E-18
   87.70500        1.5716977E-18
   87.84750        1.5722564E-18
   87.99000        1.5724134E-18
   88.13250        1.5724379E-18
   88.27500        1.5726369E-18
   88.41750        1.5732962E-18
   88.56000        1.5746275E-18
   88.70250        1.5767194E-18
   88.84500        1.5795051E-18
   88.98750        1.5827595E-18
   89.13000        1.5861316E-18
   89.27250        1.5892158E-18
   89.41500        1.5916432E-18
   89.55750        1.5931693E-18
   89.70000        1.5937341E-18
   89.84250        1.5934767E-18
   89.98500        1.5927010E-18
   90.12750        1.5918049E-18
   90.27000        1.5911937E-18
   90.41250        1.5912012E-18
   90.55500        1.5920309E-18
   90.69750        1.5937223E-18
   90.84000        1.5961462E-18
   90.98250        1.5990236E-18
   91.12500        1.6019615E-18
   91.26750        1.6045122E-18
   91.41000        1.6062508E-18
   91.55250        1.6068569E-18
   91.69500        1.6061903E-18
   91.83750        1.6043333E-18
   91.98000        1.6015861E-18
   92.12250        1.5984108E-18
   92.26500        1.5953386E-18
   92.40750        1.5928578E-18
   92.55000        1.5913178E-18
   92.69250        1.5908686E-18
   92.83500        1.5914492E-18
   92.97750        1.5928159E-18
   93.12000        1.5946041E-18
   93.26250        1.5964048E-18
   93.40500        1.5978393E-18
   93.54750        1.5986296E-18
   93.69000        1.5986502E-18
   93.83250        1.5979551E-18
   93.97500        1.5967742E-18
   94.11750        1.5954739E-18
   94.26000        1.5944801E-18
   94.40250        1.5941845E-18
   94.54500        1.5948466E-18
   94.68750        1.5965313E-18
   94.83000        1.5990836E-18
   94.97250        1.6021608E-18
   95.11500        1.6053067E-18
   95.25750        1.6080507E-18
   95.40000        1.6100015E-18
   95.54250        1.6109224E-18
   95.68500        1.6107681E-18
   95.82750        1.6096916E-18
   95.97000        1.6080103E-18
   96.11250        1.6061496E-18
   96.25500        1.6045650E-18
   96.39750        1.6036558E-18
   96.54000        1.6036796E-18
   96.68250        1.6046932E-18
   96.82500        1.6065290E-18
   96.96750        1.6088244E-18
   97.11000        1.6110983E-18
   97.25250        1.6128584E-18
   97.39500        1.6137129E-18
   97.53750        1.6134572E-18
   97.68000        1.6121108E-18
   97.82250        1.6099056E-18
   97.96500        1.6072281E-18
   98.10750        1.6045350E-18
   98.25000        1.6022648E-18
   98.39250        1.6007604E-18
   98.53500        1.6002105E-18
   98.67750        1.6006139E-18
   98.82000        1.6017769E-18
   98.96250        1.6033392E-18
   99.10500        1.6048359E-18
   99.24750        1.6057869E-18
   99.39000        1.6057983E-18