  -1.60312498      -1.87750291E-18
  -1.38937497      -1.92510033E-18
  -1.17562497      -1.97266239E-18
 -0.961875021      -2.02014173E-18
 -0.748125017      -2.06749224E-18
 -0.534375012      -2.11466759E-18
 -0.320625007      -2.16162188E-18
 -0.106875002      -2.20831064E-18
  0.106875002      -2.25468921E-18
  0.320625007      -2.30071478E-18
  0.534375012      -2.34634496E-18
  0.748125017      -2.39153921E-18
  0.961875021      -2.43625784E-18
   1.17562497      -2.48046278E-18
   1.38937497      -2.52411724E-18
   1.60312498      -2.56718646E-18
   1.81687498      -2.60963655E-18
   2.03062510      -2.65143626E-18
   2.24437499      -2.69255520E-18
   2.45812511      -2.73296566E-18
   2.67187500      -2.77264179E-18
   2.88562489      -2.81155940E-18
   3.09937501      -2.84969635E-18
   3.31312490      -2.88703280E-18
   3.52687502      -2.92355076E-18
   3.74062490      -2.95923409E-18
   3.95437503      -2.99406894E-18
   4.16812515      -3.02804311E-18
   4.38187504      -3.06114688E-18
   4.59562492      -3.09337260E-18
   4.80937481      -3.12471426E-18
   5.02312517      -3.15516816E-18
   5.23687506      -3.18473201E-18
   5.45062494      -3.21340560E-18
   5.66437483      -3.24119039E-18
   5.87812519      -3.26808968E-18
   6.09187508      -3.29410824E-18
   6.30562496      -3.31925246E-18
   6.51937485      -3.34353042E-18
   6.73312521      -3.36695162E-18
   6.94687510      -3.38952662E-18
   7.16062498      -3.41126762E-18
   7.37437487      -3.43218784E-18
   7.58812523      -3.45230136E-18
   7.80187511      -3.47162326E-18
   8.01562500      -3.49016989E-18
   8.22937489      -3.50795800E-18
   8.44312477      -3.52500536E-18
   8.65687466      -3.54133060E-18
   8.87062454      -3.55695273E-18
   9.08437538      -3.57189120E-18
   9.29812527      -3.58616586E-18
   9.51187515      -3.59979655E-18
   9.72562504      -3.61280438E-18
   9.93937492      -3.62520920E-18
   10.1531200      -3.63703250E-18
   10.3668699      -3.64829457E-18
   10.5806198      -3.65901607E-18
   10.7943802      -3.66921851E-18
   11.0081301      -3.67892217E-18
   11.2218800      -3.68814730E-18
   11.4356298      -3.69691418E-18
   11.6493702      -3.70524306E-18
   11.8631201      -3.71315256E-18
   12.0768700      -3.72066253E-18
   12.2906199      -3.72779159E-18
   12.5043802      -3.73455834E-18
   12.7181301      -3.74098098E-18
   12.9318800      -3.74707648E-18
   13.1456299      -3.75286219E-18
   13.3593798      -3.75835426E-18
   13.5731201      -3.76356839E-18
   13.7868700      -3.76852072E-18
   14.0006199      -3.77322531E-18
   14.2143698      -3.77769705E-18
   14.4281301      -3.78194917E-18
   14.6418800      -3.78599491E-18
   14.8556299      -3.78984750E-18
   15.0693798      -3.79351853E-18
   15.2831202      -3.79701957E-18
   15.4968700      -3.80036138E-18
   15.7106199      -3.80355471E-18
   15.9243698      -3.80660949E-18
   16.1381207      -3.80953482E-18
   16.3518791      -3.81233937E-18
   16.5656204      -3.81503226E-18
   16.7793808      -3.81762133E-18
   16.9931297      -3.82011404E-18
   17.2068691      -3.82251700E-18
   17.4206295      -3.82483724E-18
   17.6343708      -3.82708056E-18
   17.8481293      -3.82925315E-18
   18.0618706      -3.83136039E-18
   18.2756310      -3.83340684E-18
   18.4893703      -3.83539786E-18
   18.7031193      -3.83733801E-18
   18.9168797      -3.83923101E-18
   19.1306190      -3.84108059E-18
   19.3443794      -3.84289046E-18
   19.5581207      -3.84466352E-18
   19.7718792      -3.84640308E-18
   19.9856205      -3.84811162E-18
   20.1993809      -3.84979204E-18
   20.4131203      -3.85144640E-18
   20.6268692      -3.85307719E-18
   20.8406296      -3.85468564E-18
   21.0543709      -3.85627466E-18
   21.2681293      -3.85784465E-18
   21.4818707      -3.85939768E-18
   21.6956291      -3.86093499E-18
   21.9093704      -3.86245783E-18
   22.1231308      -3.86396702E-18
   22.3368797      -3.86546422E-18
   22.5506191      -3.86694942E-18
   22.7643795      -3.86842470E-18
   22.9781208      -3.86988964E-18
   23.1918793      -3.87134547E-18
   23.4056206      -3.87274713E-18
   23.6193810      -3.87414548E-18
   23.8331203      -3.87554011E-18
   24.0468807      -3.87693184E-18
   24.2606297      -3.87831985E-18
   24.4743690      -3.87970455E-18
   24.6881294      -3.88108635E-18
   24.9018707      -3.88246444E-18
   25.1156292      -3.88383880E-18
   25.3293705      -3.88520985E-18
   25.5431309      -3.88657676E-18
   25.7568703      -3.88793954E-18
   25.9706192      -3.88929860E-18
   26.1843796      -3.89065394E-18
   26.3981209      -3.89200555E-18
   26.6118793      -3.89335344E-18
   26.8256207      -3.89469761E-18
   27.0393791      -3.89603764E-18
   27.2531204      -3.89737437E-18
   27.4668808      -3.89870654E-18
   27.6806297      -3.90003458E-18
   27.8943691      -3.90135890E-18
   28.1081295      -3.90267908E-18
   28.3218708      -3.90399553E-18
   28.5356293      -3.90530827E-18
   28.7493706      -3.90661728E-18
   28.9631310      -3.90792299E-18
   29.1768703      -3.90922456E-18
   29.3906193      -3.91052199E-18
   29.6043797      -3.91181570E-18
   29.8181190      -3.91310527E-18
   30.0318794      -3.91439154E-18
   30.2456207      -3.91567408E-18
   30.4593792      -3.91695290E-18
   30.6731205      -3.91822842E-18
   30.8868809      -3.91950062E-18
   31.1006203      -3.92076952E-18
   31.3143692      -3.92203469E-18
   31.5281296      -3.92329614E-18
   31.7418709      -3.92455387E-18
   31.9556293      -3.92580870E-18
   32.1693802      -3.92705981E-18
   32.3831291      -3.92830803E-18
   32.5968704      -3.92955335E-18
   32.8106194      -3.93079577E-18
   33.0243797      -3.93203489E-18
   33.2381210      -3.93327070E-18
   33.4518700      -3.93450361E-18
   33.6656303      -3.93573321E-18
   33.8793793      -3.93695992E-18
   34.0931206      -3.93818374E-18
   34.3068695      -3.93940507E-18
   34.5206299      -3.94062350E-18
   34.7343788      -3.94183946E-18
   34.9481201      -3.94305252E-18
   35.1618805      -3.94426269E-18
   35.3756294      -3.94546996E-18
   35.5893707      -3.94667433E-18
   35.8031197      -3.94787581E-18
   36.0168800      -3.94907481E-18
   36.2306290      -3.95027091E-18
   36.4443703      -3.95146453E-18
   36.6581306      -3.95265567E-18
   36.8718796      -3.95384392E-18
   37.0856209      -3.95502968E-18
   37.2993698      -3.95621214E-18
   37.5131302      -3.95739211E-18
   37.7268791      -3.95856919E-18
   37.9406204      -3.95974378E-18
   38.1543694      -3.96091590E-18
   38.3681297      -3.96208512E-18
   38.5818710      -3.96325227E-18
   38.7956200      -3.96441653E-18
   39.0093803      -3.96557789E-18
   39.2231293      -3.96673636E-18
   39.4368706      -3.96789193E-18
   39.6506195      -3.96904502E-18
   39.8643799      -3.97019480E-18
   40.0781212      -3.97134210E-18
   40.2918701      -3.97248650E-18
   40.5056305      -3.97362842E-18
   40.7193794      -3.97476745E-18
   40.9331207      -3.97590358E-18
   41.1468697      -3.97703682E-18
   41.3606300      -3.97816675E-18
   41.5743790      -3.97929337E-18
   41.7881203      -3.98041668E-18
   42.0018806      -3.98153751E-18
   42.2156296      -3.98265503E-18
   42.4293709      -3.98376966E-18
   42.6431198      -3.98488139E-18
   42.8568802      -3.98598940E-18
   43.0706291      -3.98709368E-18
   43.2843704      -3.98819466E-18
   43.4981194      -3.98929233E-18
   43.7118797      -3.99038586E-18
   43.9256210      -3.99147609E-18
   44.1393700      -3.99256300E-18
   44.3531303      -3.99364620E-18
   44.5668793      -3.99472567E-18
   44.7806206      -3.99580141E-18
   44.9943695      -3.99687344E-18
   45.2081299      -3.99794092E-18
   45.4218788      -3.99900426E-18
   45.6356201      -4.00006346E-18
   45.8493805      -4.00111853E-18
   46.0631294      -4.00216988E-18
   46.2768707      -4.00321668E-18
   46.4906197      -4.00425892E-18
   46.7043800      -4.00529703E-18
   46.9181290      -4.00633018E-18
   47.1318703      -4.00735837E-18
   47.3456306      -4.00838118E-18
   47.5593796      -4.00939944E-18
   47.7731209      -4.01041273E-18
   47.9868698      -4.01142107E-18
   48.2006302      -4.01242444E-18
   48.4143791      -4.01342243E-18
   48.6281204      -4.01441505E-18
   48.8418694      -4.01540229E-18
   49.0556297      -4.01638332E-18
   49.2693710      -4.01735898E-18
   49.4831200      -4.01832885E-18
   49.6968803      -4.01929252E-18
   49.9106293      -4.02025081E-18
   50.1243706      -4.02120289E-18
   50.3381195      -4.02214877E-18
   50.5518799      -4.02308886E-18
   50.7656212      -4.02402234E-18
   50.9793701      -4.02494919E-18
   51.1931305      -4.02586943E-18
   51.4068794      -4.02678305E-18
   51.6206207      -4.02769005E-18
   51.8343697      -4.02859044E-18
   52.0481300      -4.02948462E-18
   52.2618790      -4.03037219E-18
   52.4756203      -4.03125272E-18
   52.6893806      -4.03212664E-18
   52.9031296      -4.03299352E-18
   53.1168709      -4.03385296E-18
   53.3306198      -4.03470620E-18
   53.5443802      -4.03555199E-18
   53.7581291      -4.03639117E-18
   53.9718704      -4.03722372E-18
   54.1856194      -4.03804925E-18
   54.3993797      -4.03886816E-18
   54.6131210      -4.03968004E-18
   54.8268700      -4.04048530E-18
   55.0406303      -4.04128311E-18
   55.2543793      -4.04207431E-18
   55.4681206      -4.04285889E-18
   55.6818695      -4.04363686E-18
   55.8956299      -4.04440862E-18
   56.1093788      -4.04517417E-18
   56.3231201      -4.04593352E-18
   56.5368805      -4.04668626E-18
   56.7506294      -4.04743320E-18
   56.9643707      -4.04817353E-18
   57.1781197      -4.04890806E-18
   57.3918800      -4.04963640E-18
   57.6056290      -4.05035977E-18
   57.8193703      -4.05107735E-18
   58.0331306      -4.05178996E-18
   58.2468796      -4.05249720E-18
   58.4606209      -4.05319948E-18
   58.6743698      -4.05389679E-18
   58.8881302      -4.05458914E-18
   59.1018791      -4.05527694E-18
   59.3156204      -4.05596061E-18
   59.5293694      -4.05663972E-18
   59.7431297      -4.05731553E-18
   59.9568710      -4.05798761E-18
   60.1706200      -4.05865597E-18
   60.3843803      -4.05932103E-18
   60.5981293      -4.05998277E-18
   60.8118706      -4.06064121E-18
   61.0256195      -4.06129633E-18
   61.2393799      -4.06194898E-18
   61.4531212      -4.06259914E-18
   61.6668701      -4.06324683E-18
   61.8806305      -4.06389244E-18
   62.0943794      -4.06453640E-18
   62.3081207      -4.06517788E-18
   62.5218697      -4.06581770E-18
   62.7356300      -4.06645587E-18
   62.9493790      -4.06709239E-18
   63.1631203      -4.06772766E-18
   63.3768806      -4.06836211E-18
   63.5906296      -4.06899532E-18
   63.8043709      -4.06962811E-18
   64.0181274      -4.07025966E-18
   64.2318726      -4.07089122E-18
   64.4456329      -4.07152153E-18
   64.6593781      -4.07215143E-18
   64.8731232      -4.07278091E-18
   65.0868835      -4.07340957E-18
   65.3006287      -4.07403822E-18
   65.5143738      -4.07466688E-18
   65.7281265      -4.07529595E-18
   65.9418716      -4.07592461E-18
   66.1556168      -4.07655327E-18
   66.3693771      -4.07718192E-18
   66.5831223      -4.07781058E-18
   66.7968826      -4.07843924E-18
   67.0106277      -4.07906790E-18
   67.2243729      -4.07969655E-18
   67.4381332      -4.08032562E-18
   67.6518784      -4.08095470E-18
   67.8656235      -4.08158418E-18
   68.0793762      -4.08221366E-18
   68.2931213      -4.08284274E-18
   68.5068665      -4.08347181E-18
   68.7206268      -4.08410088E-18
   68.9343719      -4.08472953E-18
   69.1481171      -4.08535778E-18
   69.3618774      -4.08598644E-18
   69.5756226      -4.08661509E-18
   69.7893829      -4.08724334E-18
   70.0031281      -4.08787117E-18
   70.2168732      -4.08849858E-18
   70.4306335      -4.08912559E-18
   70.6443787      -4.08975217E-18
   70.8581238      -4.09037794E-18
   71.0718765      -4.09100329E-18
   71.2856216      -4.09162781E-18
   71.4993668      -4.09225233E-18
   71.7131271      -4.09287561E-18
   71.9268723      -4.09349848E-18
   72.1406174      -4.09412052E-18
   72.3543777      -4.09474131E-18
   72.5681229      -4.09536087E-18
   72.7818832      -4.09597919E-18
   72.9956284      -4.09659668E-18
   73.2093735      -4.09721293E-18
   73.4231262      -4.09782835E-18
   73.6368713      -4.09844212E-18
   73.8506165      -4.09905506E-18
   74.0643768      -4.09966676E-18
   74.2781219      -4.10027681E-18
   74.4918671      -4.10088479E-18
   74.7056274      -4.10149194E-18
   74.9193726      -4.10209702E-18
   75.1331329      -4.10270086E-18
   75.3468781      -4.10330346E-18
   75.5606232      -4.10390441E-18
   75.7743835      -4.10450411E-18
   75.9881287      -4.10510175E-18
   76.2018738      -4.10569774E-18
   76.4156265      -4.10629165E-18
   76.6293716      -4.10688391E-18
   76.8431168      -4.10747452E-18
   77.0568771      -4.10806389E-18
   77.2706223      -4.10865118E-18
   77.4843826      -4.10923724E-18
   77.6981277      -4.10982206E-18
   77.9118729      -4.11040439E-18
   78.1256332      -4.11098549E-18
   78.3393784      -4.11156451E-18
   78.5531235      -4.11214147E-18
   78.7668762      -4.11271719E-18
   78.9806213      -4.11329125E-18
   79.1943665      -4.11386325E-18
   79.4081268      -4.11443400E-18
   79.6218719      -4.11500352E-18
   79.8356171      -4.11557055E-18
   80.0493774      -4.11613634E-18
   80.2631226      -4.11670006E-18
   80.4768829      -4.11726213E-18
   80.6906281      -4.11782214E-18
   80.9043732      -4.11838090E-18
   81.1181335      -4.11893800E-18
   81.3318787      -4.11949345E-18
   81.5456238      -4.12004725E-18
   81.7593765      -4.12059981E-18
   81.9731216      -4.12115030E-18
   82.1868668      -4.12169872E-18
   82.4006271      -4.12224548E-18
   82.6143723      -4.12279018E-18
   82.8281174      -4.12333364E-18
   83.0418777      -4.12387503E-18
   83.2556229      -4.12441476E-18
   83.4693832      -4.12495285E-18
   83.6831284      -4.12548927E-18
   83.8968735      -4.12602322E-18
   84.1106262      -4.12655551E-18
   84.3243713      -4.12708532E-18
   84.5381165      -4.12761347E-18
   84.7518768      -4.12813915E-18
   84.9656219      -4.12866358E-18
   85.1793671      -4.12918553E-18
   85.3931274      -4.12970583E-18
   85.6068726      -4.13022364E-18
   85.8206329      -4.13073939E-18
   86.0343781      -4.13125265E-18
   86.2481232      -4.13176344E-18
   86.4618835      -4.13227174E-18
   86.6756287      -4.13277756E-18
   86.8893738      -4.13328090E-18
   87.1031265      -4.13378217E-18
   87.3168716      -4.13428055E-18
   87.5306168      -4.13477603E-18
   87.7443771      -4.13526903E-18
   87.9581223      -4.13575872E-18
   88.1718826      -4.13624510E-18
   88.3856277      -4.13672859E-18
   88.5993729      -4.13720918E-18
   88.8131332      -4.13768688E-18
   89.0268784      -4.13816127E-18
   89.2406235      -4.13863276E-18
   89.4543762      -4.13910053E-18
   89.6681213      -4.13956499E-18
   89.8818665      -4.14002573E-18
   90.0956268      -4.14048233E-18
   90.3093719      -4.14093563E-18
   90.5231171      -4.14138520E-18
   90.7368774      -4.14183064E-18
   90.9506226      -4.14227277E-18
   91.1643829      -4.14271076E-18
   91.3781281      -4.14314462E-18
   91.5918732      -4.14357475E-18
   91.8056335      -4.14400033E-18
   92.0193787      -4.14442137E-18
   92.2331238      -4.14483827E-18
   92.4468765      -4.14525103E-18
   92.6606216      -4.14565966E-18
   92.8743668      -4.14606374E-18
   93.0881271      -4.14646409E-18
   93.3018723      -4.14685948E-18
   93.5156174      -4.14725033E-18
   93.7293777      -4.14763662E-18
   93.9431229      -4.14801795E-18
   94.1568832      -4.14839473E-18
   94.3706284      -4.14876696E-18
   94.5843735      -4.14913464E-18
   94.7981262      -4.14949736E-18
   95.0118713      -4.14985595E-18
   95.2256165      -4.15020998E-18
   95.4393768      -4.15055905E-18
   95.6531219      -4.15090316E-18
   95.8668671      -4.15124271E-18
   96.0806274      -4.15157772E-18
   96.2943726      -4.15190818E-18
   96.5081329      -4.15223409E-18
   96.7218781      -4.15255586E-18
   96.9356232      -4.15287309E-18
   97.1493835      -4.15318617E-18
   97.3631287      -4.15349471E-18
   97.5768738      -4.15379912E-18
   97.7906265      -4.15409897E-18
   98.0043716      -4.15439469E-18
   98.2181168      -4.15468585E-18
   98.4318771      -4.15497371E-18
   98.6456223      -4.15525743E-18
   98.8593826      -4.15553785E-18
   99.0731277      -4.15581454E-18
   99.2868729      -4.15608710E-18
   99.5006332      -4.15635634E-18
   99.7143784      -4.15662228E-18
   99.9281235      -4.15688450E-18
   100.141899      -4.15714341E-18
   100.355598      -4.15739942E-18
   100.569397      -4.15765254E-18
   100.783096      -4.15790317E-18
   100.996902      -4.15815091E-18
   101.210602      -4.15839576E-18
   101.424400      -4.15863812E-18
   101.638100      -4.15887759E-18
   101.851898      -4.15911499E-18
   102.065598      -4.15934991E-18
   102.279404      -4.15958318E-18
   102.493103      -4.15981437E-18
   102.706902      -4.16004392E-18
   102.920601      -4.16027180E-18
   103.134399      -4.16049804E-18
   103.348099      -4.16072303E-18
   103.561897      -4.16094637E-18
   103.775597      -4.16116805E-18
   103.989403      -4.16138850E-18
   104.203102      -4.16160811E-18
   104.416901      -4.16182690E-18
   104.630600      -4.16204528E-18
   104.844398      -4.16226241E-18
   105.058098      -4.16247872E-18
   105.271896      -4.16269462E-18
   105.485603      -4.16290968E-18
   105.699402      -4.16312392E-18
   105.913101      -4.16333775E-18
   106.126900      -4.16355116E-18
   106.340599      -4.16376416E-18
   106.554398      -4.16397757E-18
   106.768097      -4.16419057E-18
   106.981903      -4.16440357E-18
   107.195602      -4.16461616E-18
   107.409401      -4.16482874E-18
   107.623100      -4.16504091E-18
   107.836899      -4.16525267E-18
   108.050598      -4.16546484E-18
   108.264397      -4.16567702E-18
   108.478104      -4.16588919E-18
   108.691902      -4.16610136E-18
   108.905602      -4.16631353E-18
   109.119400      -4.16652570E-18
   109.333099      -4.16673746E-18
   109.546898      -4.16694922E-18
   109.760597      -4.16716098E-18
   109.974403      -4.16737232E-18
   110.188103      -4.16758408E-18
   110.401901      -4.16779584E-18
   110.615601      -4.16800760E-18
   110.829399      -4.16821935E-18
   111.043098      -4.16843070E-18
   111.256897      -4.16864204E-18
   111.470596      -4.16885256E-18
   111.684402      -4.16906308E-18
   111.898102      -4.16927318E-18
   112.111900      -4.16948329E-18
   112.325600      -4.16969256E-18
   112.539398      -4.16990225E-18
   112.753098      -4.17011112E-18
   112.966904      -4.17031915E-18
   113.180603      -4.17052678E-18
   113.394402      -4.17073357E-18
   113.608101      -4.17093995E-18
   113.821899      -4.17114551E-18
   114.035599      -4.17135023E-18
   114.249397      -4.17155496E-18
   114.463097      -4.17175886E-18
   114.676903      -4.17196193E-18
   114.890602      -4.17216418E-18
   115.104401      -4.17236560E-18
   115.318100      -4.17256578E-18
   115.531898      -4.17276513E-18
   115.745598      -4.17296324E-18
   115.959396      -4.17316093E-18
   116.173103      -4.17335739E-18
   116.386902      -4.17355302E-18
   116.600601      -4.17374782E-18
   116.814400      -4.17394138E-18
   117.028099      -4.17413370E-18
   117.241898      -4.17432478E-18
   117.455597      -4.17451461E-18
   117.669403      -4.17470362E-18
   117.883102      -4.17489139E-18
   118.096901      -4.17507834E-18
   118.310600      -4.17526445E-18
   118.524399      -4.17544933E-18
   118.738098      -4.17563296E-18
   118.951897      -4.17581535E-18
   119.165604      -4.17599609E-18
   119.379402      -4.17617601E-18
   119.593102      -4.17635426E-18
   119.806900      -4.17653169E-18
   120.020599      -4.17670830E-18
   120.234398      -4.17688324E-18
   120.448097      -4.17705778E-18
   120.661903      -4.17723066E-18
   120.875603      -4.17740230E-18
   121.089401      -4.17757270E-18
   121.303101      -4.17774186E-18
   121.516899      -4.17791019E-18
   121.730598      -4.17807728E-18
   121.944397      -4.17824313E-18
   122.158096      -4.17840815E-18
   122.371902      -4.17857235E-18
   122.585602      -4.17873530E-18
   122.799400      -4.17889702E-18
   123.013100      -4.17905749E-18
   123.226898      -4.17921672E-18
   123.440598      -4.17937513E-18
   123.654404      -4.17953229E-18
   123.868103      -4.17968863E-18
   124.081902      -4.17984414E-18
   124.295601      -4.17999882E-18
   124.509399      -4.18015268E-18
   124.723099      -4.18030570E-18
   124.936897      -4.18045708E-18
   125.150597      -4.18060804E-18
   125.364403      -4.18075776E-18
   125.578102      -4.18090665E-18
   125.791901      -4.18105472E-18
   126.005600      -4.18120195E-18
   126.219398      -4.18134837E-18
   126.433098      -4.18149395E-18
   126.646896      -4.18163871E-18
   126.860603      -4.18178222E-18
   127.074402      -4.18192491E-18
   127.288101      -4.18206636E-18
   127.501900      -4.18220698E-18
   127.715599      -4.18234719E-18
   127.929398      -4.18248698E-18
   128.143097      -4.18262553E-18
   128.356903      -4.18276367E-18
   128.570602      -4.18290098E-18
   128.784393      -4.18303747E-18
   128.998093      -4.18317313E-18
   129.211899      -4.18330796E-18
   129.425598      -4.18344196E-18
   129.639404      -4.18357555E-18
   129.853104      -4.18370873E-18
   130.066895      -4.18384107E-18
   130.280594      -4.18397301E-18
   130.494400      -4.18410370E-18
   130.708099      -4.18423399E-18
   130.921906      -4.18436344E-18
   131.135605      -4.18449207E-18
   131.349396      -4.18462028E-18
   131.563095      -4.18474808E-18
   131.776901      -4.18487505E-18
   131.990601      -4.18500161E-18
   132.204407      -4.18512775E-18
   132.418106      -4.18525349E-18
   132.631897      -4.18537839E-18
   132.845596      -4.18550247E-18
   133.059402      -4.18562572E-18
   133.273102      -4.18574855E-18
   133.486893      -4.18587098E-18
   133.700607      -4.18599298E-18
   133.914398      -4.18611458E-18
   134.128098      -4.18623535E-18
   134.341904      -4.18635570E-18
   134.555603      -4.18647523E-18
   134.769394      -4.18659435E-18
   134.983093      -4.18671263E-18
   135.196899      -4.18683092E-18
   135.410599      -4.18694838E-18
   135.624405      -4.18706542E-18
   135.838104      -4.18718247E-18
   136.051895      -4.18729869E-18
   136.265594      -4.18741449E-18
   136.479401      -4.18752989E-18
   136.693100      -4.18764445E-18
   136.906906      -4.18775819E-18
   137.120605      -4.18787151E-18
   137.334396      -4.18798442E-18
   137.548096      -4.18809651E-18
   137.761902      -4.18820817E-18
   137.975601      -4.18831943E-18
   138.189407      -4.18842986E-18
   138.403107      -4.18853905E-18
   138.616898      -4.18864782E-18
   138.830597      -4.18875577E-18
   139.044403      -4.18886247E-18
   139.258102      -4.18896835E-18
   139.471893      -4.18907382E-18
   139.685593      -4.18917846E-18
   139.899399      -4.18928185E-18
   140.113098      -4.18938443E-18
   140.326904      -4.18948534E-18
   140.540604      -4.18958543E-18
   140.754395      -4.18968386E-18
   140.968094      -4.18978064E-18
   141.181900      -4.18987660E-18
   141.395599      -4.18997090E-18
   141.609406      -4.19006395E-18
   141.823105      -4.19015536E-18
   142.036896      -4.19024469E-18
   142.250595      -4.19033279E-18
   142.464401      -4.19041840E-18
   142.678101      -4.19050236E-18
   142.891907      -4.19058425E-18
   143.105606      -4.19066366E-18
   143.319397      -4.19074100E-18
   143.533096      -4.19081627E-18
   143.746902      -4.19088907E-18
   143.960602      -4.19095938E-18
   144.174393      -4.19102679E-18
   144.388107      -4.19109131E-18
   144.601898      -4.19115252E-18
   144.815598      -4.19121084E-18
   145.029404      -4.19126585E-18
   145.243103      -4.19131755E-18
   145.456894      -4.19136635E-18
   145.670593      -4.19141143E-18
   145.884399      -4.19145320E-18
   146.098099      -4.19149125E-18
   146.311905      -4.19152517E-18
   146.525604      -4.19155495E-18
   146.739395      -4.19158059E-18
   146.953094      -4.19160251E-18
   147.166901      -4.19162029E-18
   147.380600      -4.19163353E-18
   147.594406      -4.19164263E-18
   147.808105      -4.19164718E-18
   148.021896      -4.19164718E-18
   148.235596      -4.19164221E-18
   148.449402      -4.19163229E-18
   148.663101      -4.19161781E-18
   148.876907      -4.19159796E-18
   149.090607      -4.19157397E-18
   149.304398      -4.19154461E-18
   149.518097      -4.19151069E-18
   149.731903      -4.19147223E-18
   149.945602      -4.19142797E-18
   150.159393      -4.19137917E-18
   150.373093      -4.19132499E-18
   150.586899      -4.19126585E-18
   150.800598      -4.19120133E-18
   151.014404      -4.19113226E-18
   151.228104      -4.19105864E-18
   151.441895      -4.19097964E-18
   151.655594      -4.19089610E-18
   151.869400      -4.19080759E-18
   152.083099      -4.19071453E-18
   152.296906      -4.19061610E-18
   152.510605      -4.19051353E-18
   152.724396      -4.19040641E-18
   152.938095      -4.19029474E-18
   153.151901      -4.19017935E-18
   153.365601      -4.19005940E-18
   153.579407      -4.18993615E-18
   153.793106      -4.18980836E-18
   154.006897      -4.18967725E-18
   154.220596      -4.18954200E-18
   154.434402      -4.18940345E-18
   154.648102      -4.18926159E-18
   154.861893      -4.18911642E-18
   155.075607      -4.18896877E-18
   155.289398      -4.18881822E-18
   155.503098      -4.18866519E-18
   155.716904      -4.18850968E-18
   155.930603      -4.18835169E-18
   156.144394      -4.18819163E-18
   156.358093      -4.18802992E-18
   156.571899      -4.18786614E-18
   156.785599      -4.18770111E-18
   156.999405      -4.18753526E-18
   157.213104      -4.18736817E-18
   157.426895      -4.18720025E-18
   157.640594      -4.18703151E-18
   157.854401      -4.18686235E-18
   158.068100      -4.18669278E-18
   158.281906      -4.18652279E-18
   158.495605      -4.18635281E-18
   158.709396      -4.18618282E-18
   158.923096      -4.18601325E-18
   159.136902      -4.18584451E-18
   159.350601      -4.18567617E-18
   159.564407      -4.18550867E-18
   159.778107      -4.18534199E-18
   159.991898      -4.18517614E-18
   160.205597      -4.18501153E-18
   160.419403      -4.18484817E-18
   160.633102      -4.18468604E-18
   160.846893      -4.18452598E-18
   161.060593      -4.18436757E-18
   161.274399      -4.18421082E-18
   161.488098      -4.18405573E-18
   161.701904      -4.18390270E-18
   161.915604      -4.18375133E-18
   162.129395      -4.18360202E-18
   162.343094      -4.18345437E-18
   162.556900      -4.18330920E-18
   162.770599      -4.18316610E-18
   162.984406      -4.18302547E-18
   163.198105      -4.18288692E-18
   163.411896      -4.18275085E-18
   163.625595      -4.18261685E-18
   163.839401      -4.18248491E-18
   164.053101      -4.18235504E-18
   164.266907      -4.18222725E-18
   164.480606      -4.18210193E-18
   164.694397      -4.18197868E-18
   164.908096      -4.18185791E-18
   165.121902      -4.18173879E-18
   165.335602      -4.18162216E-18
   165.549393      -4.18150718E-18
   165.763107      -4.18139427E-18
   165.976898      -4.18128302E-18
   166.190598      -4.18117342E-18
   166.404404      -4.18106547E-18
   166.618103      -4.18095959E-18
   166.831894      -4.18085537E-18
   167.045593      -4.18075280E-18
   167.259399      -4.18065188E-18
   167.473099      -4.18055220E-18
   167.686905      -4.18045418E-18
   167.900604      -4.18035740E-18
   168.114395      -4.18026186E-18
   168.328094      -4.18016757E-18
   168.541901      -4.18007451E-18
   168.755600      -4.17998269E-18
   168.969406      -4.17989211E-18
   169.183105      -4.17980278E-18
   169.396896      -4.17971427E-18
   169.610596      -4.17962618E-18
   169.824402      -4.17953932E-18
   170.038101      -4.17945288E-18
   170.251907      -4.17936727E-18
   170.465607      -4.17928248E-18
   170.679398      -4.17919852E-18
   170.893097      -4.17911539E-18
   171.106903      -4.17903309E-18
   171.320602      -4.17895120E-18
   171.534393      -4.17886972E-18
   171.748093      -4.17878866E-18
   171.961899      -4.17870801E-18
   172.175598      -4.17862777E-18
   172.389404      -4.17854836E-18
   172.603104      -4.17846936E-18
   172.816895      -4.17839078E-18
   173.030594      -4.17831261E-18
   173.244400      -4.17823486E-18
   173.458099      -4.17815752E-18
   173.671906      -4.17808059E-18
   173.885605      -4.17800366E-18
   174.099396      -4.17792756E-18
   174.313095      -4.17785187E-18
   174.526901      -4.17777660E-18
   174.740601      -4.17770215E-18
   174.954407      -4.17762853E-18
   175.168106      -4.17755492E-18
   175.381897      -4.17748212E-18
   175.595596      -4.17740975E-18
   175.809402      -4.17733778E-18
   176.023102      -4.17726664E-18
   176.236893      -4.17719592E-18
   176.450607      -4.17712602E-18
   176.664398      -4.17705695E-18
   176.878098      -4.17698830E-18
   177.091904      -4.17692047E-18
   177.305603      -4.17685305E-18
   177.519394      -4.17678646E-18
   177.733093      -4.17672029E-18
   177.946899      -4.17665494E-18
   178.160599      -4.17659042E-18
   178.374405      -4.17652673E-18
   178.588104      -4.17646386E-18
   178.801895      -4.17640224E-18
   179.015594      -4.17634103E-18
   179.229401      -4.17628064E-18
   179.443100      -4.17622109E-18
   179.656906      -4.17616236E-18
   179.870605      -4.17610445E-18
   180.084396      -4.17604738E-18
   180.298096      -4.17599113E-18
   180.511902      -4.17593612E-18
   180.725601      -4.17588194E-18
   180.939407      -4.17582859E-18
   181.153107      -4.17577606E-18
   181.366898      -4.17572395E-18