  -1.603125       -3.5922738E-18
  -1.389375       -3.5991915E-18
  -1.175625       -3.6103361E-18
 -0.9618750       -3.6217152E-18
 -0.7481250       -3.6297843E-18
 -0.5343750       -3.6329756E-18
 -0.3206250       -3.6323134E-18
 -0.1068750       -3.6308365E-18
  0.1068750       -3.6321095E-18
  0.3206250       -3.6385003E-18
  0.5343750       -3.6500213E-18
  0.7481250       -3.6642662E-18
  0.9618750       -3.6774659E-18
   1.175625       -3.6861898E-18
   1.389375       -3.6889017E-18
   1.603125       -3.6866679E-18
   1.816875       -3.6826858E-18
   2.030625       -3.6808450E-18
   2.244375       -3.6839824E-18
   2.458125       -3.6926174E-18
   2.671875       -3.7047410E-18
   2.885625       -3.7167591E-18
   3.099375       -3.7251454E-18
   3.313125       -3.7280637E-18
   3.526875       -3.7261997E-18
   3.740625       -3.7224459E-18
   3.954375       -3.7205761E-18
   4.168125       -3.7235109E-18
   4.381875       -3.7319887E-18
   4.595625       -3.7442157E-18
   4.809375       -3.7566838E-18
   5.023125       -3.7657538E-18
   5.236875       -3.7693036E-18
   5.450625       -3.7676662E-18
   5.664375       -3.7634522E-18
   5.878125       -3.7603304E-18
   6.091875       -3.7613296E-18
   6.305625       -3.7674392E-18
   6.519375       -3.7771474E-18
   6.733125       -3.7871277E-18
   6.946875       -3.7937592E-18
   7.160625       -3.7947820E-18
   7.374375       -3.7903376E-18
   7.588125       -3.7829178E-18
   7.801875       -3.7762420E-18
   8.015625       -3.7735876E-18
   8.229375       -3.7763190E-18
   8.443125       -3.7832987E-18
   8.656875       -3.7914320E-18
   8.870625       -3.7971073E-18
   9.084375       -3.7978608E-18
   9.298125       -3.7935148E-18
   9.511875       -3.7862637E-18
   9.725625       -3.7796732E-18
   9.939375       -3.7770564E-18
   10.15312       -3.7799581E-18
   10.36687       -3.7874466E-18
   10.58062       -3.7965353E-18
   10.79438       -3.8035320E-18
   11.00813       -3.8057112E-18
   11.22188       -3.8025431E-18
   11.43563       -3.7959153E-18
   11.64937       -3.7892610E-18
   11.86312       -3.7859842E-18
   12.07687       -3.7879053E-18
   12.29062       -3.7944392E-18
   12.50438       -3.8028723E-18
   12.71813       -3.8096200E-18
   12.93188       -3.8118778E-18
   13.14563       -3.8089161E-18
   13.35938       -3.8024277E-18
   13.57312       -3.7957623E-18
   13.78687       -3.7924039E-18
   14.00062       -3.7943829E-18
   14.21437       -3.8013453E-18
   14.42813       -3.8107090E-18
   14.64188       -3.8188344E-18
   14.85563       -3.8226746E-18
   15.06938       -3.8211555E-18
   15.28312       -3.8156555E-18
   15.49687       -3.8093673E-18
   15.71062       -3.8058357E-18
   15.92437       -3.8073399E-18
   16.13812       -3.8138593E-18
   16.35188       -3.8230935E-18
   16.56562       -3.8315308E-18
   16.77938       -3.8360621E-18
   16.99313       -3.8354136E-18
   17.20687       -3.8307280E-18
   17.42063       -3.8250345E-18
   17.63437       -3.8218478E-18
   17.84813       -3.8235402E-18
   18.06187       -3.8302338E-18
   18.27563       -3.8397290E-18
   18.48937       -3.8484996E-18
   18.70312       -3.8533067E-18
   18.91688       -3.8526839E-18
   19.13062       -3.8476174E-18
   19.34438       -3.8411137E-18
   19.55812       -3.8368330E-18
   19.77188       -3.8374360E-18
   19.98562       -3.8433818E-18
   20.19938       -3.8527372E-18
   20.41312       -3.8620815E-18
   20.62687       -3.8680827E-18
   20.84063       -3.8690290E-18
   21.05437       -3.8656036E-18
   21.26813       -3.8605450E-18
   21.48187       -3.8573566E-18
   21.69563       -3.8586557E-18
   21.90937       -3.8649274E-18
   22.12313       -3.8742609E-18
   22.33688       -3.8831882E-18
   22.55062       -3.8882530E-18
   22.76438       -3.8875863E-18
   22.97812       -3.8817651E-18
   23.19188       -3.8735615E-18
   23.40562       -3.8666988E-18
   23.61938       -3.8641858E-18
   23.83312       -3.8669850E-18
   24.04688       -3.8736293E-18
   24.26063       -3.8809577E-18
   24.47437       -3.8856239E-18
   24.68813       -3.8856846E-18
   24.90187       -3.8815285E-18
   25.11563       -3.8757196E-18
   25.32937       -3.8718269E-18
   25.54313       -3.8727753E-18
   25.75687       -3.8794729E-18
   25.97062       -3.8903562E-18
   26.18438       -3.9020508E-18
   26.39812       -3.9108582E-18
   26.61188       -3.9143886E-18
   26.82562       -3.9125904E-18
   27.03938       -3.9077150E-18
   27.25312       -3.9032345E-18
   27.46688       -3.9022163E-18
   27.68063       -3.9058927E-18
   27.89437       -3.9130966E-18
   28.10813       -3.9208030E-18
   28.32187       -3.9255374E-18
   28.53563       -3.9249993E-18
   28.74937       -3.9191495E-18
   28.96313       -3.9102701E-18
   29.17687       -3.9019652E-18
   29.39062       -3.8975568E-18
   29.60438       -3.8986160E-18
   29.81812       -3.9042970E-18
   30.03188       -3.9117735E-18
   30.24562       -3.9175745E-18
   30.45938       -3.9192028E-18
   30.67312       -3.9163015E-18
   30.88688       -3.9108148E-18
   31.10062       -3.9060924E-18
   31.31437       -3.9053376E-18
   31.52813       -3.9101154E-18
   31.74187       -3.9195995E-18
   31.95563       -3.9309116E-18
   32.16938       -3.9403878E-18
   32.38313       -3.9452028E-18
   32.59687       -3.9446035E-18
   32.81062       -3.9401987E-18
   33.02438       -3.9351749E-18
   33.23812       -3.9328017E-18
   33.45187       -3.9349205E-18
   33.66563       -3.9410975E-18
   33.87938       -3.9488386E-18
   34.09312       -3.9547546E-18
   34.30687       -3.9561447E-18
   34.52063       -3.9522739E-18
   34.73438       -3.9447515E-18
   34.94812       -3.9368433E-18
   35.16188       -3.9320245E-18
   35.37563       -3.9324410E-18
   35.58937       -3.9379662E-18
   35.80312       -3.9462905E-18
   36.01688       -3.9539945E-18
   36.23063       -3.9581130E-18
   36.44437       -3.9574715E-18
   36.65813       -3.9531962E-18
   36.87188       -3.9481657E-18
   37.08562       -3.9456528E-18
   37.29937       -3.9477927E-18
   37.51313       -3.9545760E-18
   37.72688       -3.9638267E-18
   37.94062       -3.9721800E-18
   38.15437       -3.9766104E-18
   38.36813       -3.9758114E-18
   38.58187       -3.9708003E-18
   38.79562       -3.9644612E-18
   39.00938       -3.9602430E-18
   39.22313       -3.9605958E-18
   39.43687       -3.9658629E-18
   39.65062       -3.9741293E-18
   39.86438       -3.9820975E-18
   40.07812       -3.9865883E-18
   40.29187       -3.9859861E-18
   40.50563       -3.9809643E-18
   40.71938       -3.9741686E-18
   40.93312       -3.9690016E-18
   41.14687       -3.9680660E-18
   41.36063       -3.9719811E-18
   41.57438       -3.9791102E-18
   41.78812       -3.9863327E-18
   42.00188       -3.9904897E-18
   42.21563       -3.9898602E-18
   42.42937       -3.9849740E-18
   42.64312       -3.9783971E-18
   42.85688       -3.9735809E-18
   43.07063       -3.9733013E-18
   43.28437       -3.9783971E-18
   43.49812       -3.9873861E-18
   43.71188       -3.9971315E-18
   43.92562       -4.0042515E-18
   44.13937       -4.0066313E-18
   44.35313       -4.0043454E-18
   44.56688       -3.9995725E-18
   44.78062       -3.9955508E-18
   44.99437       -3.9950557E-18
   45.20813       -3.9990981E-18
   45.42188       -4.0064497E-18
   45.63562       -4.0142004E-18
   45.84938       -4.0191010E-18
   46.06313       -4.0190650E-18
   46.27687       -4.0141503E-18
   46.49062       -4.0065585E-18
   46.70438       -3.9996643E-18
   46.91813       -3.9965157E-18
   47.13187       -3.9984877E-18
   47.34563       -4.0046986E-18
   47.55938       -4.0124584E-18
   47.77312       -4.0185191E-18
   47.98687       -4.0205680E-18
   48.20063       -4.0182656E-18
   48.41438       -4.0133645E-18
   48.62812       -4.0088663E-18
   48.84187       -4.0076045E-18
   49.05563       -4.0109128E-18
   49.26937       -4.0179901E-18
   49.48312       -4.0262479E-18
   49.69688       -4.0324823E-18
   49.91063       -4.0343269E-18
   50.12437       -4.0313292E-18
   50.33812       -4.0251560E-18
   50.55188       -4.0188450E-18
   50.76562       -4.0154403E-18
   50.97937       -4.0166455E-18
   51.19313       -4.0220896E-18
   51.40688       -4.0295446E-18
   51.62062       -4.0359801E-18
   51.83437       -4.0389649E-18
   52.04813       -4.0377779E-18
   52.26188       -4.0337231E-18
   52.47562       -4.0295099E-18
   52.68938       -4.0279916E-18
   52.90313       -4.0308371E-18
   53.11687       -4.0377498E-18
   53.33062       -4.0465800E-18
   53.54438       -4.0542814E-18
   53.75813       -4.0582767E-18
   53.97187       -4.0575976E-18
   54.18562       -4.0533000E-18
   54.39938       -4.0479564E-18
   54.61312       -4.0444644E-18
   54.82687       -4.0447209E-18
   55.04063       -4.0487588E-18
   55.25438       -4.0547426E-18
   55.46812       -4.0598202E-18
   55.68187       -4.0614365E-18
   55.89563       -4.0585182E-18
   56.10938       -4.0519810E-18
   56.32312       -4.0443400E-18
   56.53688       -4.0385960E-18
   56.75063       -4.0369077E-18
   56.96437       -4.0396598E-18
   57.17812       -4.0453355E-18
   57.39188       -4.0512639E-18
   57.60563       -4.0548762E-18
   57.81937       -4.0549080E-18
   58.03313       -4.0519852E-18
   58.24688       -4.0483270E-18
   58.46062       -4.0467007E-18
   58.67437       -4.0491074E-18
   58.88813       -4.0558043E-18
   59.10188       -4.0651121E-18
   59.31562       -4.0740990E-18
   59.52937       -4.0798401E-18
   59.74313       -4.0806784E-18
   59.95687       -4.0769172E-18
   60.17062       -4.0706377E-18
   60.38438       -4.0647287E-18
   60.59813       -4.0615776E-18
   60.81187       -4.0620222E-18
   61.02562       -4.0650373E-18
   61.23938       -4.0682918E-18
   61.45312       -4.0693154E-18
   61.66687       -4.0667231E-18
   61.88063       -4.0609270E-18
   62.09438       -4.0540138E-18
   62.30812       -4.0488258E-18
   62.52187       -4.0476743E-18
   62.73563       -4.0512767E-18
   62.94938       -4.0584012E-18
   63.16312       -4.0663872E-18
   63.37688       -4.0723094E-18
   63.59063       -4.0742516E-18
   63.80437       -4.0721233E-18
   64.01813       -4.0676474E-18
   64.23187       -4.0635372E-18
   64.44563       -4.0622406E-18
   64.65938       -4.0648313E-18
   64.87312       -4.0705450E-18
   65.08688       -4.0771679E-18
   65.30063       -4.0820855E-18
   65.51437       -4.0835074E-18
   65.72813       -4.0812959E-18
   65.94187       -4.0770215E-18
   66.15562       -4.0732210E-18
   66.36938       -4.0722060E-18
   66.58312       -4.0749618E-18
   66.79688       -4.0806606E-18
   67.01063       -4.0869997E-18
   67.22437       -4.0912287E-18
   67.43813       -4.0913879E-18
   67.65188       -4.0872090E-18
   67.86562       -4.0802603E-18
   68.07938       -4.0732772E-18
   68.29312       -4.0689808E-18
   68.50687       -4.0689171E-18
   68.72063       -4.0728338E-18
   68.93437       -4.0788781E-18
   69.14812       -4.0844971E-18
   69.36188       -4.0876387E-18
   69.57562       -4.0876859E-18
   69.78938       -4.0857035E-18
   70.00313       -4.0838899E-18
   70.21687       -4.0844822E-18
   70.43063       -4.0886367E-18
   70.64438       -4.0957943E-18
   70.85812       -4.1038420E-18
   71.07188       -4.1100016E-18
   71.28562       -4.1120517E-18
   71.49937       -4.1093291E-18
   71.71313       -4.1030520E-18
   71.92687       -4.0958150E-18
   72.14062       -4.0904760E-18
   72.35438       -4.0889370E-18
   72.56812       -4.0913623E-18
   72.78188       -4.0961835E-18
   72.99563       -4.1008778E-18
   73.20937       -4.1031645E-18
   73.42313       -4.1020635E-18
   73.63687       -4.0983305E-18
   73.85062       -4.0940816E-18
   74.06438       -4.0917701E-18
   74.27812       -4.0930071E-18
   74.49187       -4.0977659E-18
   74.70563       -4.1043465E-18
   74.91937       -4.1101310E-18
   75.13313       -4.1127784E-18
   75.34688       -4.1113184E-18
   75.56062       -4.1066312E-18
   75.77438       -4.1010941E-18
   75.98813       -4.0975343E-18
   76.20187       -4.0979690E-18
   76.41563       -4.1026967E-18
   76.62937       -4.1101546E-18
   76.84312       -4.1176075E-18
   77.05688       -4.1223559E-18
   77.27062       -4.1229126E-18
   77.48438       -4.1196192E-18
   77.69813       -4.1144270E-18
   77.91187       -4.1099573E-18
   78.12563       -4.1082711E-18
   78.33938       -4.1099317E-18
   78.55312       -4.1137785E-18
   78.76688       -4.1175244E-18
   78.98062       -4.1188888E-18
   79.19437       -4.1167394E-18
   79.40813       -4.1117047E-18
   79.62187       -4.1059674E-18
   79.83562       -4.1023179E-18
   80.04938       -4.1028998E-18
   80.26312       -4.1082140E-18
   80.47688       -4.1168423E-18
   80.69063       -4.1260170E-18
   80.90437       -4.1327912E-18
   81.11813       -4.1352756E-18
   81.33188       -4.1333946E-18
   81.54562       -4.1288290E-18
   81.75938       -4.1241749E-18
   81.97312       -4.1217248E-18
   82.18687       -4.1224217E-18
   82.40063       -4.1254715E-18
   82.61437       -4.1287839E-18
   82.82812       -4.1300276E-18
   83.04188       -4.1278112E-18
   83.25562       -4.1224304E-18
   83.46938       -4.1158336E-18
   83.68313       -4.1108019E-18
   83.89687       -4.1097220E-18
   84.11063       -4.1134952E-18
   84.32437       -4.1210974E-18
   84.53812       -4.1299788E-18
   84.75188       -4.1371467E-18
   84.96562       -4.1404352E-18
   85.17937       -4.1394008E-18
   85.39313       -4.1354440E-18
   85.60687       -4.1311129E-18
   85.82063       -4.1289068E-18
   86.03438       -4.1301355E-18
   86.24812       -4.1343492E-18
   86.46188       -4.1395919E-18
   86.67563       -4.1433605E-18
   86.88937       -4.1438146E-18
   87.10313       -4.1406788E-18
   87.31687       -4.1354121E-18
   87.53062       -4.1305665E-18
   87.74438       -4.1286144E-18
   87.95812       -4.1307960E-18
   88.17188       -4.1365053E-18
   88.38563       -4.1435144E-18
   88.59937       -4.1489357E-18
   88.81313       -4.1505011E-18
   89.02688       -4.1475704E-18
   89.24062       -4.1414245E-18
   89.45438       -4.1347016E-18
   89.66812       -4.1302394E-18
   89.88187       -4.1298373E-18
   90.09563       -4.1335051E-18
   90.30937       -4.1395253E-18
   90.52312       -4.1452916E-18
   90.73688       -4.1485329E-18
   90.95062       -4.1483554E-18
   91.16438       -4.1456291E-18
   91.37813       -4.1425358E-18
   91.59187       -4.1415035E-18
   91.80563       -4.1440123E-18
   92.01938       -4.1498340E-18
   92.23312       -4.1570603E-18
   92.44688       -4.1629180E-18
   92.66062       -4.1650020E-18
   92.87437       -4.1623687E-18
   93.08813       -4.1559911E-18
   93.30187       -4.1483625E-18
   93.51562       -4.1424262E-18
   93.72938       -4.1403111E-18
   93.94312       -4.1424394E-18
   94.15688       -4.1474058E-18
   94.37063       -4.1526733E-18
   94.58437       -4.1557612E-18
   94.79813       -4.1553832E-18
   95.01187       -4.1520157E-18
   95.22562       -4.1476420E-18
   95.43938       -4.1447961E-18
   95.65312       -4.1453528E-18
   95.86687       -4.1496210E-18
   96.08063       -4.1561636E-18
   96.29437       -4.1624320E-18
   96.50813       -4.1659231E-18
   96.72188       -4.1653350E-18
   96.93562       -4.1611871E-18
   97.14938       -4.1556152E-18
   97.36313       -4.1514297E-18
   97.57687       -4.1508560E-18
   97.79063       -4.1545324E-18
   98.00437       -4.1612107E-18
   98.21812       -4.1683029E-18
   98.43188       -4.1730265E-18
   98.64562       -4.1736242E-18
   98.85938       -4.1701148E-18
   99.07313       -4.1642340E-18
   99.28687       -4.1586034E-18
   99.50063       -4.1555114E-18
   99.71438       -4.1558679E-18
   99.92812       -4.1588193E-18
   100.1419       -4.1621871E-18
   100.3556       -4.1635412E-18
   100.5694       -4.1613976E-18
   100.7831       -4.1559899E-18
   100.9969       -4.1492492E-18
   101.2106       -4.1439863E-18
   101.4244       -4.1426491E-18
   101.6381       -4.1462126E-18
   101.8519       -4.1537073E-18
   102.0656       -4.1626090E-18
   102.2794       -4.1699126E-18
   102.4931       -4.1734112E-18
   102.7069       -4.1726034E-18
   102.9206       -4.1688257E-18
   103.1344       -4.1645599E-18
   103.3481       -4.1622388E-18
   103.5619       -4.1631008E-18
   103.7756       -4.1666246E-18
   103.9894       -4.1707973E-18
   104.2031       -4.1730873E-18
   104.4169       -4.1716778E-18
   104.6306       -4.1663760E-18
   104.8444       -4.1587887E-18
   105.0581       -4.1516592E-18
   105.2719       -4.1476743E-18
   105.4856       -4.1482735E-18
   105.6994       -4.1530079E-18
   105.9131       -4.1597362E-18
   106.1269       -4.1655782E-18
   106.3406       -4.1681900E-18
   106.5544       -4.1667879E-18
   106.7681       -4.1624605E-18
   106.9819       -4.1576310E-18
   107.1956       -4.1549241E-18
   107.4094       -4.1559531E-18
   107.6231       -4.1605857E-18
   107.8369       -4.1670158E-18
   108.0506       -4.1726109E-18
   108.2644       -4.1751362E-18
   108.4781       -4.1737950E-18
   108.6919       -4.1696045E-18
   108.9056       -4.1649288E-18
   109.1194       -4.1623836E-18
   109.3331       -4.1636120E-18
   109.5469       -4.1684903E-18
   109.7606       -4.1751375E-18
   109.9744       -4.1807267E-18
   110.1881       -4.1827397E-18
   110.4019       -4.1800956E-18
   110.6156       -4.1736477E-18
   110.8294       -4.1658209E-18
   111.0431       -4.1595538E-18
   111.2569       -4.1570264E-18
   111.4706       -4.1587428E-18
   111.6844       -4.1633837E-18
   111.8981       -4.1684832E-18
   112.1119       -4.1716153E-18
   112.3256       -4.1715380E-18
   112.5394       -4.1687657E-18
   112.7531       -4.1653093E-18
   112.9669       -4.1636959E-18
   113.1806       -4.1657266E-18
   113.3944       -4.1715517E-18
   113.6081       -4.1794876E-18
   113.8219       -4.1866936E-18
   114.0356       -4.1903915E-18
   114.2494       -4.1890941E-18
   114.4631       -4.1832831E-18
   114.6769       -4.1752198E-18
   114.8906       -4.1679737E-18
   115.1044       -4.1641041E-18
   115.3181       -4.1645864E-18
   115.5319       -4.1684617E-18
   115.7456       -4.1733652E-18
   115.9594       -4.1766802E-18
   116.1731       -4.1767757E-18
   116.3869       -4.1737681E-18
   116.6006       -4.1694399E-18
   116.8144       -4.1663710E-18
   117.0281       -4.1666779E-18
   117.2419       -4.1709548E-18
   117.4556       -4.1779147E-18
   117.6694       -4.1849106E-18
   117.8831       -4.1891069E-18
   118.0969       -4.1887636E-18
   118.3106       -4.1840532E-18
   118.5244       -4.1770181E-18
   118.7381       -4.1706864E-18
   118.9519       -4.1677400E-18
   119.1656       -4.1693356E-18
   119.3794       -4.1746213E-18
   119.5931       -4.1811527E-18
   119.8069       -4.1860306E-18
   120.0206       -4.1872230E-18
   120.2344       -4.1844726E-18
   120.4481       -4.1793739E-18
   120.6619       -4.1745874E-18
   120.8756       -4.1725621E-18
   121.0894       -4.1743628E-18
   121.3031       -4.1791493E-18
   121.5169       -4.1845533E-18
   121.7306       -4.1877851E-18
   121.9444       -4.1869587E-18
   122.1581       -4.1820171E-18
   122.3719       -4.1748294E-18
   122.5856       -4.1683997E-18
   122.7994       -4.1655451E-18
   123.0131       -4.1676399E-18
   123.2269       -4.1739968E-18
   123.4406       -4.1821727E-18
   123.6544       -4.1890490E-18
   123.8681       -4.1922055E-18
   124.0819       -4.1909499E-18
   124.2956       -4.1865534E-18
   124.5094       -4.1815874E-18
   124.7231       -4.1786778E-18
   124.9369       -4.1792635E-18
   125.1506       -4.1829312E-18
   125.3644       -4.1876349E-18
   125.5781       -4.1906901E-18
   125.7919       -4.1900801E-18
   126.0056       -4.1854636E-18
   126.2194       -4.1784077E-18
   126.4331       -4.1717299E-18
   126.6469       -4.1682483E-18
   126.8606       -4.1695073E-18
   127.0744       -4.1750659E-18
   127.2881       -4.1826747E-18
   127.5019       -4.1892624E-18
   127.7156       -4.1922911E-18
   127.9294       -4.1908543E-18
   128.1431       -4.1860385E-18
   128.3569       -4.1803773E-18
   128.5706       -4.1766686E-18
   128.7844       -4.1766967E-18
   128.9981       -4.1804438E-18
   129.2119       -4.1861526E-18
   129.4256       -4.1911902E-18
   129.6394       -4.1933131E-18
   129.8531       -4.1917369E-18
   130.0669       -4.1875138E-18
   130.2806       -4.1830375E-18
   130.4944       -4.1809120E-18
   130.7081       -4.1827025E-18
   130.9219       -4.1881470E-18
   131.1356       -4.1952061E-18
   131.3494       -4.2009244E-18
   131.5631       -4.2027277E-18
   131.7769       -4.1995612E-18
   131.9906       -4.1923590E-18
   132.2044       -4.1836314E-18
   132.4181       -4.1763667E-18
   132.6319       -4.1727457E-18
   132.8456       -4.1732494E-18
   133.0594       -4.1765619E-18
   133.2731       -4.1802896E-18
   133.4869       -4.1821615E-18
   133.7006       -4.1811358E-18
   133.9144       -4.1779106E-18
   134.1281       -4.1745928E-18
   134.3419       -4.1736850E-18
   134.5556       -4.1768576E-18
   134.7694       -4.1840810E-18
   134.9831       -4.1935183E-18
   135.1969       -4.2022463E-18
   135.4106       -4.2074761E-18
   135.6244       -4.2077338E-18
   135.8381       -4.2034663E-18
   136.0519       -4.1968055E-18
   136.2656       -4.1906012E-18
   136.4794       -4.1871655E-18
   136.6931       -4.1872954E-18
   136.9069       -4.1900102E-18
   137.1206       -4.1931055E-18
   137.3344       -4.1942640E-18
   137.5481       -4.1921910E-18
   137.7619       -4.1872631E-18
   137.9756       -4.1813777E-18
   138.1894       -4.1770842E-18
   138.4031       -4.1763915E-18
   138.6169       -4.1798082E-18
   138.8306       -4.1860600E-18
   139.0444       -4.1926208E-18
   139.2581       -4.1968187E-18
   139.4719       -4.1970214E-18
   139.6856       -4.1933582E-18
   139.8994       -4.1876581E-18
   140.1131       -4.1826231E-18
   140.3269       -4.1806204E-18
   140.5406       -4.1826355E-18
   140.7544       -4.1878599E-18
   140.9681       -4.1940932E-18
   141.1819       -4.1987680E-18
   141.3956       -4.2001258E-18
   141.6094       -4.1980024E-18
   141.8231       -4.1938648E-18
   142.0369       -4.1900867E-18
   142.2506       -4.1888050E-18
   142.4644       -4.1908837E-18
   142.6781       -4.1954745E-18
   142.8919       -4.2003818E-18
   143.1056       -4.2030627E-18
   143.3194       -4.2018178E-18
   143.5331       -4.1966132E-18
   143.7469       -4.1891615E-18
   143.9606       -4.1822103E-18
   144.1744       -4.1783569E-18
   144.3881       -4.1789264E-18
   144.6019       -4.1834171E-18
   144.8156       -4.1897562E-18
   145.0294       -4.1952541E-18
   145.2431       -4.1978080E-18
   145.4569       -4.1968154E-18
   145.6706       -4.1933764E-18
   145.8844       -4.1897095E-18
   146.0981       -4.1880568E-18
   146.3119       -4.1895958E-18
   146.5256       -4.1938615E-18
   146.7394       -4.1989561E-18
   146.9531       -4.2024398E-18
   147.1669       -4.2024998E-18
   147.3806       -4.1988403E-18
   147.5944       -4.1928879E-18
   147.8081       -4.1872003E-18
   148.0219       -4.1843461E-18
   148.2356       -4.1857639E-18
   148.4494       -4.1911141E-18
   148.6631       -4.1984243E-18
   148.8769       -4.2049561E-18
   149.0906       -4.2083976E-18
   149.3044       -4.2078425E-18
   149.5181       -4.2041219E-18
   149.7319       -4.1993391E-18
   149.9456       -4.1958501E-18
   150.1594       -4.1951524E-18
   150.3731       -4.1972100E-18
   150.5869       -4.2005125E-18
   150.8006       -4.2028389E-18
   151.0144       -4.2023583E-18
   151.2281       -4.1985583E-18
   151.4419       -4.1925538E-18
   151.6556       -4.1866378E-18
   151.8694       -4.1832683E-18
   152.0831       -4.1839527E-18
   152.2969       -4.1885494E-18
   152.5106       -4.1952917E-18
   152.7244       -4.2015423E-18
   152.9381       -4.2049243E-18
   153.1519       -4.2043279E-18
   153.3656       -4.2003413E-18
   153.5794       -4.1949207E-18
   153.7931       -4.1904606E-18
   154.0069       -4.1886983E-18
   154.2206       -4.1899548E-18
   154.4344       -4.1930509E-18
   154.6481       -4.1959283E-18
   154.8619       -4.1966781E-18
   155.0756       -4.1944931E-18
   155.2894       -4.1900946E-18
   155.5031       -4.1854371E-18
   155.7169       -4.1828166E-18
   155.9306       -4.1837948E-18
   156.1444       -4.1884319E-18
   156.3581       -4.1951867E-18
   156.5719       -4.2015307E-18
   156.7856       -4.2050152E-18
   156.9994       -4.2043043E-18
   157.2131       -4.1997138E-18
   157.4269       -4.1930277E-18
   157.6406       -4.1866713E-18
   157.8544       -4.1826297E-18
   158.0681       -4.1816048E-18
   158.2819       -4.1827835E-18
   158.4956       -4.1843155E-18
   158.7094       -4.1842687E-18
   158.9231       -4.1816077E-18
   159.1369       -4.1767385E-18
   159.3506       -4.1713647E-18
   159.5644       -4.1677144E-18
   159.7781       -4.1674981E-18
   159.9919       -4.1710847E-18
   160.2056       -4.1772749E-18
   160.4194       -4.1837910E-18
   160.6331       -4.1882632E-18
   160.8469       -4.1892666E-18
   161.0606       -4.1869380E-18
   161.2744       -4.1828898E-18
   161.4881       -4.1794607E-18
   161.7019       -4.1786443E-18
   161.9156       -4.1811842E-18
   162.1294       -4.1862461E-18
   162.3431       -4.1918089E-18
   162.5569       -4.1955924E-18
   162.7706       -4.1960904E-18
   162.9844       -4.1932333E-18
   163.1981       -4.1883815E-18
   163.4119       -4.1836566E-18
   163.6256       -4.1809265E-18
   163.8394       -4.1809211E-18
   164.0531       -4.1828935E-18
   164.2669       -4.1849793E-18
   164.4806       -4.1851025E-18
   164.6944       -4.1819948E-18
   164.9081       -4.1758679E-18
   165.1219       -4.1684137E-18
   165.3356       -4.1621263E-18
   165.5494       -4.1592482E-18
   165.7631       -4.1608161E-18
   165.9769       -4.1662300E-18
   166.1906       -4.1735373E-18
   166.4044       -4.1802995E-18
   166.6181       -4.1846385E-18
   166.8319       -4.1859926E-18
   167.0456       -4.1852436E-18
   167.2594       -4.1841777E-18
   167.4731       -4.1845388E-18
   167.6869       -4.1871283E-18
   167.9006       -4.1913730E-18
   168.1144       -4.1955606E-18
   168.3281       -4.1976426E-18
   168.5419       -4.1962202E-18
   168.7556       -4.1912613E-18
   168.9694       -4.1842079E-18
   169.1831       -4.1774122E-18
   169.3969       -4.1731560E-18
   169.6106       -4.1726836E-18
   169.8244       -4.1756921E-18
   170.0381       -4.1804968E-18
   170.2519       -4.1847998E-18
   170.4656       -4.1867023E-18
   170.6794       -4.1855174E-18
   170.8931       -4.1820051E-18
   171.1069       -4.1779536E-18
   171.3206       -4.1752938E-18
   171.5344       -4.1751772E-18
   171.7481       -4.1774346E-18
   171.9619       -4.1806713E-18
   172.1756       -4.1829436E-18
   172.3894       -4.1827087E-18
   172.6031       -4.1795943E-18
   172.8169       -4.1746350E-18
   173.0306       -4.1698530E-18
   173.2444       -4.1673707E-18
   173.4581       -4.1684526E-18
   173.6719       -4.1729182E-18
   173.8856       -4.1791890E-18
   174.0994       -4.1849578E-18
   174.3131       -4.1881730E-18
   174.5269       -4.1879058E-18
   174.7406       -4.1847022E-18
   174.9544       -4.1802772E-18
   175.1681       -4.1766942E-18
   175.3819       -4.1754129E-18
   175.5956       -4.1766413E-18
   175.8094       -4.1792916E-18
   176.0231       -4.1815444E-18
   176.2369       -4.1817644E-18
   176.4506       -4.1793267E-18
   176.6644       -4.1749687E-18
   176.8781       -4.1704987E-18
   177.0919       -4.1679820E-18
   177.3056       -4.1687827E-18
   177.5194       -4.1729008E-18
   177.7331       -4.1789115E-18
   177.9469       -4.1845467E-18
   178.1606       -4.1876556E-18
   178.3744       -4.1871258E-18
   178.5881       -4.1833344E-18
   178.8019       -4.1779478E-18
   179.0156       -4.1731531E-18
   179.2294       -4.1706881E-18
   179.4431       -4.1710959E-18
   179.6569       -4.1735555E-18
   179.8706       -4.1763390E-18
   180.0844       -4.1776831E-18
   180.2981       -4.1766562E-18
   180.5119       -4.1736200E-18
   180.7256       -4.1700669E-18
   180.9394       -4.1679116E-18
   181.1531       -4.1685655E-18
   181.3669       -4.1722279E-18
   181.5806       -4.1777220E-18
   181.7944       -4.1829680E-18
   182.0081       -4.1858772E-18
   182.2219       -4.1852675E-18
   182.4356       -4.1813901E-18
   182.6494       -4.1758253E-18
   182.8631       -4.1707989E-18
   183.0769       -4.1682243E-18
   183.2906       -4.1689034E-18
   183.5044       -4.1722304E-18
   183.7181       -4.1765305E-18
   183.9319       -4.1798607E-18
   184.1456       -4.1809013E-18
   184.3594       -4.1795323E-18
   184.5731       -4.1768353E-18
   184.7869       -4.1745245E-18
   185.0006       -4.1740837E-18
   185.2144       -4.1760064E-18
   185.4281       -4.1795033E-18
   185.6419       -4.1828162E-18
   185.8556       -4.1840049E-18
   186.0694       -4.1818550E-18
   186.2831       -4.1764903E-18
   186.4969       -4.1694072E-18
   186.7106       -4.1629043E-18
   186.9244       -4.1591522E-18
   187.1381       -4.1593119E-18
   187.3519       -4.1630888E-18
   187.5656       -4.1689158E-18
   187.7794       -4.1746747E-18
   187.9931       -4.1786269E-18
   188.2069       -4.1801337E-18
   188.4206       -4.1798400E-18
   188.6344       -4.1792527E-18
   188.8481       -4.1799124E-18
   189.0619       -4.1825573E-18
   189.2756       -4.1866733E-18
   189.4894       -4.1906513E-18
   189.7031       -4.1924950E-18
   189.9169       -4.1907555E-18
   190.1306       -4.1852626E-18
   190.3444       -4.1773105E-18
   190.5581       -4.1691901E-18
   190.7719       -4.1632695E-18
   190.9856       -4.1610245E-18
   191.1994       -4.1624547E-18
   191.4131       -4.1661448E-18
   191.6269       -4.1699449E-18
   191.8406       -4.1719541E-18
   192.0544       -4.1713672E-18
   192.2681       -4.1687880E-18
   192.4819       -4.1658867E-18