  -1.603125        3.7525921E-18
  -1.389375        3.7398420E-18
  -1.175625        3.7160940E-18
 -0.9618750        3.6842463E-18
 -0.7481250        3.6479653E-18
 -0.5343750        3.6112005E-18
 -0.3206250        3.5776587E-18
 -0.1068750        3.5503245E-18
  0.1068750        3.5310736E-18
  0.3206250        3.5204468E-18
  0.5343750        3.5176071E-18
  0.7481250        3.5204931E-18
  0.9618750        3.5261345E-18
   1.175625        3.5311009E-18
   1.389375        3.5320050E-18
   1.603125        3.5260046E-18
   1.816875        3.5112154E-18
   2.030625        3.4869939E-18
   2.244375        3.4540448E-18
   2.458125        3.4143358E-18
   2.671875        3.3708377E-18
   2.885625        3.3271264E-18
   3.099375        3.2868927E-18
   3.313125        3.2534356E-18
   3.526875        3.2292054E-18
   3.740625        3.2154537E-18
   3.954375        3.2120532E-18
   4.168125        3.2175047E-18
   4.381875        3.2291371E-18
   4.595625        3.2434771E-18
   4.809375        3.2567286E-18
   5.023125        3.2653004E-18
   5.236875        3.2663003E-18
   5.450625        3.2579228E-18
   5.664375        3.2396849E-18
   5.878125        3.2124785E-18
   6.091875        3.1784233E-18
   6.305625        3.1405721E-18
   6.519375        3.1024801E-18
   6.733125        3.0677221E-18
   6.946875        3.0394001E-18
   7.160625        3.0197165E-18
   7.374375        3.0096685E-18
   7.588125        3.0088964E-18
   7.801875        3.0157241E-18
   8.015625        3.0273874E-18
   8.229375        3.0404217E-18
   8.443125        3.0511512E-18
   8.656875        3.0562185E-18
   8.870625        3.0530666E-18
   9.084375        3.0403015E-18
   9.298125        3.0178851E-18
   9.511875        2.9871287E-18
   9.725625        2.9505009E-18
   9.939375        2.9112791E-18
   10.15312        2.8730954E-18
   10.36687        2.8394499E-18
   10.58062        2.8132392E-18
   10.79438        2.7963775E-18
   11.00813        2.7895378E-18
   11.22188        2.7920555E-18
   11.43563        2.8020121E-18
   11.64937        2.8164910E-18
   11.86312        2.8319767E-18
   12.07687        2.8448524E-18
   12.29062        2.8519258E-18
   12.50438        2.8508951E-18
   12.71813        2.8406987E-18
   12.93188        2.8216721E-18
   13.14563        2.7954943E-18
   13.35938        2.7649397E-18
   13.57312        2.7334669E-18
   13.78687        2.7047170E-18
   14.00062        2.6820047E-18
   14.21437        2.6678684E-18
   14.42813        2.6637356E-18
   14.64188        2.6697527E-18
   14.85563        2.6847747E-18
   15.06938        2.7065170E-18
   15.28312        2.7318517E-18
   15.49687        2.7572066E-18
   15.71062        2.7790254E-18
   15.92437        2.7942444E-18
   16.13812        2.8007070E-18
   16.35188        2.7974822E-18
   16.56562        2.7850075E-18
   16.77938        2.7650394E-18
   16.99313        2.7404093E-18
   17.20687        2.7146020E-18
   17.42063        2.6912447E-18
   17.63437        2.6735609E-18
   17.84813        2.6639023E-18
   18.06187        2.6634217E-18
   18.27563        2.6719330E-18
   18.48937        2.6879732E-18
   18.70312        2.7090442E-18
   18.91688        2.7319788E-18
   19.13062        2.7533863E-18
   19.34438        2.7701009E-18
   19.55812        2.7795878E-18
   19.77188        2.7802643E-18
   19.98562        2.7717054E-18
   20.19938        2.7547081E-18
   20.41312        2.7312077E-18
   20.62687        2.7040447E-18
   20.84063        2.6765972E-18
   21.05437        2.6523278E-18
   21.26813        2.6342878E-18
   21.48187        2.6246747E-18
   21.69563        2.6244896E-18
   21.90937        2.6333863E-18
   22.12313        2.6497161E-18
   22.33688        2.6707809E-18
   22.55062        2.6932494E-18
   22.76438        2.7136545E-18
   22.97812        2.7288945E-18
   23.19188        2.7366644E-18
   23.40562        2.7357454E-18
   23.61938        2.7261346E-18
   23.83312        2.7090066E-18
   24.04688        2.6865271E-18
   24.26063        2.6615572E-18
   24.47437        2.6372758E-18
   24.68813        2.6167743E-18
   24.90187        2.6026533E-18
   25.11563        2.5966659E-18
   25.32937        2.5994651E-18
   25.54313        2.6104772E-18
   25.75687        2.6279489E-18
   25.97062        2.6491731E-18
   26.18438        2.6708628E-18
   26.39812        2.6896309E-18
   26.61188        2.7025008E-18
   26.82562        2.7073464E-18
   27.03938        2.7032037E-18
   27.25312        2.6903929E-18
   27.46688        2.6704354E-18
   27.68063        2.6457998E-18
   27.89437        2.6195203E-18
   28.10813        2.5947583E-18
   28.32187        2.5743753E-18
   28.53563        2.5605698E-18
   28.74937        2.5546131E-18
   28.96313        2.5567048E-18
   29.17687        2.5659548E-18
   29.39062        2.5804972E-18
   29.60438        2.5977125E-18
   29.81812        2.6145612E-18
   30.03188        2.6279853E-18
   30.24562        2.6353317E-18
   30.45938        2.6347510E-18
   30.67312        2.6254839E-18
   30.88688        2.6080066E-18
   31.10062        2.5839757E-18
   31.31437        2.5559957E-18
   31.52813        2.5272266E-18
   31.74187        2.5009144E-18
   31.95563        2.4799183E-18
   32.16938        2.4663141E-18
   32.38313        2.4611314E-18
   32.59687        2.4642527E-18
   32.81062        2.4744715E-18
   33.02438        2.4896825E-18
   33.23812        2.5071716E-18
   33.45187        2.5239665E-18
   33.66563        2.5372043E-18
   33.87938        2.5444965E-18
   34.09312        2.5442456E-18
   34.30687        2.5358812E-18
   34.52063        2.5199710E-18
   34.73438        2.4981857E-18
   34.94812        2.4730883E-18
   35.16188        2.4477718E-18
   35.37563        2.4253984E-18
   35.58937        2.4087071E-18
   35.80312        2.3995875E-18
   36.01688        2.3987950E-18
   36.23063        2.4058558E-18
   36.44437        2.4191759E-18
   36.65813        2.4363073E-18
   36.87188        2.4543259E-18
   37.08562        2.4702394E-18
   37.29937        2.4813659E-18
   37.51313        2.4856492E-18
   37.72688        2.4818795E-18
   37.94062        2.4698310E-18
   38.15437        2.4502920E-18
   38.36813        2.4250045E-18
   38.58187        2.3964826E-18
   38.79562        2.3677210E-18
   39.00938        2.3418093E-18
   39.22313        2.3214865E-18
   39.43687        2.3087184E-18
   39.65062        2.3043670E-18
   39.86438        2.3080362E-18
   40.07812        2.3181278E-18
   40.29187        2.3321090E-18
   40.50563        2.3469308E-18
   40.71938        2.3595259E-18
   40.93312        2.3672751E-18
   41.14687        2.3683699E-18
   41.36063        2.3620254E-18
   41.57438        2.3485277E-18
   41.78812        2.3291493E-18
   42.00188        2.3059556E-18
   42.21563        2.2815471E-18
   42.42937        2.2587641E-18
   42.64312        2.2403598E-18
   42.85688        2.2286700E-18
   43.07063        2.2252908E-18
   43.28437        2.2308118E-18
   43.49812        2.2446640E-18
   43.71188        2.2651189E-18
   43.92562        2.2894753E-18
   44.13937        2.3144272E-18
   44.35313        2.3365513E-18
   44.56688        2.3528319E-18
   44.78062        2.3611258E-18
   44.99437        2.3604616E-18
   45.20813        2.3511447E-18
   45.42188        2.3346437E-18
   45.63562        2.3133094E-18
   45.84938        2.2899937E-18
   46.06313        2.2676311E-18
   46.27687        2.2488654E-18
   46.49062        2.2357302E-18
   46.70438        2.2294298E-18
   46.91813        2.2301972E-18
   47.13187        2.2372535E-18
   47.34563        2.2488706E-18
   47.55938        2.2625509E-18
   47.77312        2.2753243E-18
   47.98687        2.2841552E-18
   48.20063        2.2863969E-18
   48.41438        2.2802245E-18
   48.62812        2.2649717E-18
   48.84187        2.2412767E-18
   49.05563        2.2110209E-18
   49.26937        2.1770515E-18
   49.48312        2.1427543E-18
   49.69688        2.1115543E-18
   49.91063        2.0864370E-18
   50.12437        2.0695641E-18
   50.33812        2.0620302E-18
   50.55188        2.0637712E-18
   50.76562        2.0736150E-18
   50.97937        2.0894487E-18
   51.19313        2.1084834E-18
   51.40688        2.1275927E-18
   51.62062        2.1437029E-18
   51.83437        2.1542031E-18
   52.04813        2.1573191E-18
   52.26188        2.1524023E-18
   52.47562        2.1400616E-18
   52.68938        2.1221039E-18
   52.90313        2.1012728E-18
   53.11687        2.0808245E-18
   53.33062        2.0640158E-18
   53.54438        2.0535892E-18
   53.75813        2.0513666E-18
   53.97187        2.0579964E-18
   54.18562        2.0728912E-18
   54.39938        2.0943479E-18
   54.61312        2.1198038E-18
   54.82687        2.1461807E-18
   55.04063        2.1702684E-18
   55.25438        2.1891072E-18
   55.46812        2.2003430E-18
   55.68187        2.2025204E-18
   55.89563        2.1952908E-18
   56.10938        2.1795008E-18
   56.32312        2.1571212E-18
   56.53688        2.1310137E-18
   56.75063        2.1045371E-18
   56.96437        2.0810559E-18
   57.17812        2.0634151E-18
   57.39188        2.0534984E-18
   57.60563        2.0519311E-18
   57.81937        2.0580084E-18
   58.03313        2.0698325E-18
   58.24688        2.0846500E-18
   58.46062        2.0992876E-18
   58.67437        2.1106320E-18
   58.88813        2.1160484E-18
   59.10188        2.1137141E-18
   59.31562        2.1028182E-18
   59.52937        2.0836462E-18
   59.74313        2.0575390E-18
   59.95687        2.0267515E-18
   60.17062        1.9942131E-18
   60.38438        1.9631920E-18
   60.59813        1.9368932E-18
   60.81187        1.9180197E-18
   61.02562        1.9083685E-18
   61.23938        1.9085286E-18
   61.45312        1.9177457E-18
   61.66687        1.9340041E-18
   61.88063        1.9543201E-18
   62.09438        1.9752014E-18
   62.30812        1.9931912E-18
   62.52187        2.0053906E-18
   62.73563        2.0098766E-18
   62.94938        2.0059392E-18
   63.16312        1.9941277E-18
   63.37688        1.9761115E-18
   63.59063        1.9544069E-18
   63.80437        1.9320135E-18
   64.01813        1.9120210E-18
   64.23187        1.8972165E-18
   64.44563        1.8897322E-18
   64.65938        1.8907630E-18
   64.87312        1.9003767E-18
   65.08688        1.9174576E-18
   65.30063        1.9398014E-18
   65.51437        1.9643738E-18
   65.72813        1.9877107E-18
   65.94187        2.0064054E-18
   66.15562        2.0176116E-18
   66.36938        2.0194736E-18
   66.58312        2.0114065E-18
   66.79688        1.9941761E-18
   67.01063        1.9697784E-18
   67.22437        1.9411294E-18
   67.43813        1.9116458E-18
   67.65188        1.8847678E-18
   67.86562        1.8635023E-18
   68.07938        1.8500399E-18
   68.29312        1.8454892E-18
   68.50687        1.8497419E-18
   68.72063        1.8614926E-18
   68.93437        1.8784033E-18
   69.14812        1.8974018E-18
   69.36188        1.9150873E-18
   69.57562        1.9281998E-18
   69.78938        1.9340837E-18
   70.00313        1.9310831E-18
   70.21687        1.9187989E-18
   70.43063        1.8981615E-18
   70.64438        1.8713063E-18
   70.85812        1.8412631E-18
   71.07188        1.8115212E-18
   71.28562        1.7855310E-18
   71.49937        1.7662246E-18
   71.71313        1.7556234E-18
   71.92687        1.7545810E-18
   72.14062        1.7626803E-18
   72.35438        1.7783049E-18
   72.56812        1.7988548E-18
   72.78188        1.8210917E-18
   72.99563        1.8415627E-18
   73.20937        1.8570647E-18
   73.42313        1.8650834E-18
   73.63687        1.8641528E-18
   73.85062        1.8540772E-18
   74.06438        1.8359782E-18
   74.27812        1.8121521E-18
   74.49187        1.7857506E-18
   74.70563        1.7603315E-18
   74.91937        1.7393484E-18
   75.13313        1.7256510E-18
   75.34688        1.7210833E-18
   75.56062        1.7262211E-18
   75.77438        1.7402978E-18
   75.98813        1.7613122E-18
   76.20187        1.7863087E-18
   76.41563        1.8117813E-18
   76.62937        1.8341489E-18
   76.84312        1.8502378E-18
   77.05688        1.8577120E-18
   77.27062        1.8553837E-18
   77.48438        1.8433739E-18
   77.69813        1.8230904E-18
   77.91187        1.7970263E-18
   78.12563        1.7684110E-18
   78.33938        1.7407586E-18
   78.55312        1.7173806E-18
   78.76688        1.7009280E-18
   78.98062        1.6930338E-18
   79.19437        1.6940893E-18
   79.40813        1.7031971E-18
   79.62187        1.7182942E-18
   79.83562        1.7364320E-18
   80.04938        1.7541829E-18
   80.26312        1.7681141E-18
   80.47688        1.7752772E-18
   80.69063        1.7736392E-18
   80.90437        1.7623906E-18
   81.11813        1.7420901E-18
   81.33188        1.7146050E-18
   81.54562        1.6828578E-18
   81.75938        1.6504139E-18
   81.97312        1.6209739E-18
   82.18687        1.5978495E-18
   82.40063        1.5835049E-18
   82.61437        1.5792344E-18
   82.82812        1.5850123E-18
   83.04188        1.5995229E-18
   83.25562        1.6203664E-18
   83.46938        1.6443829E-18
   83.68313        1.6680701E-18
   83.89687        1.6880258E-18
   84.11063        1.7013807E-18
   84.32437        1.7061704E-18
   84.53812        1.7016054E-18
   84.75188        1.6882001E-18
   84.96562        1.6677299E-18
   85.17937        1.6430140E-18
   85.39313        1.6175312E-18
   85.60687        1.5949206E-18
   85.82063        1.5784399E-18
   86.03438        1.5704648E-18
   86.24812        1.5721252E-18
   86.46188        1.5831292E-18
   86.67563        1.6018166E-18
   86.88937        1.6254142E-18
   87.10313        1.6504528E-18
   87.31687        1.6732648E-18
   87.53062        1.6904883E-18
   87.74438        1.6995079E-18
   87.95812        1.6987792E-18
   88.17188        1.6880124E-18
   88.38563        1.6682012E-18
   88.59937        1.6415027E-18
   88.81313        1.6109727E-18
   89.02688        1.5801888E-18
   89.24062        1.5527888E-18
   89.45438        1.5319770E-18
   89.66812        1.5200691E-18
   89.88187        1.5181413E-18
   90.09563        1.5258552E-18
   90.30937        1.5414891E-18
   90.52312        1.5621912E-18
   90.73688        1.5844043E-18
   90.95062        1.6044001E-18
   91.16438        1.6188326E-18
   91.37813        1.6252114E-18
   91.59187        1.6222410E-18
   91.80563        1.6099745E-18
   92.01938        1.5897733E-18
   92.23312        1.5641028E-18
   92.44688        1.5361910E-18
   92.66062        1.5095959E-18
   92.87437        1.4877360E-18
   93.08813        1.4734285E-18
   93.30187        1.4684966E-18
   93.51562        1.4734905E-18
   93.72938        1.4875756E-18
   93.94312        1.5086176E-18
   94.15688        1.5334611E-18
   94.37063        1.5583748E-18
   94.58437        1.5795924E-18
   94.79813        1.5938635E-18
   95.01187        1.5989186E-18
   95.22562        1.5937783E-18
   95.43938        1.5788572E-18
   95.65312        1.5558682E-18
   95.86687        1.5275439E-18
   96.08063        1.4972451E-18
   96.29437        1.4685070E-18
   96.50813        1.4445833E-18
   96.72188        1.4280394E-18
   96.93562        1.4204281E-18
   97.14938        1.4220813E-18
   97.36313        1.4320438E-18
   97.57687        1.4481759E-18
   97.79063        1.4674143E-18
   98.00437        1.4861921E-18
   98.21812        1.5009542E-18
   98.43188        1.5087022E-18
   98.64562        1.5074655E-18
   98.85938        1.4966278E-18
   99.07313        1.4770294E-18
   99.28687        1.4508358E-18
   99.50063        1.4211975E-18
   99.71438        1.3917655E-18
   99.92812        1.3661555E-18
   100.1419        1.3474448E-18
   100.3556        1.3377779E-18
   100.5694        1.3381195E-18
   100.7831        1.3481687E-18
   100.9969        1.3664259E-18
   101.2106        1.3903942E-18
   101.4244        1.4168880E-18
   101.6381        1.4424254E-18
   101.8519        1.4636671E-18
   102.0656        1.4778614E-18
   102.2794        1.4832368E-18
   102.4931        1.4792810E-18
   102.7069        1.4668466E-18
   102.9206        1.4480506E-18
   103.1344        1.4259692E-18
   103.3481        1.4041641E-18
   103.5619        1.3861301E-18
   103.7756        1.3747479E-18
   103.9894        1.3718505E-18
   104.2031        1.3779640E-18
   104.4169        1.3922637E-18
   104.6306        1.4127256E-18
   104.8444        1.4364455E-18
   105.0581        1.4600501E-18
   105.2719        1.4801502E-18
   105.4856        1.4937720E-18
   105.6994        1.4987251E-18
   105.9131        1.4938812E-18
   106.1269        1.4793262E-18
   106.3406        1.4563725E-18
   106.5544        1.4274177E-18
   106.7681        1.3956442E-18
   106.9819        1.3646000E-18
   107.1956        1.3377016E-18
   107.4094        1.3177375E-18
   107.6231        1.3064615E-18
   107.8369        1.3043431E-18
   108.0506        1.3105220E-18
   108.2644        1.3229711E-18
   108.4781        1.3388392E-18
   108.6919        1.3548929E-18
   108.9056        1.3680005E-18
   109.1194        1.3755663E-18
   109.3331        1.3758711E-18
   109.5469        1.3682832E-18
   109.7606        1.3533290E-18
   109.9744        1.3326195E-18
   110.1881        1.3086486E-18
   110.4019        1.2844747E-18
   110.6156        1.2633198E-18
   110.8294        1.2481250E-18
   111.0431        1.2411208E-18
   111.2569        1.2434781E-18
   111.4706        1.2551092E-18
   111.6844        1.2746554E-18
   111.8981        1.2996765E-18
   112.1119        1.3270128E-18
   112.3256        1.3532528E-18
   112.5394        1.3752255E-18
   112.7531        1.3904349E-18
   112.9669        1.3973725E-18
   113.1806        1.3956725E-18
   113.3944        1.3861074E-18
   113.6081        1.3704428E-18
   113.8219        1.3511830E-18
   114.0356        1.3312408E-18
   114.2494        1.3135633E-18
   114.4631        1.3007491E-18
   114.6769        1.2946925E-18
   114.8906        1.2963021E-18
   115.1044        1.3053354E-18
   115.3181        1.3203920E-18
   115.5319        1.3390883E-18
   115.7456        1.3583937E-18
   115.9594        1.3750902E-18
   116.1731        1.3862734E-18
   116.3869        1.3898061E-18
   116.6006        1.3846431E-18
   116.8144        1.3709761E-18
   117.0281        1.3501738E-18
   117.2419        1.3245496E-18
   117.4556        1.2970029E-18
   117.6694        1.2706041E-18
   117.8831        1.2481892E-18
   118.0969        1.2320039E-18
   118.3106        1.2234473E-18
   118.5244        1.2229104E-18
   118.7381        1.2297369E-18
   118.9519        1.2423006E-18
   119.1656        1.2581966E-18
   119.3794        1.2745428E-18
   119.5931        1.2883657E-18
   119.8069        1.2970213E-18
   120.0206        1.2986003E-18
   120.2344        1.2922369E-18
   120.4481        1.2782720E-18
   120.6619        1.2582215E-18
   120.8756        1.2345576E-18
   121.0894        1.2103311E-18
   121.3031        1.1887070E-18
   121.5169        1.1724900E-18
   121.7306        1.1637215E-18
   121.9444        1.1634065E-18
   122.1581        1.1713988E-18
   122.3719        1.1864518E-18
   122.5856        1.2064094E-18
   122.7994        1.2285058E-18
   123.0131        1.2497355E-18
   123.2269        1.2672468E-18
   123.4406        1.2787171E-18
   123.6544        1.2826690E-18
   123.8681        1.2786803E-18
   124.0819        1.2674554E-18
   124.2956        1.2507383E-18
   124.5094        1.2310663E-18
   124.7231        1.2113999E-18
   124.9369        1.1946798E-18
   125.1506        1.1833839E-18
   125.3644        1.1791563E-18
   125.5781        1.1825687E-18
   125.7919        1.1930457E-18
   126.0056        1.2089586E-18
   126.2194        1.2278682E-18
   126.4331        1.2468688E-18
   126.6469        1.2629856E-18
   126.8606        1.2735747E-18
   127.0744        1.2766803E-18
   127.2881        1.2713012E-18
   127.5019        1.2575463E-18
   127.7156        1.2366384E-18
   127.9294        1.2107736E-18
   128.1431        1.1828304E-18
   128.3569        1.1559717E-18
   128.5706        1.1331889E-18
   128.7844        1.1168624E-18
   128.9981        1.1084112E-18
   129.2119        1.1080937E-18
   129.4256        1.1149950E-18
   129.6394        1.1271942E-18
   129.8531        1.1420807E-18
   130.0669        1.1567590E-18
   130.2806        1.1684685E-18
   130.4944        1.1749609E-18
   130.7081        1.1747866E-18
   130.9219        1.1674659E-18
   131.1356        1.1535325E-18
   131.3494        1.1344620E-18
   131.5631        1.1124864E-18
   131.7769        1.0903198E-18
   131.9906        1.0708114E-18
   132.2044        1.0565656E-18
   132.4181        1.0495710E-18
   132.6319        1.0508937E-18
   132.8456        1.0604909E-18
   133.0594        1.0771847E-18
   133.2731        1.0988084E-18
   133.4869        1.1225137E-18
   133.7006        1.1451865E-18
   133.9144        1.1639029E-18
   134.1281        1.1763472E-18
   134.3419        1.1811265E-18
   134.5556        1.1779414E-18
   134.7694        1.1675877E-18
   134.9831        1.1518127E-18
   135.1969        1.1330455E-18
   135.4106        1.1140543E-18
   135.6244        1.0975681E-18
   135.8381        1.0859139E-18
   136.0519        1.0807047E-18
   136.2656        1.0826174E-18
   136.4794        1.0912895E-18
   136.6931        1.1053504E-18
   136.9069        1.1225923E-18
   137.1206        1.1402657E-18
   137.3344        1.1554620E-18
   137.5481        1.1655276E-18
   137.7619        1.1684522E-18
   137.9756        1.1631687E-18
   138.1894        1.1497149E-18
   138.4031        1.1292376E-18
   138.6169        1.1038345E-18
   138.8306        1.0762605E-18
   139.0444        1.0495450E-18
   139.2581        1.0265764E-18
   139.4719        1.0097095E-18
   139.6856        1.0004525E-18
   139.8994        9.9927316E-19
   140.1131        1.0055496E-18
   140.3269        1.0176714E-18
   140.5406        1.0332725E-18
   140.7544        1.0495724E-18
   140.9681        1.0637723E-18
   141.1819        1.0734483E-18
   141.3956        1.0768923E-18
   141.6094        1.0733462E-18
   141.8231        1.0630987E-18
   142.0369        1.0474376E-18
   142.2506        1.0284602E-18
   142.4644        1.0087776E-18
   142.6781        9.9115200E-19
   142.8919        9.7811729E-19
   143.1056        9.7163075E-19
   143.3194        9.7279811E-19
   143.5331        9.8170560E-19
   143.7469        9.9738409E-19
   143.9606        1.0179145E-18
   144.1744        1.0406666E-18
   144.3881        1.0626467E-18
   144.6019        1.0809120E-18
   144.8156        1.0929920E-18
   145.0294        1.0972470E-18
   145.2431        1.0931102E-18
   145.4569        1.0811655E-18
   145.6706        1.0630503E-18
   145.8844        1.0412014E-18
   146.0981        1.0184872E-18
   146.3119        9.9779602E-19
   146.5256        9.8163519E-19
   146.7394        9.7180642E-19
   146.9531        9.6918529E-19
   147.1669        9.7362818E-19
   147.3806        9.8400703E-19
   147.5944        9.9835902E-19
   147.8081        1.0141439E-18
   148.0219        1.0285727E-18
   148.2356        1.0389880E-18
   148.4494        1.0432414E-18
   148.6631        1.0400249E-18
   148.8769        1.0290919E-18
   149.0906        1.0113307E-18
   149.3044        9.8866467E-19
   149.5181        9.6378804E-19
   149.7319        9.3977799E-19
   149.9456        9.1964627E-19
   150.1594        9.0590567E-19
   150.3731        9.0021994E-19
   150.5869        9.0318341E-19
   150.8006        9.1425926E-19
   151.0144        9.3186580E-19
   151.2281        9.5359769E-19
   151.4419        9.7654400E-19
   151.6556        9.9766192E-19
   151.8694        1.0141712E-18
   152.0831        1.0239166E-18
   152.2969        1.0256625E-18
   152.5106        1.0192699E-18
   152.7244        1.0057320E-18
   152.9381        9.8704319E-19
   153.1519        9.6591896E-19
   153.3656        9.4539940E-19
   153.5794        9.2839392E-19
   153.7931        9.1724786E-19
   154.0069        9.1339310E-19
   154.2206        9.1714550E-19
   154.4344        9.2767561E-19
   154.6481        9.4314772E-19
   154.8619        9.6099827E-19
   155.0756        9.7830713E-19
   155.2894        9.9219922E-19
   155.5031        1.0002269E-18
   155.7169        1.0006915E-18
   155.9306        9.9286355E-19
   156.1444        9.7708942E-19
   156.3581        9.5476247E-19
   156.5719        9.2816582E-19
   156.7856        9.0019326E-19
   156.9994        8.7397494E-19
   157.2131        8.5245098E-19
   157.4269        8.3795526E-19
   157.6406        8.3187703E-19
   157.8544        8.3445163E-19
   158.0681        8.4472904E-19
   158.2819        8.6072475E-19
   158.4956        8.7972871E-19
   158.7094        8.9871674E-19
   158.9231        9.1479217E-19
   159.1369        9.2558750E-19
   159.3506        9.2957172E-19
   159.5644        9.2622226E-19
   159.7781        9.1606437E-19
   159.9919        9.0057687E-19
   160.2056        8.8198929E-19
   160.4194        8.6299319E-19
   160.6331        8.4639364E-19
   160.8469        8.3473391E-19
   161.0606        8.2993244E-19
   161.2744        8.3298349E-19
   161.4881        8.4377127E-19
   161.7019        8.6104022E-19
   161.9156        8.8254640E-19
   162.1294        9.0537648E-19
   162.3431        9.2638056E-19
   162.5569        9.4265348E-19
   162.7706        9.5196794E-19
   162.9844        9.5309032E-19
   163.1981        9.4593076E-19
   163.4119        9.3150990E-19
   163.6256        9.1177244E-19
   163.8394        8.8928657E-19
   164.0531        8.6688766E-19
   164.2669        8.4730695E-19
   164.4806        8.3283563E-19
   164.6944        8.2504380E-19
   164.9081        8.2457892E-19
   165.1219        8.3107229E-19
   165.3356        8.4316009E-19
   165.5494        8.5864160E-19
   165.7631        8.7476314E-19
   165.9769        8.8860022E-19
   166.1906        8.9749127E-19
   166.4044        8.9944621E-19
   166.6181        8.9346311E-19
   166.8319        8.7969221E-19
   167.0456        8.5941750E-19
   167.2594        8.3485840E-19
   167.4731        8.0883364E-19
   167.6869        7.8434724E-19
   167.9006        7.6416630E-19
   168.1144        7.5045134E-19
   168.3281        7.4448861E-19
   168.5419        7.4655025E-19
   168.7556        7.5588312E-19
   168.9694        7.7082449E-19
   169.1831        7.8902629E-19
   169.3969        8.0775945E-19
   169.6106        8.2427111E-19
   169.8244        8.3615190E-19
   170.0381        8.4167178E-19
   170.2519        8.4003169E-19
   170.4656        8.3149208E-19
   170.6794        8.1735133E-19
   170.8931        7.9976609E-19
   171.1069        7.8144011E-19
   171.3206        7.6522644E-19
   171.5344        7.5370371E-19
   171.7481        7.4879729E-19
   171.9619        7.5150093E-19
   172.1756        7.6173811E-19
   172.3894        7.7837820E-19
   172.6031        7.9939954E-19
   172.8169        8.2216759E-19
   173.0306        8.4379050E-19
   173.2444        8.6149837E-19
   173.4581        8.7300704E-19
   173.6719        8.7681321E-19
   173.8856        8.7238945E-19
   174.0994        8.6025770E-19
   174.3131        8.4192056E-19
   174.5269        8.1966144E-19
   174.7406        7.9623351E-19
   174.9544        7.7447938E-19
   175.1681        7.5693323E-19
   175.3819        7.4546551E-19
   175.5956        7.4102375E-19
   175.8094        7.4351067E-19
   176.0231        7.5181805E-19
   176.2369        7.6400325E-19
   176.4506        7.7758545E-19
   176.6644        7.8990734E-19
   176.8781        7.9851208E-19
   177.0919        8.0147794E-19
   177.3056        7.9767787E-19
   177.5194        7.8692514E-19
   177.7331        7.6999855E-19
   177.9469        7.4854707E-19
   178.1606        7.2487905E-19
   178.3744        7.0166795E-19
   178.5881        6.8159682E-19
   178.8019        6.6699936E-19
   179.0156        6.5952796E-19
   179.2294        6.5991766E-19
   179.4431        6.6786811E-19
   179.6569        6.8208104E-19
   179.8706        7.0044465E-19
   180.0844        7.2034103E-19
   180.2981        7.3902394E-19
   180.5119        7.5401421E-19
   180.7256        7.6344386E-19
   180.9394        7.6630188E-19
   181.1531        7.6255578E-19
   181.3669        7.5313244E-19
   181.5806        7.3977378E-19
   181.7944        7.2478713E-19
   182.0081        7.1072868E-19
   182.2219        7.0005288E-19
   182.4356        6.9477578E-19
   182.6494        6.9618705E-19
   182.8631        7.0465448E-19
   183.0769        7.1954942E-19
   183.2906        7.3931511E-19
   183.5044        7.6166698E-19
   183.7181        7.8390986E-19
   183.9319        8.0331542E-19
   184.1456        8.1751211E-19
   184.3594        8.2481529E-19
   184.5731        8.2445795E-19
   184.7869        8.1668007E-19
   185.0006        8.0267477E-19
   185.2144        7.8440276E-19
   185.4281        7.6430754E-19
   185.6419        7.4497158E-19
   185.8556        7.2876556E-19
   186.0694        7.1752831E-19
   186.2831        7.1232555E-19
   186.4969        7.1331114E-19
   186.7106        7.1971372E-19
   186.9244        7.2994905E-19
   187.1381        7.4184732E-19
   187.3519        7.5296524E-19
   187.5656        7.6093968E-19
   187.7794        7.6383036E-19
   187.9931        7.6040842E-19
   188.2069        7.5034101E-19
   188.4206        7.3425287E-19
   188.6344        7.1365142E-19
   188.8481        6.9073066E-19
   189.0619        6.6807676E-19
   189.2756        6.4832111E-19
   189.4894        6.3378134E-19
   189.7031        6.2614543E-19
   189.9169        6.2623859E-19
   190.1306        6.3390748E-19
   190.3444        6.4804173E-19
   190.5581        6.6672722E-19
   190.7719        6.8751727E-19
   190.9856        7.0777192E-19
   191.1994        7.2502515E-19
   191.4131        7.3732047E-19
   191.6269        7.4346993E-19
   191.8406        7.4319821E-19
   192.0544        7.3715989E-19
   192.2681        7.2682903E-19
   192.4819        7.1427987E-19