  -1.95000005         0.00000000    
  -1.78499997         0.00000000    
  -1.62000000         0.00000000    
  -1.45500004         5.56116602E-15
  -1.28999996         2.80729995E-14
  -1.12500000         5.70617975E-14
 -0.959999979        -2.65763177E-14
 -0.795000017        -6.49035459E-13
 -0.629999995        -2.95390839E-12
 -0.465000004        -9.58557626E-12
 -0.300000012        -2.60308008E-11
 -0.135000005        -6.25822658E-11
   2.99999993E-02    -1.36537226E-10
  0.194999993        -2.73255446E-10
  0.360000014        -5.03130759E-10
  0.524999976        -8.49805060E-10
  0.689999998        -1.30418787E-09
  0.855000019        -1.78072757E-09
   1.01999998        -2.05853334E-09
   1.18499994        -1.72076375E-09
   1.35000002        -1.19115218E-10
   1.51499999         3.59891517E-09
   1.67999995         1.03614779E-08
   1.84500003         2.09200532E-08
   2.00999999         3.54863126E-08
   2.17499995         5.33202069E-08
   2.33999991         7.23800540E-08
   2.50500011         8.91733691E-08
   2.67000008         9.89369866E-08
   2.83500004         9.62175406E-08
   3.00000000         7.58277210E-08
   3.16499996         3.40438930E-08
   3.32999992        -3.01806047E-08
   3.49499989        -1.14252998E-07
   3.66000009        -2.11472766E-07
   3.82500005        -3.11218002E-07
   3.99000001        -3.99828878E-07
   4.15500021        -4.62109114E-07
   4.32000017        -4.83267058E-07
   4.48500013        -4.51054433E-07
   4.65000010        -3.57828839E-07
   4.81500006        -2.02260253E-07
   4.98000002         9.58594715E-09
   5.14499998         2.64014403E-07
   5.30999994         5.40457393E-07
   5.47499990         8.13235090E-07
   5.63999987         1.05415916E-06
   5.80499983         1.23564428E-06
   5.96999979         1.33387391E-06
   6.13500023         1.33154469E-06
   6.30000019         1.21981850E-06
   6.46500015         9.99302756E-07
   6.63000011         6.80103142E-07
   6.79500008         2.81146811E-07
   6.96000004        -1.70985814E-07
   7.12500000        -6.43574424E-07
   7.28999996        -1.09962582E-06
   7.45499992        -1.50022811E-06
   7.61999989        -1.80752534E-06
   7.78499985        -1.98828548E-06
   7.94999981        -2.01775697E-06
   8.11499977        -1.88323656E-06
   8.27999973        -1.58662590E-06
   8.44499969        -1.14535419E-06
   8.60999966        -5.91366643E-07
   8.77499962         3.16674829E-08
   8.93999958         6.72350552E-07
   9.10499954         1.27597195E-06
   9.27000046         1.78863058E-06
   9.43500042         2.16067428E-06
   9.60000038         2.34949948E-06
   9.76500034         2.32208140E-06
   9.93000031         2.05768947E-06
   10.0950003         1.55102384E-06
   10.2600002         8.15574140E-07
   10.4250002        -1.13473220E-07
   10.5900002        -1.17776301E-06
   10.7550001        -2.29673424E-06
   10.9200001        -3.37172060E-06
   11.0850000        -4.29336615E-06
   11.2500000        -4.95193035E-06
   11.4150000        -5.24950747E-06
   11.5799999        -5.11279131E-06
   11.7449999        -4.50474136E-06
   11.9099998        -3.43344072E-06
   12.0749998        -1.95647294E-06
   12.2399998        -1.79478306E-07
   12.4049997         1.75186767E-06
   12.5699997         3.66624386E-06
   12.7349997         5.38605900E-06
   12.8999996         6.74925241E-06
   13.0649996         7.63013031E-06
   13.2299995         7.95568758E-06
   13.3950005         7.71456780E-06
   13.5600004         6.95717654E-06
   13.7250004         5.78728941E-06
   13.8900003         4.34706681E-06
   14.0550003         2.79844949E-06
   14.2200003         1.30403282E-06
   14.3850002         9.91050086E-09
   14.5500002        -9.68098448E-07
   14.7150002        -1.55444047E-06
   14.8800001        -1.72021589E-06
   15.0450001        -1.48614470E-06
   15.2100000        -9.21863602E-07
   15.3750000        -1.40829897E-07
   15.5400000         7.09977030E-07
   15.7049999         1.46579919E-06
   15.8699999         1.96436872E-06
   16.0349998         2.06832465E-06
   16.2000008         1.68622330E-06
   16.3649998         7.88146849E-07
   16.5300007        -5.87444674E-07
   16.6949997        -2.33740548E-06
   16.8600006        -4.30776481E-06
   17.0249996        -6.31529065E-06
   17.1900005        -8.17282944E-06
   17.3549995        -9.71402551E-06
   17.5200005        -1.08135546E-05
   17.6849995        -1.14002505E-05
   17.8500004        -1.14619679E-05
   18.0149994        -1.10423216E-05
   18.1800003        -1.02303811E-05
   18.3449993        -9.14496286E-06
   18.5100002        -7.91563798E-06
   18.6749992        -6.66300730E-06
   18.8400002        -5.48123671E-06
   19.0049992        -4.42602550E-06
   19.1700001        -3.51059043E-06
   19.3349991        -2.71088652E-06
   19.5000000        -1.97903410E-06
   19.6650009        -1.26158318E-06
   19.8299999        -5.17575643E-07
   19.9950008         2.68794764E-07
   20.1599998         1.08447227E-06
   20.3250008         1.89325840E-06
   20.4899998         2.64809705E-06
   20.6550007         3.30470971E-06
   20.8199997         3.83111183E-06
   20.9850006         4.20954257E-06
   21.1499996         4.43083036E-06
   21.3150005         4.48472974E-06
   21.4799995         4.35170887E-06
   21.6450005         4.00123872E-06
   21.8099995         3.39878807E-06
   21.9750004         2.51990355E-06
   22.1399994         1.36644360E-06
   22.3050003        -2.11616218E-08
   22.4699993        -1.56039789E-06
   22.6350002        -3.13333362E-06
   22.7999992        -4.60112051E-06
   22.9650002        -5.82143775E-06
   23.1299992        -6.66365941E-06
   23.2950001        -7.01842328E-06
   23.4599991        -6.80125231E-06
   23.6250000        -5.95248002E-06
   23.7900009        -4.43663384E-06
   23.9549999        -2.24343262E-06
   24.1200008         6.09681877E-07
   24.2849998         4.07560992E-06
   24.4500008         8.07907873E-06
   24.6149998         1.25231263E-05
   24.7800007         1.72996570E-05
   24.9449997         2.23008374E-05
   25.1100006         2.74271188E-05
   25.2749996         3.25889960E-05
   25.4400005         3.77026845E-05
   25.6049995         4.26828301E-05
   25.7700005         4.74373701E-05
   25.9349995         5.18686793E-05
   26.1000004         5.58817992E-05
   26.2649994         5.93967561E-05
   26.4300003         6.23587257E-05
   26.5949993         6.47400666E-05
   26.7600002         6.65311090E-05
   26.9249992         6.77219796E-05
   27.0900002         6.82825848E-05
   27.2549992         6.81498568E-05
   27.4200001         6.72299429E-05
   27.5849991         6.54173709E-05
   27.7500000         6.26269248E-05
   27.9150009         5.88281036E-05
   28.0799999         5.40707115E-05
   28.2450008         4.84920674E-05
   28.4099998         4.23026322E-05
   28.5750008         3.57531244E-05
   28.7399998         2.90918724E-05
   28.9050007         2.25229614E-05
   29.0699997         1.61745502E-05
   29.2350006         1.00831148E-05
   29.3999996         4.19494017E-06
   29.5650005        -1.61701348E-06
   29.7299995        -7.52486085E-06
   29.8950005        -1.37108118E-05
   30.0599995        -2.03302334E-05
   30.2250004        -2.74778959E-05
   30.3899994        -3.51627714E-05
   30.5550003        -4.32965317E-05
   30.7199993        -5.16993641E-05
   30.8850002        -6.01237007E-05
   31.0499992        -6.82925238E-05
   31.2150002        -7.59447576E-05
   31.3799992        -8.28781194E-05
   31.5450001        -8.89801013E-05
   31.7099991        -9.42406041E-05
   31.8750000        -9.87445164E-05
   32.0400009        -1.02647733E-04
   32.2050018        -1.06143249E-04
   32.3699989        -1.09425666E-04
   32.5349998        -1.12661088E-04
   32.7000008        -1.15966839E-04
   32.8650017        -1.19402168E-04
   33.0299988        -1.22968617E-04
   33.1949997        -1.26617379E-04
   33.3600006        -1.30260989E-04
   33.5250015        -1.33787355E-04
   33.6899986        -1.37075142E-04
   33.8549995        -1.40010568E-04
   34.0200005        -1.42504752E-04
   34.1850014        -1.44510661E-04
   34.3499985        -1.46036982E-04
   34.5149994        -1.47155224E-04
   34.6800003        -1.47996485E-04
   34.8450012        -1.48735315E-04
   35.0099983        -1.49561150E-04
   35.1749992        -1.50641383E-04
   35.3400002        -1.52083187E-04
   35.5050011        -1.53903384E-04
   35.6699982        -1.56014168E-04
   35.8349991        -1.58229232E-04
   36.0000000        -1.60289681E-04
   36.1650009        -1.61903852E-04
   36.3300018        -1.62791286E-04
   36.4949989        -1.62720811E-04
   36.6599998        -1.61534379E-04
   36.8250008        -1.59152376E-04
   36.9900017        -1.55560774E-04
   37.1549988        -1.50783788E-04
   37.3199997        -1.44848935E-04
   37.4850006        -1.37751529E-04
   37.6500015        -1.29426786E-04
   37.8149986        -1.19736353E-04
   37.9799995        -1.08474720E-04
   38.1450005        -9.53976414E-05
   38.3100014        -8.02699506E-05
   38.4749985        -6.29247079E-05
   38.6399994        -4.33213499E-05
   38.8050003        -2.15887994E-05
   38.9700012         1.95799726E-06
   39.1349983         2.68331460E-05
   39.2999992         5.24239076E-05
   39.4650002         7.80538685E-05
   39.6300011         1.03052203E-04
   39.7949982         1.26816332E-04
   39.9599991         1.48860068E-04
   40.1250000         1.68843733E-04
   40.2900009         1.86586782E-04
   40.4550018         2.02064679E-04
   40.6199989         2.15390886E-04
   40.7849998         2.26784774E-04
   40.9500008         2.36526903E-04
   41.1150017         2.44906580E-04
   41.2799988         2.52170401E-04
   41.4449997         2.58481683E-04
   41.6100006         2.63899681E-04
   41.7750015         2.68381700E-04
   41.9399986         2.71805475E-04
   42.1049995         2.74003396E-04
   42.2700005         2.74799997E-04
   42.4350014         2.74045800E-04
   42.5999985         2.71645869E-04
   42.7649994         2.67583120E-04
   42.9300003         2.61936279E-04
   43.0950012         2.54888320E-04
   43.2599983         2.46717304E-04
   43.4249992         2.37762637E-04
   43.5900002         2.28365039E-04
   43.7550011         2.18788744E-04
   43.9199982         2.09145626E-04
   44.0849991         1.99344533E-04
   44.2500000         1.89084967E-04
   44.4150009         1.77901893E-04
   44.5800018         1.65251884E-04
   44.7449989         1.50618769E-04
   44.9099998         1.33612804E-04
   45.0750008         1.14042661E-04
   45.2400017         9.19509039E-05
   45.4049988         6.76145501E-05
   45.5699997         4.15186114E-05
   45.7350006         1.43104526E-05
   45.9000015        -1.32602472E-05
   46.0649986        -4.04132661E-05
   46.2299995        -6.64164036E-05
   46.3950005        -9.06600835E-05
   46.5600014        -1.12712019E-04
   46.7249985        -1.32336485E-04
   46.8899994        -1.49471554E-04
   47.0550003        -1.64172132E-04
   47.2200012        -1.76540052E-04
   47.3849983        -1.86668170E-04
   47.5499992        -1.94618697E-04
   47.7150002        -2.00439754E-04
   47.8800011        -2.04205935E-04
   48.0449982        -2.06057783E-04
   48.2099991        -2.06216908E-04
   48.3750000        -2.04967029E-04
   48.5400009        -2.02609823E-04
   48.7050018        -1.99416594E-04
   48.8699989        -1.95598419E-04
   49.0349998        -1.91305575E-04
   49.2000008        -1.86651203E-04
   49.3650017        -1.81741882E-04
   49.5299988        -1.76695728E-04
   49.6949997        -1.71638560E-04
   49.8600006        -1.66682774E-04
   50.0250015        -1.61903881E-04
   50.1899986        -1.57329996E-04
   50.3549995        -1.52950539E-04
   50.5200005        -1.48736581E-04
   50.6850014        -1.44658537E-04
   50.8499985        -1.40688338E-04
   51.0149994        -1.36784991E-04
   51.1800003        -1.32875168E-04
   51.3450012        -1.28846455E-04
   51.5099983        -1.24564016E-04
   51.6749992        -1.19906879E-04
   51.8400002        -1.14803435E-04
   52.0050011        -1.09241184E-04
   52.1699982        -1.03234655E-04
   52.3349991        -9.67577216E-05
   52.5000000        -8.96682541E-05
   52.6650009        -8.16639586E-05
   52.8300018        -7.22996629E-05
   52.9949989        -6.10715942E-05
   53.1599998        -4.75450397E-05
   53.3250008        -3.14820063E-05
   53.4900017        -1.29252594E-05
   53.6549988         7.78602043E-06
   53.8199997         3.00663469E-05
   53.9850006         5.31742553E-05
   54.1500015         7.63100325E-05
   54.3149986         9.86967061E-05
   54.4799995         1.19637800E-04
   54.6450005         1.38559582E-04
   54.8100014         1.55048096E-04
   54.9749985         1.68882252E-04
   55.1399994         1.80051808E-04
   55.3050003         1.88742400E-04
   55.4700012         1.95278568E-04
   55.6349983         2.00032679E-04
   55.7999992         2.03328076E-04
   55.9650002         2.05372111E-04
   56.1300011         2.06245328E-04
   56.2949982         2.05948571E-04
   56.4599991         2.04483105E-04
   56.6250000         2.01924355E-04
   56.7900009         1.98454349E-04
   56.9550018         1.94340522E-04
   57.1199989         1.89875485E-04
   57.2849998         1.85310331E-04
   57.4500008         1.80812480E-04
   57.6150017         1.76460759E-04
   57.7799988         1.72266606E-04
   57.9449997         1.68194834E-04
   58.1100006         1.64160418E-04
   58.2750015         1.59996358E-04
   58.4399986         1.55410962E-04
   58.6049995         1.49966465E-04
   58.7700005         1.43106285E-04
   58.9350014         1.34236223E-04
   59.0999985         1.22839614E-04
   59.2649994         1.08588720E-04
   59.4300003         9.14164557E-05
   59.5950012         7.15309143E-05
   59.7599983         4.93783991E-05
   59.9249992         2.55776722E-05
   60.0900002         8.49205833E-07
   60.2550011        -2.40486952E-05
   60.4199982        -4.83798758E-05
   60.5849991        -7.14956550E-05
   60.7500000        -9.29073503E-05
   60.9150009        -1.12351321E-04
   61.0800018        -1.29818567E-04
   61.2449989        -1.45521888E-04
   61.4099998        -1.59793402E-04
   61.5750008        -1.72934757E-04
   61.7400017        -1.85067911E-04
   61.9049988        -1.96039866E-04
   62.0699997        -2.05416814E-04
   62.2350006        -2.12567757E-04
   62.4000015        -2.16804532E-04
   62.5649986        -2.17527107E-04
   62.7299995        -2.14330881E-04
   62.8950005        -2.07058023E-04
   63.0600014        -1.95802902E-04
   63.2249985        -1.80897347E-04
   63.3899994        -1.62895827E-04
   63.5550003        -1.42561796E-04
   63.7200012        -1.20837001E-04
   63.8849983        -9.87707099E-05
   64.0500031        -7.74009022E-05
   64.2149963        -5.76067869E-05
   64.3799973        -3.99752244E-05
   64.5449982        -2.47286080E-05
   64.7099991        -1.17423033E-05
   64.8750000        -6.45623800E-07
   65.0400009         9.03229557E-06
   65.2050018         1.77238289E-05
   65.3700027         2.57323936E-05
   65.5350037         3.32024465E-05
   65.6999969         4.01331126E-05
   65.8649979         4.64048753E-05
   66.0299988         5.17973094E-05
   66.1949997         5.59983418E-05
   66.3600006         5.86265596E-05
   66.5250015         5.92919932E-05
   66.6900024         5.77026367E-05
   66.8550034         5.37936903E-05
   67.0199966         4.78315014E-05
   67.1849976         4.04410202E-05
   67.3499985         3.25298133E-05
   67.5149994         2.51226757E-05
   67.6800003         1.91584149E-05
   67.8450012         1.53162164E-05
   68.0100021         1.39237809E-05
   68.1750031         1.49626730E-05
   68.3399963         1.81461837E-05
   68.5049973         2.30222340E-05
   68.6699982         2.90577773E-05
   68.8349991         3.56866876E-05
   69.0000000         4.23332494E-05
   69.1650009         4.84400189E-05
   69.3300018         5.35225408E-05
   69.4950027         5.72492791E-05
   69.6600037         5.95189777E-05
   69.8249969         6.04963934E-05
   69.9899979         6.05791756E-05
   70.1549988         6.02981709E-05
   70.3199997         6.01839456E-05
   70.4850006         6.06474532E-05
   70.6500015         6.19132043E-05
   70.8150024         6.40155849E-05
   70.9800034         6.68383655E-05
   71.1449966         7.01615718E-05
   71.3099976         7.36869915E-05
   71.4749985         7.70377155E-05
   71.6399994         7.97531029E-05
   71.8050003         8.13102670E-05
   71.9700012         8.11905993E-05
   72.1350021         7.89801416E-05
   72.3000031         7.44647259E-05
   72.4649963         6.76718046E-05
   72.6299973         5.88302682E-05
   72.7949982         4.82579344E-05
   72.9599991         3.62260944E-05
   73.1250000         2.28677054E-05
   73.2900009         8.18074386E-06
   73.4550018        -7.86448709E-06
   73.6200027        -2.51550136E-05
   73.7850037        -4.32752095E-05
   73.9499969        -6.14297533E-05
   74.1149979        -7.84890217E-05
   74.2799988        -9.31475588E-05
   74.4449997        -1.04145518E-04
   74.6100006        -1.10487468E-04
   74.7750015        -1.11606649E-04
   74.9400024        -1.07452877E-04
   75.1050034        -9.85104998E-05
   75.2699966        -8.57640844E-05
   75.4349976        -7.06217688E-05
   75.5999985        -5.47908676E-05
   75.7649994        -4.00930694E-05
   75.9300003        -2.82198289E-05
   76.0950012        -2.04578537E-05
   76.2600021        -1.74465858E-05
   76.4250031        -1.90419578E-05
   76.5899963        -2.43415998E-05
   76.7549973        -3.18785096E-05
   76.9199982        -3.99324199E-05
   77.0849991        -4.68667749E-05
   77.2500000        -5.13945779E-05
   77.4150009        -5.27109514E-05
   77.5800018        -5.04878008E-05
   77.7450027        -4.47789789E-05
   77.9100037        -3.59083606E-05
   78.0749969        -2.43988052E-05
   78.2399979        -1.09582816E-05
   78.4049988         3.50606661E-06
   78.5699997         1.78988957E-05
   78.7350006         3.10161558E-05
   78.9000015         4.16994953E-05
   79.0650024         4.90289058E-05
   79.2300034         5.24907482E-05
   79.3949966         5.20633475E-05
   79.5599976         4.81947354E-05
   79.7249985         4.16895891E-05
   79.8899994         3.35525547E-05
   80.0550003         2.48393771E-05
   80.2200012         1.65467136E-05
   80.3850021         9.54090774E-06
   80.5500031         4.50484004E-06
   80.7149963         1.88228501E-06
   80.8799973         1.81918620E-06
   81.0449982         4.12608370E-06
   81.2099991         8.29719374E-06
   81.3750000         1.36083363E-05
   81.5400009         1.92819534E-05
   81.7050018         2.46702912E-05
   81.8700027         2.93889643E-05
   82.0350037         3.33463577E-05
   82.1999969         3.66564891E-05
   82.3649979         3.94751150E-05
   82.5299988         4.18354139E-05
   82.6949997         4.35611000E-05
   82.8600006         4.42996097E-05
   83.0250015         4.36621303E-05
   83.1900024         4.14080387E-05
   83.3550034         3.75917007E-05
   83.5199966         3.26085974E-05
   83.6849976         2.71237313E-05
   83.8499985         2.19152626E-05
   84.0149994         1.76955855E-05
   84.1800003         1.49694988E-05
   84.3450012         1.39601780E-05
   84.5100021         1.45976346E-05
   84.6750031         1.65417059E-05
   84.8399963         1.92135376E-05
   85.0049973         2.18303721E-05
   85.1699982         2.34614618E-05
   85.3349991         2.31298618E-05
   85.5000000         1.99677397E-05
   85.6650009         1.33999465E-05
   85.8300018         3.30116200E-06
   85.9950027        -9.93388312E-06
   86.1600037        -2.54422539E-05
   86.3249969        -4.20550205E-05
   86.4899979        -5.85130329E-05
   86.6549988        -7.36601505E-05
   86.8199997        -8.65553302E-05
   86.9850006        -9.64904320E-05
   87.1500015        -1.02949969E-04
   87.3150024        -1.05574509E-04
   87.4800034        -1.04177736E-04
   87.6449966        -9.88234169E-05
   87.8099976        -8.99192746E-05
   87.9749985        -7.82574789E-05
   88.1399994        -6.49447757E-05
   88.3050003        -5.12138467E-05
   88.4700012        -3.81663667E-05
   88.6350021        -2.65366925E-05
   88.8000031        -1.65613928E-05
   88.9649963        -7.99612917E-06
   89.1299973        -2.60021892E-07
   89.2949982         7.35936055E-06
   89.4599991         1.55177258E-05
   89.6250000         2.46916516E-05
   89.7900009         3.51249728E-05
   89.9550018         4.68114886E-05
   90.1200027         5.94773555E-05
   90.2850037         7.25543505E-05
   90.4499969         8.51735676E-05
   90.6149979         9.62294434E-05
   90.7799988         1.04547464E-04
   90.9449997         1.09139473E-04
   91.1100006         1.09473352E-04
   91.2750015         1.05653911E-04
   91.4400024         9.84303333E-05
   91.6050034         8.90101292E-05
   91.7699966         7.87397585E-05
   91.9349976         6.87689171E-05
   92.0999985         5.98187617E-05
   92.2649994         5.21227776E-05
   92.4300003         4.55286863E-05
   92.5950012         3.96821961E-05
   92.7600021         3.41926279E-05
   92.9250031         2.87125622E-05
   93.0899963         2.29279176E-05
   93.2549973         1.65118145E-05
   93.4199982         9.11301504E-06
   93.5849991         4.19322646E-07
   93.7500000        -9.72162343E-06
   93.9150009        -2.11902425E-05
   94.0800018        -3.35660079E-05
   94.2450027        -4.62165044E-05
   94.4100037        -5.84744994E-05
   94.5749969        -6.98208096E-05
   94.7399979        -7.99825721E-05
   94.9049988        -8.89002695E-05
   95.0699997        -9.65888175E-05
   95.2350006        -1.02977778E-04
   95.4000015        -1.07828608E-04
   95.5650024        -1.10783760E-04
   95.7300034        -1.11526577E-04
   95.8949966        -1.09964385E-04
   96.0599976        -1.06327978E-04
   96.2249985        -1.01121455E-04
   96.3899994        -9.49351306E-05
   96.5550003        -8.82086824E-05
   96.7200012        -8.10611164E-05
   96.8850021        -7.32717235E-05
   97.0500031        -6.44203319E-05
   97.2149963        -5.41161389E-05
   97.3799973        -4.22049816E-05
   97.5449982        -2.88634219E-05
   97.7099991        -1.45523618E-05
   97.8750000         1.25247723E-07
   98.0400009         1.45776903E-05
   98.2050018         2.83155132E-05
   98.3700027         4.09588501E-05
   98.5350037         5.21982984E-05
   98.6999969         6.17748592E-05
   98.8649979         6.95251729E-05
   99.0299988         7.54839421E-05
   99.1949997         7.99803311E-05
   99.3600006         8.36457548E-05
   99.5250015         8.72828823E-05
   99.6900024         9.16158169E-05
   99.8550034         9.70114634E-05
   100.019997         1.03292106E-04
   100.184998         1.09730252E-04
   100.349998         1.15240182E-04
   100.514999         1.18695578E-04
   100.680000         1.19250450E-04
   100.845001         1.16547279E-04
   101.010002         1.10754969E-04
   101.175003         1.02456681E-04
   101.339996         9.24639899E-05
   101.504997         8.16422762E-05
   101.669998         7.07965955E-05
   101.834999         6.06132417E-05
   102.000000         5.16158216E-05
   102.165001         4.40971489E-05
   102.330002         3.80253477E-05
   102.495003         3.29675822E-05
   102.660004         2.80958720E-05
   102.824997         2.23178231E-05
   102.989998         1.45195754E-05
   103.154999         3.84851819E-06
   103.320000        -1.00657853E-05
   103.485001        -2.70332803E-05
   103.650002        -4.63866672E-05
   103.815002        -6.71741509E-05
   103.980003        -8.83668108E-05
   104.144997        -1.08993991E-04
   104.309998        -1.28172498E-04
   104.474998        -1.45062266E-04
   104.639999        -1.58823445E-04
   104.805000        -1.68644809E-04
   104.970001        -1.73864202E-04
   105.135002        -1.74138069E-04
   105.300003        -1.69576291E-04
   105.464996        -1.60765063E-04
   105.629997        -1.48650608E-04
   105.794998        -1.34324117E-04
   105.959999        -1.18793512E-04
   106.125000        -1.02828526E-04
   106.290001        -8.69213982E-05
   106.455002        -7.13436166E-05
   106.620003        -5.62353489E-05
   106.785004        -4.16621515E-05
   106.949997        -2.76121045E-05
   107.114998        -1.39597014E-05
   107.279999        -4.55940778E-07
   107.445000         1.32048999E-05
   107.610001         2.72394172E-05
   107.775002         4.16063704E-05
   107.940002         5.59040018E-05
   108.105003         6.94057962E-05
   108.269997         8.12453873E-05
   108.434998         9.06860005E-05
   108.599998         9.73610586E-05
   108.764999         1.01379359E-04
   108.930000         1.03248603E-04
   109.095001         1.03656006E-04
   109.260002         1.03209466E-04
   109.425003         1.02255159E-04
   109.589996         1.00842044E-04
   109.754997         9.88264874E-05
   109.919998         9.60426041E-05
   110.084999         9.24410051E-05
   110.250000         8.81287633E-05
   110.415001         8.33070517E-05
   110.580002         7.81613417E-05
   110.745003         7.27802471E-05
   110.910004         6.71528105E-05
   111.074997         6.12390722E-05
   111.239998         5.50595105E-05
   111.404999         4.87355283E-05
   111.570000         4.24444333E-05
   111.735001         3.63088657E-05
   111.900002         3.02880126E-05
   112.065002         2.41462731E-05
   112.230003         1.75367022E-05
   112.394997         1.01716132E-05
   112.559998         1.99794317E-06
   112.724998        -6.71741464E-06
   112.889999        -1.54474201E-05
   113.055000        -2.35924472E-05
   113.220001        -3.07111950E-05
   113.385002        -3.66848762E-05
   113.550003        -4.17349220E-05
   113.714996        -4.62850039E-05
   113.879997        -5.07331097E-05
   114.044998        -5.52401143E-05
   114.209999        -5.96289174E-05
   114.375000        -6.34314274E-05
   114.540001        -6.60508085E-05
   114.705002        -6.69594010E-05
   114.870003        -6.58496429E-05
   115.035004        -6.26924157E-05
   115.199997        -5.77095998E-05
   115.364998        -5.13050945E-05
   115.529999        -4.40021831E-05
   115.695000        -3.64081279E-05
   115.860001        -2.91904471E-05
   116.025002        -2.30291207E-05
   116.190002        -1.85196768E-05
   116.355003        -1.60375894E-05
   116.519997        -1.56128845E-05
   116.684998        -1.68793504E-05
   116.849998        -1.91424078E-05
   117.014999        -2.15606797E-05
   117.180000        -2.33829851E-05
   117.345001        -2.41530270E-05
   117.510002        -2.38048542E-05
   117.675003        -2.26183856E-05
   117.839996        -2.10635753E-05
   118.004997        -1.96047004E-05
   118.169998        -1.85438530E-05
   118.334999        -1.79542421E-05
   118.500000        -1.77070942E-05
   118.665001        -1.75557088E-05
   118.830002        -1.72255004E-05
   118.995003        -1.64723242E-05
   119.160004        -1.51008016E-05
   119.324997        -1.29599830E-05
   119.489998        -9.94147285E-06
   119.654999        -5.99313034E-06
   119.820000        -1.14114073E-06
   119.985001         4.50005155E-06
   120.150002         1.07465075E-05
   120.315002         1.73899280E-05
   120.480003         2.42454935E-05
   120.644997         3.11704825E-05
   120.809998         3.80338388E-05
   120.974998         4.46452250E-05
   121.139999         5.06803553E-05
   121.305000         5.56510458E-05
   121.470001         5.89543852E-05
   121.635002         6.00009917E-05
   121.800003         5.83840229E-05
   121.964996         5.40280998E-05
   122.129997         4.72615975E-05
   122.294998         3.87848158E-05
   122.459999         2.95454920E-05
   122.625000         2.05635824E-05
   122.790001         1.27568173E-05
   122.955002         6.80671701E-06
   123.120003         3.08201788E-06
   123.285004         1.61664570E-06
   123.449997         2.13170074E-06
   123.614998         4.09440463E-06
   123.779999         6.81296888E-06
   123.945000         9.56445547E-06
   124.110001         1.17402196E-05
   124.275002         1.29757618E-05
   124.440002         1.32221467E-05
   124.605003         1.27253315E-05
   124.769997         1.19088918E-05
   124.934998         1.11944355E-05
   125.099998         1.08235909E-05
   125.264999         1.07498317E-05
   125.430000         1.06430407E-05
   125.595001         1.00043699E-05
   125.760002         8.34501407E-06
   125.925003         5.35963818E-06
   126.089996         1.03365278E-06
   126.254997        -4.34325511E-06
   126.419998        -1.02445838E-05
   126.584999        -1.60155341E-05
   126.750000        -2.09796635E-05
   126.915001        -2.45189949E-05
   127.080002        -2.61280857E-05
   127.245003        -2.54581246E-05
   127.410004        -2.23642855E-05
   127.574997        -1.69523519E-05
   127.739998        -9.60280067E-06
   127.904999        -9.46546777E-07
   128.070007         8.21799495E-06
   128.235001         1.70491294E-05
   128.399994         2.47863663E-05
   128.565002         3.08301424E-05
   128.729996         3.47524619E-05
   128.895004         3.62500468E-05
   129.059998         3.50830305E-05
   129.225006         3.10509313E-05
   129.389999         2.40365753E-05
   129.554993         1.41076962E-05
   129.720001         1.62689787E-06
   129.884995        -1.26949144E-05
   130.050003        -2.78481166E-05
   130.214996        -4.26792139E-05
   130.380005        -5.61046545E-05
   130.544998        -6.73088798E-05
   130.710007        -7.58578826E-05
   130.875000        -8.16959728E-05
   131.039993        -8.50421857E-05
   131.205002        -8.62397137E-05
   131.369995        -8.56206025E-05
   131.535004        -8.34285820E-05