  -1.95000005         0.00000000    
  -1.78499997         0.00000000    
  -1.62000000         0.00000000    
  -1.45500004         0.00000000    
  -1.28999996         0.00000000    
  -1.12500000         0.00000000    
 -0.959999979         0.00000000    
 -0.795000017         0.00000000    
 -0.629999995         0.00000000    
 -0.465000004         0.00000000    
 -0.300000012         0.00000000    
 -0.135000005         0.00000000    
   2.99999993E-02     0.00000000    
  0.194999993         0.00000000    
  0.360000014         0.00000000    
  0.524999976         0.00000000    
  0.689999998         0.00000000    
  0.855000019         0.00000000    
   1.01999998         0.00000000    
   1.18499994         0.00000000    
   1.35000002         0.00000000    
   1.51499999         0.00000000    
   1.67999995         0.00000000    
   1.84500003         0.00000000    
   2.00999999         0.00000000    
   2.17499995         0.00000000    
   2.33999991         0.00000000    
   2.50500011         0.00000000    
   2.67000008         0.00000000    
   2.83500004         0.00000000    
   3.00000000         0.00000000    
   3.16499996         0.00000000    
   3.32999992         0.00000000    
   3.49499989         0.00000000    
   3.66000009         0.00000000    
   3.82500005         0.00000000    
   3.99000001         0.00000000    
   4.15500021         0.00000000    
   4.32000017         0.00000000    
   4.48500013         0.00000000    
   4.65000010         0.00000000    
   4.81500006         0.00000000    
   4.98000002         0.00000000    
   5.14499998         0.00000000    
   5.30999994         8.40148083E-35
   5.47499990         1.49980571E-33
   5.63999987         2.93671072E-33
   5.80499983        -1.00099818E-33
   5.96999979        -1.48017896E-32
   6.13500023        -4.76559222E-32
   6.30000019        -9.49669308E-32
   6.46500015        -1.52506439E-31
   6.63000011        -2.03189018E-31
   6.79500008        -2.03396328E-31
   6.96000004        -1.18568154E-31
   7.12500000         7.68495771E-32
   7.28999996         3.09549440E-31
   7.45499992        -4.39503937E-31
   7.61999989        -8.78059373E-30
   7.78499985        -2.19752173E-29
   7.94999981        -2.16652674E-29
   8.11499977         1.48110317E-29
   8.27999973         1.07317932E-28
   8.44499969         2.50471811E-28
   8.60999966         3.97820234E-28
   8.77499962         4.48941829E-28
   8.93999958         2.15780324E-28
   9.10499954        -5.26267483E-28
   9.27000046        -1.95446914E-27
   9.43500042        -4.01630465E-27
   9.60000038        -6.23356655E-27
   9.76500034        -7.55122002E-27
   9.93000031        -6.36054927E-27
   10.0950003        -9.28785205E-28
   10.2600002         9.78023048E-27
   10.4250002         2.49382860E-26
   10.5900002         4.08049212E-26
   10.7550001         5.04973901E-26
   10.9200001         4.53758370E-26
   11.0850000         1.84871171E-26
   11.2500000        -3.03327711E-26
   11.4150000        -8.94108324E-26
   11.5799999        -1.33233418E-25
   11.7449999        -1.26896769E-25
   11.9099998        -3.92345056E-26
   12.0749998         1.36489084E-25
   12.2399998         3.60452069E-25
   12.4049997         5.33842882E-25
   12.5699997         5.09550847E-25
   12.7349997         1.35996551E-25
   12.8999996        -6.66628091E-25
   13.0649996        -1.81534762E-24
   13.2299995        -2.99430912E-24
   13.3950005        -3.65223824E-24
   13.5600004        -3.10889905E-24
   13.7250004        -7.84897175E-25
   13.8900003         3.47820290E-24
   14.0550003         9.09677714E-24
   14.2200003         1.45575208E-23
   14.3850002         1.75086084E-23
   14.5500002         1.52334799E-23
   14.7150002         5.51326170E-24
   14.8800001        -1.22555640E-23
   15.0450001        -3.59694793E-23
   15.2100000        -6.01454817E-23
   15.3750000        -7.60923743E-23
   15.5400000        -7.32660435E-23
   15.7049999        -4.19313303E-23
   15.8699999         2.30921186E-23
   16.0349998         1.18263250E-22
   16.2000008         2.27858648E-22
   16.3649998         3.22709163E-22
   16.5300007         3.62718042E-22
   16.6949997         3.04356169E-22
   16.8600006         1.13293389E-22
   17.0249996        -2.19386964E-22
   17.1900005        -6.61078868E-22
   17.3549995        -1.12730763E-21
   17.5200005        -1.48371059E-21
   17.6849995        -1.56579635E-21
   17.8500004        -1.21817693E-21
   18.0149994        -3.48743214E-22
   18.1800003         1.01414878E-21
   18.3449993         2.67962211E-21
   18.5100002         4.28760266E-21
   18.6749992         5.35335662E-21
   18.8400002         5.36741020E-21
   19.0049992         3.93794396E-21
   19.1700001         9.44798082E-22
   19.3349991        -3.33837312E-21
   19.5000000        -8.19865638E-21
   19.6650009        -1.25471432E-20
   19.8299999        -1.50973451E-20
   19.9950008        -1.46337314E-20
   20.1599998        -1.03178584E-20
   20.3250008        -1.96609401E-21
   20.4899998         9.76122560E-21
   20.6550007         2.32961154E-20
   20.8199997         3.62310569E-20
   20.9850006         4.55022588E-20
   21.1499996         4.76689808E-20
   21.3150005         3.92925816E-20
   21.4799995         1.74564755E-20
   21.6450005        -1.95043017E-20
   21.8099995        -7.10103666E-20
   21.9750004        -1.33015024E-19
   22.1399994        -1.96748734E-19
   22.3050003        -2.47845490E-19
   22.4699993        -2.66467213E-19
   22.6350002        -2.29133683E-19
   22.7999992        -1.12839326E-19
   22.9650002         9.83771396E-20
   23.1299992         4.04960719E-19
   23.2950001         7.82937307E-19
   23.4599991         1.17697627E-18
   23.6250000         1.49844709E-18
   23.7900009         1.63151501E-18
   23.9549999         1.44944822E-18
   24.1200008         8.41438415E-19
   24.2849998        -2.52502879E-19
   24.4500008        -1.80417770E-18
   24.6149998        -3.66585768E-18
   24.7800007        -5.55519900E-18
   24.9449997        -7.06636988E-18
   25.1100006        -7.71446010E-18
   25.2749996        -7.01461815E-18
   25.4400005        -4.58958888E-18
   25.6049995        -2.90607704E-19
   25.7700005         5.69113579E-18
   25.9349995         1.27500437E-17
   26.1000004         1.98560157E-17
   26.2649994         2.56297926E-17
   26.4300003         2.85121580E-17
   26.5949993         2.70179853E-17
   26.7600002         2.00462672E-17
   26.9249992         7.19913154E-18
   27.0900002        -1.09499762E-17
   27.2549992        -3.27019767E-17
   27.4200001        -5.52465957E-17
   27.5849991        -7.48800286E-17
   27.7500000        -8.74301850E-17
   27.9150009        -8.88577663E-17
   28.0799999        -7.59654418E-17
   28.2450008        -4.71180143E-17
   28.4099998        -2.85897132E-18
   28.5750008         5.36920421E-17
   28.7399998         1.16760090E-16
   28.9050007         1.78220550E-16
   29.0699997         2.28310531E-16
   29.2350006         2.56715675E-16
   29.3999996         2.53947836E-16
   29.5650005         2.12881350E-16
   29.7299995         1.30275600E-16
   29.8950005         8.08429255E-18
   30.0599995        -1.45659161E-16
   30.2250004        -3.16584520E-16
   30.3899994        -4.84530480E-16
   30.5550003        -6.25011318E-16
   30.7199993        -7.11635207E-16
   30.8850002        -7.19384023E-16
   31.0499992        -6.28515017E-16
   31.2150002        -4.28680595E-16
   31.3799992        -1.22705997E-16
   31.5450001         2.70652358E-16
   31.7099991         7.15676666E-16
   31.8750000         1.16101387E-15
   32.0400009         1.54375820E-15
   32.2050018         1.79632098E-15
   32.3699989         1.85563722E-15
   32.5349998         1.67372736E-15
   32.7000008         1.22815553E-15
   32.8650017         5.30612673E-16
   33.0299988        -3.68203952E-16
   33.1949997        -1.37896032E-15
   33.3600006        -2.38021849E-15
   33.5250015        -3.23114334E-15
   33.6899986        -3.78932047E-15
   33.8549995        -3.93159999E-15
   34.0200005        -3.57506984E-15
   34.1850014        -2.69487513E-15
   34.3499985        -1.33573210E-15
   34.5149994         3.85336490E-16
   34.6800003         2.28638735E-15
   34.8450012         4.13796601E-15
   35.0099983         5.68895788E-15
   35.1749992         6.69796512E-15
   35.3400002         6.96635895E-15
   35.5050011         6.36870986E-15
   35.6699982         4.87644068E-15
   35.8349991         2.57121912E-15
   36.0000000        -3.54288736E-16
   36.1650009        -3.60923661E-15
   36.3300018        -6.83036400E-15
   36.4949989        -9.61849703E-15
   36.6599998        -1.15822040E-14
   36.8250008        -1.23839453E-14
   36.9900017        -1.17835039E-14
   37.1549988        -9.67348048E-15
   37.3199997        -6.10231123E-15
   37.4850006        -1.28161072E-15
   37.6500015         4.42356773E-15
   37.8149986         1.05207769E-14
   37.9799995         1.64296948E-14
   38.1450005         2.15305492E-14
   38.3100014         2.52159625E-14
   38.4749985         2.69407757E-14
   38.6399994         2.62656006E-14
   38.8050003         2.28918362E-14
   38.9700012         1.66884803E-14
   39.1349983         7.71326752E-15
   39.2999992        -3.76790621E-15
   39.4650002        -1.72598379E-14
   39.6300011        -3.20142404E-14
   39.7949982        -4.70071979E-14
   39.9599991        -6.09276627E-14
   40.1250000        -7.21929027E-14
   40.2900009        -7.90104269E-14
   40.4550018        -7.95054533E-14
   40.6199989        -7.19262499E-14
   40.7849998        -5.49258244E-14
   40.9500008        -2.78991104E-14
   41.1150017         8.66818366E-15
   41.2799988         5.29037297E-14
   41.4449997         1.01384043E-13
   41.6100006         1.49179660E-13
   41.7750015         1.90171067E-13
   41.9399986         2.17660186E-13
   42.1049995         2.25250184E-13
   42.2700005         2.07906026E-13
   42.4350014         1.63049953E-13
   42.5999985         9.15040545E-14
   42.7649994        -1.92329334E-15
   42.9300003        -1.08388010E-13
   43.0950012        -2.15617902E-13
   43.2599983        -3.09200826E-13
   43.4249992        -3.74459713E-13
   43.5900002        -3.98699086E-13
   43.7550011        -3.73506402E-13
   43.9199982        -2.96731010E-13
   44.0849991        -1.73761030E-13
   44.2500000        -1.77837125E-14
   44.4150009         1.51159833E-13
   44.5800018         3.08337367E-13
   44.7449989         4.27522384E-13
   44.9099998         4.84852284E-13
   45.0750008         4.62829644E-13
   45.2400017         3.53872395E-13
   45.4049988         1.62829534E-13
   45.5699997        -9.20209614E-14
   45.7350006        -3.79794530E-13
   45.9000015        -6.59711326E-13
   46.0649986        -8.85509873E-13
   46.2299995        -1.01113616E-12
   46.3950005        -9.97086528E-13
   46.5600014        -8.16660812E-13
   46.7249985        -4.61346402E-13
   46.8899994         5.54019348E-14
   47.0550003         6.96588891E-13
   47.2200012         1.40272884E-12
   47.3849983         2.09569406E-12
   47.5499992         2.68526629E-12
   47.7150002         3.07801332E-12
   47.8800011         3.18783151E-12
   48.0449982         2.94722775E-12
   48.2099991         2.31820596E-12
   48.3750000         1.30147011E-12
   48.5400009        -5.73728619E-14
   48.7050018        -1.66582991E-12
   48.8699989        -3.38770418E-12
   49.0349998        -5.05194584E-12
   49.2000008        -6.46706950E-12
   49.3650017        -7.44031919E-12
   49.5299988        -7.80000196E-12
   49.6949997        -7.41872449E-12
   49.8600006        -6.23474839E-12
   50.0250015        -4.26847099E-12
   50.1899986        -1.63119236E-12
   50.3549995         1.47607078E-12
   50.5200005         4.77498163E-12
   50.6850014         7.93340480E-12
   50.8499985         1.05984839E-11
   51.0149994         1.24362100E-11
   51.1800003         1.31731718E-11
   51.3450012         1.26353962E-11
   51.5099983         1.07790096E-11
   51.6749992         7.70794019E-12
   51.8400002         3.67517258E-12
   52.0050011        -9.34149568E-13
   52.1699982        -5.63727710E-12
   52.3349991        -9.90322668E-12
   52.5000000        -1.32120365E-11
   52.6650009        -1.51173553E-11
   52.8300018        -1.53049604E-11
   52.9949989        -1.36398427E-11
   53.1599998        -1.01954634E-11
   53.3250008        -5.26064001E-12
   53.4900017         6.78039276E-13
   53.6549988         6.97754398E-12
   53.8199997         1.28999910E-11
   53.9850006         1.76885156E-11
   54.1500015         2.06496990E-11
   54.3149986         2.12338411E-11
   54.4799995         1.91044437E-11
   54.6450005         1.41891828E-11
   54.8100014         6.70643272E-12
   54.9749985        -2.83619807E-12
   55.1399994        -1.36721797E-11
   55.3050003        -2.48332743E-11
   55.4700012        -3.52290766E-11
   55.6349983        -4.37421835E-11
   55.7999992        -4.93306368E-11
   55.9650002        -5.11284591E-11
   56.1300011        -4.85349677E-11
   56.2949982        -4.12843856E-11
   56.4599991        -2.94886754E-11
   56.6250000        -1.36488485E-11
   56.7900009         5.36732638E-12
   56.9550018         2.63800804E-11
   57.1199989         4.79806958E-11
   57.2849998         6.86357290E-11
   57.4500008         8.68030439E-11
   57.6150017         1.01048940E-10
   57.7799988         1.10155482E-10
   57.9449997         1.13208068E-10
   58.1100006         1.09655764E-10
   58.2750015         9.93400015E-11
   58.4399986         8.24910973E-11
   58.6049995         5.96960398E-11
   58.7700005         3.18442911E-11
   58.9350014         6.06888197E-14
   59.0999985        -3.43646604E-11
   59.2649994        -7.00402791E-11
   59.4300003        -1.05524228E-10
   59.5950012        -1.39358886E-10
   59.7599983        -1.70090289E-10
   59.9249992        -1.96276995E-10
   60.0900002        -2.16496363E-10
   60.2550011        -2.29357422E-10
   60.4199982        -2.33529696E-10
   60.5849991        -2.27794492E-10
   60.7500000        -2.11121384E-10
   60.9150009        -1.82767954E-10
   61.0800018        -1.42395637E-10
   61.2449989        -9.01894601E-11
   61.4099998        -2.69675844E-11
   61.5750008         4.57356965E-11
   61.7400017         1.25627994E-10
   61.9049988         2.09669698E-10
   62.0699997         2.94144514E-10
   62.2350006         3.74790921E-10
   62.4000015         4.46990139E-10
   62.5649986         5.06000020E-10
   62.7299995         5.47221934E-10
   62.8950005         5.66481917E-10
   63.0600014         5.60310132E-10
   63.2249985         5.26199528E-10
   63.3899994         4.62828664E-10
   63.5550003         3.70234648E-10
   63.7200012         2.49926330E-10
   63.8849983         1.04929843E-10
   64.0500031        -6.02372874E-11
   64.2149963        -2.39665260E-10
   64.3799973        -4.26221836E-10
   64.5449982        -6.11789785E-10
   64.7099991        -7.87564514E-10
   64.8750000        -9.44401779E-10
   65.0400009        -1.07320630E-09
   65.2050018        -1.16534604E-09
   65.3700027        -1.21307830E-09
   65.5350037        -1.20997257E-09
   65.6999969        -1.15131238E-09
   65.8649979        -1.03446185E-09
   66.0299988        -8.59177285E-10
   66.1949997        -6.27848884E-10
   66.3600006        -3.45655810E-10
   66.5250015        -2.06164235E-11
   66.6900024         3.36479677E-10
   66.8550034         7.12272907E-10
   67.0199966         1.09117826E-09
   67.1849976         1.45587842E-09
   67.3499985         1.78796422E-09
   67.5149994         2.06871165E-09
   67.6800003         2.27997510E-09
   67.8450012         2.40516296E-09
   68.0100021         2.43025178E-09
   68.1750031         2.34478770E-09
   68.3399963         2.14280660E-09
   68.5049973         1.82361337E-09
   68.6699982         1.39235068E-09
   68.8349991         8.60299998E-10
   69.0000000         2.44864157E-10
   69.1650009        -4.30800895E-10
   69.3300018        -1.13851828E-09
   69.4950027        -1.84617943E-09
   69.6600037        -2.51915688E-09
   69.8249969        -3.12198489E-09
   69.9899979        -3.62022923E-09
   70.1549988        -3.98244815E-09
   70.3199997        -4.18213197E-09
   70.4850006        -4.19949631E-09
   70.6500015        -4.02300682E-09
   70.8150024        -3.65051855E-09
   70.9800034        -3.08992143E-09
   71.1449966        -2.35922859E-09
   71.3099976        -1.48605217E-09
   71.4749985        -5.06474807E-10
   71.6399994         5.36644562E-10
   71.8050003         1.59583879E-09
   71.9700012         2.62154942E-09
   72.1350021         3.56482843E-09
   72.3000031         4.38004655E-09
   72.4649963         5.02742115E-09
   72.6299973         5.47518209E-09
   72.7949982         5.70124215E-09
   72.9599991         5.69424019E-09
   73.1250000         5.45391776E-09
   73.2900009         4.99080954E-09
   73.4550018         4.32530411E-09
   73.6200027         3.48617313E-09
   73.7850037         2.50870080E-09
   73.9499969         1.43258139E-09
   74.1149979         2.99749364E-10
   74.2799988        -8.47690473E-10
   74.4449997        -1.96929606E-09
   74.6100006        -3.02777692E-09
   74.7750015        -3.99007538E-09
   74.9400024        -4.82802331E-09
   75.1050034        -5.51860513E-09
   75.2699966        -6.04388584E-09
   75.4349976        -6.39071018E-09
   75.5999985        -6.55027144E-09
   75.7649994        -6.51767307E-09
   75.9300003        -6.29156682E-09
   76.0950012        -5.87395421E-09
   76.2600021        -5.27018162E-09
   76.4250031        -4.48912596E-09
   76.5899963        -3.54354568E-09
   76.7549973        -2.45051934E-09
   76.9199982        -1.23188704E-09
   77.0849991         8.53997428E-11
   77.2500000         1.46912238E-09
   77.4150009         2.88190916E-09
   77.5800018         4.28168656E-09
   77.7450027         5.62250335E-09
   77.9100037         6.85573953E-09
   78.0749969         7.93168198E-09
   78.2399979         8.80142803E-09
   78.4049988         9.41905132E-09
   78.5699997         9.74393988E-09
   78.7350006         9.74319825E-09
   78.9000015         9.39398603E-09
   79.0650024         8.68563355E-09
   79.2300034         7.62139685E-09
   79.3949966         6.21967056E-09
   79.5599976         4.51452431E-09
   79.7249985         2.55543497E-09
   79.8899994         4.06134931E-10
   80.0550003        -1.85743965E-09
   80.2200012        -4.15005319E-09
   80.3850021        -6.38080966E-09
   80.5500031        -8.45733972E-09
   80.7149963        -1.02902940E-08
   80.8799973        -1.17978773E-08
   81.0449982        -1.29101441E-08
   81.2099991        -1.35727927E-08
   81.3750000        -1.37502463E-08
   81.5400009        -1.34278304E-08
   81.7050018        -1.26129498E-08
   81.8700027        -1.13351950E-08
   82.0350037        -9.64535030E-09
   82.1999969        -7.61335350E-09
   82.3649979        -5.32521804E-09
   82.5299988        -2.87903257E-09
   82.6949997        -3.80133008E-10
   82.8600006         2.06439199E-09
   83.0250015         4.35163683E-09
   83.1900024         6.38897735E-09
   83.3550034         8.09996159E-09
   83.5199966         9.42958600E-09
   83.6849976         1.03484972E-08
   83.8499985         1.08556772E-08
   84.0149994         1.09792406E-08
   84.1800003         1.07750671E-08
   84.3450012         1.03231867E-08
   84.5100021         9.72203207E-09
   84.6750031         9.08088005E-09
   84.8399963         8.51101944E-09
   85.0049973         8.11630940E-09
   85.1699982         7.98390865E-09
   85.3349991         8.17593104E-09
   85.5000000         8.72269013E-09
   85.6650009         9.61805657E-09
   85.8300018         1.08172440E-08
   85.9950027         1.22370869E-08
   86.1600037         1.37587044E-08
   86.3249969         1.52322759E-08
   86.4899979         1.64835434E-08
   86.6549988         1.73216588E-08
   86.8199997         1.75480590E-08
   86.9850006         1.69660481E-08
   87.1500015         1.53909756E-08
   87.3150024         1.26608697E-08
   87.4800034         8.64745342E-09
   87.6449966         3.26736749E-09
   87.8099976        -3.50664986E-09
   87.9749985        -1.16351240E-08
   88.1399994        -2.10023856E-08
   88.3050003        -3.14091935E-08
   88.4700012        -4.25684235E-08
   88.6350021        -5.41048379E-08
   88.8000031        -6.55598456E-08
   88.9649963        -7.64019745E-08
   89.1299973        -8.60432365E-08
   89.2949982        -9.38612317E-08
   89.4599991        -9.92262699E-08
   89.6250000        -1.01532152E-07
   89.7900009        -1.00229009E-07
   89.9550018        -9.48560910E-08
   90.1200027        -8.50725073E-08
   90.2850037        -7.06837042E-08
   90.4499969        -5.16620453E-08
   90.6149979        -2.81600130E-08
   90.7799988        -5.15390841E-10
   90.9449997         3.07519770E-08
   91.1100006         6.49513510E-08
   91.2750015         1.01239301E-07
   91.4400024         1.38643813E-07
   91.6050034         1.76092712E-07
   91.7699966         2.12444817E-07
   91.9349976         2.46522518E-07
   92.0999985         2.77144409E-07
   92.2649994         3.03156952E-07
   92.4300003         3.23464576E-07
   92.5950012         3.37057713E-07
   92.7600021         3.43038238E-07
   92.9250031         3.40642515E-07
   93.0899963         3.29261042E-07
   93.2549973         3.08454617E-07
   93.4199982         2.77966109E-07
   93.5849991         2.37726837E-07
   93.7500000         1.87856301E-07
   93.9150009         1.28654648E-07
   94.0800018         6.05867214E-08
   94.2450027        -1.57427209E-08
   94.4100037        -9.96218290E-08
   94.5749969        -1.90271791E-07
   94.7399979        -2.86892231E-07
   94.9049988        -3.88708514E-07
   95.0699997        -4.95018526E-07
   95.2350006        -6.05234106E-07
   95.4000015        -7.18914464E-07
   95.5650024        -8.35787489E-07
   95.7300034        -9.55757855E-07
   95.8949966        -1.07889900E-06
   96.0599976        -1.20543064E-06
   96.2249985        -1.33568244E-06
   96.3899994        -1.47004721E-06
   96.5550003        -1.60892523E-06
   96.7200012        -1.75266655E-06
   96.8850021        -1.90151275E-06
   97.0500031        -2.05554443E-06
   97.2149963        -2.21463688E-06
   97.3799973        -2.37842482E-06
   97.5449982        -2.54628230E-06
   97.7099991        -2.71731324E-06
   97.8750000        -2.89035825E-06
   98.0400009        -3.06401034E-06
   98.2050018        -3.23664813E-06
   98.3700027        -3.40647466E-06
   98.5350037        -3.57156910E-06
   98.6999969        -3.72994600E-06
   98.8649979        -3.87962154E-06
   99.0299988        -4.01868374E-06
   99.1949997        -4.14536680E-06
   99.3600006        -4.25812459E-06
   99.5250015        -4.35570337E-06
   99.6900024        -4.43720091E-06
   99.8550034        -4.50212565E-06
   100.019997        -4.55043255E-06
   100.184998        -4.58254817E-06
   100.349998        -4.59937064E-06
   100.514999        -4.60225147E-06
   100.680000        -4.59295461E-06
   100.845001        -4.57359420E-06
   101.010002        -4.54655492E-06
   101.175003        -4.51440064E-06
   101.339996        -4.47977163E-06
   101.504997        -4.44528041E-06
   101.669998        -4.41340990E-06
   101.834999        -4.38642337E-06
   102.000000        -4.36628170E-06
   102.165001        -4.35458924E-06
   102.330002        -4.35254924E-06
   102.495003        -4.36095024E-06
   102.660004        -4.38016968E-06
   102.824997        -4.41019711E-06
   102.989998        -4.45067781E-06
   103.154999        -4.50096559E-06
   103.320000        -4.56018779E-06
   103.485001        -4.62731487E-06
   103.650002        -4.70122905E-06
   103.815002        -4.78079119E-06
   103.980003        -4.86490308E-06
   104.144997        -4.95256018E-06
   104.309998        -5.04289210E-06
   104.474998        -5.13519853E-06
   104.639999        -5.22896471E-06
   104.805000        -5.32386821E-06
   104.970001        -5.41977306E-06
   105.135002        -5.51670564E-06
   105.300003        -5.61482011E-06
   105.464996        -5.71434975E-06
   105.629997        -5.81554832E-06
   105.794998        -5.91862090E-06
   105.959999        -6.02365299E-06
   106.125000        -6.13053362E-06
   106.290001        -6.23889173E-06
   106.455002        -6.34803519E-06
   106.620003        -6.45691216E-06
   106.785004        -6.56409020E-06
   106.949997        -6.66776350E-06
   107.114998        -6.76578520E-06
   107.279999        -6.85573241E-06
   107.445000        -6.93499078E-06
   107.610001        -7.00087048E-06
   107.775002        -7.05073353E-06
   107.940002        -7.08213202E-06
   108.105003        -7.09295091E-06
   108.269997        -7.08153948E-06
   108.434998        -7.04683362E-06
   108.599998        -6.98844678E-06
   108.764999        -6.90673778E-06
   108.930000        -6.80283711E-06
   109.095001        -6.67864515E-06
   109.260002        -6.53677671E-06
   109.425003        -6.38048050E-06
   109.589996        -6.21351637E-06
   109.754997        -6.04000661E-06
   109.919998        -5.86426040E-06
   110.084999        -5.69059193E-06
   110.250000        -5.52312531E-06
   110.415001        -5.36560947E-06
   110.580002        -5.22124856E-06
   110.745003        -5.09255005E-06
   110.910004        -4.98121062E-06
   111.074997        -4.88803562E-06
   111.239998        -4.81289908E-06
   111.404999        -4.75474462E-06
   111.570000        -4.71163503E-06
   111.735001        -4.68082953E-06
   111.900002        -4.65890207E-06
   112.065002        -4.64188588E-06
   112.230003        -4.62544176E-06
   112.394997        -4.60503452E-06
   112.559998        -4.57612350E-06
   112.724998        -4.53434450E-06
   112.889999        -4.47569164E-06
   113.055000        -4.39667883E-06
   113.220001        -4.29448301E-06
   113.385002        -4.16706280E-06
   113.550003        -4.01324223E-06
   113.714996        -3.83276074E-06
   113.879997        -3.62628543E-06
   114.044998        -3.39538315E-06
   114.209999        -3.14245381E-06
   114.375000        -2.87062244E-06
   114.540001        -2.58360046E-06
   114.705002        -2.28551721E-06
   114.870003        -1.98073030E-06
   115.035004        -1.67362464E-06
   115.199997        -1.36840902E-06
   115.364998        -1.06892242E-06
   115.529999        -7.78458457E-07
   115.695000        -4.99619944E-07
   115.860001        -2.34210830E-07
   116.025002         1.68269203E-08
   116.190002         2.53428738E-07
   116.355003         4.76371810E-07
   116.519997         6.87191118E-07
   116.684998         8.88052284E-07
   116.849998         1.08158702E-06
   117.014999         1.27070143E-06
   117.180000         1.45836918E-06
   117.345001         1.64742028E-06
   117.510002         1.84034104E-06
   117.675003         2.03909258E-06
   117.839996         2.24496307E-06
   118.004997         2.45846013E-06
   118.169998         2.67925066E-06
   118.334999         2.90615162E-06
   118.500000         3.13717533E-06
   118.665001         3.36962535E-06
   118.830002         3.60024023E-06
   118.995003         3.82537746E-06
   119.160004         4.04123193E-06
   119.324997         4.24407153E-06
   119.489998         4.43047884E-06
   119.654999         4.59758849E-06
   119.820000         4.74329454E-06
   119.985001         4.86642193E-06
   120.150002         4.96684288E-06
   120.315002         5.04552827E-06
   120.480003         5.10452901E-06
   120.644997         5.14688145E-06
   120.809998         5.17644185E-06
   120.974998         5.19765899E-06
   121.139999         5.21530001E-06
   121.305000         5.23414337E-06
   121.470001         5.25866517E-06
   121.635002         5.29273439E-06
   121.800003         5.33934690E-06
   121.964996         5.40040492E-06
   122.129997         5.47657055E-06
   122.294998         5.56719215E-06
   122.459999         5.67030884E-06
   122.625000         5.78274148E-06
   122.790001         5.90025138E-06
   122.955002         6.01775992E-06
   123.120003         6.12961912E-06
   123.285004         6.22991138E-06
   123.449997         6.31276453E-06
   123.614998         6.37265703E-06
   123.779999         6.40471399E-06
   123.945000         6.40496091E-06
   124.110001         6.37053745E-06
   124.275002         6.29985561E-06
   124.440002         6.19269758E-06
   124.605003         6.05025161E-06
   124.769997         5.87508066E-06
   124.934998         5.67102734E-06
   125.099998         5.44305840E-06
   125.264999         5.19705054E-06
   125.430000         4.93952621E-06
   125.595001         4.67735254E-06
   125.760002         4.41740531E-06
   125.925003         4.16622470E-06
   126.089996         3.92966740E-06
   126.254997         3.71258511E-06
   126.419998         3.51853669E-06
   126.584999         3.34956462E-06
   126.750000         3.20604818E-06
   126.915001         3.08664653E-06
   127.080002         2.98834675E-06
   127.245003         2.90661364E-06
   127.410004         2.83564236E-06
   127.574997         2.76869878E-06
   127.739998         2.69852512E-06
   127.904999         2.61779041E-06
   128.070007         2.51954975E-06
   128.235001         2.39768542E-06
   128.399994         2.24729297E-06
   128.565002         2.06499112E-06
   128.729996         1.84913063E-06
   128.895004         1.59989042E-06
   129.059998         1.31925844E-06
   129.225006         1.01089734E-06
   129.389999         6.79909192E-07
   129.554993         3.32515583E-07
   129.720001        -2.43271714E-08
   129.884995        -3.83354177E-07
   130.050003        -7.37434959E-07
   130.214996        -1.08001336E-06
   130.380005        -1.40551754E-06
   130.544998        -1.70972442E-06
   130.710007        -1.99005694E-06
   130.875000        -2.24579640E-06
   131.039993        -2.47819639E-06
   131.205002        -2.69048246E-06
   131.369995        -2.88773458E-06
   131.535004        -3.07664095E-06