  -1.95000005         0.00000000    
  -1.78499997         0.00000000    
  -1.62000000         0.00000000    
  -1.45500004         0.00000000    
  -1.28999996         0.00000000    
  -1.12500000         0.00000000    
 -0.959999979         0.00000000    
 -0.795000017         0.00000000    
 -0.629999995         0.00000000    
 -0.465000004         0.00000000    
 -0.300000012         0.00000000    
 -0.135000005         0.00000000    
   2.99999993E-02     0.00000000    
  0.194999993         0.00000000    
  0.360000014         0.00000000    
  0.524999976         0.00000000    
  0.689999998         0.00000000    
  0.855000019         0.00000000    
   1.01999998         0.00000000    
   1.18499994         0.00000000    
   1.35000002         0.00000000    
   1.51499999         0.00000000    
   1.67999995         0.00000000    
   1.84500003         0.00000000    
   2.00999999         0.00000000    
   2.17499995         0.00000000    
   2.33999991         0.00000000    
   2.50500011         0.00000000    
   2.67000008         0.00000000    
   2.83500004         0.00000000    
   3.00000000         0.00000000    
   3.16499996         0.00000000    
   3.32999992         0.00000000    
   3.49499989         0.00000000    
   3.66000009         0.00000000    
   3.82500005         0.00000000    
   3.99000001         0.00000000    
   4.15500021         0.00000000    
   4.32000017         0.00000000    
   4.48500013         0.00000000    
   4.65000010         0.00000000    
   4.81500006         0.00000000    
   4.98000002         0.00000000    
   5.14499998         0.00000000    
   5.30999994         0.00000000    
   5.47499990         0.00000000    
   5.63999987         0.00000000    
   5.80499983         0.00000000    
   5.96999979         0.00000000    
   6.13500023         0.00000000    
   6.30000019         0.00000000    
   6.46500015         0.00000000    
   6.63000011        -6.96263327E-35
   6.79500008         1.51555431E-34
   6.96000004         2.38875697E-33
   7.12500000         4.43110200E-33
   7.28999996         6.95671516E-33
   7.45499992         6.92195506E-33
   7.61999989        -1.80648925E-33
   7.78499985         1.33470595E-32
   7.94999981         3.37469764E-32
   8.11499977         7.33667931E-32
   8.27999973        -2.00177778E-31
   8.44499969        -5.87355830E-31
   8.60999966        -1.05316319E-30
   8.77499962        -1.27715872E-30
   8.93999958        -1.41261375E-30
   9.10499954        -1.07173544E-30
   9.27000046         6.87343708E-31
   9.43500042         5.20803054E-30
   9.60000038         1.29795084E-29
   9.76500034         2.55208197E-29
   9.93000031         3.87662915E-29
   10.0950003         5.85737768E-29
   10.2600002         8.35598109E-29
   10.4250002         1.21724695E-28
   10.5900002         1.67044378E-28
   10.7550001         1.92969129E-28
   10.9200001         1.51728143E-28
   11.0850000        -2.99374916E-29
   11.2500000        -4.34560718E-28
   11.4150000        -1.11426747E-27
   11.5799999        -2.03188382E-27
   11.7449999        -2.92780987E-27
   11.9099998        -3.27498725E-27
   12.0749998        -2.28046765E-27
   12.2399998         9.70088602E-28
   12.4049997         7.11880253E-27
   12.5699997         1.59387867E-26
   12.7349997         2.56256904E-26
   12.8999996         3.22590893E-26
   13.0649996         2.98683261E-26
   13.2299995         1.15426328E-26
   13.3950005        -2.80628947E-26
   13.5600004        -8.89448498E-26
   13.7250004        -1.61479729E-25
   13.8900003        -2.23287646E-25
   14.0550003        -2.39525781E-25
   14.2200003        -1.68952004E-25
   14.3850002         2.28885603E-26
   14.5500002         3.44314243E-25
   14.7150002         7.56348496E-25
   14.8800001         1.15772083E-24
   15.0450001         1.38627720E-24
   15.2100000         1.24615085E-24
   15.3750000         5.64476668E-25
   15.5400000        -7.28932128E-25
   15.7049999        -2.51876700E-24
   15.8699999        -4.44970049E-24
   16.0349998        -5.93577205E-24
   16.2000008        -6.26035715E-24
   16.3649998        -4.76897419E-24
   16.5300007        -1.12075973E-24
   16.6949997         4.47358799E-24
   16.8600006         1.11231849E-23
   17.0249996         1.73262112E-23
   17.1900005         2.12775792E-23
   17.3549995         2.13711333E-23
   17.5200005         1.67543959E-23
   17.6849995         7.72033792E-24
   17.8500004        -4.28462464E-24
   18.0149994        -1.71636538E-23
   18.1800003        -2.91189512E-23
   18.3449993        -3.97385210E-23
   18.5100002        -5.07019142E-23
   18.6749992        -6.55218465E-23
   18.8400002        -8.79099903E-23
   19.0049992        -1.18790575E-22
   19.1700001        -1.52612374E-22
   19.3349991        -1.74249516E-22
   19.5000000        -1.58183260E-22
   19.6650009        -7.15741009E-23
   19.8299999         1.17877844E-22
   19.9950008         4.29681049E-22
   20.1599998         8.55916354E-22
   20.3250008         1.34770279E-21
   20.4899998         1.80710307E-21
   20.6550007         2.08865710E-21
   20.8199997         2.01348484E-21
   20.9850006         1.39681129E-21
   21.1499996         8.73308591E-23
   21.3150005        -1.98537201E-21
   21.4799995        -4.76076935E-21
   21.6450005        -8.00131968E-21
   21.8099995        -1.12581931E-20
   21.9750004        -1.38585016E-20
   22.1399994        -1.49263724E-20
   22.3050003        -1.34530094E-20
   22.4699993        -8.43138978E-21
   22.6350002         9.33309642E-22
   22.7999992         1.49395863E-20
   22.9650002         3.30566447E-20
   23.1299992         5.35985443E-20
   23.2950001         7.34940798E-20
   23.4599991         8.82651280E-20
   23.6250000         9.23286657E-20
   23.7900009         7.97076731E-20
   23.9549999         4.51681715E-20
   24.1200008        -1.43012064E-20
   24.2849998        -9.78690568E-20
   24.4500008        -1.99411377E-19
   24.6149998        -3.06613623E-19
   24.7800007        -4.01010595E-19
   24.9449997        -4.59274044E-19
   25.1100006        -4.55900233E-19
   25.2749996        -3.67229470E-19
   25.4400005        -1.76479591E-19
   25.6049995         1.20776745E-19
   25.7700005         5.11471519E-19
   25.9349995         9.61177565E-19
   26.1000004         1.41254149E-18
   26.2649994         1.78702052E-18
   26.4300003         1.99079833E-18
   26.5949993         1.92545168E-18
   26.7600002         1.50340366E-18
   26.9249992         6.67398631E-19
   27.0900002        -5.87861390E-19
   27.2549992        -2.19505672E-18
   27.4200001        -3.99896290E-18
   27.5849991        -5.75183182E-18
   27.7500000        -7.12484162E-18
   27.9150009        -7.73986530E-18
   28.0799999        -7.22317603E-18
   28.2450008        -5.27844670E-18
   28.4099998        -1.77105346E-18
   28.5750008         3.18991284E-18
   28.7399998         9.19016438E-18
   28.9050007         1.54894020E-17
   29.0699997         2.10593186E-17
   29.2350006         2.46914736E-17
   29.3999996         2.51741633E-17
   29.5650005         2.15218863E-17
   29.7299995         1.32244797E-17
   29.8950005         4.69452346E-19
   30.0599995        -1.57154738E-17
   30.2250004        -3.34486131E-17
   30.3899994        -5.01417035E-17
   30.5550003        -6.28128466E-17
   30.7199993        -6.85341174E-17
   30.8850002        -6.49478328E-17
   31.0499992        -5.07594089E-17
   31.2150002        -2.61062800E-17
   31.3799992         7.28261723E-18
   31.5450001         4.61844218E-17
   31.7099991         8.62294363E-17
   31.8750000         1.22432299E-16
   32.0400009         1.49796215E-16
   32.2050018         1.63863553E-16
   32.3699989         1.61109266E-16
   32.5349998         1.39134201E-16
   32.7000008         9.67002062E-17
   32.8650017         3.37306949E-17
   33.0299988        -4.85536061E-17
   33.1949997        -1.47211613E-16
   33.3600006        -2.56816102E-16
   33.5250015        -3.68457717E-16
   33.6899986        -4.68832789E-16
   33.8549995        -5.39904306E-16
   34.0200005        -5.59703807E-16
   34.1850014        -5.04755192E-16
   34.3499985        -3.54322511E-16
   34.5149994        -9.62163386E-17
   34.6800003         2.66674903E-16
   34.8450012         7.10514477E-16
   35.0099983         1.18705887E-15
   35.1749992         1.62438155E-15
   35.3400002         1.93311977E-15
   35.5050011         2.01866628E-15
   35.6699982         1.79843645E-15
   35.8349991         1.22188431E-15
   36.0000000         2.89642175E-16
   36.1650009        -9.32626368E-16
   36.3300018        -2.31002444E-15
   36.4949989        -3.64715955E-15
   36.6599998        -4.71104606E-15
   36.8250008        -5.26655779E-15
   36.9900017        -5.11976529E-15
   37.1549988        -4.16179051E-15
   37.3199997        -2.40428121E-15
   37.4850006         2.31080390E-18
   37.6500015         2.77435075E-15
   37.8149986         5.52729613E-15
   37.9799995         7.83212911E-15
   38.1450005         9.28787805E-15
   38.3100014         9.59748723E-15
   38.4749985         8.63176633E-15
   38.6399994         6.46662052E-15
   38.8050003         3.38270824E-15
   38.9700012        -1.76442429E-16
   39.1349983        -3.68304156E-15
   39.2999992        -6.62671102E-15
   39.4650002        -8.61874489E-15
   39.6300011        -9.47548822E-15
   39.7949982        -9.25955666E-15
   39.9599991        -8.26504087E-15
   40.1250000        -6.94456691E-15
   40.2900009        -5.78976920E-15
   40.4550018        -5.18946509E-15
   40.6199989        -5.29836727E-15
   40.7849998        -5.95099302E-15
   40.9500008        -6.64920186E-15
   41.1150017        -6.63797444E-15
   41.2799988        -5.06496861E-15
   41.4449997        -1.19881018E-15
   41.6100006         5.33628427E-15
   41.7750015         1.43618604E-14
   41.9399986         2.50340689E-14
   42.1049995         3.58592177E-14
   42.2700005         4.48529153E-14
   42.4350014         4.98313142E-14
   42.5999985         4.87942681E-14
   42.7649994         4.03370879E-14
   42.9300003         2.40156016E-14
   43.0950012         5.91076055E-16
   43.2599983        -2.79019395E-14
   43.4249992        -5.82937764E-14
   43.5900002        -8.66182736E-14
   43.7550011        -1.08611559E-13
   43.9199982        -1.20302788E-13
   44.0849991        -1.18611853E-13
   44.2500000        -1.01866534E-13
   44.4150009        -7.01628493E-14
   44.5800018        -2.55147500E-14
   44.7449989         2.82317809E-14
   44.9099998         8.57145979E-14
   45.0750008         1.40568031E-13
   45.2400017         1.86077892E-13
   45.4049988         2.15911260E-13
   45.5699997         2.24847322E-13
   45.7350006         2.09437583E-13
   45.9000015         1.68528874E-13
   46.0649986         1.03594603E-13
   46.2299995         1.88318735E-14
   46.3950005        -7.90005878E-14
   46.5600014        -1.81009274E-13
   46.7249985        -2.76841321E-13
   46.8899994        -3.55569090E-13
   47.0550003        -4.06720691E-13
   47.2200012        -4.21373656E-13
   47.3849983        -3.93213755E-13
   47.5499992        -3.19455047E-13
   47.7150002        -2.01519506E-13
   47.8800011        -4.53896937E-14
   48.0449982         1.38429578E-13
   48.2099991         3.35374388E-13
   48.3750000         5.27708628E-13
   48.5400009         6.95798074E-13
   48.7050018         8.19699939E-13
   48.8699989         8.80968692E-13
   49.0349998         8.64549047E-13
   49.2000008         7.60612873E-13
   49.3650017         5.66180349E-13
   49.5299988         2.86361565E-13
   49.6949997        -6.49431003E-14
   49.8600006        -4.65030304E-13
   50.0250015        -8.83186428E-13
   50.1899986        -1.28235313E-12
   50.3549995        -1.62167176E-12
   50.5200005        -1.85981959E-12
   50.6850014        -1.95895709E-12
   50.8499985        -1.88899352E-12
   51.0149994        -1.63178585E-12
   51.1800003        -1.18480714E-12
   51.3450012        -5.63790551E-13
   51.5099983         1.96124096E-13
   51.6749992         1.04112921E-12
   51.8400002         1.90160734E-12
   52.0050011         2.69713050E-12
   52.1699982         3.34337419E-12
   52.3349991         3.76044421E-12
   52.5000000         3.88187095E-12
   52.6650009         3.66332312E-12
   52.8300018         3.08998920E-12
   52.9949989         2.18157111E-12
   53.1599998         9.93991673E-13
   53.3250008        -3.82823249E-13
   53.4900017        -1.83130052E-12
   53.6549988        -3.21645401E-12
   53.8199997        -4.39920322E-12
   53.9850006        -5.25148414E-12
   54.1500015        -5.67148325E-12
   54.3149986        -5.59710785E-12
   54.4799995        -5.01583670E-12
   54.6450005        -3.96939252E-12
   54.8100014        -2.55219088E-12
   54.9749985        -9.03286940E-13
   55.1399994         8.07628595E-13
   55.3050003         2.39878863E-12
   55.4700012         3.69736273E-12
   55.6349983         4.56037812E-12
   55.7999992         4.89288341E-12
   55.9650002         4.66095261E-12
   56.1300011         3.89774107E-12
   56.2949982         2.70165921E-12
   56.4599991         1.22675004E-12
   56.6250000        -3.33658150E-13
   56.7900009        -1.76811083E-12
   56.9550018        -2.87054495E-12
   57.1199989        -3.46349316E-12
   57.2849998        -3.41845432E-12
   57.4500008        -2.67136942E-12
   57.6150017        -1.23181966E-12
   57.7799988         8.14677102E-13
   57.9449997         3.31113869E-12
   58.1100006         6.03960371E-12
   58.2750015         8.73644126E-12
   58.4399986         1.11110860E-11
   58.6049995         1.28667970E-11
   58.7700005         1.37221580E-11
   58.9350014         1.34323273E-11
   59.0999985         1.18092558E-11
   59.2649994         8.74033224E-12
   59.4300003         4.20494412E-12
   59.5950012        -1.71155928E-12
   59.7599983        -8.80734027E-12
   59.9249992        -1.67581019E-11
   60.0900002        -2.51172711E-11
   60.2550011        -3.33241663E-11
   60.4199982        -4.07222034E-11
   60.5849991        -4.65888196E-11
   60.7500000        -5.01780978E-11
   60.9150009        -5.07758037E-11
   61.0800018        -4.77647540E-11
   61.2449989        -4.06964462E-11
   61.4099998        -2.93627449E-11
   61.5750008        -1.38598187E-11
   61.7400017         5.36440380E-12
   61.9049988         2.74878505E-11
   62.0699997         5.13240596E-11
   62.2350006         7.53684129E-11
   62.4000015         9.78812864E-11
   62.5649986         1.17004184E-10
   62.7299995         1.30900457E-10
   62.8950005         1.37908546E-10
   63.0600014         1.36693101E-10
   63.2249985         1.26379282E-10
   63.3899994         1.06656010E-10
   63.5550003         7.78381595E-11
   63.7200012         4.08815794E-11
   63.8849983        -2.64996553E-12
   64.0500031        -5.06615132E-11
   64.2149963        -1.00639205E-10
   64.3799973        -1.49787585E-10
   64.5449982        -1.95180538E-10
   64.7099991        -2.33915776E-10
   64.8750000        -2.63265382E-10
   65.0400009        -2.80816953E-10
   65.2050018        -2.84603702E-10
   65.3700027        -2.73221945E-10
   65.5350037        -2.45936049E-10
   65.6999969        -2.02768261E-10
   65.8649979        -1.44569190E-10
   66.0299988        -7.30614597E-11
   66.1949997         9.15321551E-12
   66.3600006         9.86338650E-11
   66.5250015         1.91196156E-10
   66.6900024         2.82070256E-10
   66.8550034         3.66120023E-10
   67.0199966         4.38115849E-10
   67.1849976         4.93046937E-10
   67.3499985         5.26450827E-10
   67.5149994         5.34735423E-10
   67.6800003         5.15466114E-10
   67.8450012         4.67593464E-10
   68.0100021         3.91602750E-10
   68.1750031         2.89571395E-10
   68.3399963         1.65132380E-10
   68.5049973         2.33460109E-11
   68.6699982        -1.29508515E-10
   68.8349991        -2.86208307E-10
   69.0000000        -4.38912406E-10
   69.1650009        -5.79523596E-10
   69.3300018        -7.00073333E-10
   69.4950027        -7.93120014E-10
   69.6600037        -8.52149629E-10
   69.8249969        -8.71969774E-10
   69.9899979        -8.49081694E-10
   70.1549988        -7.82010845E-10
   70.3199997        -6.71569744E-10
   70.4850006        -5.21023114E-10
   70.6500015        -3.36121686E-10
   70.8150024        -1.24976432E-10
   70.9800034         1.02247190E-10
   71.1449966         3.33819639E-10
   71.3099976         5.57106694E-10
   71.4749985         7.59361907E-10
   71.6399994         9.28592592E-10
   71.8050003         1.05442810E-09
   71.9700012         1.12890719E-09
   72.1350021         1.14710552E-09
   72.3000031         1.10753740E-09
   72.4649963         1.01228548E-09
   72.6299973         8.66843652E-10
   72.7949982         6.79687029E-10
   72.9599991         4.61612942E-10
   73.1250000         2.24922012E-10
   73.2900009        -1.74788465E-11
   73.4550018        -2.52964871E-10
   73.6200027        -4.69992323E-10
   73.7850037        -6.58744559E-10
   73.9499969        -8.11582190E-10
   74.1149979        -9.23280119E-10
   74.2799988        -9.91058902E-10
   74.4449997        -1.01444020E-09
   74.6100006        -9.94968330E-10
   74.7750015        -9.35853728E-10
   74.9400024        -8.41588021E-10
   75.1050034        -7.17580939E-10
   75.2699966        -5.69853220E-10
   75.4349976        -4.04805633E-10
   75.5999985        -2.29065281E-10
   75.7649994        -4.93942665E-11
   75.9300003         1.27371017E-10
   76.0950012         2.94386737E-10
   76.2600021         4.44917769E-10
   76.4250031         5.72535019E-10
   76.5899963         6.71412703E-10
   76.7549973         7.36719685E-10
   76.9199982         7.65073283E-10
   77.0849991         7.54996787E-10
   77.2500000         7.07301995E-10
   77.4150009         6.25309582E-10
   77.5800018         5.14825516E-10
   77.7450027         3.83817894E-10
   77.9100037         2.41775183E-10
   78.0749969         9.87820034E-11
   78.2399979        -3.56027395E-11
   78.4049988        -1.53522764E-10
   78.5699997        -2.49891913E-10
   78.7350006        -3.23169436E-10
   78.9000015        -3.75686454E-10
   79.0650024        -4.13415191E-10
   79.2300034        -4.45147474E-10
   79.3949966        -4.81135687E-10
   79.5599976        -5.31341360E-10
   79.7249985        -6.03510908E-10
   79.8899994        -7.01345648E-10
   80.0550003        -8.23048074E-10
   80.2200012        -9.60487911E-10
   80.3850021        -1.09916942E-09
   80.5500031        -1.21907251E-09
   80.7149963        -1.29632638E-09
   80.8799973        -1.30555800E-09
   81.0449982        -1.22265509E-09
   81.2099991        -1.02762221E-09
   81.3750000        -7.07185088E-10
   81.5400009        -2.56831667E-10
   81.7050018         3.17960408E-10
   81.8700027         1.00144526E-09
   82.0350037         1.76830062E-09
   82.1999969         2.58518429E-09
   82.3649979         3.41294815E-09
   82.5299988         4.20923207E-09
   82.6949997         4.93112973E-09
   82.8600006         5.53763524E-09
   83.0250015         5.99163785E-09
   83.1900024         6.26132213E-09
   83.3550034         6.32093045E-09
   83.5199966         6.15095752E-09
   83.6849976         5.73793324E-09
   83.8499985         5.07400078E-09
   84.0149994         4.15652623E-09
   84.1800003         2.98795011E-09
   84.3450012         1.57601421E-09
   84.5100021        -6.55745319E-11
   84.6750031        -1.91610017E-09
   84.8399963        -3.94656929E-09
   85.0049973        -6.11846040E-09
   85.1699982        -8.38276026E-09
   85.3349991        -1.06795941E-08
   85.5000000        -1.29386670E-08
   85.6650009        -1.50806763E-08
   85.8300018        -1.70197261E-08
   85.9950027        -1.86666398E-08
   86.1600037        -1.99329477E-08
   86.3249969        -2.07352180E-08
   86.4899979        -2.09993782E-08
   86.6549988        -2.06646025E-08
   86.8199997        -1.96865031E-08
   86.9850006        -1.80393336E-08
   87.1500015        -1.57171431E-08
   87.3150024        -1.27339481E-08
   87.4800034        -9.12306497E-09
   87.6449966        -4.93589969E-09
   87.8099976        -2.40521575E-10
   87.9749985         4.87971974E-09
   88.1399994         1.03272884E-08
   88.3050003         1.59912155E-08
   88.4700012         2.17476170E-08
   88.6350021         2.74601941E-08
   88.8000031         3.29811591E-08
   88.9649963         3.81529333E-08
   89.1299973         4.28111129E-08
   89.2949982         4.67888697E-08
   89.4599991         4.99230310E-08
   89.6250000         5.20614449E-08
   89.7900009         5.30713251E-08
   89.9550018         5.28477848E-08
   90.1200027         5.13217273E-08
   90.2850037         4.84660774E-08
   90.4499969         4.42995685E-08
   90.6149979         3.88874746E-08
   90.7799988         3.23388392E-08
   90.9449997         2.48004710E-08
   91.1100006         1.64480536E-08
   91.2750015         7.47530304E-09
   91.4400024        -1.91768290E-09
   91.6050034        -1.15356844E-08
   91.7699966        -2.11979945E-08
   91.9349976        -3.07454648E-08
   92.0999985        -4.00443021E-08
   92.2649994        -4.89863581E-08
   92.4300003        -5.74861900E-08
   92.5950012        -6.54754047E-08
   92.7600021        -7.28952827E-08
   92.9250031        -7.96886397E-08
   93.0899963        -8.57920668E-08
   93.2549973        -9.11293512E-08
   93.4199982        -9.56066941E-08
   93.5849991        -9.91100819E-08
   93.7500000        -1.01504526E-07
   93.9150009        -1.02634736E-07
   94.0800018        -1.02326858E-07
   94.2450027        -1.00390061E-07
   94.4100037        -9.66178604E-08
   94.5749969        -9.07882836E-08
   94.7399979        -8.26629218E-08
   94.9049988        -7.19851556E-08
   95.0699997        -5.84779976E-08
   95.2350006        -4.18424300E-08
   95.4000015        -2.17572094E-08
   95.5650024         2.11898388E-09
   95.7300034         3.01421998E-08
   95.8949966         6.26743670E-08
   96.0599976         1.00071247E-07
   96.2249985         1.42667403E-07
   96.3899994         1.90759906E-07
   96.5550003         2.44591462E-07
   96.7200012         3.04335373E-07
   96.8850021         3.70083626E-07
   97.0500031         4.41838893E-07
   97.2149963         5.19512184E-07
   97.3799973         6.02925923E-07
   97.5449982         6.91821185E-07
   97.7099991         7.85869247E-07
   97.8750000         8.84685164E-07
   98.0400009         9.87841418E-07
   98.2050018         1.09488099E-06
   98.3700027         1.20532661E-06
   98.5350037         1.31868762E-06
   98.6999969         1.43446357E-06
   98.8649979         1.55214343E-06
   99.0299988         1.67120481E-06
   99.1949997         1.79111191E-06
   99.3600006         1.91131562E-06
   99.5250015         2.03125660E-06
   99.6900024         2.15037130E-06
   99.8550034         2.26810357E-06
   100.019997         2.38391908E-06
   100.184998         2.49732125E-06
   100.349998         2.60786942E-06
   100.514999         2.71519457E-06
   100.680000         2.81901089E-06
   100.845001         2.91912374E-06
   101.010002         3.01542877E-06
   101.175003         3.10790597E-06
   101.339996         3.19660489E-06
   101.504997         3.28162764E-06
   101.669998         3.36310563E-06
   101.834999         3.44117825E-06
   102.000000         3.51597305E-06
   102.165001         3.58758962E-06
   102.330002         3.65609367E-06
   102.495003         3.72151635E-06
   102.660004         3.78386449E-06
   102.824997         3.84313807E-06
   102.989998         3.89935440E-06
   103.154999         3.95257757E-06
   103.320000         4.00294584E-06
   103.485001         4.05069795E-06
   103.650002         4.09619361E-06
   103.815002         4.13992484E-06
   103.980003         4.18251557E-06
   104.144997         4.22471248E-06
   104.309998         4.26736051E-06
   104.474998         4.31137460E-06
   104.639999         4.35770153E-06
   104.805000         4.40727763E-06
   104.970001         4.46098693E-06
   105.135002         4.51962251E-06
   105.300003         4.58384920E-06
   105.464996         4.65417816E-06
   105.629997         4.73094269E-06
   105.794998         4.81428515E-06
   105.959999         4.90415096E-06
   106.125000         5.00028227E-06
   106.290001         5.10222480E-06
   106.455002         5.20933281E-06
   106.620003         5.32078047E-06
   106.785004         5.43557508E-06
   106.949997         5.55257748E-06
   107.114998         5.67052393E-06
   107.279999         5.78805430E-06
   107.445000         5.90374702E-06
   107.610001         6.01615693E-06
   107.775002         6.12385929E-06
   107.940002         6.22549669E-06
   108.105003         6.31982630E-06
   108.269997         6.40576354E-06
   108.434998         6.48242712E-06
   108.599998         6.54916812E-06
   108.764999         6.60559817E-06
   108.930000         6.65160087E-06
   109.095001         6.68733082E-06
   109.260002         6.71320095E-06
   109.425003         6.72985698E-06
   109.589996         6.73813520E-06
   109.754997         6.73901877E-06
   109.919998         6.73357863E-06
   110.084999         6.72291526E-06
   110.250000         6.70809959E-06
   110.415001         6.69011524E-06
   110.580002         6.66981123E-06
   110.745003         6.64786194E-06
   110.910004         6.62474076E-06
   111.074997         6.60070828E-06
   111.239998         6.57581495E-06
   111.404999         6.54991345E-06
   111.570000         6.52269046E-06
   111.735001         6.49369849E-06
   111.900002         6.46240233E-06
   112.065002         6.42822306E-06
   112.230003         6.39058226E-06
   112.394997         6.34894377E-06
   112.559998         6.30284694E-06
   112.724998         6.25193798E-06
   112.889999         6.19598586E-06
   113.055000         6.13489783E-06
   113.220001         6.06872254E-06
   113.385002         5.99765008E-06
   113.550003         5.92200740E-06
   113.714996         5.84224927E-06
   113.879997         5.75894501E-06
   114.044998         5.67276584E-06
   114.209999         5.58446300E-06
   114.375000         5.49485003E-06
   114.540001         5.40477458E-06
   114.705002         5.31508476E-06
   114.870003         5.22659593E-06
   115.035004         5.14004614E-06
   115.199997         5.05605203E-06
   115.364998         4.97506244E-06
   115.529999         4.89731156E-06
   115.695000         4.82278119E-06
   115.860001         4.75116758E-06
   116.025002         4.68185908E-06
   116.190002         4.61393347E-06
   116.355003         4.54616202E-06
   116.519997         4.47703405E-06
   116.684998         4.40479562E-06
   116.849998         4.32749857E-06
   117.014999         4.24305972E-06
   117.180000         4.14932947E-06
   117.345001         4.04416096E-06
   117.510002         3.92548645E-06
   117.675003         3.79139215E-06
   117.839996         3.64019161E-06
   118.004997         3.47050491E-06
   118.169998         3.28132819E-06
   118.334999         3.07210780E-06
   118.500000         2.84280577E-06
   118.665001         2.59395824E-06
   118.830002         2.32672141E-06
   118.995003         2.04289790E-06
   119.160004         1.74493789E-06
   119.324997         1.43591149E-06
   119.489998         1.11944405E-06
   119.654999         7.99617567E-07
   119.820000         4.80834558E-07
   119.985001         1.67655116E-07
   120.150002        -1.35390835E-07
   120.315002        -4.23998841E-07
   120.480003        -6.94283585E-07
   120.644997        -9.42956262E-07
   120.809998        -1.16747140E-06
   120.974998        -1.36613630E-06
   121.139999        -1.53817484E-06
   121.305000        -1.68374311E-06
   121.470001        -1.80390043E-06
   121.635002        -1.90054038E-06
   121.800003        -1.97629083E-06
   121.964996        -2.03439095E-06
   122.129997        -2.07855396E-06
   122.294998        -2.11282531E-06
   122.459999        -2.14143915E-06
   122.625000        -2.16867602E-06
   122.790001        -2.19872595E-06
   122.955002        -2.23555162E-06
   123.120003        -2.28275530E-06
   123.285004        -2.34344884E-06
   123.449997        -2.42012788E-06
   123.614998        -2.51455867E-06
   123.779999        -2.62768299E-06
   123.945000        -2.75955040E-06
   124.110001        -2.90928756E-06
   124.275002        -3.07511323E-06
   124.440002        -3.25440419E-06
   124.605003        -3.44381010E-06
   124.769997        -3.63941990E-06
   124.934998        -3.83696079E-06
   125.099998        -4.03202648E-06
   125.264999        -4.22030689E-06
   125.430000        -4.39780888E-06
   125.595001        -4.56104272E-06
   125.760002        -4.70716850E-06
   125.925003        -4.83407985E-06
   126.089996        -4.94043206E-06
   126.254997        -5.02561534E-06
   126.419998        -5.08967196E-06
   126.584999        -5.13318537E-06
   126.750000        -5.15714692E-06
   126.915001        -5.16282034E-06
   127.080002        -5.15162037E-06
   127.245003        -5.12501265E-06
   127.410004        -5.08444782E-06
   127.574997        -5.03131969E-06
   127.739998        -4.96695975E-06
   127.904999        -4.89263766E-06
   128.070007        -4.80958306E-06
   128.235001        -4.71899375E-06
   128.399994        -4.62204389E-06
   128.565002        -4.51987216E-06
   128.729996        -4.41355814E-06
   128.895004        -4.30408954E-06
   129.059998        -4.19232447E-06
   129.225006        -4.07896641E-06
   129.389999        -3.96454607E-06
   129.554993        -3.84943178E-06
   129.720001        -3.73385888E-06
   129.884995        -3.61798152E-06
   130.050003        -3.50193727E-06
   130.214996        -3.38591349E-06
   130.380005        -3.27020530E-06
   130.544998        -3.15525131E-06
   130.710007        -3.04163518E-06
   130.875000        -2.93005814E-06
   131.039993        -2.82127121E-06
   131.205002        -2.71598628E-06
   131.369995        -2.61476976E-06
   131.535004        -2.51794040E-06