  -1.95000005         0.00000000    
  -1.78499997         0.00000000    
  -1.62000000         0.00000000    
  -1.45500004         0.00000000    
  -1.28999996         0.00000000    
  -1.12500000         0.00000000    
 -0.959999979         0.00000000    
 -0.795000017         0.00000000    
 -0.629999995         0.00000000    
 -0.465000004         0.00000000    
 -0.300000012         0.00000000    
 -0.135000005         0.00000000    
   2.99999993E-02     0.00000000    
  0.194999993         0.00000000    
  0.360000014         0.00000000    
  0.524999976         0.00000000    
  0.689999998         0.00000000    
  0.855000019         0.00000000    
   1.01999998         0.00000000    
   1.18499994         0.00000000    
   1.35000002         0.00000000    
   1.51499999         0.00000000    
   1.67999995         0.00000000    
   1.84500003         0.00000000    
   2.00999999         0.00000000    
   2.17499995         0.00000000    
   2.33999991         0.00000000    
   2.50500011         0.00000000    
   2.67000008         0.00000000    
   2.83500004         0.00000000    
   3.00000000         0.00000000    
   3.16499996         0.00000000    
   3.32999992         0.00000000    
   3.49499989         0.00000000    
   3.66000009         0.00000000    
   3.82500005         0.00000000    
   3.99000001         0.00000000    
   4.15500021         0.00000000    
   4.32000017         0.00000000    
   4.48500013         0.00000000    
   4.65000010         0.00000000    
   4.81500006         0.00000000    
   4.98000002         0.00000000    
   5.14499998         0.00000000    
   5.30999994         0.00000000    
   5.47499990         0.00000000    
   5.63999987         0.00000000    
   5.80499983         0.00000000    
   5.96999979         0.00000000    
   6.13500023         0.00000000    
   6.30000019         0.00000000    
   6.46500015         0.00000000    
   6.63000011         2.42703354E-34
   6.79500008         7.21071377E-34
   6.96000004         1.97505018E-33
   7.12500000         2.79219489E-33
   7.28999996         4.13315300E-36
   7.45499992        -8.53528285E-33
   7.61999989         1.19344297E-32
   7.78499985         2.58750345E-32
   7.94999981         5.64969680E-32
   8.11499977         5.35412698E-32
   8.27999973        -7.23653894E-32
   8.44499969        -1.83664727E-31
   8.60999966        -3.31966752E-31
   8.77499962        -4.34982140E-31
   8.93999958        -1.22024504E-30
   9.10499954        -2.32691288E-30
   9.27000046        -3.42636253E-30
   9.43500042        -3.96542543E-30
   9.60000038        -4.62944884E-30
   9.76500034        -6.26212999E-30
   9.93000031        -3.03025028E-30
   10.0950003         6.26270627E-30
   10.2600002         3.07914159E-29
   10.4250002         5.13318590E-29
   10.5900002         2.50672090E-29
   10.7550001        -1.01431568E-28
   10.9200001        -3.67459561E-28
   11.0850000        -7.59132251E-28
   11.2500000        -1.16019994E-27
   11.4150000        -1.32392267E-27
   11.5799999        -9.03085692E-28
   11.7449999         4.56223482E-28
   11.9099998         2.95822608E-27
   12.0749998         6.41640201E-27
   12.2399998         1.00533874E-26
   12.4049997         1.23856139E-26
   12.5699997         1.13833191E-26
   12.7349997         4.98463988E-27
   12.8999996        -8.03972368E-27
   13.0649996        -2.69742851E-26
   13.2299995        -4.81910166E-26
   13.3950005        -6.48163372E-26
   13.5600004        -6.76041470E-26
   13.7250004        -4.73573293E-26
   13.8900003         1.25145454E-27
   14.0550003         7.53696629E-26
   14.2200003         1.60787047E-25
   14.3850002         2.31886378E-25
   14.5500002         2.56302067E-25
   14.7150002         2.04477332E-25
   14.8800001         6.21379819E-26
   15.0450001        -1.58523189E-25
   15.2100000        -4.14289779E-25
   15.3750000        -6.37262251E-25
   15.5400000        -7.52639765E-25
   15.7049999        -7.02924075E-25
   15.8699999        -4.68451589E-25
   16.0349998        -7.26664215E-26
   16.2000008         4.34693765E-25
   16.3649998         1.01209562E-24
   16.5300007         1.65974895E-24
   16.6949997         2.42343198E-24
   16.8600006         3.34224115E-24
   17.0249996         4.33450747E-24
   17.1900005         5.05287695E-24
   17.3549995         4.78050892E-24
   17.5200005         2.46500219E-24
   17.6849995        -3.02685929E-24
   17.8500004        -1.24141542E-23
   18.0149994        -2.53530649E-23
   18.1800003        -3.98356582E-23
   18.3449993        -5.19111686E-23
   18.5100002        -5.59867206E-23
   18.6749992        -4.58310263E-23
   18.8400002        -1.61785653E-23
   19.0049992         3.54121775E-23
   19.1700001         1.06949420E-22
   19.3349991         1.91126962E-22
   19.5000000         2.75418883E-22
   19.6650009         3.43030927E-22
   19.8299999         3.74260706E-22
   19.9950008         3.47735188E-22
   20.1599998         2.41310304E-22
   20.3250008         3.31122661E-23
   20.4899998        -2.95976320E-22
   20.6550007        -7.56575870E-22
   20.8199997        -1.34033339E-21
   20.9850006        -2.00471806E-21
   21.1499996        -2.65569910E-21
   21.3150005        -3.13400013E-21
   21.4799995        -3.21313402E-21
   21.6450005        -2.61801351E-21
   21.8099995        -1.07061385E-21
   21.9750004         1.63644265E-21
   22.1399994         5.54562360E-21
   22.3050003         1.04356613E-20
   22.4699993         1.57414942E-20
   22.6350002         2.05195480E-20
   22.7999992         2.34826398E-20
   22.9650002         2.31210051E-20
   23.1299992         1.79137642E-20
   23.2950001         6.62076130E-21
   23.4599991        -1.13694077E-20
   23.6250000        -3.56726551E-20
   23.7900009        -6.45732147E-20
   23.9549999        -9.47788910E-20
   24.1200008        -1.21340106E-19
   24.2849998        -1.37814274E-19
   24.4500008        -1.36758856E-19
   24.6149998        -1.10621578E-19
   24.7800007        -5.30548766E-20
   24.9449997         3.93926058E-20
   25.1100006         1.65362904E-19
   25.2749996         3.16836102E-19
   25.4400005         4.77743539E-19
   25.6049995         6.23533657E-19
   25.7700005         7.22180580E-19
   25.9349995         7.37020718E-19
   26.1000004         6.31576179E-19
   26.2649994         3.76186104E-19
   26.4300003        -4.41347773E-20
   26.5949993        -6.21610100E-19
   26.7600002        -1.31874469E-18
   26.9249992        -2.06406854E-18
   27.0900002        -2.75219368E-18
   27.2549992        -3.24957283E-18
   27.4200001        -3.40687612E-18
   27.5849991        -3.07813779E-18
   27.7500000        -2.14577971E-18
   27.9150009        -5.49378621E-19
   28.0799999         1.68532590E-18
   28.2450008         4.42196942E-18
   28.4099998         7.39934730E-18
   28.5750008         1.02333525E-17
   28.7399998         1.24401181E-17
   28.9050007         1.34832210E-17
   29.0699997         1.28442910E-17
   29.2350006         1.01116518E-17
   29.3999996         5.07669817E-18
   29.5650005        -2.17686888E-18
   29.7299995        -1.12084512E-17
   29.8950005        -2.11979144E-17
   30.0599995        -3.09784466E-17
   30.2250004        -3.91311454E-17
   30.3899994        -4.41374377E-17
   30.5550003        -4.45745199E-17
   30.7199993        -3.93291658E-17
   30.8850002        -2.77994857E-17
   31.0499992        -1.00535325E-17
   31.2150002         1.30802757E-17
   31.3799992         4.00050584E-17
   31.5450001         6.84298132E-17
   31.7099991         9.55131292E-17
   31.8750000         1.18055098E-16
   32.0400009         1.32715266E-16
   32.2050018         1.36243119E-16
   32.3699989         1.25721646E-16
   32.5349998         9.88411680E-17
   32.7000008         5.42299874E-17
   32.8650017        -8.13505497E-18
   33.0299988        -8.64390439E-17
   33.1949997        -1.76505215E-16
   33.3600006        -2.71339328E-16
   33.5250015        -3.60902819E-16
   33.6899986        -4.32312990E-16
   33.8549995        -4.70664816E-16
   34.0200005        -4.60606194E-16
   34.1850014        -3.88670279E-16
   34.3499985        -2.46185123E-16
   34.5149994        -3.23716537E-17
   34.6800003         2.42946784E-16
   34.8450012         5.57712539E-16
   35.0099983         8.77751126E-16
   35.1749992         1.15913071E-15
   35.3400002         1.35291438E-15
   35.5050011         1.41198931E-15
   35.6699982         1.29914208E-15
   35.8349991         9.95111141E-16
   36.0000000         5.05080611E-16
   36.1650009        -1.37896421E-16
   36.3300018        -8.73700033E-16
   36.4949989        -1.62065493E-15
   36.6599998        -2.28535524E-15
   36.8250008        -2.77546651E-15
   36.9900017        -3.01341204E-15
   37.1549988        -2.94842746E-15
   37.3199997        -2.56460168E-15
   37.4850006        -1.88317743E-15
   37.6500015        -9.58537953E-16
   37.8149986         1.31285488E-16
   37.9799995         1.29740269E-15
   38.1450005         2.45303261E-15
   38.3100014         3.52330342E-15
   38.4749985         4.44918667E-15
   38.6399994         5.18436510E-15
   38.8050003         5.68589331E-15
   38.9700012         5.90168681E-15
   39.1349983         5.75957755E-15
   39.2999992         5.16335403E-15
   39.4650002         4.00044555E-15
   39.6300011         2.16366901E-15
   39.7949982        -4.14021393E-16
   39.9599991        -3.71687121E-15
   40.1250000        -7.60453220E-15
   40.2900009        -1.17821834E-14
   40.4550018        -1.57937984E-14
   40.6199989        -1.90471994E-14
   40.7849998        -2.08744985E-14
   40.9500008        -2.06246661E-14
   41.1150017        -1.77774902E-14
   41.2799988        -1.20617873E-14
   41.4449997        -3.55670956E-15
   41.6100006         7.24519965E-15
   41.7750015         1.94306800E-14
   41.9399986         3.17238674E-14
   42.1049995         4.26090437E-14
   42.2700005         5.05059488E-14
   42.4350014         5.39754365E-14
   42.5999985         5.19266298E-14
   42.7649994         4.37945680E-14
   42.9300003         2.96607560E-14
   43.0950012         1.02973778E-14
   43.2599983        -1.28725859E-14
   43.4249992        -3.78939772E-14
   43.5900002        -6.24600130E-14
   43.7550011        -8.41296705E-14
   43.9199982        -1.00553849E-13
   44.0849991        -1.09684431E-13
   44.2500000        -1.09947323E-13
   44.4150009        -1.00370104E-13
   44.5800018        -8.06646281E-14
   44.7449989        -5.12720868E-14
   44.9099998        -1.33809081E-14
   45.0750008         3.10745861E-14
   45.2400017         7.94337672E-14
   45.4049988         1.28356215E-13
   45.5699997         1.73912751E-13
   45.7350006         2.11743505E-13
   45.9000015         2.37304669E-13
   46.0649986         2.46215808E-13
   46.2299995         2.34702503E-13
   46.3950005         2.00107820E-13
   46.5600014         1.41421719E-13
   46.7249985         5.97591367E-14
   46.8899994        -4.12948992E-14
   47.0550003        -1.55553399E-13
   47.2200012        -2.74374382E-13
   47.3849983        -3.87125688E-13
   47.5499992        -4.81966789E-13
   47.7150002        -5.46905349E-13
   47.8800011        -5.71041749E-13
   48.0449982        -5.45879748E-13
   48.2099991        -4.66558433E-13
   48.3750000        -3.32853021E-13
   48.5400009        -1.49805312E-13
   48.7050018         7.21258922E-14
   48.8699989         3.17457567E-13
   49.0349998         5.66626065E-13
   49.2000008         7.97429993E-13
   49.3650017         9.86864345E-13
   49.5299988         1.11319190E-12
   49.6949997         1.15806681E-12
   49.8600006         1.10851389E-12
   50.0250015         9.58573282E-13
   50.1899986         7.10446079E-13
   50.3549995         3.75012114E-13
   50.5200005        -2.83575856E-14
   50.6850014        -4.72721146E-13
   50.8499985        -9.25190588E-13
   51.0149994        -1.34917902E-12
   51.1800003        -1.70714094E-12
   51.3450012        -1.96362458E-12
   51.5099983        -2.08841950E-12
   51.6749992        -2.05954394E-12
   51.8400002        -1.86580374E-12
   52.0050011        -1.50864835E-12
   52.1699982        -1.00308141E-12
   52.3349991        -3.77436960E-13
   52.5000000         3.28069792E-13
   52.6650009         1.06399568E-12
   52.8300018         1.77536566E-12
   52.9949989         2.40611394E-12
   53.1599998         2.90385814E-12
   53.3250008         3.22452265E-12
   53.4900017         3.33631625E-12
   53.6549988         3.22262334E-12
   53.8199997         2.88349249E-12
   53.9850006         2.33557856E-12
   54.1500015         1.61058482E-12
   54.3149986         7.52446282E-13
   54.4799995        -1.86366019E-13
   54.6450005        -1.14896059E-12
   54.8100014        -2.07809811E-12
   54.9749985        -2.91983755E-12
   55.1399994        -3.62650014E-12
   55.3050003        -4.15884905E-12
   55.4700012        -4.48752537E-12
   55.6349983        -4.59387086E-12
   55.7999992        -4.47030434E-12
   55.9650002        -4.12037982E-12
   56.1300011        -3.55855970E-12
   56.2949982        -2.80963599E-12
   56.4599991        -1.90763291E-12
   56.6250000        -8.94014409E-13
   56.7900009         1.84953425E-13
   56.9550018         1.28165057E-12
   57.1199989         2.35114489E-12
   57.2849998         3.35535267E-12
   57.4500008         4.26662915E-12
   57.6150017         5.07000735E-12
   57.7799988         5.76331777E-12
   57.9449997         6.35466072E-12
   58.1100006         6.85706440E-12
   58.2750015         7.28070122E-12
   58.4399986         7.62359360E-12
   58.6049995         7.86224905E-12
   58.7700005         7.94404993E-12
   58.9350014         7.78333561E-12
   59.0999985         7.26290859E-12
   59.2649994         6.24222549E-12
   59.4300003         4.57264912E-12
   59.5950012         2.11918569E-12
   59.7599983        -1.21305082E-12
   59.9249992        -5.45038580E-12
   60.0900002        -1.05237884E-11
   60.2550011        -1.62477150E-11
   60.4199982        -2.23086966E-11
   60.5849991        -2.82670293E-11
   60.7500000        -3.35739769E-11
   60.9150009        -3.76052349E-11
   61.0800018        -3.97096037E-11
   61.2449989        -3.92698270E-11
   61.4099998        -3.57707024E-11
   61.5750008        -2.88681318E-11
   61.7400017        -1.84519865E-11
   61.9049988        -4.69540812E-12
   62.0699997         1.19159474E-11
   62.2350006         3.05798789E-11
   62.4000015         5.02017525E-11
   62.5649986         6.94472049E-11
   62.7299995         8.68210642E-11
   62.8950005         1.00767929E-10
   63.0600014         1.09787179E-10
   63.2249985         1.12554382E-10
   63.3899994         1.08039633E-10
   63.5550003         9.56138224E-11
   63.7200012         7.51343779E-11
   63.8849983         4.70030230E-11
   64.0500031         1.21901100E-11
   64.2149963        -2.77781236E-11
   64.3799973        -7.08708092E-11
   64.5449982        -1.14641387E-10
   64.7099991        -1.56350891E-10
   64.8750000        -1.93120339E-10
   65.0400009        -2.22104266E-10
   65.2050018        -2.40676035E-10
   65.3700027        -2.46613896E-10
   65.5350037        -2.38275760E-10
   65.6999969        -2.14750870E-10
   65.8649979        -1.75976927E-10
   66.0299988        -1.22813273E-10
   66.1949997        -5.70624589E-11
   66.3600006         1.85638432E-11
   66.5250015         1.00535698E-10
   66.6900024         1.84650711E-10
   66.8550034         2.66229233E-10
   67.0199966         3.40350664E-10
   67.1849976         4.02121197E-10
   67.3499985         4.46959719E-10
   67.5149994         4.70888384E-10
   67.6800003         4.70812056E-10
   67.8450012         4.44769582E-10
   68.0100021         3.92140237E-10
   68.1750031         3.13786858E-10
   68.3399963         2.12120849E-10
   68.5049973         9.10749809E-11
   68.6699982        -4.40236007E-11
   68.8349991        -1.86682045E-10
   69.0000000        -3.29565097E-10
   69.1650009        -4.64897176E-10
   69.3300018        -5.84918503E-10
   69.4950027        -6.82363388E-10
   69.6600037        -7.50924045E-10
   69.8249969        -7.85662979E-10
   69.9899979        -7.83340059E-10
   70.1549988        -7.42627515E-10
   70.3199997        -6.64198474E-10
   70.4850006        -5.50684165E-10
   70.6500015        -4.06510436E-10
   70.8150024        -2.37633191E-10
   70.9800034        -5.12002975E-11
   71.1449966         1.44828899E-10
   71.3099976         3.42075313E-10
   71.4749985         5.32119460E-10
   71.6399994         7.06848302E-10
   71.8050003         8.58761007E-10
   71.9700012         9.81230874E-10
   72.1350021         1.06872589E-09
   72.3000031         1.11699294E-09
   72.4649963         1.12321019E-09
   72.6299973         1.08610543E-09
   72.7949982         1.00603725E-09
   72.9599991         8.85026108E-10
   73.1250000         7.26723570E-10
   73.2900009         5.36304390E-10
   73.4550018         3.20273585E-10
   73.6200027         8.61858085E-11
   73.7850037        -1.57711899E-10
   73.9499969        -4.02893385E-10
   74.1149979        -6.40989095E-10
   74.2799988        -8.64202876E-10
   74.4449997        -1.06566667E-09
   74.6100006        -1.23969102E-09
   74.7750015        -1.38188250E-09
   74.9400024        -1.48911117E-09
   75.1050034        -1.55933533E-09
   75.2699966        -1.59130975E-09
   75.4349976        -1.58422431E-09
   75.5999985        -1.53733659E-09
   75.7649994        -1.44966816E-09
   75.9300003        -1.31983457E-09
   76.0950012        -1.14606391E-09
   76.2600021        -9.26437982E-10
   76.4250031        -6.59361510E-10
   76.5899963        -3.44224760E-10
   76.7549973         1.78027176E-11
   76.9199982         4.22944624E-10
   77.0849991         8.64070593E-10
   77.2500000         1.33014855E-09
   77.4150009         1.80600823E-09
   77.5800018         2.27249952E-09
   77.7450027         2.70709188E-09
   77.9100037         3.08491366E-09
   78.0749969         3.38017792E-09
   78.2399979         3.56789620E-09
   78.4049988         3.62574459E-09
   78.5699997         3.53592267E-09
   78.7350006         3.28684391E-09
   78.9000015         2.87450641E-09
   79.0650024         2.30342656E-09
   79.2300034         1.58705071E-09
   79.3949966         7.47614637E-10
   79.5599976        -1.84543908E-10
   79.7249985        -1.17216858E-09
   79.8899994        -2.17268936E-09
   80.0550003        -3.14015347E-09
   80.2200012        -4.02738376E-09
   80.3850021        -4.78826578E-09
   80.5500031        -5.38007638E-09
   80.7149963        -5.76575987E-09
   80.8799973        -5.91608806E-09
   81.0449982        -5.81160764E-09
   81.2099991        -5.44429701E-09
   81.3750000        -4.81883777E-09
   81.5400009        -3.95339184E-09
   81.7050018        -2.87977953E-09
   81.8700027        -1.64295832E-09
   82.0350037        -2.99719860E-10
   82.1999969         1.08343789E-09
   82.3649979         2.43325560E-09
   82.5299988         3.67340269E-09
   82.6949997         4.72876982E-09
   82.8600006         5.53014168E-09
   83.0250015         6.01897954E-09
   83.1900024         6.15197981E-09
   83.3550034         5.90506222E-09
   83.5199966         5.27644284E-09
   83.6849976         4.28848690E-09
   83.8499985         2.98809932E-09
   84.0149994         1.44550860E-09
   84.1800003        -2.48592563E-10
   84.3450012        -1.98746064E-09
   84.5100021        -3.65405972E-09
   84.6750031        -5.12784748E-09
   84.8399963        -6.29216856E-09
   85.0049973        -7.04179604E-09
   85.1699982        -7.29011296E-09
   85.3349991        -6.97545799E-09
   85.5000000        -6.06618977E-09
   85.6650009        -4.56412197E-09
   85.8300018        -2.50608623E-09
   85.9950027         3.65050143E-11
   86.1600037         2.96008307E-09
   86.3249969         6.13320594E-09
   86.4899979         9.40246014E-09
   86.6549988         1.25996529E-08
   86.8199997         1.55498991E-08
   86.9850006         1.80802040E-08
   87.1500015         2.00280859E-08
   87.3150024         2.12498303E-08
   87.4800034         2.16279759E-08
   87.6449966         2.10776889E-08
   87.8099976         1.95517060E-08
   87.9749985         1.70436127E-08
   88.1399994         1.35892337E-08
   88.3050003         9.26607857E-09
   88.4700012         4.19073443E-09
   88.6350021        -1.48566159E-09
   88.8000031        -7.58375762E-09
   88.9649963        -1.39038043E-08
   89.1299973        -2.02345838E-08
   89.2949982        -2.63629207E-08
   89.4599991        -3.20832143E-08
   89.6250000        -3.72063482E-08
   89.7900009        -4.15673540E-08
   89.9550018        -4.50312321E-08
   90.1200027        -4.74965738E-08
   90.2850037        -4.88966130E-08
   90.4499969        -4.91977481E-08
   90.6149979        -4.83957514E-08
   90.7799988        -4.65100598E-08
   90.9449997        -4.35769323E-08
   91.1100006        -3.96422237E-08
   91.2750015        -3.47547235E-08
   91.4400024        -2.89609865E-08
   91.6050034        -2.23023200E-08
   91.7699966        -1.48145460E-08
   91.9349976        -6.53068355E-09
   92.0999985         2.51353982E-09
   92.2649994         1.22718786E-08
   92.4300003         2.26782468E-08
   92.5950012         3.36369581E-08
   92.7600021         4.50136959E-08
   92.9250031         5.66283909E-08
   93.0899963         6.82510404E-08
   93.2549973         7.96011932E-08
   93.4199982         9.03514987E-08
   93.5849991         1.00135310E-07
   93.7500000         1.08557828E-07
   93.9150009         1.15210121E-07
   94.0800018         1.19684799E-07
   94.2450027         1.21592322E-07
   94.4100037         1.20576701E-07
   94.5749969         1.16329737E-07
   94.7399979         1.08602656E-07
   94.9049988         9.72151213E-08
   95.0699997         8.20610211E-08
   95.2350006         6.31112158E-08
   95.4000015         4.04133012E-08
   95.5650024         1.40886804E-08
   95.7300034        -1.56730611E-08
   95.8949966        -4.86221516E-08
   96.0599976        -8.44592165E-08
   96.2249985        -1.22848277E-07
   96.3899994        -1.63432162E-07
   96.5550003        -2.05850128E-07
   96.7200012        -2.49757022E-07
   96.8850021        -2.94843147E-07
   97.0500031        -3.40853518E-07
   97.2149963        -3.87604899E-07
   97.3799973        -4.34998725E-07
   97.5449982        -4.83028145E-07
   97.7099991        -5.31777914E-07
   97.8750000        -5.81415748E-07
   98.0400009        -6.32175727E-07
   98.2050018        -6.84334111E-07
   98.3700027        -7.38178528E-07
   98.5350037        -7.93975289E-07
   98.6999969        -8.51935397E-07
   98.8649979        -9.12184419E-07
   99.0299988        -9.74738782E-07
   99.1949997        -1.03949048E-06
   99.3600006        -1.10620374E-06
   99.5250015        -1.17452123E-06
   99.6900024        -1.24398241E-06
   99.8550034        -1.31404954E-06
   100.019997        -1.38413941E-06
   100.184998        -1.45365766E-06
   100.349998        -1.52203233E-06
   100.514999        -1.58874332E-06
   100.680000        -1.65334427E-06
   100.845001        -1.71547867E-06
   101.010002        -1.77488573E-06
   101.175003        -1.83140037E-06
   101.339996        -1.88494607E-06
   101.504997        -1.93552432E-06
   101.669998        -1.98320322E-06
   101.834999        -2.02810406E-06
   102.000000        -2.07039170E-06
   102.165001        -2.11026600E-06
   102.330002        -2.14795637E-06
   102.495003        -2.18371724E-06
   102.660004        -2.21782489E-06
   102.824997        -2.25057352E-06
   102.989998        -2.28227123E-06
   103.154999        -2.31323179E-06
   103.320000        -2.34376785E-06
   103.485001        -2.37418021E-06
   103.650002        -2.40474856E-06
   103.815002        -2.43572322E-06
   103.980003        -2.46731997E-06
   104.144997        -2.49971686E-06
   104.309998        -2.53305711E-06
   104.474998        -2.56745489E-06
   104.639999        -2.60300362E-06
   104.805000        -2.63978723E-06
   104.970001        -2.67788892E-06
   105.135002        -2.71739873E-06
   105.300003        -2.75841603E-06
   105.464996        -2.80104564E-06
   105.629997        -2.84539033E-06
   105.794998        -2.89153536E-06
   105.959999        -2.93953121E-06
   106.125000        -2.98937289E-06
   106.290001        -3.04098216E-06
   106.455002        -3.09419238E-06
   106.620003        -3.14873910E-06
   106.785004        -3.20425943E-06
   106.949997        -3.26029794E-06
   107.114998        -3.31632145E-06
   107.279999        -3.37173901E-06
   107.445000        -3.42592625E-06
   107.610001        -3.47825016E-06
   107.775002        -3.52809411E-06
   107.940002        -3.57487738E-06
   108.105003        -3.61807065E-06
   108.269997        -3.65720575E-06
   108.434998        -3.69187887E-06
   108.599998        -3.72175055E-06
   108.764999        -3.74654360E-06
   108.930000        -3.76603998E-06
   109.095001        -3.78007826E-06
   109.260002        -3.78855520E-06
   109.425003        -3.79143125E-06
   109.589996        -3.78873892E-06
   109.754997        -3.78059303E-06
   109.919998        -3.76720345E-06
   110.084999        -3.74888646E-06
   110.250000        -3.72607064E-06
   110.415001        -3.69930035E-06
   110.580002        -3.66923041E-06
   110.745003        -3.63661570E-06
   110.910004        -3.60228819E-06
   111.074997        -3.56713394E-06
   111.239998        -3.53205996E-06
   111.404999        -3.49795869E-06
   111.570000        -3.46567390E-06
   111.735001        -3.43596548E-06
   111.900002        -3.40947759E-06
   112.065002        -3.38671248E-06
   112.230003        -3.36801054E-06
   112.394997        -3.35353388E-06
   112.559998        -3.34325910E-06
   112.724998        -3.33697380E-06
   112.889999        -3.33428034E-06
   113.055000        -3.33460116E-06
   113.220001        -3.33719095E-06
   113.385002        -3.34115066E-06
   113.550003        -3.34544438E-06
   113.714996        -3.34892138E-06
   113.879997        -3.35033815E-06
   114.044998        -3.34838592E-06
   114.209999        -3.34172159E-06
   114.375000        -3.32900095E-06
   114.540001        -3.30891658E-06
   114.705002        -3.28023839E-06
   114.870003        -3.24185544E-06
   115.035004        -3.19281844E-06
   115.199997        -3.13238320E-06
   115.364998        -3.06004790E-06
   115.529999        -2.97558677E-06
   115.695000        -2.87907551E-06
   115.860001        -2.77090498E-06
   116.025002        -2.65178596E-06
   116.190002        -2.52273594E-06
   116.355003        -2.38505277E-06
   116.519997        -2.24027212E-06
   116.684998        -2.09011228E-06
   116.849998        -1.93640517E-06
   117.014999        -1.78102005E-06
   117.180000        -1.62578033E-06
   117.345001        -1.47238211E-06
   117.510002        -1.32231696E-06
   117.675003        -1.17680463E-06
   117.839996        -1.03673983E-06
   118.004997        -9.02658655E-07
   118.169998        -7.74723560E-07
   118.334999        -6.52731501E-07
   118.500000        -5.36142636E-07
   118.665001        -4.24127791E-07
   118.830002        -3.15632775E-07
   118.995003        -2.09455180E-07
   119.160004        -1.04329054E-07
   119.324997         9.86746684E-10
   119.489998         1.07620515E-07
   119.654999         2.16504716E-07
   119.820000         3.28301496E-07
   119.985001         4.43341577E-07
   120.150002         5.61576655E-07
   120.315002         6.82552582E-07
   120.480003         8.05402181E-07
   120.644997         9.28863130E-07
   120.809998         1.05132062E-06
   120.974998         1.17087711E-06
   121.139999         1.28544536E-06
   121.305000         1.39286726E-06
   121.470001         1.49104778E-06
   121.635002         1.57810064E-06
   121.800003         1.65249583E-06
   121.964996         1.71319721E-06
   122.129997         1.75978062E-06
   122.294998         1.79252095E-06
   122.459999         1.81243786E-06
   122.625000         1.82129543E-06
   122.790001         1.82155065E-06
   122.955002         1.81625228E-06
   123.120003         1.80889435E-06
   123.285004         1.80323468E-06
   123.449997         1.80308814E-06
   123.614998         1.81211158E-06
   123.779999         1.83359305E-06
   123.945000         1.87026126E-06
   124.110001         1.92412813E-06
   124.275002         1.99637293E-06
   124.440002         2.08727670E-06
   124.605003         2.19620688E-06
   124.769997         2.32165485E-06
   124.934998         2.46131617E-06
   125.099998         2.61221180E-06
   125.264999         2.77083882E-06
   125.430000         2.93334028E-06
   125.595001         3.09568395E-06
   125.760002         3.25384326E-06
   125.925003         3.40396832E-06
   126.089996         3.54254166E-06
   126.254997         3.66651398E-06
   126.419998         3.77341189E-06
   126.584999         3.86141937E-06
   126.750000         3.92942775E-06
   126.915001         3.97705162E-06
   127.080002         4.00461886E-06
   127.245003         4.01312263E-06
   127.410004         4.00414865E-06
   127.574997         3.97977465E-06
   127.739998         3.94244535E-06
   127.904999         3.89483012E-06
   128.070007         3.83966972E-06
   128.235001         3.77961851E-06
   128.399994         3.71709211E-06
   128.565002         3.65412598E-06
   128.729996         3.59226010E-06
   128.895004         3.53245082E-06
   129.059998         3.47502373E-06
   129.225006         3.41966506E-06
   129.389999         3.36545668E-06
   129.554993         3.31095362E-06
   129.720001         3.25429664E-06
   129.884995         3.19335345E-06
   130.050003         3.12587645E-06
   130.214996         3.04966966E-06
   130.380005         2.96274766E-06
   130.544998         2.86347904E-06
   130.710007         2.75070374E-06
   130.875000         2.62381741E-06
   131.039993         2.48281890E-06
   131.205002         2.32832213E-06
   131.369995         2.16153126E-06
   131.535004         1.98418616E-06