  -1.95000005         0.00000000    
  -1.78499997         0.00000000    
  -1.62000000         0.00000000    
  -1.45500004         0.00000000    
  -1.28999996         0.00000000    
  -1.12500000         0.00000000    
 -0.959999979         0.00000000    
 -0.795000017         0.00000000    
 -0.629999995         0.00000000    
 -0.465000004         0.00000000    
 -0.300000012         0.00000000    
 -0.135000005         0.00000000    
   2.99999993E-02     0.00000000    
  0.194999993         0.00000000    
  0.360000014         0.00000000    
  0.524999976         0.00000000    
  0.689999998         0.00000000    
  0.855000019         0.00000000    
   1.01999998         0.00000000    
   1.18499994         0.00000000    
   1.35000002         0.00000000    
   1.51499999         0.00000000    
   1.67999995         0.00000000    
   1.84500003         0.00000000    
   2.00999999         0.00000000    
   2.17499995         0.00000000    
   2.33999991         0.00000000    
   2.50500011         0.00000000    
   2.67000008         0.00000000    
   2.83500004         0.00000000    
   3.00000000        -5.52155319E-34
   3.16499996        -6.66264321E-33
   3.32999992        -3.14365775E-32
   3.49499989        -6.84608204E-32
   3.66000009        -5.88837388E-32
   3.82500005         8.34077012E-32
   3.99000001         4.56276596E-31
   4.15500021         1.08450394E-30
   4.32000017         5.67397845E-30
   4.48500013        -2.93027946E-30
   4.65000010        -4.00959776E-29
   4.81500006        -1.09781895E-28
   4.98000002        -1.81510604E-28
   5.14499998        -1.69479608E-28
   5.30999994         7.07104938E-29
   5.47499990         7.40099296E-28
   5.63999987         2.02094281E-27
   5.80499983         3.87077984E-27
   5.96999979         5.76675348E-27
   6.13500023         6.40873411E-27
   6.30000019         3.66278557E-27
   6.46500015        -4.98029999E-27
   6.63000011        -2.10451650E-26
   6.79500008        -4.29069366E-26
   6.96000004        -6.35799395E-26
   7.12500000        -7.01761725E-26
   7.28999996        -4.72323441E-26
   7.45499992         1.48462220E-26
   7.61999989         1.08054050E-25
   7.78499985         1.98346231E-25
   7.94999981         2.31004727E-25
   8.11499977         1.59038019E-25
   8.27999973        -6.85135172E-27
   8.44499969        -1.48419988E-25
   8.60999966        -3.34878634E-26
   8.77499962         5.97600100E-25
   8.93999958         1.83228920E-24
   9.10499954         3.32440146E-24
   9.27000046         4.11616813E-24
   9.43500042         2.74756348E-24
   9.60000038        -2.19537663E-24
   9.76500034        -1.11528784E-23
   9.93000031        -2.26721669E-23
   10.0950003        -3.31577802E-23
   10.2600002        -3.79040975E-23
   10.4250002        -3.34303790E-23
   10.5900002        -2.00416613E-23
   10.7550001        -2.42420191E-24
   10.9200001         1.41365373E-23
   11.0850000         3.26778246E-23
   11.2500000         7.55266538E-23
   11.4150000         1.89219080E-22
   11.5799999         4.31950697E-22
   11.7449999         8.34378407E-22
   11.9099998         1.33551531E-21
   12.0749998         1.71469634E-21
   12.2399998         1.56200790E-21
   12.4049997         3.41189763E-22
   12.5699997        -2.41357005E-21
   12.7349997        -6.77188534E-21
   12.8999996        -1.20337702E-20
   13.0649996        -1.64729416E-20
   13.2299995        -1.74100226E-20
   13.3950005        -1.17971013E-20
   13.5600004         2.64675743E-21
   13.7250004         2.59503150E-20
   13.8900003         5.45301629E-20
   14.0550003         8.06223216E-20
   14.2200003         9.31531127E-20
   14.3850002         8.03817413E-20
   14.5500002         3.40492388E-20
   14.7150002        -4.59651245E-20
   14.8800001        -1.48085983E-19
   15.0450001        -2.48369173E-19
   15.2100000        -3.14034286E-19
   15.3750000        -3.11386842E-19
   15.5400000        -2.16756217E-19
   15.7049999        -2.75666696E-20
   15.8699999         2.30218271E-19
   16.0349998         5.01816356E-19
   16.2000008         7.12562589E-19
   16.3649998         7.85605067E-19
   16.5300007         6.65011595E-19
   16.6949997         3.38494947E-19
   16.8600006        -1.47240282E-19
   17.0249996        -6.84979425E-19
   17.1900005        -1.12337393E-18
   17.3549995        -1.30135859E-18
   17.5200005        -1.09592787E-18
   17.6849995        -4.73661455E-19
   17.8500004         4.67656744E-19
   18.0149994         1.48301252E-18
   18.1800003         2.20412697E-18
   18.3449993         2.21203213E-18
   18.5100002         1.15598418E-18
   18.6749992        -1.09876159E-18
   18.8400002        -4.32852241E-18
   19.0049992        -7.86165689E-18
   19.1700001        -1.05931429E-17
   19.3349991        -1.11428359E-17
   19.5000000        -8.16748293E-18
   19.6650009        -7.92092852E-19
   19.8299999         1.09237728E-17
   19.9950008         2.56104994E-17
   20.1599998         4.04459953E-17
   20.3250008         5.13682601E-17
   20.4899998         5.37041156E-17
   20.6550007         4.31820010E-17
   20.8199997         1.71889074E-17
   20.9850006        -2.39656607E-17
   21.1499996        -7.60793677E-17
   21.3150005        -1.30692803E-16
   21.4799995        -1.75596825E-16
   21.6450005        -1.96372691E-16
   21.8099995        -1.78970849E-16
   21.9750004        -1.13135703E-16
   22.1399994         3.74903855E-18
   22.3050003         1.63070571E-16
   22.4699993         3.42564344E-16
   22.6350002         5.06124474E-16
   22.7999992         6.06895983E-16
   22.9650002         5.94392824E-16
   23.1299992         4.25707933E-16
   23.2950001         7.98093104E-17
   23.4599991        -4.27440116E-16
   23.6250000        -1.03126388E-15
   23.7900009        -1.61362963E-15
   23.9549999        -2.01127846E-15
   24.1200008        -2.03945417E-15
   24.2849998        -1.53170122E-15
   24.4500008        -3.91705040E-16
   24.6149998         1.35193965E-15
   24.7800007         3.50173034E-15
   24.9449997         5.67424153E-15
   25.1100006         7.32523156E-15
   25.2749996         7.82628712E-15
   25.4400005         6.59201147E-15
   25.6049995         3.24292705E-15
   25.7700005        -2.22533089E-15
   25.9349995        -9.30757411E-15
   26.1000004        -1.69348585E-14
   26.2649994        -2.35400519E-14
   26.4300003        -2.72645286E-14
   26.5949993        -2.62985671E-14
   26.7600002        -1.93127425E-14
   26.9249992        -5.90353250E-15
   27.0900002         1.30478175E-14
   27.2549992         3.52095333E-14
   27.4200001         5.69142173E-14
   27.5849991         7.35975883E-14
   27.7500000         8.05394840E-14
   27.9150009         7.38123213E-14
   28.0799999         5.12751801E-14
   28.2450008         1.34091651E-14
   28.4099998        -3.62150868E-14
   28.5750008        -9.10053215E-14
   28.7399998        -1.42033087E-13
   28.9050007        -1.79301872E-13
   29.0699997        -1.93436020E-13
   29.2350006        -1.77519119E-13
   29.3999996        -1.28743384E-13
   29.5650005        -4.95288658E-14
   29.7299995         5.21624844E-14
   29.8950005         1.63462681E-13
   30.0599995         2.68158163E-13
   30.2250004         3.48972289E-13
   30.3899994         3.90219270E-13
   30.5550003         3.80394717E-13
   30.7199993         3.14265595E-13
   30.8850002         1.94105745E-13
   31.0499992         2.98750011E-14
   31.2150002        -1.61673951E-13
   31.3799992        -3.58797410E-13
   31.5450001        -5.37174038E-13
   31.7099991        -6.72573813E-13
   31.8750000        -7.43448814E-13
   32.0400009        -7.33204621E-13
   32.2050018        -6.32031699E-13
   32.3699989        -4.38290300E-13
   32.5349998        -1.59504503E-13
   32.7000008         1.86998759E-13
   32.8650017         5.73863277E-13
   33.0299988         9.64091220E-13
   33.1949997         1.31238781E-12
   33.3600006         1.56787159E-12
   33.5250015         1.67850553E-12
   33.6899986         1.59736655E-12
   33.8549995         1.29049104E-12
   34.0200005         7.45522079E-13
   34.1850014        -2.01239477E-14
   34.3499985        -9.53267955E-13
   34.5149994        -1.96300831E-12
   34.6800003        -2.92444671E-12
   34.8450012        -3.68914881E-12
   35.0099983        -4.10238076E-12
   35.1749992        -4.02589073E-12
   35.3400002        -3.36362622E-12
   35.5050011        -2.08659869E-12
   35.6699982        -2.52368032E-13
   35.8349991         1.98541444E-12
   36.0000000         4.38115646E-12
   36.1650009         6.61723931E-12
   36.3300018         8.33939688E-12
   36.4949989         9.20451129E-12
   36.6599998         8.93510873E-12
   36.8250008         7.37275518E-12
   36.9900017         4.52153159E-12
   37.1549988         5.73123309E-13
   37.3199997        -4.09306877E-12
   37.4850006        -8.93820348E-12
   37.6500015        -1.33199285E-11
   37.8149986        -1.65707795E-11
   37.9799995        -1.80898473E-11
   38.1450005        -1.74355565E-11
   38.3100014        -1.44061161E-11
   38.4749985        -9.09485855E-12
   38.6399994        -1.91027077E-12
   38.8050003         6.44516818E-12
   38.9700012         1.50379327E-11
   39.1349983         2.28029835E-11
   39.2999992         2.86693499E-11
   39.4650002         3.16970721E-11
   39.6300011         3.12082860E-11
   39.7949982         2.68950574E-11
   39.9599991         1.88884394E-11
   40.1250000         7.77748005E-12
   40.2900009        -5.42732786E-12
   40.4550018        -1.93847421E-11
   40.6199989        -3.25591845E-11
   40.7849998        -4.33881577E-11
   40.9500008        -5.04614336E-11
   41.1150017        -5.26904805E-11
   41.2799988        -4.94472935E-11
   41.4449997        -4.06551008E-11
   41.6100006        -2.68192083E-11
   41.7750015        -8.99371203E-12
   41.9399986         1.13122480E-11
   42.1049995         3.22774654E-11
   42.2700005         5.19436577E-11
   42.4350014         6.84017842E-11
   42.5999985         7.99683028E-11
   42.7649994         8.53325258E-11
   42.9300003         8.36612932E-11
   43.0950012         7.46542619E-11
   43.2599983         5.85509835E-11
   43.4249992         3.60982529E-11
   43.5900002         8.49122075E-12
   43.7550011        -2.26961071E-11
   43.9199982        -5.55778756E-11
   44.0849991        -8.80137352E-11
   44.2500000        -1.17658674E-10
   44.4150009        -1.42017509E-10
   44.5800018        -1.58524222E-10
   44.7449989        -1.64670028E-10
   44.9099998        -1.58199606E-10
   45.0750008        -1.37383119E-10
   45.2400017        -1.01351406E-10
   45.4049988        -5.04577595E-11
   45.5699997         1.33937184E-11
   45.7350006         8.65297001E-11
   45.9000015         1.63479202E-10
   46.0649986         2.37201453E-10
   46.2299995         2.99604452E-10
   46.3950005         3.42342293E-10
   46.5600014         3.57824409E-10
   46.7249985         3.40317857E-10
   46.8899994         2.86985158E-10
   47.0550003         1.98685152E-10
   47.2200012         8.03799388E-11
   47.3849983        -5.89648746E-11
   47.5499992        -2.07028061E-10
   47.7150002        -3.49287183E-10
   47.8800011        -4.70555261E-10
   48.0449982        -5.56708291E-10
   48.2099991        -5.96377558E-10
   48.3750000        -5.82376980E-10
   48.5400009        -5.12675180E-10
   48.7050018        -3.90786209E-10
   48.8699989        -2.25537367E-10
   49.0349998        -3.02571752E-11
   49.2000008         1.78499993E-10
   49.3650017         3.82527565E-10
   49.5299988         5.63653901E-10
   49.6949997         7.05365266E-10
   49.8600006         7.94218025E-10
   50.0250015         8.20931823E-10
   50.1899986         7.81102183E-10
   50.3549995         6.75508260E-10
   50.5200005         5.10024190E-10
   50.6850014         2.95163310E-10
   50.8499985         4.53090794E-11
   51.0149994        -2.22303800E-10
   51.1800003        -4.88774243E-10
   51.3450012        -7.34792172E-10
   51.5099983        -9.41871692E-10
   51.6749992        -1.09347076E-09
   51.8400002        -1.17593257E-09
   52.0050011        -1.17922427E-09
   52.1699982        -1.09748610E-09
   52.3349991        -9.29445021E-10
   52.5000000        -6.78761602E-10
   52.6650009        -3.54359458E-10
   52.8300018         2.92609617E-11
   52.9949989         4.51801541E-10
   53.1599998         8.87202534E-10
   53.3250008         1.30416233E-09
   53.4900017         1.66738534E-09
   53.6549988         1.93974548E-09
   53.8199997         2.08541984E-09
   53.9850006         2.07384643E-09
   54.1500015         1.88413529E-09
   54.3149986         1.50934709E-09
   54.4799995         9.59925917E-10
   54.6450005         2.65551803E-10
   54.8100014        -5.25180566E-10
   54.9749985        -1.34758260E-09
   55.1399994        -2.12614171E-09
   55.3050003        -2.78177947E-09
   55.4700012        -3.24026628E-09
   55.6349983        -3.44072570E-09
   55.7999992        -3.34307781E-09
   55.9650002        -2.93340152E-09
   56.1300011        -2.22650010E-09
   56.2949982        -1.26536248E-09
   56.4599991        -1.17673746E-10
   56.6250000         1.13007270E-09
   56.7900009         2.38002373E-09
   56.9550018         3.53103946E-09
   57.1199989         4.48650450E-09
   57.2849998         5.16119680E-09
   57.4500008         5.48681767E-09
   57.6150017         5.41604894E-09
   57.7799988         4.92524865E-09
   57.9449997         4.01598443E-09
   58.1100006         2.71561951E-09
   58.2750015         1.07707188E-09
   58.4399986        -8.22283075E-10
   58.6049995        -2.88271296E-09
   58.7700005        -4.98545738E-09
   58.9350014        -6.99748925E-09
   59.0999985        -8.77779982E-09
   59.2649994        -1.01851185E-08
   59.4300003        -1.10867671E-08
   59.5950012        -1.13681482E-08
   59.7599983        -1.09422098E-08
   59.9249992        -9.75819159E-09
   60.0900002        -7.80889664E-09
   60.2550011        -5.13586018E-09
   60.4199982        -1.83183646E-09
   60.5849991         1.95982963E-09
   60.7500000         6.04925532E-09
   60.9150009         1.02076703E-08
   61.0800018         1.41786325E-08
   61.2449989         1.76925727E-08
   61.4099998         2.04840749E-08
   61.5750008         2.23110046E-08
   61.7400017         2.29741381E-08
   61.9049988         2.23357191E-08
   62.0699997         2.03350545E-08
   62.2350006         1.69993974E-08
   62.4000015         1.24485240E-08
   62.5649986         6.89203450E-09
   62.7299995         6.19071905E-10
   62.8950005        -6.01896044E-09
   63.0600014        -1.26313155E-08
   63.2249985        -1.88144593E-08
   63.3899994        -2.41798581E-08
   63.5550003        -2.83806774E-08
   63.7200012        -3.11352366E-08
   63.8849983        -3.22457296E-08
   64.0500031        -3.16112470E-08
   64.2149963        -2.92348137E-08
   64.3799973        -2.52245798E-08
   64.5449982        -1.97895087E-08
   64.7099991        -1.32299984E-08
   64.8750000        -5.92368776E-09
   65.0400009         1.69334624E-09
   65.2050018         9.14982845E-09
   65.3700027         1.59665436E-08
   65.5350037         2.16867466E-08
   65.6999969         2.59081574E-08
   65.8649979         2.83143429E-08
   66.0299988         2.87025728E-08
   66.1949997         2.70051448E-08
   66.3600006         2.33012205E-08
   66.5250015         1.78170740E-08
   66.6900024         1.09137579E-08
   66.8550034         3.06273806E-09
   67.0199966        -5.18841636E-09
   67.1849976        -1.32568960E-08
   67.3499985        -2.05678390E-08
   67.5149994        -2.65954334E-08
   67.6800003        -3.08979295E-08
   67.8450012        -3.31436851E-08
   68.0100021        -3.31266499E-08
   68.1750031        -3.07712043E-08
   68.3399963        -2.61275748E-08
   68.5049973        -1.93599075E-08
   68.6699982        -1.07294156E-08
   68.8349991        -5.75092973E-10
   69.0000000         1.07062030E-08
   69.1650009         2.26789361E-08
   69.3300018         3.48867708E-08
   69.4950027         4.68689763E-08
   69.6600037         5.81753881E-08
   69.8249969         6.83800963E-08
   69.9899979         7.70935173E-08
   70.1549988         8.39725089E-08
   70.3199997         8.87278162E-08
   70.4850006         9.11281077E-08
   70.6500015         9.09999969E-08
   70.8150024         8.82240627E-08
   70.9800034         8.27272828E-08
   71.1449966         7.44730784E-08
   71.3099976         6.34509618E-08
   71.4749985         4.96680848E-08
   71.6399994         3.31453478E-08
   71.8050003         1.39204097E-08
   71.9700012        -7.94066679E-09
   72.1350021        -3.23225180E-08
   72.3000031        -5.90312368E-08
   72.4649963        -8.77592754E-08
   72.6299973        -1.18048732E-07
   72.7949982        -1.49258383E-07
   72.9599991        -1.80540894E-07
   73.1250000        -2.10835907E-07
   73.2900009        -2.38883985E-07
   73.4550018        -2.63263956E-07
   73.6200027        -2.82453385E-07
   73.7850037        -2.94907977E-07
   73.9499969        -2.99153669E-07
   74.1149979        -2.93880930E-07
   74.2799988        -2.78031393E-07
   74.4449997        -2.50865753E-07
   74.6100006        -2.12005389E-07
   74.7750015        -1.61442770E-07
   74.9400024        -9.95209888E-08
   75.1050034        -2.68875517E-08
   75.2699966         5.55685915E-08
   75.4349976         1.46784743E-07
   75.5999985         2.45584317E-07
   75.7649994         3.50718381E-07
   75.9300003         4.60880727E-07
   76.0950012         5.74695662E-07
   76.2600021         6.90680338E-07
   76.4250031         8.07191952E-07
   76.5899963         9.22370589E-07
   76.7549973         1.03409263E-06
   76.9199982         1.13994793E-06
   77.0849991         1.23725033E-06
   77.2500000         1.32308901E-06
   77.4150009         1.39441863E-06
   77.5800018         1.44818443E-06
   77.7450027         1.48147058E-06
   77.9100037         1.49165658E-06
   78.0749969         1.47656658E-06
   78.2399979         1.43459351E-06
   78.4049988         1.36478184E-06
   78.5699997         1.26686109E-06
   78.7350006         1.14121997E-06
   78.9000015         9.88823558E-07
   79.0650024         8.11078792E-07
   79.2300034         6.09661413E-07
   79.3949966         3.86322938E-07
   79.5599976         1.42699179E-07
   79.7249985        -1.19856026E-07
   79.8899994        -4.00389268E-07
   80.0550003        -6.98401720E-07
   80.2200012        -1.01382727E-06
   80.3850021        -1.34693187E-06
   80.5500031        -1.69814405E-06
   80.7149963        -2.06783034E-06
   80.8799973        -2.45604451E-06
   81.0449982        -2.86227396E-06
   81.2099991        -3.28522128E-06
   81.3750000        -3.72264162E-06
   81.5400009        -4.17126330E-06
   81.7050018        -4.62680100E-06
   81.8700027        -5.08406583E-06
   82.0350037        -5.53716654E-06
   82.1999969        -5.97978305E-06
   82.3649979        -6.40548978E-06
   82.5299988        -6.80810081E-06
   82.6949997        -7.18200727E-06
   82.8600006        -7.52248388E-06
   83.0250015        -7.82593452E-06
   83.1900024        -8.09006178E-06
   83.3550034        -8.31394937E-06
   83.5199966        -8.49805565E-06
   83.6849976        -8.64410958E-06
   83.8499985        -8.75494243E-06
   84.0149994        -8.83424309E-06
   84.1800003        -8.88628165E-06
   84.3450012        -8.91561103E-06
   84.5100021        -8.92678145E-06
   84.6750031        -8.92408025E-06
   84.8399963        -8.91133004E-06
   85.0049973        -8.89174680E-06
   85.1699982        -8.86787802E-06
   85.3349991        -8.84160636E-06
   85.5000000        -8.81423148E-06
   85.6650009        -8.78659921E-06
   85.8300018        -8.75927344E-06
   85.9950027        -8.73273530E-06
   86.1600037        -8.70758231E-06
   86.3249969        -8.68472034E-06
   86.4899979        -8.66553546E-06
   86.6549988        -8.65202310E-06
   86.8199997        -8.64687081E-06
   86.9850006        -8.65348647E-06
   87.1500015        -8.67595099E-06
   87.3150024        -8.71889551E-06
   87.4800034        -8.78730134E-06
   87.6449966        -8.88621616E-06
   87.8099976        -9.02040210E-06
   87.9749985        -9.19393733E-06
   88.1399994        -9.40979771E-06
   88.3050003        -9.66945208E-06
   88.4700012        -9.97252482E-06
   88.6350021        -1.03165648E-05
   88.8000031        -1.06969464E-05
   88.9649963        -1.11069476E-05
   89.1299973        -1.15380044E-05
   89.2949982        -1.19801307E-05
   89.4599991        -1.24224707E-05
   89.6250000        -1.28539496E-05
   89.7900009        -1.32639389E-05
   89.9550018        -1.36428898E-05
   90.1200027        -1.39828608E-05
   90.2850037        -1.42778872E-05
   90.4499969        -1.45241520E-05
   90.6149979        -1.47199507E-05
   90.7799988        -1.48654626E-05
   90.9449997        -1.49623547E-05
   91.1100006        -1.50132864E-05
   91.2750015        -1.50213600E-05
   91.4400024        -1.49896232E-05
   91.6050034        -1.49206471E-05
   91.7699966        -1.48162626E-05
   91.9349976        -1.46774628E-05
   92.0999985        -1.45044860E-05
   92.2649994        -1.42970493E-05
   92.4300003        -1.40546954E-05
   92.5950012        -1.37771840E-05
   92.7600021        -1.34648653E-05
   92.9250031        -1.31189800E-05
   93.0899963        -1.27418243E-05
   93.2549973        -1.23367772E-05
   93.4199982        -1.19081678E-05
   93.5849991        -1.14610220E-05
   93.7500000        -1.10007468E-05
   93.9150009        -1.05327927E-05
   94.0800018        -1.00623793E-05
   94.2450027        -9.59432055E-06
   94.4100037        -9.13299664E-06
   94.5749969        -8.68246025E-06
   94.7399979        -8.24666949E-06
   94.9049988        -7.82978168E-06
   95.0699997        -7.43644887E-06
   95.2350006        -7.07203253E-06
   95.4000015        -6.74266721E-06
   95.5650024        -6.45513319E-06
   95.7300034        -6.21650133E-06
   95.8949966        -6.03357330E-06
   96.0599976        -5.91216485E-06
   96.2249985        -5.85629596E-06
   96.3899994        -5.86739452E-06
   96.5550003        -5.94361109E-06
   96.7200012        -6.07933498E-06
   96.8850021        -6.26498741E-06
   97.0500031        -6.48714604E-06
   97.2149963        -6.72900296E-06
   97.3799973        -6.97113137E-06
   97.5449982        -7.19250374E-06
   97.7099991        -7.37167466E-06
   97.8750000        -7.48801767E-06
   98.0400009        -7.52290907E-06
   98.2050018        -7.46076194E-06
   98.3700027        -7.28981286E-06
   98.5350037        -7.00261899E-06
   98.6999969        -6.59623129E-06
   98.8649979        -6.07206584E-06
   99.0299988        -5.43550050E-06
   99.1949997        -4.69527549E-06
   99.3600006        -3.86276724E-06
   99.5250015        -2.95122527E-06
   99.6900024        -1.97504187E-06
   99.8550034        -9.49110586E-07
   100.019997         1.11682652E-07
   100.184998         1.19283675E-06
   100.349998         2.28048179E-06
   100.514999         3.36152448E-06
   100.680000         4.42372902E-06
   100.845001         5.45576086E-06
   101.010002         6.44722104E-06
   101.175003         7.38868175E-06
   101.339996         8.27172062E-06
   101.504997         9.08894708E-06
   101.669998         9.83400150E-06
   101.834999         1.05015197E-05
   102.000000         1.10870742E-05
   102.165001         1.15870807E-05
   102.330002         1.19987380E-05
   102.495003         1.23200007E-05
   102.660004         1.25496435E-05
   102.824997         1.26874384E-05
   102.989998         1.27344392E-05
   103.154999         1.26933746E-05
   103.320000         1.25690813E-05
   103.485001         1.23689169E-05
   103.650002         1.21030616E-05
   103.815002         1.17846339E-05
   103.980003         1.14295253E-05
   104.144997         1.10559340E-05
   104.309998         1.06835823E-05
   104.474998         1.03326374E-05
   104.639999         1.00224333E-05
   104.805000         9.77008676E-06
   104.970001         9.58913006E-06
   105.135002         9.48832530E-06
   105.300003         9.47074750E-06
   105.464996         9.53328799E-06
   105.629997         9.66661446E-06
   105.794998         9.85565111E-06
   105.959999         1.00805473E-05
   106.125000         1.03180791E-05
   106.290001         1.05433774E-05
   106.455002         1.07318565E-05
   106.620003         1.08611557E-05
   106.785004         1.09129296E-05
   106.949997         1.08743225E-05
   107.114998         1.07389533E-05
   107.279999         1.05073386E-05
   107.445000         1.01866663E-05
   107.610001         9.78996559E-06
   107.775002         9.33474894E-06
   107.940002         8.84125984E-06
   108.105003         8.33054946E-06
   108.269997         7.82256939E-06
   108.434998         7.33449997E-06
   108.599998         6.87948432E-06
   108.764999         6.46588569E-06
   108.930000         6.09709014E-06
   109.095001         5.77182936E-06
   109.260002         5.48491653E-06
   109.425003         5.22824030E-06
   109.589996         4.99184625E-06
   109.754997         4.76495825E-06
   109.919998         4.53679695E-06
   110.084999         4.29713737E-06
   110.250000         4.03658169E-06
   110.415001         3.74659248E-06
   110.580002         3.41937039E-06
   110.745003         3.04767354E-06
   110.910004         2.62469280E-06
   111.074997         2.14406532E-06
   111.239998         1.60007767E-06
   111.404999         9.88067768E-07
   111.570000         3.04994273E-07
   111.735001        -4.49906366E-07
   111.900002        -1.27447288E-06
   112.065002        -2.16309786E-06
   112.230003        -3.10643804E-06
   112.394997        -4.09145059E-06
   112.559998        -5.10180234E-06
   112.724998        -6.11866653E-06
   112.889999        -7.12185374E-06
   113.055000        -8.09119774E-06
   113.220001        -9.00804389E-06
   113.385002        -9.85668794E-06
   113.550003        -1.06255848E-05
   113.714996        -1.13081842E-05
   113.879997        -1.19032675E-05
   114.044998        -1.24147264E-05
   114.209999        -1.28508218E-05
   114.375000        -1.32229934E-05
   114.540001        -1.35443852E-05
   114.705002        -1.38282712E-05
   114.870003        -1.40865977E-05
   115.035004        -1.43288098E-05
   115.199997        -1.45611066E-05
   115.364998        -1.47861565E-05
   115.529999        -1.50032811E-05
   115.695000        -1.52089979E-05
   115.860001        -1.53977908E-05
   116.025002        -1.55629605E-05
   116.190002        -1.56974038E-05
   116.355003        -1.57942377E-05
   116.519997        -1.58471921E-05
   116.684998        -1.58507974E-05
   116.849998        -1.58004059E-05
   117.014999        -1.56921305E-05
   117.180000        -1.55227772E-05
   117.345001        -1.52898192E-05
   117.510002        -1.49914786E-05
   117.675003        -1.46268676E-05
   117.839996        -1.41961709E-05
   118.004997        -1.37008064E-05
   118.169998        -1.31434990E-05
   118.334999        -1.25282149E-05
   118.500000        -1.18599601E-05
   118.665001        -1.11444342E-05
   118.830002        -1.03876064E-05
   118.995003        -9.59528734E-06
   119.160004        -8.77277307E-06
   119.324997        -7.92464925E-06
   119.489998        -7.05479306E-06
   119.654999        -6.16663147E-06
   119.820000        -5.26359645E-06
   119.985001        -4.34977983E-06
   120.150002        -3.43066495E-06
   120.315002        -2.51385313E-06
   120.480003        -1.60965010E-06
   120.644997        -7.31396995E-07
   120.809998         1.04562154E-07
   120.974998         8.79354047E-07
   121.139999         1.57251429E-06
   121.305000         2.16336662E-06
   121.470001         2.63274023E-06
   121.635002         2.96487633E-06
   121.800003         3.14931549E-06
   121.964996         3.18253251E-06
   122.129997         3.06908669E-06
   122.294998         2.82210021E-06
   122.459999         2.46292848E-06
   122.625000         2.02000456E-06
   122.790001         1.52692394E-06
   122.955002         1.01995329E-06
   123.120003         5.35223990E-07
   123.285004         1.05911830E-07
   123.449997        -2.40277302E-07
   123.614998        -4.83052816E-07
   123.779999        -6.10714665E-07
   123.945000        -6.20466153E-07
   124.110001        -5.17873730E-07
   124.275002        -3.15586504E-07
   124.440002        -3.15065272E-08
   124.605003         3.13351165E-07
   124.769997         6.97051348E-07
   124.934998         1.09874304E-06
   125.099998         1.50027654E-06
   125.264999         1.88729621E-06
   125.430000         2.24974224E-06
   125.595001         2.58177079E-06
   125.760002         2.88116871E-06
   125.925003         3.14839940E-06
   126.089996         3.38544896E-06
   126.254997         3.59466912E-06
   126.419998         3.77780202E-06
   126.584999         3.93535038E-06
   126.750000         4.06640447E-06
   126.915001         4.16896592E-06
   127.080002         4.24073642E-06
   127.245003         4.28025032E-06
   127.410004         4.28815520E-06
   127.574997         4.26840370E-06
   127.739998         4.22910898E-06
   127.904999         4.18282798E-06
   128.070007         4.14612941E-06
   128.235001         4.13839598E-06
   128.399994         4.17993442E-06
   128.565002         4.28958356E-06
   128.729996         4.48211313E-06
   128.895004         4.76575178E-06
   129.059998         5.14019484E-06
   129.225006         5.59538285E-06
   129.389999         6.11125643E-06
   129.554993         6.65856578E-06
   129.720001         7.20067692E-06
   129.884995         7.69620783E-06
   130.050003         8.10221172E-06
   130.214996         8.37759671E-06
   130.380005         8.48645413E-06
   130.544998         8.40098892E-06
   130.710007         8.10381334E-06
   130.875000         7.58946044E-06
   131.039993         6.86501835E-06
   131.205002         5.94989569E-06
   131.369995         4.87476018E-06
   131.535004         3.67976691E-06