  -1.95000005         0.00000000    
  -1.78499997         0.00000000    
  -1.62000000         0.00000000    
  -1.45500004         0.00000000    
  -1.28999996         0.00000000    
  -1.12500000         0.00000000    
 -0.959999979         0.00000000    
 -0.795000017         0.00000000    
 -0.629999995         0.00000000    
 -0.465000004         0.00000000    
 -0.300000012         0.00000000    
 -0.135000005         0.00000000    
   2.99999993E-02     0.00000000    
  0.194999993         0.00000000    
  0.360000014         0.00000000    
  0.524999976         0.00000000    
  0.689999998         0.00000000    
  0.855000019         0.00000000    
   1.01999998         0.00000000    
   1.18499994         0.00000000    
   1.35000002         0.00000000    
   1.51499999         0.00000000    
   1.67999995         0.00000000    
   1.84500003         0.00000000    
   2.00999999         0.00000000    
   2.17499995         0.00000000    
   2.33999991         0.00000000    
   2.50500011         0.00000000    
   2.67000008         0.00000000    
   2.83500004         0.00000000    
   3.00000000         0.00000000    
   3.16499996         0.00000000    
   3.32999992         0.00000000    
   3.49499989         0.00000000    
   3.66000009         0.00000000    
   3.82500005         0.00000000    
   3.99000001         0.00000000    
   4.15500021         0.00000000    
   4.32000017         0.00000000    
   4.48500013         0.00000000    
   4.65000010         0.00000000    
   4.81500006         0.00000000    
   4.98000002         0.00000000    
   5.14499998         0.00000000    
   5.30999994         0.00000000    
   5.47499990         0.00000000    
   5.63999987         0.00000000    
   5.80499983         0.00000000    
   5.96999979         0.00000000    
   6.13500023         0.00000000    
   6.30000019         0.00000000    
   6.46500015         0.00000000    
   6.63000011         0.00000000    
   6.79500008         0.00000000    
   6.96000004         0.00000000    
   7.12500000         0.00000000    
   7.28999996         0.00000000    
   7.45499992         0.00000000    
   7.61999989         0.00000000    
   7.78499985         0.00000000    
   7.94999981         0.00000000    
   8.11499977         0.00000000    
   8.27999973         0.00000000    
   8.44499969         0.00000000    
   8.60999966         0.00000000    
   8.77499962         0.00000000    
   8.93999958         0.00000000    
   9.10499954         0.00000000    
   9.27000046         0.00000000    
   9.43500042         1.09608760E-33
   9.60000038         2.19217556E-33
   9.76500034         2.99298053E-33
   9.93000031         2.97907806E-34
   10.0950003        -6.48630142E-33
   10.2600002        -9.04795267E-33
   10.4250002        -1.73818190E-32
   10.5900002        -2.31654069E-32
   10.7550001        -1.26272191E-32
   10.9200001         2.16660553E-34
   11.0850000         5.17714937E-31
   11.2500000         1.01310949E-30
   11.4150000         1.48778493E-30
   11.5799999         2.32613781E-31
   11.7449999        -1.82495329E-30
   11.9099998        -5.33693394E-30
   12.0749998        -6.54303477E-30
   12.2399998        -2.62621444E-30
   12.4049997         3.31019247E-30
   12.5699997         9.59759879E-30
   12.7349997         2.63744896E-30
   12.8999996        -1.57767351E-29
   13.0649996        -3.92676803E-29
   13.2299995        -6.81056856E-29
   13.3950005        -9.60696588E-29
   13.5600004        -1.48908293E-28
   13.7250004        -2.64795001E-28
   13.8900003        -4.43590922E-28
   14.0550003        -6.22983352E-28
   14.2200003        -7.23244231E-28
   14.3850002        -6.33970782E-28
   14.5500002        -2.65708204E-28
   14.7150002         4.03056019E-28
   14.8800001         1.29710891E-27
   15.0450001         2.23679719E-27
   15.2100000         2.98805258E-27
   15.3750000         3.32695115E-27
   15.5400000         3.09592064E-27
   15.7049999         2.31275394E-27
   15.8699999         1.20492841E-27
   16.0349998         1.99214233E-28
   16.2000008        -2.11119526E-28
   16.3649998         2.21563097E-28
   16.5300007         1.18288643E-27
   16.6949997         1.55225524E-27
   16.8600006        -5.20906272E-28
   17.0249996        -7.12587223E-27
   17.1900005        -1.96717535E-26
   17.3549995        -3.78592498E-26
   17.5200005        -5.89211488E-26
   17.6849995        -7.76202030E-26
   17.8500004        -8.72351663E-26
   18.0149994        -8.13685002E-26
   18.1800003        -5.58723555E-26
   18.3449993        -9.93011097E-27
   18.5100002         5.45462434E-26
   18.6749992         1.35271501E-25
   18.8400002         2.32588464E-25
   19.0049992         3.50863070E-25
   19.1700001         4.95650181E-25
   19.3349991         6.65042826E-25
   19.5000000         8.36248963E-25
   19.6650009         9.52067746E-25
   19.8299999         9.15131307E-25
   19.9950008         5.98633705E-25
   20.1599998        -1.20767566E-25
   20.3250008        -1.30950368E-24
   20.4899998        -2.91469511E-24
   20.6550007        -4.71358590E-24
   20.8199997        -6.29971973E-24
   20.9850006        -7.12620496E-24
   21.1499996        -6.61241828E-24
   21.3150005        -4.29995576E-24
   21.4799995        -2.31289811E-26
   21.6450005         5.95339638E-24
   21.8099995         1.28757774E-23
   21.9750004         1.95501110E-23
   22.1399994         2.45011646E-23
   22.3050003         2.62139978E-23
   22.4699993         2.34132686E-23
   22.6350002         1.53327802E-23
   22.7999992         1.94077591E-24
   22.9650002        -1.58955520E-23
   23.1299992        -3.63135962E-23
   23.2950001        -5.64437614E-23
   23.4599991        -7.25276760E-23
   23.6250000        -8.02406846E-23
   23.7900009        -7.52982249E-23
   23.9549999        -5.43784099E-23
   24.1200008        -1.62838262E-23
   24.2849998         3.68871643E-23
   24.4500008         9.89340186E-23
   24.6149998         1.59551409E-22
   24.7800007         2.05486439E-22
   24.9449997         2.22954609E-22
   25.1100006         2.01012992E-22
   25.2749996         1.35156321E-22
   25.4400005         3.00826079E-23
   25.6049995        -9.94697308E-23
   25.7700005        -2.30586340E-22
   25.9349995        -3.36833888E-22
   26.1000004        -3.94909853E-22
   26.2649994        -3.91635058E-22
   26.4300003        -3.29126957E-22
   26.5949993        -2.26074459E-22
   26.7600002        -1.13794549E-22
   26.9249992        -2.71259699E-23
   27.0900002         8.14140032E-24
   27.2549992        -1.19324063E-23
   27.4200001        -6.05352106E-23
   27.5849991        -7.91623749E-23
   27.7500000         1.25334836E-23
   27.9150009         2.95612081E-22
   28.0799999         8.22006493E-22
   28.2450008         1.58176502E-21
   28.4099998         2.47593010E-21
   28.5750008         3.30491411E-21
   28.7399998         3.78153735E-21
   28.9050007         3.57460609E-21
   29.0699997         2.38278241E-21
   29.2350006         3.03323739E-23
   29.3999996        -3.43293606E-21
   29.5650005        -7.65287954E-21
   29.7299995        -1.19423442E-20
   29.8950005        -1.53284468E-20
   30.0599995        -1.66900297E-20
   30.2250004        -1.49802118E-20
   30.3899994        -9.50450396E-21
   30.5550003        -2.01303280E-22
   30.7199993         1.21443895E-20
   30.8850002         2.58249535E-20
   31.0499992         3.83260695E-20
   31.2150002         4.66554649E-20
   31.3799992         4.78595361E-20
   31.5450001         3.96556719E-20
   31.7099991         2.10709301E-20
   31.8750000        -7.04108416E-21
   32.0400009        -4.17256300E-20
   32.2050018        -7.79858644E-20
   32.3699989        -1.09221897E-19
   32.5349998        -1.28039054E-19
   32.7000008        -1.27364321E-19
   32.8650017        -1.01762396E-19
   33.0299988        -4.87996656E-20
   33.1949997         2.97308067E-20
   33.3600006         1.26935738E-19
   33.5250015         2.30540071E-19
   33.6899986         3.23420046E-19
   33.8549995         3.85129193E-19
   34.0200005         3.94496134E-19
   34.1850014         3.33190522E-19
   34.3499985         1.89947035E-19
   34.5149994        -3.51099719E-20
   34.6800003        -3.26809883E-19
   34.8450012        -6.52840770E-19
   35.0099983        -9.64117881E-19
   35.1749992        -1.19834824E-18
   35.3400002        -1.28715766E-18
   35.5050011        -1.16663248E-18
   35.6699982        -7.90461341E-19
   35.8349991        -1.44133753E-19
   36.0000000         7.42043255E-19
   36.1650009         1.78390309E-18
   36.3300018         2.84130709E-18
   36.4949989         3.72566160E-18
   36.6599998         4.21878284E-18
   36.8250008         4.10316532E-18
   36.9900017         3.20164330E-18
   37.1549988         1.42171668E-18
   37.3199997        -1.20233059E-18
   37.4850006        -4.47792157E-18
   37.6500015        -8.04209393E-18
   37.8149986        -1.13759693E-17
   37.9799995        -1.38497836E-17
   38.1450005        -1.47977218E-17
   38.3100014        -1.36166138E-17
   38.4749985        -9.87709652E-18
   38.6399994        -3.43214607E-18
   38.8050003         5.49412205E-18
   38.9700012         1.62540147E-17
   39.1349983         2.77736512E-17
   39.2999992         3.86086352E-17
   39.4650002         4.70600157E-17
   39.6300011         5.13454697E-17
   39.7949982         4.98130448E-17
   39.9599991         4.11792016E-17
   40.1250000         2.47666164E-17
   40.2900009         7.14666472E-19
   40.4550018        -2.98663255E-17
   40.6199989        -6.48237226E-17
   40.7849998        -1.00996404E-16
   40.9500008        -1.34367801E-16
   41.1150017        -1.60342119E-16
   41.2799988        -1.74134794E-16
   41.4449997        -1.71256906E-16
   41.6100006        -1.48059983E-16
   41.7750015        -1.02300080E-16
   41.9399986        -3.36708004E-17
   42.1049995         5.57494917E-17
   42.2700005         1.61193282E-16
   42.4350014         2.75099731E-16
   42.5999985         3.87264575E-16
   42.7649994         4.85289528E-16
   42.9300003         5.55360275E-16
   43.0950012         5.83360220E-16
   43.2599983         5.56287618E-16
   43.4249992         4.63904752E-16
   43.5900002         3.00496135E-16
   43.7550011         6.65667973E-17
   43.9199982        -2.29729100E-16
   44.0849991        -5.71663701E-16
   44.2500000        -9.33745722E-16
   44.4150009        -1.28246897E-15
   44.5800018        -1.57813641E-15
   44.7449989        -1.77779807E-15
   44.9099998        -1.83922045E-15
   45.0750008        -1.72565006E-15
   45.2400017        -1.41099627E-15
   45.4049988        -8.84917819E-16
   45.5699997        -1.57198542E-16
   45.7350006         7.39229264E-16
   45.9000015         1.74722642E-15
   46.0649986         2.78684068E-15
   46.2299995         3.75942783E-15
   46.3950005         4.55451310E-15
   46.5600014         5.05907707E-15
   46.7249985         5.16865349E-15
   46.8899994         4.79932087E-15
   47.0550003         3.89948854E-15
   47.2200012         2.46025781E-15
   47.3849983         5.23142954E-16
   47.5499992        -1.81591010E-15
   47.7150002        -4.40708066E-15
   47.8800011        -7.05230230E-15
   48.0449982        -9.51609583E-15
   48.2099991        -1.15413152E-14
   48.3750000        -1.28690470E-14
   48.5400009        -1.32614917E-14
   48.7050018        -1.25263035E-14
   48.8699989        -1.05405153E-14
   49.0349998        -7.27204975E-15
   49.2000008        -2.79666689E-15
   49.3650017         2.69165768E-15
   49.5299988         8.87874674E-15
   49.6949997         1.53380895E-14
   49.8600006         2.15494618E-14
   50.0250015         2.69284971E-14
   50.1899986         3.08666463E-14
   50.3549995         3.27798938E-14
   50.5200005         3.21636537E-14
   50.6850014         2.86501271E-14
   50.8499985         2.20635396E-14
   51.0149994         1.24678379E-14
   51.1800003         2.01119847E-16
   51.3450012        -1.41088457E-14
   51.5099983        -2.95528237E-14
   51.6749992        -4.49754844E-14
   51.8400002        -5.90391315E-14
   52.0050011        -7.03145428E-14
   52.1699982        -7.73943762E-14
   52.3349991        -7.90219669E-14
   52.5000000        -7.42253210E-14
   52.6650009        -6.24444750E-14
   52.8300018        -4.36391849E-14
   52.9949989        -1.83642621E-14
   53.1599998         1.21983536E-14
   53.3250008         4.62589900E-14
   53.4900017         8.14951134E-14
   53.6549988         1.15180895E-13
   53.8199997         1.44365612E-13
   53.9850006         1.66090367E-13
   54.1500015         1.77628135E-13
   54.3149986         1.76729210E-13
   54.4799995         1.61852966E-13
   54.6450005         1.32366340E-13
   54.8100014         8.86912004E-14
   54.9749985         3.23860100E-14
   55.1399994        -3.38495813E-14
   55.3050003        -1.06252748E-13
   55.4700012        -1.80159585E-13
   55.6349983        -2.50246872E-13
   55.7999992        -3.10844395E-13
   55.9650002        -3.56303989E-13
   56.1300011        -3.81406820E-13
   56.2949982        -3.81787267E-13
   56.4599991        -3.54347058E-13
   56.6250000        -2.97631603E-13
   56.7900009        -2.12137897E-13
   56.9550018        -1.00522794E-13
   57.1199989         3.23176409E-14
   57.2849998         1.79323394E-13
   57.4500008         3.31518558E-13
   57.6150017         4.78440746E-13
   57.7799988         6.08745151E-13
   57.9449997         7.10962214E-13
   58.1100006         7.74367766E-13
   58.2750015         7.89909154E-13
   58.4399986         7.51114503E-13
   58.6049995         6.54903323E-13
   58.7700005         5.02211879E-13
   58.9350014         2.98354440E-13
   59.0999985         5.30542441E-14
   59.2649994        -2.19896245E-13
   59.4300003        -5.03354845E-13
   59.5950012        -7.77901723E-13
   59.7599983        -1.02319856E-12
   59.9249992        -1.21953576E-12
   60.0900002        -1.34944020E-12
   60.2550011        -1.39920053E-12
   60.4199982        -1.36016751E-12
   60.5849991        -1.22969863E-12
   60.7500000        -1.01164389E-12
   60.9150009        -7.16310962E-13
   61.0800018        -3.59898661E-13
   61.2449989         3.65708948E-14
   61.4099998         4.48731465E-13
   61.5750008         8.50640738E-13
   61.7400017         1.21668723E-12
   61.9049988         1.52347124E-12
   62.0699997         1.75150010E-12
   62.2350006         1.88656014E-12
   62.4000015         1.92065157E-12
   62.5649986         1.85242099E-12
   62.7299995         1.68706531E-12
   62.8950005         1.43572784E-12
   63.0600014         1.11444838E-12
   63.2249985         7.42763923E-13
   63.3899994         3.42083539E-13
   63.5550003        -6.60241311E-14
   63.7200012        -4.61485559E-13
   63.8849983        -8.27179200E-13
   64.0500031        -1.15006160E-12
   64.2149963        -1.42186447E-12
   64.3799973        -1.63928506E-12
   64.5449982        -1.80364165E-12
   64.7099991        -1.92001124E-12
   64.8750000        -1.99591428E-12
   65.0400009        -2.03966379E-12
   65.2050018        -2.05854127E-12
   65.3700027        -2.05699932E-12
   65.5350037        -2.03510494E-12
   65.6999969        -1.98744168E-12
   65.8649979        -1.90267051E-12
   66.0299988        -1.76388385E-12
   66.1949997        -1.54983686E-12
   66.3600006        -1.23703944E-12
   66.5250015        -8.02600499E-13
   66.6900024        -2.27618190E-13
   66.8550034         4.99176330E-13
   67.0199966         1.37786917E-12
   67.1849976         2.39430004E-12
   67.3499985         3.51786005E-12
   67.5149994         4.70047916E-12
   67.6800003         5.87707574E-12
   67.8450012         6.96760401E-12
   68.0100021         7.88074467E-12
   68.1750031         8.51911770E-12
   68.3399963         8.78581496E-12
   68.5049973         8.59188415E-12
   68.6699982         7.86433592E-12
   68.8349991         6.55414915E-12
   69.0000000         4.64371640E-12
   69.1650009         2.15311059E-12
   69.3300018        -8.55418709E-13
   69.4950027        -4.27528195E-12
   69.6600037        -7.95619473E-12
   69.8249969        -1.17080200E-11
   69.9899979        -1.53079875E-11
   70.1549988        -1.85112828E-11
   70.3199997        -2.10647316E-11
   70.4850006        -2.27230630E-11
   70.6500015        -2.32668815E-11
   70.8150024        -2.25212193E-11
   70.9800034        -2.03733714E-11
   71.1449966        -1.67884508E-11
   71.3099976        -1.18212185E-11
   71.4749985        -5.62269198E-12
   71.6399994         1.55960802E-12
   71.8050003         9.38854897E-12
   71.9700012         1.74516582E-11
   72.1350021         2.52823960E-11
   72.3000031         3.23873810E-11
   72.4649963         3.82778947E-11
   72.6299973         4.25035146E-11
   72.7949982         4.46852624E-11
   72.9599991         4.45457525E-11
   73.1250000         4.19336475E-11
   73.2900009         3.68403780E-11
   73.4550018         2.94075250E-11
   73.6200027         1.99240190E-11
   73.7850037         8.81319063E-12
   73.9499969        -3.38943001E-12
   74.1149979        -1.60660808E-11
   74.2799988        -2.85522300E-11
   74.4449997        -4.01750751E-11
   74.6100006        -5.02923779E-11
   74.7750015        -5.83291609E-11
   74.9400024        -6.38099781E-11
   75.1050034        -6.63849670E-11
   75.2699966        -6.58485350E-11
   75.4349976        -6.21497506E-11
   75.5999985        -5.53945674E-11
   75.7649994        -4.58398354E-11
   75.9300003        -3.38798815E-11
   76.0950012        -2.00265134E-11
   76.2600021        -4.88365902E-12
   76.4250031         1.08821832E-11
   76.5899963         2.65739930E-11
   76.7549973         4.14973125E-11
   76.9199982         5.49925418E-11
   77.0849991         6.64648822E-11
   77.2500000         7.54101226E-11
   77.4150009         8.14350878E-11
   77.5800018         8.42715897E-11
   77.7450027         8.37833622E-11
   77.9100037         7.99661865E-11
   78.0749969         7.29416666E-11
   78.2399979         6.29459818E-11
   78.4049988         5.03150369E-11
   78.5699997         3.54680035E-11
   78.7350006         1.88906824E-11
   78.9000015         1.12025265E-12
   79.0650024        -1.72679041E-11
   79.2300034        -3.56712403E-11
   79.3949966        -5.34693921E-11
   79.5599976        -7.00332708E-11
   79.7249985        -8.47352466E-11
   79.8899994        -9.69622299E-11
   80.0550003        -1.06132741E-10
   80.2200012        -1.11718773E-10
   80.3850021        -1.13272100E-10
   80.5500031        -1.10453875E-10
   80.7149963        -1.03065619E-10
   80.8799973        -9.10784503E-11
   81.0449982        -7.46580159E-11
   81.2099991        -5.41814961E-11
   81.3750000        -3.02446158E-11
   81.5400009        -3.65648657E-12
   81.7050018         2.45784833E-11
   81.8700027         5.32915274E-11
   82.0350037         8.11922682E-11
   82.1999969         1.06921749E-10
   82.3649979         1.29113664E-10
   82.5299988         1.46461301E-10
   82.6949997         1.57787935E-10
   82.8600006         1.62118000E-10
   83.0250015         1.58746322E-10
   83.1900024         1.47302517E-10
   83.3550034         1.27806751E-10
   83.5199966         1.00713125E-10
   83.6849976         6.69357347E-11
   83.8499985         2.78519135E-11
   84.0149994        -1.47217186E-11
   84.1800003        -5.85851992E-11
   84.3450012        -1.01245810E-10
   84.5100021        -1.40042158E-10
   84.6750031        -1.72299314E-10
   84.8399963        -1.95506861E-10
   85.0049973        -2.07508538E-10
   85.1699982        -2.06689915E-10
   85.3349991        -1.92146576E-10
   85.5000000        -1.63817029E-10
   85.6650009        -1.22564014E-10
   85.8300018        -7.01925670E-11
   85.9950027        -9.39805091E-12
   86.1600037         5.63569018E-11
   86.3249969         1.23030308E-10
   86.4899979         1.86241425E-10
   86.6549988         2.41546033E-10
   86.8199997         2.84725077E-10
   86.9850006         3.12065623E-10
   87.1500015         3.20612009E-10
   87.3150024         3.08370690E-10
   87.4800034         2.74456263E-10
   87.6449966         2.19171903E-10
   87.8099976         1.44024070E-10
   87.9749985         5.16757574E-11
   88.1399994        -5.41532166E-11
   88.3050003        -1.68829090E-10
   88.4700012        -2.86980051E-10
   88.6350021        -4.02697986E-10
   88.8000031        -5.09760123E-10
   88.9649963        -6.01868333E-10
   89.1299973        -6.72905065E-10
   89.2949982        -7.17204574E-10
   89.4599991        -7.29837302E-10
   89.6250000        -7.06900427E-10
   89.7900009        -6.45804521E-10
   89.9550018        -5.45538725E-10
   90.1200027        -4.06893880E-10
   90.2850037        -2.32619493E-10
   90.4499969        -2.74898715E-11
   90.6149979         2.01741748E-10
   90.7799988         4.46516324E-10
   90.9449997         6.96771363E-10
   91.1100006         9.41367095E-10
   91.2750015         1.16861310E-09
   91.4400024         1.36686373E-09
   91.6050034         1.52514035E-09
   91.7699966         1.63373481E-09
   91.9349976         1.68474745E-09
   92.0999985         1.67251979E-09
   92.2649994         1.59393310E-09
   92.4300003         1.44855461E-09
   92.5950012         1.23862853E-09
   92.7600021         9.68928382E-10
   92.9250031         6.46490472E-10
   93.0899963         2.80264256E-10
   93.2549973        -1.19286636E-10
   93.4199982        -5.40599121E-10
   93.5849991        -9.71413838E-10
   93.7500000        -1.39914769E-09
   93.9150009        -1.81122384E-09
   94.0800018        -2.19535901E-09
   94.2450027        -2.53981591E-09
   94.4100037        -2.83362489E-09
   94.5749969        -3.06678771E-09
   94.7399979        -3.23047167E-09
   94.9049988        -3.31719052E-09
   95.0699997        -3.32097083E-09
   95.2350006        -3.23749694E-09
   95.4000015        -3.06421777E-09
   95.5650024        -2.80041101E-09
   95.7300034        -2.44719445E-09
   95.8949966        -2.00748529E-09
   96.0599976        -1.48592127E-09
   96.2249985        -8.88753793E-10
   96.3899994        -2.23741997E-10
   96.5550003         4.99931374E-10
   96.7200012         1.27169386E-09
   96.8850021         2.07955853E-09
   97.0500031         2.91002933E-09
   97.2149963         3.74795128E-09
   97.3799973         4.57633487E-09
   97.5449982         5.37619105E-09
   97.7099991         6.12643847E-09
   97.8750000         6.80393253E-09
   98.0400009         7.38367367E-09
   98.2050018         7.83924214E-09
   98.3700027         8.14347878E-09
   98.5350037         8.26942514E-09
   98.6999969         8.19148660E-09
   98.8649979         7.88678456E-09
   99.0299988         7.33660377E-09
   99.1949997         6.52786403E-09
   99.3600006         5.45450218E-09
   99.5250015         4.11866674E-09
   99.6900024         2.53163313E-09
   99.8550034         7.14364901E-10
   100.019997        -1.30233491E-09
   100.184998        -3.47810358E-09
   100.349998        -5.76373749E-09
   100.514999        -8.10231260E-09
   100.680000        -1.04306652E-08
   100.845001        -1.26811655E-08
   101.010002        -1.47837174E-08
   101.175003        -1.66678920E-08
   101.339996        -1.82651458E-08
   101.504997        -1.95110168E-08
   101.669998        -2.03472688E-08
   101.834999        -2.07239133E-08
   102.000000        -2.06010515E-08
   102.165001        -1.99504875E-08
   102.330002        -1.87570723E-08
   102.495003        -1.70197438E-08
   102.660004        -1.47521817E-08
   102.824997        -1.19830741E-08
   102.989998        -8.75591244E-09
   103.154999        -5.12830356E-09
   103.320000        -1.17077570E-09
   103.485001         3.03492786E-09
   103.650002         7.39802841E-09
   103.815002         1.18213244E-08
   103.980003         1.62041172E-08
   104.144997         2.04453592E-08
   104.309998         2.44468588E-08
   104.474998         2.81163892E-08
   104.639999         3.13705009E-08
   104.805000         3.41368711E-08
   104.970001         3.63560879E-08
   105.135002         3.79826481E-08
   105.300003         3.89852630E-08
   105.464996         3.93463715E-08
   105.629997         3.90609536E-08
   105.794998         3.81348038E-08
   105.959999         3.65823709E-08
   106.125000         3.44244349E-08
   106.290001         3.16858291E-08
   106.455002         2.83934032E-08
   106.620003         2.45743870E-08
   106.785004         2.02553156E-08
   106.949997         1.54615201E-08
   107.114998         1.02172288E-08
   107.279999         4.54611904E-09
   107.445000        -1.52772717E-09
   107.610001        -7.97866484E-09
   107.775002        -1.47782409E-08
   107.940002        -2.18940208E-08
   108.105003        -2.92885307E-08
   108.269997        -3.69183830E-08
   108.434998        -4.47335076E-08
   108.599998        -5.26764126E-08
   108.764999        -6.06813657E-08
   108.930000        -6.86733799E-08
   109.095001        -7.65668986E-08
   109.260002        -8.42641796E-08
   109.425003        -9.16534546E-08
   109.589996        -9.86070390E-08
   109.754997        -1.04979577E-07
   109.919998        -1.10606884E-07
   110.084999        -1.15305653E-07
   110.250000        -1.18874304E-07
   110.415001        -1.21095383E-07
   110.580002        -1.21739603E-07
   110.745003        -1.20571471E-07
   110.910004        -1.17356535E-07
   111.074997        -1.11869710E-07
   111.239998        -1.03904256E-07
   111.404999        -9.32809883E-08
   111.570000        -7.98570028E-08
   111.735001        -6.35334771E-08
   111.900002        -4.42619985E-08
   112.065002        -2.20491554E-08
   112.230003         3.04076919E-09
   112.394997         3.08849550E-08
   112.559998         6.13029840E-08
   112.724998         9.40592173E-08
   112.889999         1.28866247E-07
   113.055000         1.65389267E-07
   113.220001         2.03250977E-07
   113.385002         2.42037203E-07
   113.550003         2.81302817E-07
   113.714996         3.20578238E-07
   113.879997         3.59376742E-07
   114.044998         3.97202570E-07
   114.209999         4.33560132E-07
   114.375000         4.67963957E-07
   114.540001         4.99949635E-07
   114.705002         5.29085014E-07
   114.870003         5.54981057E-07
   115.035004         5.77302274E-07
   115.199997         5.95775248E-07
   115.364998         6.10194945E-07
   115.529999         6.20428409E-07
   115.695000         6.26415101E-07
   115.860001         6.28163946E-07
   116.025002         6.25747987E-07
   116.190002         6.19295520E-07
   116.355003         6.08980486E-07
   116.519997         5.95011670E-07
   116.684998         5.77622075E-07
   116.849998         5.57059366E-07
   117.014999         5.33578771E-07
   117.180000         5.07437221E-07
   117.345001         4.78891025E-07
   117.510002         4.48194953E-07
   117.675003         4.15604035E-07
   117.839996         3.81376310E-07
   118.004997         3.45776641E-07
   118.169998         3.09080349E-07
   118.334999         2.71576340E-07
   118.500000         2.33569722E-07
   118.665001         1.95383038E-07
   118.830002         1.57356894E-07
   118.995003         1.19850029E-07
   119.160004         8.32381559E-08
   119.324997         4.79134918E-08
   119.489998         1.42838363E-08
   119.654999        -1.72282348E-08
   119.820000        -4.61864751E-08
   119.985001        -7.21427824E-08
   120.150002        -9.46402139E-08
   120.315002        -1.13218128E-07
   120.480003        -1.27419924E-07
   120.644997        -1.36803692E-07
   120.809998        -1.40956303E-07
   120.974998        -1.39509964E-07
   121.139999        -1.32161716E-07
   121.305000        -1.18693947E-07
   121.470001        -9.89950806E-08
   121.635002        -7.30782475E-08
   121.800003        -4.10970245E-08
   121.964996        -3.35596373E-09
   122.129997         3.96849344E-08
   122.294998         8.74127934E-08
   122.459999         1.39071602E-07
   122.625000         1.93778831E-07
   122.790001         2.50548538E-07
   122.955002         3.08318704E-07
   123.120003         3.65982146E-07
   123.285004         4.22418509E-07
   123.449997         4.76526168E-07
   123.614998         5.27251359E-07
   123.779999         5.73614500E-07
   123.945000         6.14732187E-07
   124.110001         6.49834305E-07
   124.275002         6.78277502E-07
   124.440002         6.99554164E-07
   124.605003         7.13298391E-07
   124.769997         7.19289176E-07
   124.934998         7.17451428E-07
   125.099998         7.07855349E-07
   125.264999         6.90714160E-07
   125.430000         6.66379322E-07
   125.595001         6.35334004E-07
   125.760002         5.98182794E-07
   125.925003         5.55637939E-07
   126.089996         5.08500818E-07
   126.254997         4.57639572E-07
   126.419998         4.03961650E-07
   126.584999         3.48384106E-07
   126.750000         2.91802309E-07
   126.915001         2.35058891E-07
   127.080002         1.78915698E-07
   127.245003         1.24029683E-07
   127.410004         7.09358687E-08
   127.574997         2.00377990E-08
   127.739998        -2.83932415E-08
   127.904999        -7.42102912E-08
   128.070007        -1.17375713E-07
   128.235001        -1.57940661E-07
   128.399994        -1.96021489E-07
   128.565002        -2.31775900E-07
   128.729996        -2.65380947E-07
   128.895004        -2.97015333E-07
   129.059998        -3.26846759E-07
   129.225006        -3.55025406E-07
   129.389999        -3.81682980E-07
   129.554993        -4.06936010E-07
   129.720001        -4.30892044E-07
   129.884995        -4.53656128E-07
   130.050003        -4.75335924E-07
   130.214996        -4.96043128E-07
   130.380005        -5.15890690E-07
   130.544998        -5.34985986E-07
   130.710007        -5.53420250E-07
   130.875000        -5.71256976E-07
   131.039993        -5.88520493E-07
   131.205002        -6.05187950E-07
   131.369995        -6.21186018E-07
   131.535004        -6.36394475E-07