  -1.95000005         0.00000000    
  -1.78499997         0.00000000    
  -1.62000000         0.00000000    
  -1.45500004         0.00000000    
  -1.28999996         0.00000000    
  -1.12500000         0.00000000    
 -0.959999979         0.00000000    
 -0.795000017         0.00000000    
 -0.629999995         0.00000000    
 -0.465000004         0.00000000    
 -0.300000012         0.00000000    
 -0.135000005         0.00000000    
   2.99999993E-02     0.00000000    
  0.194999993         0.00000000    
  0.360000014         0.00000000    
  0.524999976         0.00000000    
  0.689999998         0.00000000    
  0.855000019         0.00000000    
   1.01999998         0.00000000    
   1.18499994         0.00000000    
   1.35000002         0.00000000    
   1.51499999         0.00000000    
   1.67999995         0.00000000    
   1.84500003         0.00000000    
   2.00999999         0.00000000    
   2.17499995         0.00000000    
   2.33999991         0.00000000    
   2.50500011         0.00000000    
   2.67000008         0.00000000    
   2.83500004         0.00000000    
   3.00000000         0.00000000    
   3.16499996         0.00000000    
   3.32999992         0.00000000    
   3.49499989         0.00000000    
   3.66000009         0.00000000    
   3.82500005         0.00000000    
   3.99000001         0.00000000    
   4.15500021         0.00000000    
   4.32000017         0.00000000    
   4.48500013         0.00000000    
   4.65000010         0.00000000    
   4.81500006         0.00000000    
   4.98000002         0.00000000    
   5.14499998         0.00000000    
   5.30999994         0.00000000    
   5.47499990         0.00000000    
   5.63999987         0.00000000    
   5.80499983         0.00000000    
   5.96999979         0.00000000    
   6.13500023         0.00000000    
   6.30000019         0.00000000    
   6.46500015         0.00000000    
   6.63000011         0.00000000    
   6.79500008         0.00000000    
   6.96000004         0.00000000    
   7.12500000         0.00000000    
   7.28999996         0.00000000    
   7.45499992         0.00000000    
   7.61999989         0.00000000    
   7.78499985         0.00000000    
   7.94999981         0.00000000    
   8.11499977         0.00000000    
   8.27999973         0.00000000    
   8.44499969         0.00000000    
   8.60999966         0.00000000    
   8.77499962         0.00000000    
   8.93999958         0.00000000    
   9.10499954         0.00000000    
   9.27000046         0.00000000    
   9.43500042        -4.36783309E-35
   9.60000038        -8.73568742E-35
   9.76500034        -7.46615329E-34
   9.93000031        -1.28345763E-33
   10.0950003        -3.48434782E-33
   10.2600002        -2.04625391E-33
   10.4250002         3.61372935E-33
   10.5900002         1.14251439E-32
   10.7550001         1.68435542E-32
   10.9200001         2.51273555E-32
   11.0850000        -4.28678104E-31
   11.2500000        -8.81724677E-31
   11.4150000        -1.35514854E-30
   11.5799999        -3.14837871E-31
   11.7449999         1.44822681E-30
   11.9099998         4.50610055E-30
   12.0749998         1.01934371E-29
   12.2399998         1.47724093E-29
   12.4049997         1.96721993E-29
   12.5699997         2.31797360E-29
   12.7349997         2.33366617E-29
   12.8999996         1.89574806E-29
   13.0649996         1.17191332E-29
   13.2299995        -1.31093773E-30
   13.3950005        -1.05066618E-29
   13.5600004        -3.77910939E-30
   13.7250004         2.47401169E-29
   13.8900003         7.99886914E-29
   14.0550003         1.55358449E-28
   14.2200003         2.27485019E-28
   14.3850002         2.46201808E-28
   14.5500002         1.41437984E-28
   14.7150002        -1.29488913E-28
   14.8800001        -5.55919004E-28
   15.0450001        -1.03707938E-27
   15.2100000        -1.39375544E-27
   15.3750000        -1.39315725E-27
   15.5400000        -8.34841616E-28
   15.7049999         3.16076930E-28
   15.8699999         1.82171364E-27
   16.0349998         3.11897883E-27
   16.2000008         3.43181149E-27
   16.3649998         2.07235358E-27
   16.5300007        -1.14085166E-27
   16.6949997        -5.47156697E-27
   16.8600006        -9.07274320E-27
   17.0249996        -9.24872774E-27
   17.1900005        -3.28954304E-27
   17.3549995         1.02037710E-26
   17.5200005         2.98719284E-26
   17.6849995         5.06255738E-26
   17.8500004         6.38314012E-26
   18.0149994         5.91398112E-26
   18.1800003         2.78964574E-26
   18.3449993        -3.26016398E-26
   18.5100002        -1.15437196E-25
   18.6749992        -2.02728181E-25
   18.8400002        -2.67995623E-25
   19.0049992        -2.82582327E-25
   19.1700001        -2.24892485E-25
   19.3349991        -8.97017063E-26
   19.5000000         1.06027220E-25
   19.6650009         3.23896920E-25
   19.8299999         5.12545265E-25
   19.9950008         6.22111586E-25
   20.1599998         6.20226307E-25
   20.3250008         5.03742169E-25
   20.4899998         3.01486910E-25
   20.6550007         6.67412564E-26
   20.8199997        -1.37342372E-25
   20.9850006        -2.52820947E-25
   21.1499996        -2.36109249E-25
   21.3150005        -5.94260753E-26
   21.4799995         2.89407527E-25
   21.6450005         7.95779511E-25
   21.8099995         1.38217641E-24
   21.9750004         1.84423590E-24
   22.1399994         1.77830626E-24
   22.3050003         5.47592284E-25
   22.4699993        -2.64586866E-24
   22.6350002        -8.52022868E-24
   22.7999992        -1.72824199E-23
   22.9650002        -2.80663426E-23
   23.1299992        -3.84057373E-23
   23.2950001        -4.39995910E-23
   23.4599991        -3.90603625E-23
   23.6250000        -1.74627772E-23
   23.7900009         2.52877031E-23
   23.9549999         8.95495841E-23
   24.1200008         1.69119320E-22
   24.2849998         2.49750232E-22
   24.4500008         3.09523750E-22
   24.6149998         3.21721004E-22
   24.7800007         2.60272627E-22
   24.9449997         1.07074602E-22
   25.1100006        -1.40343921E-22
   25.2749996        -4.62869854E-22
   25.4400005        -8.17693885E-22
   25.6049995        -1.14157205E-21
   25.7700005        -1.35980193E-21
   25.9349995        -1.39971056E-21
   26.1000004        -1.20597541E-21
   26.2649994        -7.54166222E-22
   26.4300003        -5.89146063E-23
   26.5949993         8.25768337E-22
   26.7600002         1.81445460E-21
   26.9249992         2.80448922E-21
   27.0900002         3.69217802E-21
   27.2549992         4.38558519E-21
   27.4200001         4.80906854E-21
   27.5849991         4.89690398E-21
   27.7500000         4.57710133E-21
   27.9150009         3.75087028E-21
   28.0799999         2.27706808E-21
   28.2450008        -2.69242140E-23
   28.4099998        -3.35714038E-21
   28.5750008        -7.86120062E-21
   28.7399998        -1.35437343E-20
   28.9050007        -2.01503055E-20
   29.0699997        -2.70522925E-20
   29.2350006        -3.31650893E-20
   29.3999996        -3.69376856E-20
   29.5650005        -3.64503373E-20
   29.7299995        -2.96463599E-20
   29.8950005        -1.47031919E-20
   30.0599995         9.48215312E-21
   30.2250004         4.27533857E-20
   30.3899994         8.31952798E-20
   30.5550003         1.26793075E-19
   30.7199993         1.67376469E-19
   30.8850002         1.96955000E-19
   31.0499992         2.06504826E-19
   31.2150002         1.87194876E-19
   31.3799992         1.31953002E-19
   31.5450001         3.71848091E-20
   31.7099991        -9.56109183E-20
   31.8750000        -2.58622103E-19
   32.0400009        -4.37175862E-19
   32.2050018        -6.10083390E-19
   32.3699989        -7.50992780E-19
   32.5349998        -8.30745968E-19
   32.7000008        -8.20608663E-19
   32.8650017        -6.96136489E-19
   33.0299988        -4.41358708E-19
   33.1949997        -5.29050406E-20
   33.3600006         4.56341430E-19
   33.5250015         1.05453265E-18
   33.6899986         1.68961029E-18
   33.8549995         2.29010185E-18
   34.0200005         2.76856131E-18
   34.1850014         3.02816160E-18
   34.3499985         2.97270266E-18
   34.5149994         2.51983637E-18
   34.6800003         1.61661646E-18
   34.8450012         2.55684914E-19
   35.0099983        -1.51039912E-18
   35.1749992        -3.55975315E-18
   35.3400002        -5.69980382E-18
   35.5050011        -7.67651650E-18
   35.6699982        -9.19543434E-18
   35.8349991        -9.95382248E-18
   36.0000000        -9.68093477E-18
   36.1650009        -8.18132249E-18
   36.3300018        -5.37468792E-18
   36.4949989        -1.32546542E-18
   36.6599998         3.74355145E-18
   36.8250008         9.45685816E-18
   36.9900017         1.53112107E-17
   37.1549988         2.07165730E-17
   37.3199997         2.50470174E-17
   37.4850006         2.76944337E-17
   37.6500015         2.81185491E-17
   37.8149986         2.58893916E-17
   37.9799995         2.07218934E-17
   38.1450005         1.25058922E-17
   38.3100014         1.33695269E-18
   38.4749985        -1.24471343E-17
   38.6399994        -2.82227672E-17
   38.8050003        -4.50349386E-17
   38.9700012        -6.15624936E-17
   39.1349983        -7.61141159E-17
   39.2999992        -8.66784564E-17
   39.4650002        -9.10499736E-17
   39.6300011        -8.70428659E-17
   39.7949982        -7.27901535E-17
   39.9599991        -4.71039323E-17
   40.1250000        -9.85243495E-18
   40.2900009         3.77090499E-17
   40.4550018         9.27236181E-17
   40.6199989         1.50702209E-16
   40.7849998         2.05725628E-16
   40.9500008         2.50897168E-16
   41.1150017         2.79023426E-16
   41.2799988         2.83459549E-16
   41.4449997         2.59019658E-16
   41.6100006         2.02831158E-16
   41.7750015         1.15008995E-16
   41.9399986        -9.54547298E-19
   42.1049995        -1.38151577E-16
   42.2700005        -2.86589839E-16
   42.4350014        -4.33859911E-16
   42.5999985        -5.66061001E-16
   42.7649994        -6.68883337E-16
   42.9300003        -7.28740296E-16
   43.0950012        -7.33860610E-16
   43.2599983        -6.75284841E-16
   43.4249992        -5.47744708E-16
   43.5900002        -3.50428833E-16
   43.7550011        -8.76493547E-17
   43.9199982         2.30596885E-16
   44.0849991         5.88221818E-16
   44.2500000         9.62896996E-16
   44.4150009         1.32631818E-15
   44.5800018         1.64507076E-15
   44.7449989         1.88227238E-15
   44.9099998         2.00010440E-15
   45.0750008         1.96323730E-15
   45.2400017         1.74298607E-15
   45.4049988         1.32186575E-15
   45.5699997         6.98050652E-16
   45.7350006        -1.10882079E-16
   45.9000015        -1.06558111E-15
   46.0649986        -2.10452514E-15
   46.2299995        -3.14605803E-15
   46.3950005        -4.09304616E-15
   46.5600014        -4.84006061E-15
   46.7249985        -5.28262516E-15
   46.8899994        -5.32778133E-15
   47.0550003        -4.90496959E-15
   47.2200012        -3.97608277E-15
   47.3849983        -2.54357557E-15
   47.5499992        -6.55612236E-16
   47.7150002         1.59247287E-15
   47.8800011         4.06082376E-15
   48.0449982         6.57182455E-15
   48.2099991         8.92063421E-15
   48.3750000         1.08888178E-14
   48.5400009         1.22601785E-14
   48.7050018         1.28377389E-14
   48.8699989         1.24607966E-14
   49.0349998         1.10209989E-14
   49.2000008         8.47647300E-15
   49.3650017         4.86312066E-15
   49.5299988         3.02264660E-16
   49.6949997        -4.99611754E-15
   49.8600006        -1.07353091E-14
   50.0250015        -1.65396566E-14
   50.1899986        -2.19689125E-14
   50.3549995        -2.65395954E-14
   50.5200005        -2.97536044E-14
   50.6850014        -3.11336277E-14
   50.8499985        -3.02643415E-14
   51.0149994        -2.68372411E-14
   51.1800003        -2.06960676E-14
   51.3450012        -1.18785952E-14
   51.5099983        -6.49889205E-16
   51.6749992         1.24782785E-14
   51.8400002         2.67469339E-14
   52.0050011         4.11723369E-14
   52.1699982         5.45935469E-14
   52.3349991         6.57449084E-14
   52.5000000         7.33503834E-14
   52.6650009         7.62336700E-14
   52.8300018         7.34355949E-14
   52.9949989         6.43283305E-14
   53.1599998         4.87152839E-14
   53.3250008         2.69059135E-14
   53.4900017        -2.43923254E-16
   53.6549988        -3.13327550E-14
   53.8199997        -6.44590379E-14
   53.9850006        -9.73116105E-14
   54.1500015        -1.27301883E-13
   54.3149986        -1.51731099E-13
   54.4799995        -1.67983683E-13
   54.6450005        -1.73735212E-13
   54.8100014        -1.67161749E-13
   54.9749985        -1.47136115E-13
   55.1399994        -1.13395743E-13
   55.3050003        -6.66670766E-14
   55.4700012        -8.73199658E-15
   55.6349983         5.75758652E-14
   55.7999992         1.28453549E-13
   55.9650002         1.99293679E-13
   56.1300011         2.64929463E-13
   56.2949982         3.19950311E-13
   56.4599991         3.59071253E-13
   56.6250000         3.77533806E-13
   56.7900009         3.71510114E-13
   56.9550018         3.38480004E-13
   57.1199989         2.77550823E-13
   57.2849998         1.89692107E-13
   57.4500008         7.78612946E-14
   57.6150017        -5.29954905E-14
   57.7799988        -1.96078017E-13
   57.9449997        -3.43002834E-13
   58.1100006        -4.84205666E-13
   58.2750015        -6.09461429E-13
   58.4399986        -7.08501725E-13
   58.6049995        -7.71702092E-13
   58.7700005        -7.90802536E-13
   58.9350014        -7.59618605E-13
   59.0999985        -6.74693754E-13
   59.2649994        -5.35837325E-13
   59.4300003        -3.46492935E-13
   59.5950012        -1.13885233E-13
   59.7599983         1.51096827E-13
   59.9249992         4.34304963E-13
   60.0900002         7.19027431E-13
   60.2550011         9.86949563E-13
   60.4199982         1.21932401E-12
   60.5849991         1.39826930E-12
   60.7500000         1.50809259E-12
   60.9150009         1.53651918E-12
   61.0800018         1.47571744E-12
   61.2449989         1.32301581E-12
   61.4099998         1.08124002E-12
   61.5750008         7.58638161E-13
   61.7400017         3.68404770E-13
   61.9049988        -7.21394448E-14
   62.0699997        -5.42615052E-13
   62.2350006        -1.02077906E-12
   62.4000015        -1.48371614E-12
   62.5649986        -1.90891183E-12
   62.7299995        -2.27511955E-12
   62.8950005        -2.56298368E-12
   63.0600014        -2.75542935E-12
   63.2249985        -2.83788271E-12
   63.3899994        -2.79841536E-12
   63.5550003        -2.62793259E-12
   63.7200012        -2.32050295E-12
   63.8849983        -1.87390164E-12
   64.0500031        -1.29038132E-12
   64.2149963        -5.77622748E-13
   64.3799973         2.50250423E-13
   64.5449982         1.17174890E-12
   64.7099991         2.15737367E-12
   64.8750000         3.16943173E-12
   65.0400009         4.16245250E-12
   65.2050018         5.08430147E-12
   65.3700027         5.87799904E-12
   65.5350037         6.48420250E-12
   65.6999969         6.84422918E-12
   65.8649979         6.90347822E-12
   66.0299988         6.61506960E-12
   66.1949997         5.94354253E-12
   66.3600006         4.86843942E-12
   66.5250015         3.38764173E-12
   66.6900024         1.52030070E-12
   66.8550034        -6.90808955E-13
   67.0199966        -3.17771070E-12
   67.1849976        -5.84669379E-12
   67.3499985        -8.57911138E-12
   67.5149994        -1.12338316E-11
   67.6800003        -1.36516293E-11
   67.8450012        -1.56616907E-11
   68.0100021        -1.70902650E-11
   68.1750031        -1.77712706E-11
   68.3399963        -1.75583853E-11
   68.5049973        -1.63378963E-11
   68.6699982        -1.40413870E-11
   68.8349991        -1.06571184E-11
   69.0000000        -6.23899066E-12
   69.1650009        -9.11997149E-13
   69.3300018         5.12673367E-12
   69.4950027         1.16118929E-11
   69.6600037         1.82191744E-11
   69.8249969         2.45795467E-11
   69.9899979         3.02980072E-11
   70.1549988         3.49759111E-11
   70.3199997         3.82356403E-11
   70.4850006         3.97460849E-11
   70.6500015         3.92473345E-11
   70.8150024         3.65728836E-11
   70.9800034         3.16677379E-11
   71.1449966         2.46008301E-11
   71.3099976         1.55706784E-11
   71.4749985         4.90327830E-12
   71.6399994        -6.95807518E-12
   71.8050003        -1.94709283E-11
   71.9700012        -3.20190263E-11
   72.1350021        -4.39436230E-11
   72.3000031        -5.45789282E-11
   72.4649963        -6.32895056E-11
   72.6299973        -6.95072611E-11
   72.7949982        -7.27655089E-11
   72.9599991        -7.27280042E-11
   73.1250000        -6.92109495E-11
   73.2900009        -6.21967547E-11
   73.4550018        -5.18388492E-11
   73.6200027        -3.84573449E-11
   73.7850037        -2.25262239E-11
   73.9499969        -4.65291694E-12
   74.1149979         1.44483392E-11
   74.2799988         3.39879375E-11
   74.4449997         5.31355099E-11
   74.6100006         7.10561610E-11
   74.7750015         8.69468317E-11
   74.9400024         1.00071312E-10
   75.1050034         1.09792425E-10
   75.2699966         1.15599932E-10
   75.4349976         1.17132734E-10
   75.5999985         1.14194029E-10
   75.7649994         1.06758428E-10
   75.9300003         9.49701914E-11
   76.0950012         7.91328461E-11
   76.2600021         5.96907246E-11
   76.4250031         3.72041252E-11
   76.5899963         1.23205821E-11
   76.7549973        -1.42548187E-11
   76.9199982        -4.17866575E-11
   77.0849991        -6.95308602E-11
   77.2500000        -9.67483246E-11
   77.4150009        -1.22709343E-10
   77.5800018        -1.46689050E-10
   77.7450027        -1.67956066E-10
   77.9100037        -1.85757951E-10
   78.0749969        -1.99308736E-10
   78.2399979        -2.07784123E-10
   78.4049988        -2.10330045E-10
   78.5699997        -2.06089104E-10
   78.7350006        -1.94247451E-10
   78.9000015        -1.74101900E-10
   79.0650024        -1.45144299E-10
   79.2300034        -1.07156520E-10
   79.3949966        -6.03075923E-11
   79.5599976        -5.24167385E-12
   79.7249985         5.68542192E-11
   79.8899994         1.24213723E-10
   80.0550003         1.94494698E-10
   80.2200012         2.64828631E-10
   80.3850021         3.31917493E-10
   80.5500031         3.92175403E-10
   80.7149963         4.41908204E-10
   80.8799973         4.77520190E-10
   81.0449982         4.95735064E-10
   81.2099991         4.93815711E-10
   81.3750000         4.69769224E-10
   81.5400009         4.22522795E-10
   81.7050018         3.52059187E-10
   81.8700027         2.59503918E-10
   82.0350037         1.47158036E-10
   82.1999969         1.84737694E-11
   82.3649979        -1.22027374E-10
   82.5299988        -2.68892381E-10
   82.6949997        -4.15927348E-10
   82.8600006        -5.56436508E-10
   83.0250015        -6.83502865E-10
   83.1900024        -7.90303323E-10
   83.3550034        -8.70445604E-10
   83.5199966        -9.18315368E-10
   83.6849976        -9.29414934E-10
   83.8499985        -9.00675423E-10
   84.0149994        -8.30720215E-10
   84.1800003        -7.20058402E-10
   84.3450012        -5.71189929E-10
   84.5100021        -3.88605120E-10
   84.6750031        -1.78671231E-10
   84.8399963         5.05962564E-11
   85.0049973         2.89869101E-10
   85.1699982         5.28932176E-10
   85.3349991         7.57174545E-10
   85.5000000         9.64115010E-10
   85.6650009         1.13992860E-09
   85.8300018         1.27594046E-09
   85.9950027         1.36505529E-09
   86.1600037         1.40209988E-09
   86.3249969         1.38405942E-09
   86.4899979         1.31020295E-09
   86.6549988         1.18209631E-09
   86.8199997         1.00351216E-09
   86.9850006         7.80251197E-10
   87.1500015         5.19890908E-10
   87.3150024         2.31480141E-10
   87.4800034        -7.48029139E-11
   87.6449966        -3.88016008E-10
   87.8099976        -6.96829150E-10
   87.9749985        -9.89903159E-10
   88.1399994        -1.25626354E-09
   88.3050003        -1.48566370E-09
   88.4700012        -1.66892922E-09
   88.6350021        -1.79827775E-09
   88.8000031        -1.86760230E-09
   88.9649963        -1.87270777E-09
   89.1299973        -1.81149107E-09
   89.2949982        -1.68405334E-09
   89.4599991        -1.49273782E-09
   89.6250000        -1.24209121E-09
   89.7900009        -9.38748190E-10
   89.9550018        -5.91248162E-10
   90.1200027        -2.09791670E-10
   90.2850037         1.94048166E-10
   90.4499969         6.07648820E-10
   90.6149979         1.01768149E-09
   90.7799988         1.41046819E-09
   90.9449997         1.77234427E-09
   91.1100006         2.09002748E-09
   91.2750015         2.35099007E-09
   91.4400024         2.54383981E-09
   91.6050034         2.65870481E-09
   91.7699966         2.68762190E-09
   91.9349976         2.62492028E-09
   92.0999985         2.46758436E-09
   92.2649994         2.21557905E-09
   92.4300003         1.87211358E-09
   92.5950012         1.44381784E-09
   92.7600021         9.40806100E-10
   92.9250031         3.76604359E-10
   93.0899963        -2.32075401E-10
   93.2549973        -8.65723715E-10
   93.4199982        -1.50258717E-09
   93.5849991        -2.11937845E-09
   93.7500000        -2.69212141E-09
   93.9150009        -3.19710680E-09
   94.0800018        -3.61191455E-09
   94.2450027        -3.91646227E-09
   94.4100037        -4.09402245E-09
   94.5749969        -4.13215417E-09
   94.7399979        -4.02349132E-09
   94.9049988        -3.76632947E-09
   95.0699997        -3.36496120E-09
   95.2350006        -2.82972623E-09
   95.4000015        -2.17674634E-09
   95.5650024        -1.42734802E-09
   95.7300034        -6.07187745E-10
   95.8949966         2.54876509E-10
   96.0599976         1.12810528E-09
   96.2249985         1.98130712E-09
   96.3899994         2.78428858E-09
   96.5550003         3.50922935E-09
   96.7200012         4.13189660E-09
   96.8850021         4.63262007E-09
   97.0500031         4.99697927E-09
   97.2149963         5.21617149E-09
   97.3799973         5.28705613E-09
   97.5449982         5.21189492E-09
   97.7099991         4.99783814E-09
   97.8750000         4.65620031E-09
   98.0400009         4.20160040E-09
   98.2050018         3.65102615E-09
   98.3700027         3.02288772E-09
   98.5350037         2.33611286E-09
   98.6999969         1.60933233E-09
   98.8649979         8.60179816E-10
   99.0299988         1.04730356E-10
   99.1949997        -6.42914333E-10
   99.3600006        -1.37089406E-09
   99.5250015        -2.06971418E-09
   99.6900024        -2.73223777E-09
   99.8550034        -3.35355210E-09
   100.019997        -3.93072419E-09
   100.184998        -4.46244330E-09
   100.349998        -4.94857311E-09
   100.514999        -5.38961098E-09
   100.680000        -5.78607651E-09
   100.845001        -6.13785067E-09
   101.010002        -6.44349640E-09
   101.175003        -6.69961375E-09
   101.339996        -6.90029545E-09
   101.504997        -7.03674230E-09
   101.669998        -7.09712733E-09
   101.834999        -7.06678049E-09
   102.000000        -6.92873137E-09
   102.165001        -6.66463729E-09
   102.330002        -6.25607255E-09
   102.495003        -5.68610448E-09
   102.660004        -4.94103114E-09
   102.824997        -4.01212841E-09
   102.989998        -2.89721558E-09
   103.154999        -1.60185432E-09
   103.320000        -1.40014639E-10
   103.485001         1.46589718E-09
   103.650002         3.18570326E-09
   103.815002         4.98278618E-09
   103.980003         6.81594248E-09
   104.144997         8.64161365E-09
   104.309998         1.04162332E-08
   104.474998         1.20984440E-08
   104.639999         1.36509808E-08
   104.805000         1.50419712E-08
   104.970001         1.62456182E-08
   105.135002         1.72421704E-08
   105.300003         1.80172908E-08
   105.464996         1.85609395E-08
   105.629997         1.88659701E-08
   105.794998         1.89266842E-08
   105.959999         1.87375058E-08
   106.125000         1.82919795E-08
   106.290001         1.75821970E-08
   106.455002         1.65986584E-08
   106.620003         1.53305653E-08
   106.785004         1.37664111E-08
   106.949997         1.18947545E-08
   107.114998         9.70506520E-09
   107.279999         7.18847160E-09
   107.445000         4.33837899E-09
   107.610001         1.15094201E-09
   107.775002        -2.37456854E-09
   107.940002        -6.23540108E-09
   108.105003        -1.04248397E-08
   108.269997        -1.49314534E-08
   108.434998        -1.97380157E-08
   108.599998        -2.48200163E-08
   108.764999        -3.01438128E-08
   108.930000        -3.56645913E-08
   109.095001        -4.13242986E-08
   109.260002        -4.70497987E-08
   109.425003        -5.27516519E-08
   109.589996        -5.83236854E-08
   109.754997        -6.36436539E-08
   109.919998        -6.85750976E-08
   110.084999        -7.29704794E-08
   110.250000        -7.66752137E-08
   110.415001        -7.95326400E-08
   110.580002        -8.13893095E-08
   110.745003        -8.21001507E-08
   110.910004        -8.15332015E-08
   111.074997        -7.95733612E-08
   111.239998        -7.61248629E-08
   111.404999        -7.11123889E-08
   111.570000        -6.44808154E-08
   111.735001        -5.61938513E-08
   111.900002        -4.62317118E-08
   112.065002        -3.45884814E-08
   112.230003        -2.12694697E-08
   112.394997        -6.28903640E-09
   112.559998         1.03308118E-08
   112.724998         2.85608905E-08
   112.889999         4.83642530E-08
   113.055000         6.96948277E-08
   113.220001         9.24953341E-08
   113.385002         1.16695119E-07
   113.550003         1.42207924E-07
   113.714996         1.68930185E-07
   113.879997         1.96740061E-07
   114.044998         2.25497260E-07
   114.209999         2.55043716E-07
   114.375000         2.85205175E-07
   114.540001         3.15793073E-07
   114.705002         3.46607010E-07
   114.870003         3.77436805E-07
   115.035004         4.08064636E-07
   115.199997         4.38266738E-07
   115.364998         4.67814402E-07
   115.529999         4.96475025E-07
   115.695000         5.24012535E-07
   115.860001         5.50187963E-07
   116.025002         5.74761259E-07
   116.190002         5.97492431E-07
   116.355003         6.18144668E-07
   116.519997         6.36488210E-07
   116.684998         6.52304777E-07
   116.849998         6.65393543E-07
   117.014999         6.75577439E-07
   117.180000         6.82709128E-07
   117.345001         6.86677538E-07
   117.510002         6.87413092E-07
   117.675003         6.84891688E-07
   117.839996         6.79137827E-07
   118.004997         6.70225631E-07
   118.169998         6.58278509E-07
   118.334999         6.43467502E-07
   118.500000         6.26008330E-07
   118.665001         6.06157641E-07
   118.830002         5.84209488E-07
   118.995003         5.60491344E-07
   119.160004         5.35360812E-07
   119.324997         5.09202948E-07
   119.489998         4.82427879E-07
   119.654999         4.55468921E-07
   119.820000         4.28780169E-07
   119.985001         4.02833820E-07
   120.150002         3.78115772E-07
   120.315002         3.55119624E-07
   120.480003         3.34338381E-07
   120.644997         3.16253789E-07
   120.809998         3.01323695E-07
   120.974998         2.89967403E-07
   121.139999         2.82550815E-07
   121.305000         2.79371335E-07
   121.470001         2.80644514E-07
   121.635002         2.86493389E-07
   121.800003         2.96941266E-07
   121.964996         3.11909162E-07
   122.129997         3.31217507E-07
   122.294998         3.54592544E-07
   122.459999         3.81676244E-07
   122.625000         4.12039071E-07
   122.790001         4.45194246E-07
   122.955002         4.80611959E-07
   123.120003         5.17732985E-07
   123.285004         5.55980421E-07
   123.449997         5.94768892E-07
   123.614998         6.33512116E-07
   123.779999         6.71629095E-07
   123.945000         7.08548782E-07
   124.110001         7.43715987E-07
   124.275002         7.76597517E-07
   124.440002         8.06691219E-07
   124.605003         8.33535978E-07
   124.769997         8.56723886E-07
   124.934998         8.75912804E-07
   125.099998         8.90838692E-07
   125.264999         9.01324711E-07
   125.430000         9.07287415E-07
   125.595001         9.08736922E-07
   125.760002         9.05771287E-07
   125.925003         8.98564963E-07
   126.089996         8.87351462E-07
   126.254997         8.72402950E-07
   126.419998         8.54007112E-07
   126.584999         8.32445153E-07
   126.750000         8.07973095E-07
   126.915001         7.80807909E-07
   127.080002         7.51120524E-07
   127.245003         7.19036336E-07
   127.410004         6.84642146E-07
   127.574997         6.47999457E-07
   127.739998         6.09161305E-07
   127.904999         5.68190217E-07
   128.070007         5.25175324E-07
   128.235001         4.80245831E-07
   128.399994         4.33578947E-07
   128.565002         3.85402416E-07
   128.729996         3.35990421E-07
   128.895004         2.85654806E-07
   129.059998         2.34732624E-07
   129.225006         1.83572567E-07
   129.389999         1.32522175E-07
   129.554993         8.19175767E-08
   129.720001         3.20774376E-08
   129.884995        -1.66987650E-08
   130.050003        -6.41283648E-08
   130.214996        -1.09940224E-07
   130.380005        -1.53867973E-07
   130.544998        -1.95644404E-07
   130.710007        -2.34998254E-07
   130.875000        -2.71655551E-07
   131.039993        -3.05345679E-07
   131.205002        -3.35813013E-07
   131.369995        -3.62832083E-07
   131.535004        -3.86225764E-07