  -4.500000       -1.0228143E-18
  -4.381250       -1.0318891E-18
  -4.262500       -1.0492110E-18
  -4.143750       -1.0732369E-18
  -4.025000       -1.1018692E-18
  -3.906250       -1.1326777E-18
  -3.787500       -1.1631552E-18
  -3.668750       -1.1909852E-18
  -3.550000       -1.2142920E-18
  -3.431250       -1.2318408E-18
  -3.312500       -1.2431720E-18
  -3.193750       -1.2486408E-18
  -3.075000       -1.2493663E-18
  -2.956250       -1.2470914E-18
  -2.837500       -1.2439711E-18
  -2.718750       -1.2423066E-18
  -2.600000       -1.2442729E-18
  -2.481250       -1.2516554E-18
  -2.362500       -1.2656423E-18
  -2.243750       -1.2866810E-18
  -2.125000       -1.3144275E-18
  -2.006250       -1.3477865E-18
  -1.887500       -1.3850312E-18
  -1.768750       -1.4239955E-18
  -1.650000       -1.4623085E-18
  -1.531250       -1.4976539E-18
  -1.412500       -1.5280158E-18
  -1.293750       -1.5518987E-18
  -1.175000       -1.5684864E-18
  -1.056250       -1.5777301E-18
 -0.9375000       -1.5803589E-18
 -0.8187500       -1.5778016E-18
 -0.7000000       -1.5720364E-18
 -0.5812500       -1.5653744E-18
 -0.4625000       -1.5602082E-18
 -0.3437500       -1.5587458E-18
 -0.2250000       -1.5627664E-18
 -0.1062500       -1.5734209E-18
  1.2500000E-02   -1.5911021E-18
  0.1312500       -1.6154067E-18
  0.2500000       -1.6451857E-18
  0.3687500       -1.6786795E-18
  0.4875000       -1.7137269E-18
  0.6062500       -1.7480121E-18
  0.7250000       -1.7793300E-18
  0.8437500       -1.8058343E-18
  0.9625000       -1.8262425E-18
   1.081250       -1.8399744E-18
   1.200000       -1.8472093E-18
   1.318750       -1.8488608E-18
   1.437500       -1.8464721E-18
   1.556250       -1.8420448E-18
   1.675000       -1.8378152E-18
   1.793750       -1.8360099E-18
   1.912500       -1.8386012E-18
   2.031250       -1.8470871E-18
   2.150000       -1.8623219E-18
   2.268750       -1.8844177E-18
   2.387500       -1.9127195E-18
   2.506250       -1.9458686E-18
   2.625000       -1.9819409E-18
   2.743750       -2.0186481E-18
   2.862500       -2.0535780E-18
   2.981250       -2.0844532E-18
   3.100000       -2.1093683E-18
   3.218750       -2.1269949E-18
   3.337500       -2.1367239E-18
   3.456250       -2.1387354E-18
   3.575000       -2.1339949E-18
   3.693750       -2.1241800E-18
   3.812500       -2.1115491E-18
   3.931250       -2.0987663E-18
   4.050000       -2.0887032E-18
   4.168750       -2.0842242E-18
   4.287500       -2.0879679E-18
   4.406250       -2.1021257E-18
   4.525000       -2.1282234E-18
   4.643750       -2.1668941E-18
   4.762500       -2.2176553E-18
   4.881250       -2.2786919E-18
   5.000000       -2.3466798E-18
   5.118750       -2.4166803E-18
   5.237500       -2.4821684E-18
   5.356250       -2.5352598E-18
   5.475000       -2.5672107E-18
   5.593750       -2.5692521E-18
   5.712500       -2.5337899E-18
   5.831250       -2.4559617E-18
   5.950000       -2.3354708E-18
   6.068750       -2.1785301E-18
   6.187500       -1.9996715E-18
   6.306250       -1.8230852E-18
   6.425000       -1.6830994E-18
   6.543750       -1.6233922E-18
   6.662500       -1.6945595E-18
   6.781250       -1.9497954E-18
   6.900000       -2.4386093E-18
   7.018750       -3.1987901E-18
   7.137500       -4.2471460E-18
   7.256250       -5.5698947E-18
   7.375000       -7.1139278E-18
   7.493750       -8.7804238E-18
   7.612500       -1.0422437E-17
   7.731250       -1.1848021E-17
   7.850000       -1.2830201E-17
   7.968750       -1.3124509E-17
   8.087500       -1.2494097E-17
   8.206250       -1.0741338E-17
   8.325000       -7.7437597E-18
   8.443750       -3.4908895E-18
   8.562500        1.8824492E-18
   8.681250        8.0717260E-18
   8.800000        1.4592879E-17
   8.918750        2.0792705E-17
   9.037500        2.5884278E-17
   9.156250        2.9010594E-17
   9.275000        2.9337456E-17
   9.393750        2.6173727E-17
   9.512500        1.9113557E-17
   9.631250        8.1916821E-18
   9.750000       -5.9606883E-18
   9.868750       -2.1975234E-17
   9.987500       -3.7639123E-17
   10.10625       -4.9840365E-17
   10.22500       -5.4585209E-17
   10.34375       -4.7104892E-17
   10.46250       -2.2065653E-17
   10.58125        2.6109834E-17
   10.70000        1.0280859E-16
   10.81875        2.1268906E-16
   10.93750        3.5905541E-16
   11.05625        5.4317311E-16
   11.17500        7.6356256E-16
   11.29375        1.0153190E-15
   11.41250        1.2895132E-15
   11.53125        1.5727310E-15
   11.65000        1.8468156E-15
   11.76875        2.0888696E-15
   11.88750        2.2715719E-15
   12.00625        2.3638489E-15
   12.12500        2.3319285E-15
   12.24375        2.1407851E-15
   12.36250        1.7559520E-15
   12.48125        1.1456631E-15
   12.60000        2.8324244E-16
   12.71875       -8.5035400E-16
   12.83750       -2.2639969E-15
   12.95625       -3.9539892E-15
   13.07500       -5.9020205E-15
   13.19375       -8.0736877E-15
   13.31250       -1.0417779E-14
   13.43125       -1.2866585E-14
   13.55000       -1.5337403E-14
   13.66875       -1.7735479E-14
   13.78750       -1.9958500E-14
   13.90625       -2.1902763E-14
   14.02500       -2.3471024E-14
   14.14375       -2.4582007E-14
   14.26250       -2.5181361E-14
   14.38125       -2.5253813E-14
   14.50000       -2.4836107E-14
   14.61875       -2.4030177E-14
   14.73750       -2.3015894E-14
   14.85625       -2.2062566E-14
   14.97500       -2.1538310E-14
   15.09375       -2.1916271E-14
   15.21250       -2.3776665E-14
   15.33125       -2.7803577E-14
   15.45000       -3.4775514E-14
   15.56875       -4.5548797E-14
   15.68750       -6.1033095E-14
   15.80625       -8.2158537E-14
   15.92500       -1.0983441E-13
   16.04375       -1.4489943E-13
   16.16250       -1.8806460E-13
   16.28125       -2.3984954E-13
   16.40000       -3.0051444E-13
   16.51875       -3.6998963E-13
   16.63750       -4.4780618E-13
   16.75625       -5.3303033E-13
   16.87500       -6.2420669E-13
   16.99375       -7.1931344E-13
   17.11250       -8.1573507E-13
   17.23125       -9.1025635E-13
   17.35000       -9.9908254E-13
   17.46875       -1.0778896E-12
   17.58750       -1.1419077E-12
   17.70625       -1.1860390E-12
   17.82500       -1.2050133E-12
   17.94375       -1.1935780E-12
   18.06250       -1.1467220E-12
   18.18125       -1.0599285E-12
   18.30000       -9.2944955E-13
   18.41875       -7.5259634E-13
   18.53750       -5.2803215E-13
   18.65625       -2.5605722E-13
   18.77500        6.1128416E-14
   18.89375        4.1919742E-13
   19.01250        8.1151920E-13
   19.13125        1.2290506E-12
   19.25000        1.6603081E-12
   19.36875        2.0914297E-12
   19.48750        2.5063402E-12
   19.60625        2.8870274E-12
   19.72500        3.2139296E-12
   19.84375        3.4664350E-12
   19.96250        3.6234874E-12
   20.08125        3.6642863E-12
   20.20000        3.5690689E-12
   20.31875        3.3199470E-12
   20.43750        2.9017841E-12
   20.55625        2.3030763E-12
   20.67500        1.5168091E-12
   20.79375        5.4125660E-13
   20.91250       -6.1931043E-13
   21.03125       -1.9540420E-12
   21.15000       -3.4450791E-12
   21.26875       -5.0673172E-12
   21.38750       -6.7883702E-12
   21.50625       -8.5687716E-12
   21.62500       -1.0362415E-11
   21.74375       -1.2117244E-11
   21.86250       -1.3776204E-11
   21.98125       -1.5278414E-11
   22.10000       -1.6560586E-11
   22.21875       -1.7558644E-11
   22.33750       -1.8209503E-11
   22.45625       -1.8452998E-11
   22.57500       -1.8233901E-11
   22.69375       -1.7503974E-11
   22.81250       -1.6224024E-11
   22.93125       -1.4365884E-11
   23.05000       -1.1914272E-11
   23.16875       -8.8684589E-12
   23.28750       -5.2437065E-12
   23.40625       -1.0723950E-12
   23.52500        3.5951921E-12
   23.64375        8.6904780E-12
   23.76250        1.4126652E-11
   23.88125        1.9799154E-11
   24.00000        2.5586696E-11
   24.11875        3.1352729E-11
   24.23750        3.6947407E-11
   24.35625        4.2209992E-11
   24.47500        4.6971746E-11
   24.59375        5.1059098E-11
   24.71250        5.4297258E-11
   24.83125        5.6513922E-11
   24.95000        5.7543238E-11
   25.06875        5.7229787E-11
   25.18750        5.5432579E-11
   25.30625        5.2028808E-11
   25.42500        4.6917477E-11
   25.54375        4.0022648E-11
   25.66250        3.1296275E-11
   25.78125        2.0720569E-11
   25.90000        8.3098337E-12
   26.01875       -5.8883445E-12
   26.13750       -2.1792415E-11
   26.25625       -3.9286876E-11
   26.37500       -5.8222829E-11
   26.49375       -7.8419139E-11
   26.61250       -9.9664083E-11
   26.73125       -1.2171750E-10
   26.85000       -1.4431328E-10
   26.96875       -1.6716234E-10
   27.08750       -1.8995563E-10
   27.20625       -2.1236762E-10
   27.32500       -2.3405969E-10
   27.44375       -2.5468383E-10
   27.56250       -2.7388627E-10
   27.68125       -2.9131123E-10
   27.80000       -3.0660471E-10
   27.91875       -3.1941835E-10
   28.03750       -3.2941344E-10
   28.15625       -3.3626466E-10
   28.27500       -3.3966449E-10
   28.39375       -3.3932734E-10
   28.51250       -3.3499412E-10
   28.63125       -3.2643663E-10
   28.75000       -3.1346270E-10
   28.86875       -2.9592079E-10
   28.98750       -2.7370520E-10
   29.10625       -2.4676114E-10
   29.22500       -2.1508977E-10
   29.34375       -1.7875285E-10
   29.46250       -1.3787743E-10
   29.58125       -9.2659859E-11
   29.70000       -4.3369051E-11
   29.81875        9.6509129E-12
   29.93750        6.5979180E-11
   30.05625        1.2511789E-10
   30.17500        1.8649313E-10
   30.29375        2.4945737E-10
   30.41250        3.1329361E-10
   30.53125        3.7722112E-10
   30.65000        4.4040269E-10
   30.76875        5.0195392E-10
   30.88750        5.6095389E-10
   31.00625        6.1645689E-10
   31.12500        6.6750638E-10
   31.24375        7.1314915E-10
   31.36250        7.5245044E-10
   31.48125        7.8450990E-10
   31.60000        8.0847745E-10
   31.71875        8.2356894E-10
   31.83750        8.2908147E-10
   31.95625        8.2440743E-10
   32.07500        8.0904788E-10
   32.19375        7.8262424E-10
   32.31250        7.4488787E-10
   32.43125        6.9572853E-10
   32.55000        6.3518013E-10
   32.66875        5.6342458E-10
   32.78750        4.8079352E-10
   32.90625        3.8776779E-10
   33.02500        2.8497507E-10
   33.14375        1.7318523E-10
   33.26250        5.3304257E-11
   33.38125       -7.3633655E-11
   33.50000       -2.0647531E-10
   33.61875       -3.4395903E-10
   33.73750       -4.8472626E-10
   33.85625       -6.2733413E-10
   33.97500       -7.7026879E-10
   34.09375       -9.1195973E-10
   34.21250       -1.0507946E-09
   34.33125       -1.1851343E-09
   34.45000       -1.3133302E-09
   34.56875       -1.4337401E-09
   34.68750       -1.5447464E-09
   34.80625       -1.6447744E-09
   34.92500       -1.7323114E-09
   35.04375       -1.8059259E-09
   35.16250       -1.8642881E-09
   35.28125       -1.9061894E-09
   35.40000       -1.9305635E-09
   35.51875       -1.9365052E-09
   35.63750       -1.9232891E-09
   35.75625       -1.8903878E-09
   35.87500       -1.8374867E-09
   35.99375       -1.7644975E-09
   36.11250       -1.6715681E-09
   36.23125       -1.5590891E-09
   36.35000       -1.4276965E-09
   36.46875       -1.2782704E-09
   36.58750       -1.1119283E-09
   36.70625       -9.3001445E-10
   36.82500       -7.3408413E-10
   36.94375       -5.2588345E-10
   37.06250       -3.0732569E-10
   37.18125       -8.0463081E-11
   37.30000        1.5254346E-10
   37.41875        3.8945763E-10
   37.53750        6.2800110E-10
   37.65625        8.6588869E-10
   37.77500        1.1008616E-09
   37.89375        1.3307200E-09
   38.01250        1.5533524E-09
   38.13125        1.7667634E-09
   38.25000        1.9690951E-09
   38.36875        2.1586470E-09
   38.48750        2.3338893E-09
   38.60625        2.4934728E-09
   38.72500        2.6362330E-09
   38.84375        2.7611913E-09
   38.96250        2.8675506E-09
   39.08125        2.9546892E-09
   39.20000        3.0221499E-09
   39.31875        3.0696292E-09
   39.43750        3.0969638E-09
   39.55625        3.1041156E-09
   39.67500        3.0911587E-09
   39.79375        3.0582650E-09
   39.91250        3.0056921E-09
   40.03125        2.9337717E-09
   40.15000        2.8428990E-09
   40.26875        2.7335259E-09
   40.38750        2.6061531E-09
   40.50625        2.4613274E-09
   40.62500        2.2996376E-09
   40.74375        2.1217141E-09
   40.86250        1.9282300E-09
   40.98125        1.7199027E-09
   41.10000        1.4974982E-09
   41.21875        1.2618373E-09
   41.33750        1.0138018E-09
   41.45625        7.5434509E-10
   41.57500        4.8450188E-10
   41.69375        2.0540093E-10
   41.81250       -8.1720769E-11
   41.93125       -3.7550255E-10
   42.05000       -6.7444478E-10
   42.16875       -9.7689279E-10
   42.28750       -1.2810210E-09
   42.40625       -1.5848202E-09
   42.52500       -1.8860877E-09
   42.64375       -2.1824209E-09
   42.76250       -2.4712192E-09
   42.88125       -2.7496911E-09
   43.00000       -3.0148719E-09
   43.11875       -3.2636518E-09
   43.23750       -3.4928134E-09
   43.35625       -3.6990824E-09
   43.47500       -3.8791894E-09
   43.59375       -4.0299426E-09
   43.71250       -4.1483115E-09
   43.83125       -4.2315138E-09
   43.95000       -4.2771156E-09
   44.06875       -4.2831241E-09
   44.18750       -4.2480881E-09
   44.30625       -4.1711843E-09
   44.42500       -4.0523003E-09
   44.54375       -3.8920995E-09
   44.66250       -3.6920682E-09
   44.78125       -3.4545431E-09
   44.90000       -3.1827108E-09
   45.01875       -2.8805835E-09
   45.13750       -2.5529427E-09
   45.25625       -2.2052571E-09
   45.37500       -1.8435730E-09
   45.49375       -1.4743795E-09
   45.61250       -1.1044511E-09
   45.73125       -7.4067780E-10
   45.85000       -3.8987938E-10
   45.96875       -5.8619838E-11
   46.08750        2.4698060E-10
   46.20625        5.2141880E-10
   46.32500        7.5996998E-10
   46.44375        9.5882369E-10
   46.56250        1.1151916E-09
   46.68125        1.2273816E-09
   46.80000        1.2948368E-09
   46.91875        1.3181310E-09
   47.03750        1.2989306E-09
   47.15625        1.2399142E-09
   47.27500        1.1446580E-09
   47.39375        1.0174902E-09
   47.51250        8.6332219E-10
   47.63125        6.8745626E-10
   47.75000        4.9538795E-10
   47.86875        2.9260519E-10
   47.98750        8.4390571E-11
   48.10625       -1.2435895E-10
   48.22500       -3.2928887E-10
   48.34375       -5.2672144E-10
   48.46250       -7.1374756E-10
   48.58125       -8.8828356E-10
   48.70000       -1.0490903E-09
   48.81875       -1.1957442E-09
   48.93750       -1.3285746E-09
   49.05625       -1.4485572E-09
   49.17500       -1.5571807E-09
   49.29375       -1.6562851E-09
   49.41250       -1.7478772E-09
   49.53125       -1.8339420E-09
   49.65000       -1.9162489E-09
   49.76875       -1.9961635E-09
   49.88750       -2.0744781E-09
   50.00625       -2.1512663E-09
   50.12500       -2.2257660E-09
   50.24375       -2.2963014E-09
   50.36250       -2.3602471E-09
   50.48125       -2.4140347E-09
   50.60000       -2.4532052E-09
   50.71875       -2.4725040E-09
   50.83750       -2.4660187E-09
   50.95625       -2.4273505E-09
   51.07500       -2.3498195E-09
   51.19375       -2.2266877E-09
   51.31250       -2.0514013E-09
   51.43125       -1.8178379E-09
   51.55000       -1.5205488E-09
   51.66875       -1.1549918E-09
   51.78750       -7.1774325E-10
   51.90625       -2.0668194E-10
   52.02500        3.7885869E-10
   52.14375        1.0379788E-09
   52.26250        1.7681427E-09
   52.38125        2.5651516E-09
   52.50000        3.4231624E-09
   52.61875        4.3347494E-09
   52.73750        5.2910094E-09
   52.85625        6.2816925E-09
   52.97500        7.2953825E-09
   53.09375        8.3196872E-09
   53.21250        9.3414565E-09
   53.33125        1.0347012E-08
   53.45000        1.1322386E-08
   53.56875        1.2253554E-08
   53.68750        1.3126670E-08
   53.80625        1.3928283E-08
   53.92500        1.4645549E-08
   54.04375        1.5266414E-08
   54.16250        1.5779781E-08
   54.28125        1.6175653E-08
   54.40000        1.6445249E-08
   54.51875        1.6581115E-08
   54.63750        1.6577173E-08
   54.75625        1.6428800E-08
   54.87500        1.6132834E-08
   54.99375        1.5687604E-08
   55.11250        1.5092926E-08
   55.23125        1.4350085E-08
   55.35000        1.3461803E-08
   55.46875        1.2432218E-08
   55.58750        1.1266826E-08
   55.70625        9.9724380E-09
   55.82500        8.5571275E-09
   55.94375        7.0301618E-09
   56.06250        5.4019473E-09
   56.18125        3.6839549E-09
   56.30000        1.8886508E-09
   56.41875        2.9414599E-11
   56.53750       -1.8795425E-09
   56.65625       -3.8232710E-09
   56.77500       -5.7861809E-09
   56.89375       -7.7521518E-09
   57.01250       -9.7046469E-09
   57.13125       -1.1626846E-08
   57.25000       -1.3501782E-08
   57.36875       -1.5312491E-08
   57.48750       -1.7042174E-08
   57.60625       -1.8674374E-08
   57.72500       -2.0193147E-08
   57.84375       -2.1583261E-08
   57.96250       -2.2830392E-08
   58.08125       -2.3921308E-08
   58.20000       -2.4844093E-08
   58.31875       -2.5588319E-08
   58.43750       -2.6145246E-08
   58.55625       -2.6507990E-08
   58.67500       -2.6671680E-08
   58.79375       -2.6633597E-08
   58.91250       -2.6393266E-08
   59.03125       -2.5952536E-08
   59.15000       -2.5315616E-08
   59.26875       -2.4489056E-08
   59.38750       -2.3481702E-08
   59.50625       -2.2304592E-08
   59.62500       -2.0970823E-08
   59.74375       -1.9495346E-08
   59.86250       -1.7894747E-08
   59.98125       -1.6186977E-08
   60.10000       -1.4391051E-08
   60.21875       -1.2526726E-08
   60.33750       -1.0614170E-08
   60.45625       -8.6736076E-09
   60.57500       -6.7249881E-09
   60.69375       -4.7876614E-09
   60.81250       -2.8800724E-09
   60.93125       -1.0194934E-09
   61.05000        7.7820095E-10
   61.16875        2.4987288E-09
   61.28750        4.1295283E-09
   61.40625        5.6598437E-09
   61.52500        7.0807626E-09
   61.64375        8.3852028E-09
   61.76250        9.5678523E-09
   61.88125        1.0625086E-08
   62.00000        1.1554830E-08
   62.11875        1.2356434E-08
   62.23750        1.3030511E-08
   62.35625        1.3578783E-08
   62.47500        1.4003938E-08
   62.59375        1.4309485E-08
   62.71250        1.4499654E-08
   62.83125        1.4579288E-08
   62.95000        1.4553788E-08
   63.06875        1.4429067E-08
   63.18750        1.4211527E-08
   63.30625        1.3908070E-08
   63.42500        1.3526104E-08
   63.54375        1.3073564E-08
   63.66250        1.2558936E-08
   63.78125        1.1991266E-08
   63.90000        1.1380160E-08
   64.01875        1.0735763E-08
   64.13750        1.0068705E-08
   64.25625        9.3900283E-09
   64.37500        8.7110736E-09
   64.49375        8.0433518E-09
   64.61250        7.3983686E-09
   64.73125        6.7874448E-09
   64.85000        6.2215042E-09
   64.96875        5.7108611E-09
   65.08750        5.2650031E-09
   65.20625        4.8923772E-09
   65.32500        4.6001891E-09
   65.44375        4.3942245E-09
   65.56250        4.2786992E-09
   65.68125        4.2561368E-09
   65.80000        4.3272910E-09
   65.91875        4.4910990E-09
   66.03750        4.7446806E-09
   66.15625        5.0833715E-09
   66.27500        5.5008034E-09
   66.39375        5.9890075E-09
   66.51250        6.5385586E-09
   66.63125        7.1387420E-09
   66.75000        7.7777420E-09
   66.86875        8.4428438E-09
   66.98750        9.1206633E-09
   67.10625        9.7973620E-09
   67.22500        1.0458886E-08
   67.34375        1.1091196E-08
   67.46250        1.1680487E-08
   67.58125        1.2213422E-08
   67.70000        1.2677341E-08
   67.81875        1.3060455E-08
   67.93750        1.3352039E-08
   68.05625        1.3542603E-08
   68.17500        1.3624035E-08
   68.29375        1.3589735E-08
   68.41250        1.3434712E-08
   68.53125        1.3155661E-08
   68.65000        1.2751011E-08
   68.76875        1.2220931E-08
   68.88750        1.1567322E-08
   69.00625        1.0793759E-08
   69.12500        9.9054089E-09
   69.24375        8.9089207E-09
   69.36250        7.8122877E-09
   69.48125        6.6246808E-09
   69.60000        5.3562736E-09
   69.71875        4.0180490E-09
   69.83750        2.6216049E-09
   69.95625        1.1789575E-09
   70.07500       -2.9764147E-10
   70.19375       -1.7958829E-09
   70.31250       -3.3035488E-09
   70.43125       -4.8086441E-09
   70.55000       -6.2994991E-09
   70.66875       -7.7648483E-09
   70.78750       -9.1938812E-09
   70.90625       -1.0576269E-08
   71.02500       -1.1902171E-08
   71.14375       -1.3162238E-08
   71.26250       -1.4347586E-08
   71.38125       -1.5449801E-08
   71.50000       -1.6460918E-08
   71.61875       -1.7373443E-08
   71.73750       -1.8180369E-08
   71.85625       -1.8875239E-08
   71.97500       -1.9452226E-08
   72.09375       -1.9906237E-08
   72.21250       -2.0233037E-08
   72.33125       -2.0429422E-08
   72.45000       -2.0493374E-08
   72.56875       -2.0424247E-08
   72.68750       -2.0222931E-08
   72.80625       -1.9892028E-08
   72.92500       -1.9435978E-08
   73.04375       -1.8861170E-08
   73.16250       -1.8175994E-08
   73.28125       -1.7390846E-08
   73.40000       -1.6518069E-08
   73.51875       -1.5571837E-08
   73.63750       -1.4567960E-08
   73.75625       -1.3523625E-08
   73.87500       -1.2457090E-08
   73.99375       -1.1387300E-08
   74.11250       -1.0333483E-08
   74.23125       -9.3146868E-09
   74.35000       -8.3493195E-09
   74.46875       -7.4546618E-09
   74.58750       -6.6464128E-09
   74.70625       -5.9382410E-09
   74.82500       -5.3413785E-09
   74.94375       -4.8642685E-09
   75.06250       -4.5122861E-09
   75.18125       -4.2875090E-09
   75.30000       -4.1885913E-09
   75.41875       -4.2106967E-09
   75.53750       -4.3455444E-09
   75.65625       -4.5815218E-09
   75.77500       -4.9038773E-09
   75.89375       -5.2950000E-09
   76.01250       -5.7347624E-09
   76.13125       -6.2009260E-09
   76.25000       -6.6695924E-09
   76.36875       -7.1156969E-09
   76.48750       -7.5135338E-09
   76.60625       -7.8372828E-09
   76.72500       -8.0615541E-09
   76.84375       -8.1619138E-09
   76.96250       -8.1153999E-09
   77.08125       -7.9009990E-09
   77.20000       -7.5000921E-09
   77.31875       -6.8968578E-09
   77.43750       -6.0786109E-09
   77.55625       -5.0361044E-09
   77.67500       -3.7637542E-09
   77.79375       -2.2598177E-09
   77.91250       -5.2651028E-10
   78.03125        1.4299398E-09
   78.15000        3.5992844E-09
   78.26875        5.9673000E-09
   78.38750        8.5158760E-09
   78.50625        1.1223140E-08
   78.62500        1.4063623E-08
   78.74375        1.7008444E-08
   78.86250        2.0025530E-08
   78.98125        2.3079828E-08
   79.10000        2.6133586E-08
   79.21875        2.9146610E-08
   79.33750        3.2076560E-08
   79.45625        3.4879260E-08
   79.57500        3.7509064E-08
   79.69375        3.9919215E-08
   79.81250        4.2062293E-08
   79.93125        4.3890655E-08
   80.05000        4.5356991E-08
   80.16875        4.6414890E-08
   80.28750        4.7019483E-08
   80.40625        4.7128168E-08
   80.52500        4.6701352E-08
   80.64375        4.5703292E-08
   80.76250        4.4102947E-08
   80.88125        4.1874856E-08
   81.00000        3.9000039E-08
   81.11875        3.5466883E-08
   81.23750        3.1271991E-08
   81.35625        2.6420949E-08
   81.47500        2.0929038E-08
   81.59375        1.4821792E-08
   81.71250        8.1354319E-09
   81.83125        9.1712449E-10
   81.95000       -6.7749526E-09
   82.06875       -1.4871750E-08
   82.18750       -2.3293710E-08
   82.30625       -3.1951352E-08
   82.42500       -4.0746094E-08
   82.54375       -4.9571298E-08
   82.66250       -5.8313514E-08
   82.78125       -6.6853957E-08
   82.90000       -7.5070112E-08
   83.01875       -8.2837538E-08
   83.13750       -9.0031776E-08
   83.25625       -9.6530350E-08
   83.37500       -1.0221483E-07
   83.49375       -1.0697287E-07
   83.61250       -1.1070035E-07
   83.73125       -1.1330330E-07
   83.85000       -1.1469993E-07
   83.96875       -1.1482237E-07
   84.08750       -1.1361831E-07
   84.20625       -1.1105254E-07
   84.32500       -1.0710811E-07
   84.44375       -1.0178741E-07
   84.56250       -9.5112831E-08
   84.68125       -8.7127276E-08
   84.80000       -7.7894221E-08
   84.91875       -6.7497552E-08
   85.03750       -5.6040999E-08
   85.15625       -4.3647265E-08
   85.27500       -3.0456778E-08
   85.39375       -1.6626130E-08
   85.51250       -2.3261535E-09
   85.63125        1.2260272E-08
   85.75000        2.6940727E-08
   85.86875        4.1515996E-08
   85.98750        5.5783023E-08
   86.10625        6.9538032E-08
   86.22500        8.2579774E-08
   86.34375        9.4712760E-08
   86.46250        1.0575059E-07
   86.58125        1.1551907E-07
   86.70000        1.2385941E-07
   86.81875        1.3063092E-07
   86.93750        1.3571382E-07
   87.05625        1.3901132E-07
   87.17500        1.4045177E-07
   87.29375        1.3999004E-07
   87.41250        1.3760872E-07
   87.53125        1.3331878E-07
   87.65000        1.2715967E-07
   87.76875        1.1919911E-07
   87.88750        1.0953239E-07
   88.00625        9.8281021E-08
   88.12500        8.5591289E-08
   88.24375        7.1632137E-08
   88.36250        5.6592842E-08
   88.48125        4.0680348E-08
   88.60000        2.4116316E-08
   88.71875        7.1339903E-09
   88.83750       -1.0025127E-08
   88.95625       -2.7114693E-08
   89.07500       -4.3886995E-08
   89.19375       -6.0096454E-08
   89.31250       -7.5503081E-08
   89.43125       -8.9875826E-08
   89.55000       -1.0299583E-07
   89.66875       -1.1465949E-07
   89.78750       -1.2468131E-07
   89.90625       -1.3289652E-07
   90.02500       -1.3916336E-07
   90.14375       -1.4336517E-07
   90.26250       -1.4541202E-07
   90.38125       -1.4524201E-07
   90.50000       -1.4282230E-07
   90.61875       -1.3814952E-07
   90.73750       -1.3125006E-07
   90.85625       -1.2217973E-07
   90.97500       -1.1102310E-07
   91.09375       -9.7892524E-08
   91.21250       -8.2926647E-08
   91.33125       -6.6288628E-08
   91.45000       -4.8164107E-08
   91.56875       -2.8758729E-08
   91.68750       -8.2955340E-09
   91.80625        1.2987915E-08
   91.92500        3.4842586E-08
   92.04375        5.7011121E-08
   92.16250        7.9231100E-08
   92.28125        1.0123832E-07
   92.40000        1.2277005E-07
   92.51875        1.4356826E-07
   92.63750        1.6338274E-07
   92.75625        1.8197412E-07
   92.87500        1.9911671E-07
   92.99375        2.1460126E-07
   93.11250        2.2823727E-07
   93.23125        2.3985544E-07
   93.35000        2.4930949E-07
   93.46875        2.5647813E-07
   93.58750        2.6126639E-07
   93.70625        2.6360686E-07
   93.82500        2.6346072E-07
   93.94375        2.6081824E-07
   94.06250        2.5569912E-07
   94.18125        2.4815242E-07
   94.30000        2.3825642E-07
   94.41875        2.2611758E-07
   94.53750        2.1186976E-07
   94.65625        1.9567268E-07
   94.77500        1.7771022E-07
   94.89375        1.5818824E-07
   95.01250        1.3733225E-07
   95.13125        1.1538460E-07
   95.25000        9.2601454E-08
   95.36875        6.9249531E-08
   95.48750        4.5602611E-08
   95.60625        2.1937904E-08
   95.72500       -1.4677189E-09
   95.84375       -2.4341526E-08
   95.96250       -4.6418673E-08
   96.08125       -6.7445953E-08
   96.20000       -8.7185313E-08
   96.31875       -1.0541727E-07
   96.43750       -1.2194401E-07
   96.55625       -1.3659212E-07
   96.67500       -1.4921511E-07
   96.79375       -1.5969542E-07
   96.91250       -1.6794601E-07
   97.03125       -1.7391160E-07
   97.15000       -1.7756923E-07
   97.26875       -1.7892867E-07
   97.38750       -1.7803197E-07
   97.50625       -1.7495286E-07
   97.62500       -1.6979561E-07
   97.74375       -1.6269333E-07
   97.86250       -1.5380601E-07
   97.98125       -1.4331820E-07
   98.10000       -1.3143608E-07
   98.21875       -1.1838465E-07
   98.33750       -1.0440425E-07
   98.45625       -8.9747104E-08
   98.57500       -7.4673515E-08
   98.69375       -5.9448080E-08
   98.81250       -4.4335703E-08
   98.93125       -2.9597647E-08
   99.05000       -1.5487579E-08
   99.16875       -2.2477433E-09
   99.28750        9.8947330E-09
   99.40625        2.0731321E-08
   99.52500        3.0075281E-08
   99.64375        3.7764526E-08
   99.76250        4.3664084E-08
   99.88125        4.7668131E-08
   100.0000        4.9701491E-08
   100.1188        4.9720665E-08
   100.2375        4.7714270E-08
   100.3562        4.3702929E-08
   100.4750        3.7738587E-08
   100.5938        2.9903301E-08
   100.7125        2.0307423E-08
   100.8313        9.0873975E-09
   100.9500       -3.5969494E-09
   101.0687       -1.7565489E-08
   101.1875       -3.2621127E-08
   101.3063       -4.8553435E-08
   101.4250       -6.5142359E-08
   101.5437       -8.2162018E-08
   101.6625       -9.9384458E-08
   101.7812       -1.1658329E-07
   101.9000       -1.3353716E-07
   102.0188       -1.5003295E-07
   102.1375       -1.6586864E-07
   102.2562       -1.8085589E-07
   102.3750       -1.9482208E-07
   102.4938       -2.0761216E-07
   102.6125       -2.1908993E-07
   102.7312       -2.2913891E-07
   102.8500       -2.3766286E-07
   102.9688       -2.4458615E-07
   103.0875       -2.4985334E-07
   103.2063       -2.5342899E-07
   103.3250       -2.5529695E-07