  -4.500000        1.6785646E-18
  -4.381250        1.6808668E-18
  -4.262500        1.6852550E-18
  -4.143750        1.6913320E-18
  -4.025000        1.6985589E-18
  -3.906250        1.7063165E-18
  -3.787500        1.7139746E-18
  -3.668750        1.7209554E-18
  -3.550000        1.7267988E-18
  -3.431250        1.7312074E-18
  -3.312500        1.7340755E-18
  -3.193750        1.7354969E-18
  -3.075000        1.7357477E-18
  -2.956250        1.7352560E-18
  -2.837500        1.7345490E-18
  -2.718750        1.7341902E-18
  -2.600000        1.7347171E-18
  -2.481250        1.7365762E-18
  -2.362500        1.7400706E-18
  -2.243750        1.7453250E-18
  -2.125000        1.7522669E-18
  -2.006250        1.7606324E-18
  -1.887500        1.7699955E-18
  -1.768750        1.7798106E-18
  -1.650000        1.7894754E-18
  -1.531250        1.7983972E-18
  -1.412500        1.8060585E-18
  -1.293750        1.8120762E-18
  -1.175000        1.8162421E-18
  -1.056250        1.8185467E-18
 -0.9375000        1.8191807E-18
 -0.8187500        1.8185105E-18
 -0.7000000        1.8170406E-18
 -0.5812500        1.8153570E-18
 -0.4625000        1.8140606E-18
 -0.3437500        1.8137027E-18
 -0.2250000        1.8147265E-18
 -0.1062500        1.8174161E-18
  1.2500000E-02    1.8218692E-18
  0.1312500        1.8279860E-18
  0.2500000        1.8354817E-18
  0.3687500        1.8439194E-18
  0.4875000        1.8527603E-18
  0.6062500        1.8614260E-18
  0.7250000        1.8693626E-18
  0.8437500        1.8761052E-18
  0.9625000        1.8813280E-18
   1.081250        1.8848799E-18
   1.200000        1.8868004E-18
   1.318750        1.8873085E-18
   1.437500        1.8867742E-18
   1.556250        1.8856753E-18
   1.675000        1.8845377E-18
   1.793750        1.8838790E-18
   1.912500        1.8841503E-18
   2.031250        1.8856889E-18
   2.150000        1.8886849E-18
   2.268750        1.8931656E-18
   2.387500        1.8989984E-18
   2.506250        1.9059081E-18
   2.625000        1.9135101E-18
   2.743750        1.9213542E-18
   2.862500        1.9289763E-18
   2.981250        1.9359490E-18
   3.100000        1.9419341E-18
   3.218750        1.9467185E-18
   3.337500        1.9502398E-18
   3.456250        1.9525919E-18
   3.575000        1.9540043E-18
   3.693750        1.9548009E-18
   3.812500        1.9553319E-18
   3.931250        1.9558928E-18
   4.050000        1.9566385E-18
   4.168750        1.9575051E-18
   4.287500        1.9581665E-18
   4.406250        1.9580304E-18
   4.525000        1.9563105E-18
   4.643750        1.9521725E-18
   4.762500        1.9449702E-18
   4.881250        1.9345519E-18
   5.000000        1.9216266E-18
   5.118750        1.9081324E-18
   5.237500        1.8975736E-18
   5.356250        1.8952344E-18
   5.475000        1.9082079E-18
   5.593750        1.9451723E-18
   5.712500        2.0158747E-18
   5.831250        2.1303005E-18
   5.950000        2.2975818E-18
   6.068750        2.5247434E-18
   6.187500        2.8154608E-18
   6.306250        3.1690582E-18
   6.425000        3.5800170E-18
   6.543750        4.0382734E-18
   6.662500        4.5305559E-18
   6.781250        5.0428892E-18
   6.900000        5.5642806E-18
   7.018750        6.0913419E-18
   7.137500        6.6333996E-18
   7.256250        7.2173295E-18
   7.375000        7.8911368E-18
   7.493750        8.7250763E-18
   7.612500        9.8091072E-18
   7.731250        1.1245438E-17
   7.850000        1.3135334E-17
   7.968750        1.5559769E-17
   8.087500        1.8554217E-17
   8.206250        2.2078822E-17
   8.325000        2.5986163E-17
   8.443750        2.9989860E-17
   8.562500        3.3638305E-17
   8.681250        3.6298359E-17
   8.800000        3.7154326E-17
   8.918750        3.5227296E-17
   9.037500        2.9419079E-17
   9.156250        1.8583557E-17
   9.275000        1.6261132E-18
   9.393750       -2.2370982E-17
   9.512500       -5.4002519E-17
   9.631250       -9.3382285E-17
   9.750000       -1.3998497E-16
   9.868750       -1.9250293E-16
   9.987500       -2.4873456E-16
   10.10625       -3.0552216E-16
   10.22500       -3.5875638E-16
   10.34375       -4.0346255E-16
   10.46250       -4.3397918E-16
   10.58125       -4.4423437E-16
   10.70000       -4.2811795E-16
   10.81875       -3.7993811E-16
   10.93750       -2.9494365E-16
   11.05625       -1.6988310E-16
   11.17500       -3.5633535E-18
   11.29375        2.0263458E-16
   11.41250        4.4432982E-16
   11.53125        7.1385502E-16
   11.65000        1.0001516E-15
   11.76875        1.2888864E-15
   11.88750        1.5628167E-15
   12.00625        1.8024139E-15
   12.12500        1.9867446E-15
   12.24375        2.0945772E-15
   12.36250        2.1056790E-15
   12.48125        2.0022307E-15
   12.60000        1.7702883E-15
   12.71875        1.4011964E-15
   12.83750        8.9286654E-16
   12.95625        2.5082131E-16
   13.07500       -5.1105373E-16
   13.19375       -1.3701287E-15
   13.31250       -2.2950218E-15
   13.43125       -3.2459546E-15
   13.55000       -4.1754252E-15
   13.66875       -5.0290853E-15
   13.78750       -5.7466785E-15
   13.90625       -6.2628727E-15
   14.02500       -6.5077601E-15
   14.14375       -6.4068424E-15
   14.26250       -5.8802725E-15
   14.38125       -4.8412240E-15
   14.50000       -3.1932471E-15
   14.61875       -8.2663009E-16
   14.73750        2.3861596E-15
   14.85625        6.5957143E-15
   14.97500        1.1981239E-14
   15.09375        1.8755923E-14
   15.21250        2.7171453E-14
   15.33125        3.7520876E-14
   15.45000        5.0139045E-14
   15.56875        6.5399617E-14
   15.68750        8.3707868E-14
   15.80625        1.0548842E-13
   15.92500        1.3116736E-13
   16.04375        1.6114830E-13
   16.16250        1.9578233E-13
   16.28125        2.3533232E-13
   16.40000        2.7993206E-13
   16.51875        3.2954171E-13
   16.63750        3.8390116E-13
   16.75625        4.4248351E-13
   16.87500        5.0445103E-13
   16.99375        5.6861699E-13
   17.11250        6.3341547E-13
   17.23125        6.9688325E-13
   17.35000        7.5665613E-13
   17.46875        8.0998267E-13
   17.58750        8.5375728E-13
   17.70625        8.8457415E-13
   17.82500        8.9880366E-13
   17.94375        8.9268875E-13
   18.06250        8.6246272E-13
   18.18125        8.0448327E-13
   18.30000        7.1538153E-13
   18.41875        5.9221936E-13
   18.53750        4.3265025E-13
   18.65625        2.3507745E-13
   18.77500       -1.1984739E-15
   18.89375       -2.7584911E-13
   19.01250       -5.8741277E-13
   19.13125       -9.3322312E-13
   19.25000       -1.3093738E-12
   19.36875       -1.7107281E-12
   19.48750       -2.1309803E-12
   19.60625       -2.5627697E-12
   19.72500       -2.9978424E-12
   19.84375       -3.4272763E-12
   19.96250       -3.8417494E-12
   20.08125       -4.2318627E-12
   20.20000       -4.5884971E-12
   20.31875       -4.9032128E-12
   20.43750       -5.1686637E-12
   20.55625       -5.3790323E-12
   20.67500       -5.5304559E-12
   20.79375       -5.6214447E-12
   20.91250       -5.6532695E-12
   21.03125       -5.6302983E-12
   21.15000       -5.5602797E-12
   21.26875       -5.4545461E-12
   21.38750       -5.3281264E-12
   21.50625       -5.1997547E-12
   21.62500       -5.0917647E-12
   21.74375       -5.0298606E-12
   21.86250       -5.0427548E-12
   21.98125       -5.1616753E-12
   22.10000       -5.4197432E-12
   22.21875       -5.8512240E-12
   22.33750       -6.4906704E-12
   22.45625       -7.3719572E-12
   22.57500       -8.5272466E-12
   22.69375       -9.9859036E-12
   22.81250       -1.1773379E-11
   22.93125       -1.3910116E-11
   23.05000       -1.6410493E-11
   23.16875       -1.9281849E-11
   23.28750       -2.2523624E-11
   23.40625       -2.6126672E-11
   23.52500       -3.0072753E-11
   23.64375       -3.4334199E-11
   23.76250       -3.8873901E-11
   23.88125       -4.3645466E-11
   24.00000       -4.8593678E-11
   24.11875       -5.3655198E-11
   24.23750       -5.8759518E-11
   24.35625       -6.3830066E-11
   24.47500       -6.8785679E-11
   24.59375       -7.3541957E-11
   24.71250       -7.8012985E-11
   24.83125       -8.2112921E-11
   24.95000       -8.5757623E-11
   25.06875       -8.8866262E-11
   25.18750       -9.1362765E-11
   25.30625       -9.3177070E-11
   25.42500       -9.4246222E-11
   25.54375       -9.4515194E-11
   25.66250       -9.3937393E-11
   25.78125       -9.2474972E-11
   25.90000       -9.0098762E-11
   26.01875       -8.6787987E-11
   26.13750       -8.2529789E-11
   26.25625       -7.7318492E-11
   26.37500       -7.1154804E-11
   26.49375       -6.4044908E-11
   26.61250       -5.5999587E-11
   26.73125       -4.7033440E-11
   26.85000       -3.7164272E-11
   26.96875       -2.6412688E-11
   27.08750       -1.4801995E-11
   27.20625       -2.3584199E-12
   27.32500        1.0888237E-11
   27.44375        2.4903631E-11
   27.56250        3.9647532E-11
   27.68125        5.5072075E-11
   27.80000        7.1119798E-11
   27.91875        8.7721483E-11
   28.03750        1.0479376E-10
   28.15625        1.2223694E-10
   28.27500        1.3993269E-10
   28.39375        1.5774224E-10
   28.51250        1.7550478E-10
   28.63125        1.9303659E-10
   28.75000        2.1013057E-10
   28.86875        2.2655668E-10
   28.98750        2.4206309E-10
   29.10625        2.5637825E-10
   29.22500        2.6921396E-10
   29.34375        2.8026889E-10
   29.46250        2.8923336E-10
   29.58125        2.9579467E-10
   29.70000        2.9964292E-10
   29.81875        3.0047734E-10
   29.93750        2.9801314E-10
   30.05625        2.9198807E-10
   30.17500        2.8216920E-10
   30.29375        2.6835931E-10
   30.41250        2.5040278E-10
   30.53125        2.2819108E-10
   30.65000        2.0166721E-10
   30.76875        1.7082946E-10
   30.88750        1.3573416E-10
   31.00625        9.6497407E-11
   31.12500        5.3295868E-11
   31.24375        6.3663762E-12
   31.36250       -4.3995203E-11
   31.48125       -9.7436080E-11
   31.60000       -1.5354940E-10
   31.71875       -2.1187802E-10
   31.83750       -2.7191832E-10
   31.95625       -3.3312503E-10
   32.07500       -3.9491596E-10
   32.19375       -4.5667742E-10
   32.31250       -5.1776927E-10
   32.43125       -5.7753058E-10
   32.55000       -6.3528560E-10
   32.66875       -6.9034878E-10
   32.78750       -7.4203110E-10
   32.90625       -7.8964579E-10
   33.02500       -8.3251467E-10
   33.14375       -8.6997409E-10
   33.26250       -9.0138186E-10
   33.38125       -9.2612401E-10
   33.50000       -9.4362163E-10
   33.61875       -9.5333852E-10
   33.73750       -9.5478792E-10
   33.85625       -9.4754105E-10
   33.97500       -9.3123381E-10
   34.09375       -9.0557439E-10
   34.21250       -8.7035007E-10
   34.33125       -8.2543355E-10
   34.45000       -7.7078871E-10
   34.56875       -7.0647493E-10
   34.68750       -6.3265060E-10
   34.80625       -5.4957500E-10
   34.92500       -4.5760923E-10
   35.04375       -3.5721442E-10
   35.16250       -2.4894992E-10
   35.28125       -1.3346807E-10
   35.40000       -1.1508926E-11
   35.51875        1.1610728E-10
   35.63750        2.4848848E-10
   35.75625        3.8468048E-10
   35.87500        5.2367671E-10
   35.99375        6.6442885E-10
   36.11250        8.0585733E-10
   36.23125        9.4686115E-10
   36.35000        1.0863278E-09
   36.46875        1.2231414E-09
   36.58750        1.3561907E-09
   36.70625        1.4843752E-09
   36.82500        1.6066101E-09
   36.94375        1.7218305E-09
   37.06250        1.8289940E-09
   37.18125        1.9270823E-09
   37.30000        2.0151030E-09
   37.41875        2.0920903E-09
   37.53750        2.1571054E-09
   37.65625        2.2092390E-09
   37.77500        2.2476132E-09
   37.89375        2.2713842E-09
   38.01250        2.2797488E-09
   38.13125        2.2719497E-09
   38.25000        2.2472848E-09
   38.36875        2.2051176E-09
   38.48750        2.1448894E-09
   38.60625        2.0661335E-09
   38.72500        1.9684903E-09
   38.84375        1.8517241E-09
   38.96250        1.7157402E-09
   39.08125        1.5606021E-09
   39.20000        1.3865480E-09
   39.31875        1.1940072E-09
   39.43750        9.8361408E-10
   39.55625        7.5622059E-10
   39.67500        5.1290600E-10
   39.79375        2.5498370E-10
   39.91250       -1.5995011E-11
   40.03125       -2.9824132E-10
   40.15000       -5.8973215E-10
   40.26875       -8.8821872E-10
   40.38750       -1.1912379E-09
   40.50625       -1.4961286E-09
   40.62500       -1.8000513E-09
   40.74375       -2.1000133E-09
   40.86250       -2.3928952E-09
   40.98125       -2.6754845E-09
   41.10000       -2.9445113E-09
   41.21875       -3.1966849E-09
   41.33750       -3.4287388E-09
   41.45625       -3.6374739E-09
   41.57500       -3.8198071E-09
   41.69375       -3.9728185E-09
   41.81250       -4.0938031E-09
   41.93125       -4.1803201E-09
   42.05000       -4.2302415E-09
   42.16875       -4.2418029E-09
   42.28750       -4.2136441E-09
   42.40625       -4.1448533E-09
   42.52500       -4.0349990E-09
   42.64375       -3.8841605E-09
   42.76250       -3.6929457E-09
   42.88125       -3.4625016E-09
   43.00000       -3.1945147E-09
   43.11875       -2.8911977E-09
   43.23750       -2.5552684E-09
   43.35625       -2.1899120E-09
   43.47500       -1.7987343E-09
   43.59375       -1.3857032E-09
   43.71250       -9.5507979E-10
   43.83125       -5.1134030E-10
   43.95000       -5.9093064E-11
   44.06875        3.9701059E-10
   44.18750        8.5236623E-10
   44.30625        1.3025052E-09
   44.42500        1.7431796E-09
   44.54375        2.1704405E-09
   44.66250        2.5807050E-09
   44.78125        2.9708118E-09
   44.90000        3.3380632E-09
   45.01875        3.6802470E-09
   45.13750        3.9956447E-09
   45.25625        4.2830193E-09
   45.37500        4.5415858E-09
   45.49375        4.7709645E-09
   45.61250        4.9711222E-09
   45.73125        5.1422950E-09
   45.85000        5.2849072E-09
   45.96875        5.3994835E-09
   46.08750        5.4865557E-09
   46.20625        5.5465761E-09
   46.32500        5.5798397E-09
   46.44375        5.5864104E-09
   46.56250        5.5660694E-09
   46.68125        5.5182801E-09
   46.80000        5.4421720E-09
   46.91875        5.3365530E-09
   47.03750        5.1999391E-09
   47.15625        5.0306141E-09
   47.27500        4.8267097E-09
   47.39375        4.5863064E-09
   47.51250        4.3075516E-09
   47.63125        3.9887884E-09
   47.75000        3.6286989E-09
   47.86875        3.2264433E-09
   47.98750        2.7817970E-09
   48.10625        2.2952797E-09
   48.22500        1.7682702E-09
   48.34375        1.2030924E-09
   48.46250        6.0308425E-10
   48.58125       -2.7371499E-11
   48.70000       -6.8284628E-10
   48.81875       -1.3569021E-09
   48.93750       -2.0421624E-09
   49.05625       -2.7304203E-09
   49.17500       -3.4127823E-09
   49.29375       -4.0798374E-09
   49.41250       -4.7218554E-09
   49.53125       -5.3290035E-09
   49.65000       -5.8915788E-09
   49.76875       -6.4002417E-09
   49.88750       -6.8462529E-09
   50.00625       -7.2217019E-09
   50.12500       -7.5197129E-09
   50.24375       -7.7346378E-09
   50.36250       -7.8622078E-09
   50.48125       -7.8996640E-09
   50.60000       -7.8458395E-09
   50.71875       -7.7012041E-09
   50.83750       -7.4678690E-09
   50.95625       -7.1495441E-09
   51.07500       -6.7514585E-09
   51.19375       -6.2802417E-09
   51.31250       -5.7437690E-09
   51.43125       -5.1509770E-09
   51.55000       -4.5116573E-09
   51.66875       -3.8362327E-09
   51.78750       -3.1355194E-09
   51.90625       -2.4204880E-09
   52.02500       -1.7020257E-09
   52.14375       -9.9070885E-10
   52.26250       -2.9658939E-10
   52.38125        3.7099690E-10
   52.50000        1.0035998E-09
   52.61875        1.5937928E-09
   52.73750        2.1352833E-09
   52.85625        2.6229867E-09
   52.97500        3.0530733E-09
   53.09375        3.4229761E-09
   53.21250        3.7313721E-09
   53.33125        3.9781347E-09
   53.45000        4.1642618E-09
   53.56875        4.2917803E-09
   53.68750        4.3636290E-09
   53.80625        4.3835326E-09
   53.92500        4.3558686E-09
   54.04375        4.2855208E-09
   54.16250        4.1777399E-09
   54.28125        4.0380015E-09
   54.40000        3.8718748E-09
   54.51875        3.6848999E-09
   54.63750        3.4824750E-09
   54.75625        3.2697589E-09
   54.87500        3.0515923E-09
   54.99375        2.8324267E-09
   55.11250        2.6162763E-09
   55.23125        2.4066855E-09
   55.35000        2.2067068E-09
   55.46875        2.0188933E-09
   55.58750        1.8453056E-09
   55.70625        1.6875248E-09
   55.82500        1.5466760E-09
   55.94375        1.4234555E-09
   56.06250        1.3181637E-09
   56.18125        1.2307394E-09
   56.30000        1.1607961E-09
   56.41875        1.1076557E-09
   56.53750        1.0703843E-09
   56.65625        1.0478235E-09
   56.77500        1.0386235E-09
   56.89375        1.0412725E-09
   57.01250        1.0541268E-09
   57.13125        1.0754408E-09
   57.25000        1.1033983E-09
   57.36875        1.1361446E-09
   57.48750        1.1718240E-09
   57.60625        1.2086175E-09
   57.72500        1.2447792E-09
   57.84375        1.2786897E-09
   57.96250        1.3088930E-09
   58.08125        1.3341529E-09
   58.20000        1.3534920E-09
   58.31875        1.3662473E-09
   58.43750        1.3720980E-09
   58.55625        1.3710981E-09
   58.67500        1.3637073E-09
   58.79375        1.3507926E-09
   58.91250        1.3336161E-09
   59.03125        1.3138219E-09
   59.15000        1.2933850E-09
   59.26875        1.2745496E-09
   59.38750        1.2597546E-09
   59.50625        1.2515264E-09
   59.62500        1.2523724E-09
   59.74375        1.2646484E-09
   59.86250        1.2904294E-09
   59.98125        1.3313660E-09
   60.10000        1.3885552E-09
   60.21875        1.4624147E-09
   60.33750        1.5525723E-09
   60.45625        1.6577745E-09
   60.57500        1.7758238E-09
   60.69375        1.9035464E-09
   60.81250        2.0367943E-09
   60.93125        2.1704845E-09
   61.05000        2.2986786E-09
   61.16875        2.4146976E-09
   61.28750        2.5112767E-09
   61.40625        2.5807476E-09
   61.52500        2.6152527E-09
   61.64375        2.6069815E-09
   61.76250        2.5484150E-09
   61.88125        2.4325826E-09
   62.00000        2.2533129E-09
   62.11875        2.0054720E-09
   62.23750        1.6851857E-09
   62.35625        1.2900297E-09
   62.47500        8.1918466E-10
   62.59375        2.7355182E-10
   62.71250       -3.4418055E-10
   62.83125       -1.0295198E-09
   62.95000       -1.7761997E-09
   63.06875       -2.5762679E-09
   63.18750       -3.4202194E-09
   63.30625       -4.2971777E-09
   63.42500       -5.1951181E-09
   63.54375       -6.1011214E-09
   63.66250       -7.0016704E-09
   63.78125       -7.8829441E-09
   63.90000       -8.7311491E-09
   64.01875       -9.5328332E-09
   64.13750       -1.0275206E-08
   64.25625       -1.0946440E-08
   64.37500       -1.1535952E-08
   64.49375       -1.2034654E-08
   64.61250       -1.2435160E-08
   64.73125       -1.2731971E-08
   64.85000       -1.2921585E-08
   64.96875       -1.3002577E-08
   65.08750       -1.2975617E-08
   65.20625       -1.2843445E-08
   65.32500       -1.2610785E-08
   65.44375       -1.2284207E-08
   65.56250       -1.1871954E-08
   65.68125       -1.1383714E-08
   65.80000       -1.0830365E-08
   65.91875       -1.0223683E-08
   66.03750       -9.5760377E-09
   66.15625       -8.9000602E-09
   66.27500       -8.2083185E-09
   66.39375       -7.5129885E-09
   66.51250       -6.8255406E-09
   66.63125       -6.1564438E-09
   66.75000       -5.5149032E-09
   66.86875       -4.9086299E-09
   66.98750       -4.3436508E-09
   67.10625       -3.8241734E-09
   67.22500       -3.3524949E-09
   67.34375       -2.9289695E-09
   67.46250       -2.5520281E-09
   67.58125       -2.2182536E-09
   67.70000       -1.9225086E-09
   67.81875       -1.6581074E-09
   67.93750       -1.4170388E-09
   68.05625       -1.1902207E-09
   68.17500       -9.6778197E-10
   68.29375       -7.3937606E-10
   68.41250       -4.9449456E-10
   68.53125       -2.2279886E-10
   68.65000        8.5571168E-11
   68.76875        4.3968021E-10
   68.88750        8.4752333E-10
   69.00625        1.3157666E-09
   69.12500        1.8495311E-09
   69.24375        2.4522158E-09
   69.36250        3.1253653E-09
   69.48125        3.8685859E-09
   69.60000        4.6795092E-09
   69.71875        5.5538094E-09
   69.83750        6.4852594E-09
   69.95625        7.4658413E-09
   70.07500        8.4858867E-09
   70.19375        9.5342667E-09
   70.31250        1.0598596E-08
   70.43125        1.1665478E-08
   70.55000        1.2720753E-08
   70.66875        1.3749771E-08
   70.78750        1.4737668E-08
   70.90625        1.5669633E-08
   71.02500        1.6531187E-08
   71.14375        1.7308441E-08
   71.26250        1.7988347E-08
   71.38125        1.8558934E-08
   71.50000        1.9009528E-08
   71.61875        1.9330946E-08
   71.73750        1.9515683E-08
   71.85625        1.9558067E-08
   71.97500        1.9454406E-08
   72.09375        1.9203107E-08
   72.21250        1.8804775E-08
   72.33125        1.8262291E-08
   72.45000        1.7580875E-08
   72.56875        1.6768109E-08
   72.68750        1.5833944E-08
   72.80625        1.4790675E-08
   72.92500        1.3652885E-08
   73.04375        1.2437340E-08
   73.16250        1.1162850E-08
   73.28125        9.8500808E-09
   73.40000        8.5213108E-09
   73.51875        7.2001454E-09
   73.63750        5.9111573E-09
   73.75625        4.6794901E-09
   73.87500        3.5303926E-09
   73.99375        2.4887163E-09
   74.11250        1.5783573E-09
   74.23125        8.2166929E-10
   74.35000        2.3885582E-10
   74.46875       -1.5264821E-10
   74.58750       -3.3878883E-10
   74.70625       -3.0948075E-10
   74.82500       -5.9143149E-11
   74.94375        4.1281215E-10
   75.06250        1.1015923E-09
   75.18125        1.9967310E-09
   75.30000        3.0819072E-09
   75.41875        4.3349062E-09
   75.53750        5.7277201E-09
   75.65625        7.2268027E-09
   75.77500        8.7934708E-09
   75.89375        1.0384471E-08
   76.01250        1.1952685E-08
   76.13125        1.3447969E-08
   76.25000        1.4818121E-08
   76.36875        1.6009949E-08
   76.48750        1.6970404E-08
   76.60625        1.7647784E-08
   76.72500        1.7992946E-08
   76.84375        1.7960515E-08
   76.96250        1.7510063E-08
   77.08125        1.6607196E-08
   77.20000        1.5224582E-08
   77.31875        1.3342835E-08
   77.43750        1.0951244E-08
   77.55625        8.0483602E-09
   77.67500        4.6423891E-09
   77.79375        7.5139656E-10
   77.91250       -3.5966845E-09
   78.03125       -8.3642488E-09
   78.15000       -1.3504409E-08
   78.26875       -1.8961577E-08
   78.38750       -2.4672225E-08
   78.50625       -3.0565804E-08
   78.62500       -3.6565826E-08
   78.74375       -4.2591051E-08
   78.86250       -4.8556807E-08
   78.98125       -5.4376329E-08
   79.10000       -5.9962233E-08
   79.21875       -6.5227972E-08
   79.33750       -7.0089300E-08
   79.45625       -7.4465689E-08
   79.57500       -7.8281772E-08
   79.69375       -8.1468613E-08
   79.81250       -8.3964970E-08
   79.93125       -8.5718376E-08
   80.05000       -8.6686121E-08
   80.16875       -8.6836089E-08
   80.28750       -8.6147345E-08
   80.40625       -8.4610669E-08
   80.52500       -8.2228738E-08
   80.64375       -7.9016303E-08
   80.76250       -7.4999967E-08
   80.88125       -7.0217908E-08
   81.00000       -6.4719309E-08
   81.11875       -5.8563668E-08
   81.23750       -5.1819864E-08
   81.35625       -4.4565141E-08
   81.47500       -3.6883858E-08
   81.59375       -2.8866181E-08
   81.71250       -2.0606642E-08
   81.83125       -1.2202654E-08
   81.95000       -3.7529517E-09
   82.06875        4.6439537E-09
   82.18750        1.2891328E-08
   82.30625        2.0895699E-08
   82.42500        2.8568305E-08
   82.54375        3.5826403E-08
   82.66250        4.2594476E-08
   82.78125        4.8805319E-08
   82.90000        5.4400932E-08
   83.01875        5.9333260E-08
   83.13750        6.3564741E-08
   83.25625        6.7068697E-08
   83.37500        6.9829511E-08
   83.49375        7.1842599E-08
   83.61250        7.3114279E-08
   83.73125        7.3661425E-08
   83.85000        7.3510925E-08
   83.96875        7.2699088E-08
   84.08750        7.1270847E-08
   84.20625        6.9278897E-08
   84.32500        6.6782718E-08
   84.44375        6.3847544E-08
   84.56250        6.0543272E-08
   84.68125        5.6943318E-08
   84.80000        5.3123486E-08
   84.91875        4.9160771E-08
   85.03750        4.5132232E-08
   85.15625        4.1113864E-08
   85.27500        3.7179493E-08
   85.39375        3.3399751E-08
   85.51250        2.9841075E-08
   85.63125        2.6564786E-08
   85.75000        2.3626253E-08
   85.86875        2.1074136E-08
   85.98750        1.8949725E-08
   86.10625        1.7286377E-08
   86.22500        1.6109057E-08
   86.34375        1.5434008E-08
   86.46250        1.5268519E-08
   86.58125        1.5610830E-08
   86.70000        1.6450157E-08
   86.81875        1.7766842E-08
   86.93750        1.9532635E-08
   87.05625        2.1711104E-08
   87.17500        2.4258169E-08
   87.29375        2.7122748E-08
   87.41250        3.0247524E-08
   87.53125        3.3569819E-08
   87.65000        3.7022531E-08
   87.76875        4.0535216E-08
   87.88750        4.4035161E-08
   88.00625        4.7448534E-08
   88.12500        5.0701590E-08
   88.24375        5.3721834E-08
   88.36250        5.6439220E-08
   88.48125        5.8787265E-08
   88.60000        6.0704174E-08
   88.71875        6.2133807E-08
   88.83750        6.3026640E-08
   88.95625        6.3340515E-08
   89.07500        6.3041369E-08
   89.19375        6.2103702E-08
   89.31250        6.0510985E-08
   89.43125        5.8255878E-08
   89.55000        5.5340280E-08
   89.66875        5.1775210E-08
   89.78750        4.7580563E-08
   89.90625        4.2784709E-08
   90.02500        3.7423934E-08
   90.14375        3.1541809E-08
   90.26250        2.5188426E-08
   90.38125        1.8419572E-08
   90.50000        1.1295844E-08
   90.61875        3.8817398E-09
   90.73750       -3.7552867E-09
   90.85625       -1.1545736E-08
   90.97500       -1.9418950E-08
   91.09375       -2.7303972E-08
   91.21250       -3.5130320E-08
   91.33125       -4.2828709E-08
   91.45000       -5.0331696E-08
   91.56875       -5.7574230E-08
   91.68750       -6.4494145E-08
   91.80625       -7.1032559E-08
   91.92500       -7.7134239E-08
   92.04375       -8.2747853E-08
   92.16250       -8.7826237E-08
   92.28125       -9.2326566E-08
   92.40000       -9.6210599E-08
   92.51875       -9.9444819E-08
   92.63750       -1.0200065E-07
   92.75625       -1.0385467E-07
   92.87500       -1.0498889E-07
   92.99375       -1.0539095E-07
   93.11250       -1.0505450E-07
   93.23125       -1.0397954E-07
   93.35000       -1.0217278E-07
   93.46875       -9.9648062E-08
   93.58750       -9.6426710E-08
   93.70625       -9.2537952E-08
   93.82500       -8.8019242E-08
   93.94375       -8.2916550E-08
   94.06250       -7.7284568E-08
   94.18125       -7.1186804E-08
   94.30000       -6.4695548E-08
   94.41875       -5.7891651E-08
   94.53750       -5.0864163E-08
   94.65625       -4.3709761E-08
   94.77500       -3.6531947E-08
   94.89375       -2.9440077E-08
   95.01250       -2.2548091E-08
   95.13125       -1.5973125E-08
   95.25000       -9.8338377E-09
   95.36875       -4.2486223E-09
   95.48750        6.6639477E-10
   95.60625        4.7994364E-09
   95.72500        8.0452649E-09
   95.84375        1.0307399E-08
   95.96250        1.1500327E-08
   96.08125        1.1551657E-08
   96.20000        1.0404151E-08
   96.31875        8.0176061E-09
   96.43750        4.3704982E-09
   96.55625       -5.3862342E-10
   96.67500       -6.6900587E-09
   96.79375       -1.4042223E-08
   96.91250       -2.2531296E-08
   97.03125       -3.2071274E-08
   97.15000       -4.2554429E-08
   97.26875       -5.3852190E-08
   97.38750       -6.5816465E-08
   97.50625       -7.8281332E-08
   97.62500       -9.1065132E-08
   97.74375       -1.0397291E-07
   97.86250       -1.1679916E-07
   97.98125       -1.2933086E-07
   98.10000       -1.4135072E-07
   98.21875       -1.5264055E-07
   98.33750       -1.6298475E-07
   98.45625       -1.7217393E-07
   98.57500       -1.8000833E-07
   98.69375       -1.8630138E-07
   98.81250       -1.9088291E-07
   98.93125       -1.9360232E-07
   99.05000       -1.9433142E-07
   99.16875       -1.9296697E-07
   99.28750       -1.8943291E-07
   99.40625       -1.8368220E-07
   99.52500       -1.7569818E-07
   99.64375       -1.6549555E-07
   99.76250       -1.5312081E-07
   99.88125       -1.3865225E-07
   100.0000       -1.2219945E-07
   100.1188       -1.0390220E-07
   100.2375       -8.3929052E-08
   100.3562       -6.2475259E-08
   100.4750       -3.9760334E-08
   100.5938       -1.6025139E-08
   100.7125        8.4713907E-09
   100.8313        3.3455908E-08
   100.9500        5.8644588E-08
   101.0687        8.3747310E-08
   101.1875        1.0847202E-07
   101.3063        1.3252917E-07
   101.4250        1.5563624E-07
   101.5437        1.7752215E-07
   101.6625        1.9793156E-07
   101.7812        2.1662899E-07
   101.9000        2.3340266E-07
   102.0188        2.4806786E-07
   102.1375        2.6047005E-07
   102.2562        2.7048739E-07
   102.3750        2.7803264E-07
   102.4938        2.8305465E-07
   102.6125        2.8553907E-07
   102.7312        2.8550849E-07
   102.8500        2.8302190E-07
   102.9688        2.7817353E-07
   103.0875        2.7109112E-07
   103.2063        2.6193348E-07
   103.3250        2.5088755E-07