  -4.500000        7.8527052E-19
  -4.381250        7.7745170E-19
  -4.262500        7.6208217E-19
  -4.143750        7.3966046E-19
  -4.025000        7.1089903E-19
  -3.906250        6.7669619E-19
  -3.787500        6.3810020E-19
  -3.668750        5.9626989E-19
  -3.550000        5.5242782E-19
  -3.431250        5.0781476E-19
  -3.312500        4.6363918E-19
  -3.193750        4.2103242E-19
  -3.075000        3.8100409E-19
  -2.956250        3.4440745E-19
  -2.837500        3.1190735E-19
  -2.718750        2.8396009E-19
  -2.600000        2.6080330E-19
  -2.481250        2.4245398E-19
  -2.362500        2.2871694E-19
  -2.243750        2.1920480E-19
  -2.125000        2.1336398E-19
  -2.006250        2.1050569E-19
  -1.887500        2.0984227E-19
  -1.768750        2.1052324E-19
  -1.650000        2.1167427E-19
  -1.531250        2.1243288E-19
  -1.412500        2.1198320E-19
  -1.293750        2.0958865E-19
  -1.175000        2.0462047E-19
  -1.056250        1.9658875E-19
 -0.9375000        1.8516407E-19
 -0.8187500        1.7020061E-19
 -0.7000000        1.5175599E-19
 -0.5812500        1.3010708E-19
 -0.4625000        1.0576660E-19
 -0.3437500        7.9493692E-20
 -0.2250000        5.2291964E-20
 -0.1062500        2.5395361E-20
  1.2500000E-02    2.1417016E-22
  0.1312500       -2.1765355E-20
  0.2500000       -3.9147234E-20
  0.3687500       -5.0862657E-20
  0.4875000       -5.6465798E-20
  0.6062500       -5.6452434E-20
  0.7250000       -5.2540697E-20
  0.8437500       -4.7816445E-20
  0.9625000       -4.6644081E-20
   1.081250       -5.4239609E-20
   1.200000       -7.5843880E-20
   1.318750       -1.1549972E-19
   1.437500       -1.7454001E-19
   1.556250       -2.5000185E-19
   1.675000       -3.3329214E-19
   1.793750       -4.0951329E-19
   1.912500       -4.5785915E-19
   2.031250       -4.5343162E-19
   2.150000       -3.7063826E-19
   2.268750       -1.8807564E-19
   2.387500        1.0555188E-19
   2.506250        5.0526828E-19
   2.625000        9.8452815E-19
   2.743750        1.4920630E-18
   2.862500        1.9521369E-18
   2.981250        2.2692100E-18
   3.100000        2.3374627E-18
   3.218750        2.0548866E-18
   3.337500        1.3407222E-18
   3.456250        1.5407728E-19
   3.575000       -1.4892162E-18
   3.693750       -3.5049913E-18
   3.812500       -5.7378698E-18
   3.931250       -7.9701416E-18
   4.050000       -9.9443215E-18
   4.168750       -1.1399691E-17
   4.287500       -1.2121182E-17
   4.406250       -1.1996796E-17
   4.525000       -1.1077789E-17
   4.643750       -9.6343438E-18
   4.762500       -8.1985692E-18
   4.881250       -7.5868509E-18
   5.000000       -8.8946839E-18
   5.118750       -1.3459291E-17
   5.237500       -2.2788480E-17
   5.356250       -3.8457744E-17
   5.475000       -6.1981418E-17
   5.593750       -9.4667631E-17
   5.712500       -1.3746932E-16
   5.831250       -1.9084614E-16
   5.950000       -2.5465140E-16
   6.068750       -3.2805869E-16
   6.187500       -4.0953813E-16
   6.306250       -4.9688906E-16
   6.425000       -5.8732995E-16
   6.543750       -6.7763875E-16
   6.662500       -7.6433156E-16
   6.781250       -8.4385986E-16
   6.900000       -9.1280093E-16
   7.018750       -9.6801350E-16
   7.137500       -1.0067283E-15
   7.256250       -1.0265449E-15
   7.375000       -1.0253111E-15
   7.493750       -1.0008650E-15
   7.612500       -9.5063736E-16
   7.731250       -8.7111256E-16
   7.850000       -7.5716630E-16
   7.968750       -6.0130557E-16
   8.087500       -3.9284684E-16
   8.206250       -1.1707196E-16
   8.325000        2.4559133E-16
   8.443750        7.2033005E-16
   8.562500        1.3386239E-15
   8.681250        2.1388232E-15
   8.800000        3.1666522E-15
   8.918750        4.4756810E-15
   9.037500        6.1278391E-15
   9.156250        8.1941044E-15
   9.275000        1.0755509E-14
   9.393750        1.3904671E-14
   9.512500        1.7748042E-14
   9.631250        2.2409131E-14
   9.750000        2.8032925E-14
   9.868750        3.4791716E-14
   9.987500        4.2892498E-14
   10.10625        5.2585991E-14
   10.22500        6.4177294E-14
   10.34375        7.8037898E-14
   10.46250        9.4618696E-14
   10.58125        1.1446336E-13
   10.70000        1.3822107E-13
   10.81875        1.6665758E-13
   10.93750        2.0066278E-13
   11.05625        2.4125320E-13
   11.17500        2.8956714E-13
   11.29375        3.4685021E-13
   11.41250        4.1442831E-13
   11.53125        4.9366609E-13
   11.65000        5.8590735E-13
   11.76875        6.9239585E-13
   11.88750        8.1417327E-13
   12.00625        9.5195358E-13
   12.12500        1.1059723E-12
   12.24375        1.2758099E-12
   12.36250        1.4601912E-12
   12.48125        1.6567620E-12
   12.60000        1.8618455E-12
   12.71875        2.0701854E-12
   12.83750        2.2746796E-12
   12.95625        2.4661141E-12
   13.07500        2.6329063E-12
   13.19375        2.7608681E-12
   13.31250        2.8330044E-12
   13.43125        2.8293578E-12
   13.55000        2.7269179E-12
   13.66875        2.4996088E-12
   13.78750        2.1183786E-12
   13.90625        1.5513950E-12
   14.02500        7.6437885E-13
   14.14375       -2.7892006E-13
   14.26250       -1.6160860E-12
   14.38125       -3.2852295E-12
   14.50000       -5.3240086E-12
   14.61875       -7.7684551E-12
   14.73750       -1.0651641E-11
   14.85625       -1.4002168E-11
   14.97500       -1.7842507E-11
   15.09375       -2.2187210E-11
   15.21250       -2.7041040E-11
   15.33125       -3.2397033E-11
   15.45000       -3.8234568E-11
   15.56875       -4.4517529E-11
   15.68750       -5.1192522E-11
   15.80625       -5.8187382E-11
   15.92500       -6.5409886E-11
   16.04375       -7.2746871E-11
   16.16250       -8.0063782E-11
   16.28125       -8.7204736E-11
   16.40000       -9.3993188E-11
   16.51875       -1.0023322E-10
   16.63750       -1.0571160E-10
   16.75625       -1.1020042E-10
   16.87500       -1.1346071E-10
   16.99375       -1.1524652E-10
   17.11250       -1.1530991E-10
   17.23125       -1.1340638E-10
   17.35000       -1.0930101E-10
   17.46875       -1.0277489E-10
   17.58750       -9.3631887E-11
   17.70625       -8.1705510E-11
   17.82500       -6.6865756E-11
   17.94375       -4.9025645E-11
   18.06250       -2.8147333E-11
   18.18125       -4.2476448E-12
   18.30000        2.2597315E-11
   18.41875        5.2248546E-11
   18.53750        8.4501656E-11
   18.65625        1.1908567E-10
   18.77500        1.5566325E-10
   18.89375        1.9383238E-10
   19.01250        2.3312957E-10
   19.13125        2.7303429E-10
   19.25000        3.1297512E-10
   19.36875        3.5233705E-10
   19.48750        3.9046982E-10
   19.60625        4.2669759E-10
   19.72500        4.6032905E-10
   19.84375        4.9066828E-10
   19.96250        5.1702620E-10
   20.08125        5.3873156E-10
   20.20000        5.5514260E-10
   20.31875        5.6565758E-10
   20.43750        5.6972543E-10
   20.55625        5.6685551E-10
   20.67500        5.5662608E-10
   20.79375        5.3869237E-10
   20.91250        5.1279303E-10
   21.03125        4.7875570E-10
   21.15000        4.3650086E-10
   21.26875        3.8604506E-10
   21.38750        3.2750203E-10
   21.50625        2.6108340E-10
   21.62500        1.8709694E-10
   21.74375        1.0594473E-10
   21.86250        1.8119756E-11
   21.98125       -7.5799457E-11
   22.10000       -1.7515396E-10
   22.21875       -2.7921160E-10
   22.33750       -3.8717460E-10
   22.45625       -4.9818843E-10
   22.57500       -6.1135130E-10
   22.69375       -7.2572381E-10
   22.81250       -8.4034024E-10
   22.93125       -9.5421926E-10
   23.05000       -1.0663751E-09
   23.16875       -1.1758289E-09
   23.28750       -1.2816191E-09
   23.40625       -1.3828129E-09
   23.52500       -1.4785141E-09
   23.64375       -1.5678732E-09
   23.76250       -1.6500931E-09
   23.88125       -1.7244353E-09
   24.00000       -1.7902232E-09
   24.11875       -1.8468432E-09
   24.23750       -1.8937447E-09
   24.35625       -1.9304363E-09
   24.47500       -1.9564816E-09
   24.59375       -1.9714925E-09
   24.71250       -1.9751201E-09
   24.83125       -1.9670461E-09
   24.95000       -1.9469724E-09
   25.06875       -1.9146114E-09
   25.18750       -1.8696773E-09
   25.30625       -1.8118789E-09
   25.42500       -1.7409154E-09
   25.54375       -1.6564755E-09
   25.66250       -1.5582408E-09
   25.78125       -1.4458942E-09
   25.90000       -1.3191350E-09
   26.01875       -1.1776979E-09
   26.13750       -1.0213798E-09
   26.25625       -8.5007235E-10
   26.37500       -6.6379913E-10
   26.49375       -4.6275775E-10
   26.61250       -2.4736560E-10
   26.73125       -1.8306088E-11
   26.85000        2.2342346E-10
   26.96875        4.7646725E-10
   27.08750        7.3907158E-10
   27.20625        1.0090525E-09
   27.32500        1.2837728E-09
   27.44375        1.5601332E-09
   27.56250        1.8345774E-09
   27.68125        2.1031137E-09
   27.80000        2.3613580E-09
   27.91875        2.6045937E-09
   28.03750        2.8278568E-09
   28.15625        3.0260359E-09
   28.27500        3.1939968E-09
   28.39375        3.3267231E-09
   28.51250        3.4194698E-09
   28.63125        3.4679324E-09
   28.75000        3.4684187E-09
   28.86875        3.4180259E-09
   28.98750        3.3148106E-09
   29.10625        3.1579512E-09
   29.22500        2.9478915E-09
   29.34375        2.6864611E-09
   29.46250        2.3769657E-09
   29.58125        2.0242428E-09
   29.70000        1.6346754E-09
   29.81875        1.2161596E-09
   29.93750        7.7802559E-10
   30.05625        3.3090727E-10
   30.17500       -1.1343710E-10
   30.29375       -5.4235177E-10
   30.41250       -9.4255637E-10
   30.53125       -1.3004556E-09
   30.65000       -1.6024825E-09
   30.76875       -1.8354616E-09
   30.88750       -1.9869888E-09
   31.00625       -2.0458080E-09
   31.12500       -2.0021760E-09
   31.24375       -1.8482084E-09
   31.36250       -1.5781856E-09
   31.48125       -1.1888073E-09
   31.60000       -6.7939315E-10
   31.71875       -5.2010996E-11
   31.83750        6.8847245E-10
   31.95625        1.5344187E-09
   32.07500        2.4755304E-09
   32.19375        3.4990508E-09
   32.31250        4.5900395E-09
   32.43125        5.7317160E-09
   32.55000        6.9058816E-09
   32.66875        8.0933704E-09
   32.78750        9.2745545E-09
   32.90625        1.0429854E-08
   33.02500        1.1540254E-08
   33.14375        1.2587795E-08
   33.26250        1.3556034E-08
   33.38125        1.4430440E-08
   33.50000        1.5198721E-08
   33.61875        1.5851068E-08
   33.73750        1.6380291E-08
   33.85625        1.6781859E-08
   33.97500        1.7053836E-08
   34.09375        1.7196692E-08
   34.21250        1.7213052E-08
   34.33125        1.7107315E-08
   34.45000        1.6885231E-08
   34.56875        1.6553418E-08
   34.68750        1.6118841E-08
   34.80625        1.5588288E-08
   34.92500        1.4967874E-08
   35.04375        1.4262579E-08
   35.16250        1.3475862E-08
   35.28125        1.2609371E-08
   35.40000        1.1662753E-08
   35.51875        1.0633603E-08
   35.63750        9.5175414E-09
   35.75625        8.3084313E-09
   35.87500        6.9987309E-09
   35.99375        5.5799712E-09
   36.11250        4.0433425E-09
   36.23125        2.3803683E-09
   36.35000        5.8363653E-10
   36.46875       -1.3524466E-09
   36.58750       -3.4309078E-09
   36.70625       -5.6514962E-09
   36.82500       -8.0100726E-09
   36.94375       -1.0498101E-08
   37.06250       -1.3102296E-08
   37.18125       -1.5804437E-08
   37.30000       -1.8581382E-08
   37.41875       -2.1405286E-08
   37.53750       -2.4244036E-08
   37.65625       -2.7061864E-08
   37.77500       -2.9820175E-08
   37.89375       -3.2478532E-08
   38.01250       -3.4995747E-08
   38.13125       -3.7331095E-08
   38.25000       -3.9445567E-08
   38.36875       -4.1303082E-08
   38.48750       -4.2871690E-08
   38.60625       -4.4124636E-08
   38.72500       -4.5041286E-08
   38.84375       -4.5607827E-08
   38.96250       -4.5817771E-08
   39.08125       -4.5672152E-08
   39.20000       -4.5179490E-08
   39.31875       -4.4355399E-08
   39.43750       -4.3222023E-08
   39.55625       -4.1807091E-08
   39.67500       -4.0142854E-08
   39.79375       -3.8264748E-08
   39.91250       -3.6209979E-08
   40.03125       -3.4016001E-08
   40.15000       -3.1718994E-08
   40.26875       -2.9352366E-08
   40.38750       -2.6945413E-08
   40.50625       -2.4522089E-08
   40.62500       -2.2100062E-08
   40.74375       -1.9690010E-08
   40.86250       -1.7295221E-08
   40.98125       -1.4911537E-08
   41.10000       -1.2527624E-08
   41.21875       -1.0125579E-08
   41.33750       -7.6818329E-09
   41.45625       -5.1683413E-09
   41.57500       -2.5540141E-09
   41.69375        1.9370248E-10
   41.81250        3.1071221E-09
   41.93125        6.2165419E-09
   42.05000        9.5485317E-09
   42.16875        1.3124295E-08
   42.28750        1.6958181E-08
   42.40625        2.1056419E-08
   42.52500        2.5416135E-08
   42.64375        3.0024609E-08
   42.76250        3.4858939E-08
   42.88125        3.9885958E-08
   43.00000        4.5062539E-08
   43.11875        5.0336205E-08
   43.23750        5.5645994E-08
   43.35625        6.0923639E-08
   43.47500        6.6094913E-08
   43.59375        7.1081104E-08
   43.71250        7.5800664E-08
   43.83125        8.0170828E-08
   43.95000        8.4109267E-08
   44.06875        8.7535675E-08
   44.18750        9.0373291E-08
   44.30625        9.2550160E-08
   44.42500        9.4000448E-08
   44.54375        9.4665388E-08
   44.66250        9.4494169E-08
   44.78125        9.3444591E-08
   44.90000        9.1483585E-08
   45.01875        8.8587591E-08
   45.13750        8.4742730E-08
   45.25625        7.9945025E-08
   45.37500        7.4200337E-08
   45.49375        6.7524418E-08
   45.61250        5.9942792E-08
   45.73125        5.1490666E-08
   45.85000        4.2212733E-08
   45.96875        3.2162973E-08
   46.08750        2.1404452E-08
   46.20625        1.0008929E-08
   46.32500       -1.9435187E-09
   46.44375       -1.4365021E-08
   46.56250       -2.7160569E-08
   46.68125       -4.0228809E-08
   46.80000       -5.3463030E-08
   46.91875       -6.6752349E-08
   47.03750       -7.9983003E-08
   47.15625       -9.3039858E-08
   47.27500       -1.0580813E-07
   47.39375       -1.1817511E-07
   47.51250       -1.3003208E-07
   47.63125       -1.4127615E-07
   47.75000       -1.5181213E-07
   47.86875       -1.6155435E-07
   47.98750       -1.7042817E-07
   48.10625       -1.7837137E-07
   48.22500       -1.8533518E-07
   48.34375       -1.9128514E-07
   48.46250       -1.9620120E-07
   48.58125       -2.0007774E-07
   48.70000       -2.0292302E-07
   48.81875       -2.0475818E-07
   48.93750       -2.0561596E-07
   49.05625       -2.0553890E-07
   49.17500       -2.0457736E-07
   49.29375       -2.0278733E-07
   49.41250       -2.0022806E-07
   49.53125       -1.9695976E-07
   49.65000       -1.9304123E-07
   49.76875       -1.8852782E-07
   49.88750       -1.8346957E-07
   50.00625       -1.7790975E-07
   50.12500       -1.7188383E-07
   50.24375       -1.6541868E-07
   50.36250       -1.5853270E-07
   50.48125       -1.5123604E-07
   50.60000       -1.4353137E-07
   50.71875       -1.3541522E-07
   50.83750       -1.2687947E-07
   50.95625       -1.1791310E-07
   51.07500       -1.0850430E-07
   51.19375       -9.8642197E-08
   51.31250       -8.8319020E-08
   51.43125       -7.7531624E-08
   51.55000       -6.6283036E-08
   51.66875       -5.4583463E-08
   51.78750       -4.2450921E-08
   51.90625       -2.9911455E-08
   52.02500       -1.6998703E-08
   52.14375       -3.7532240E-09
   52.26250        9.7788107E-09
   52.38125        2.3547130E-08
   52.50000        3.7499241E-08
   52.61875        5.1582472E-08
   52.73750        6.5745922E-08
   52.85625        7.9942517E-08
   52.97500        9.4130733E-08
   53.09375        1.0827593E-07
   53.21250        1.2235149E-07
   53.33125        1.3633921E-07
   53.45000        1.5022928E-07
   53.56875        1.6401962E-07
   53.68750        1.7771474E-07
   53.80625        1.9132386E-07
   53.92500        2.0485885E-07
   54.04375        2.1833162E-07
   54.16250        2.3175127E-07
   54.28125        2.4512130E-07
   54.40000        2.5843678E-07
   54.51875        2.7168161E-07
   54.63750        2.8482646E-07
   54.75625        2.9782689E-07
   54.87500        3.1062223E-07
   54.99375        3.2313525E-07
   55.11250        3.3527235E-07
   55.23125        3.4692476E-07
   55.35000        3.5797044E-07
   55.46875        3.6827666E-07
   55.58750        3.7770334E-07
   55.70625        3.8610679E-07
   55.82500        3.9334398E-07
   55.94375        3.9927690E-07
   56.06250        4.0377722E-07
   56.18125        4.0673049E-07
   56.30000        4.0804059E-07
   56.41875        4.0763328E-07
   56.53750        4.0545942E-07
   56.65625        4.0149760E-07
   56.77500        3.9575585E-07
   56.89375        3.8827267E-07
   57.01250        3.7911724E-07
   57.13125        3.6838870E-07
   57.25000        3.5621485E-07
   57.36875        3.4275004E-07
   57.48750        3.2817238E-07
   57.60625        3.1268064E-07
   57.72500        2.9649055E-07
   57.84375        2.7983074E-07
   57.96250        2.6293890E-07
   58.08125        2.4605725E-07
   58.20000        2.2942844E-07
   58.31875        2.1329137E-07
   58.43750        1.9787714E-07
   58.55625        1.8340522E-07
   58.67500        1.7007964E-07
   58.79375        1.5808557E-07
   58.91250        1.4758596E-07
   59.03125        1.3871860E-07
   59.15000        1.3159314E-07
   59.26875        1.2628854E-07
   59.38750        1.2285064E-07
   59.50625        1.2129010E-07
   59.62500        1.2158067E-07
   59.74375        1.2365773E-07
   59.86250        1.2741744E-07
   59.98125        1.3271628E-07
   60.10000        1.3937141E-07
   60.21875        1.4716163E-07
   60.33750        1.5582904E-07
   60.45625        1.6508186E-07
   60.57500        1.7459800E-07
   60.69375        1.8402945E-07
   60.81250        1.9300796E-07
   60.93125        2.0115128E-07
   61.05000        2.0807026E-07
   61.16875        2.1337686E-07
   61.28750        2.1669219E-07
   61.40625        2.1765523E-07
   61.52500        2.1593141E-07
   61.64375        2.1122096E-07
   61.76250        2.0326681E-07
   61.88125        1.9186155E-07
   62.00000        1.7685365E-07
   62.11875        1.5815218E-07
   62.23750        1.3573008E-07
   62.35625        1.0962594E-07
   62.47500        7.9944058E-08
   62.59375        4.6852730E-08
   62.71250        1.0580800E-08
   62.83125       -2.8587175E-08
   62.95000       -7.0317284E-08
   63.06875       -1.1423360E-07
   63.18750       -1.5992660E-07
   63.30625       -2.0696200E-07
   63.42500       -2.5488990E-07
   63.54375       -3.0325356E-07
   63.66250       -3.5159809E-07
   63.78125       -3.9947804E-07
   63.90000       -4.4646424E-07
   64.01875       -4.9214924E-07
   64.13750       -5.3615150E-07
   64.25625       -5.7811832E-07
   64.37500       -6.1772698E-07
   64.49375       -6.5468515E-07
   64.61250       -6.8872987E-07
   64.73125       -7.1962575E-07
   64.85000       -7.4716246E-07
   64.96875       -7.7115226E-07
   65.08750       -7.9142728E-07
   65.20625       -8.0783718E-07
   65.32500       -8.2024775E-07
   65.44375       -8.2854012E-07
   65.56250       -8.3261125E-07
   65.68125       -8.3237552E-07
   65.80000       -8.2776796E-07
   65.91875       -8.1874805E-07
   66.03750       -8.0530521E-07
   66.15625       -7.8746473E-07
   66.27500       -7.6529460E-07
   66.39375       -7.3891198E-07
   66.51250       -7.0849018E-07
   66.63125       -6.7426430E-07
   66.75000       -6.3653602E-07
   66.86875       -5.9567702E-07
   66.98750       -5.5213042E-07
   67.10625       -5.0640978E-07
   67.22500       -4.5909613E-07
   67.34375       -4.1083200E-07
   67.46250       -3.6231333E-07
   67.58125       -3.1427842E-07
   67.70000       -2.6749527E-07
   67.81875       -2.2274632E-07
   67.93750       -1.8081224E-07
   68.05625       -1.4245433E-07
   68.17500       -1.0839675E-07
   68.29375       -7.9308641E-08
   68.41250       -5.5787186E-08
   68.53125       -3.8341941E-08
   68.65000       -2.7381070E-08
   68.76875       -2.3199991E-08
   68.88750       -2.5972769E-08
   69.00625       -3.5746716E-08
   69.12500       -5.2440040E-08
   69.24375       -7.5843175E-08
   69.36250       -1.0562324E-07
   69.48125       -1.4133158E-07
   69.60000       -1.8241433E-07
   69.71875       -2.2822530E-07
   69.83750       -2.7804111E-07
   69.95625       -3.3107747E-07
   70.07500       -3.8650683E-07
   70.19375       -4.4347624E-07
   70.31250       -5.0112516E-07
   70.43125       -5.5860227E-07
   70.55000       -6.1508189E-07
   70.66875       -6.6977816E-07
   70.78750       -7.2195752E-07
   70.90625       -7.7094973E-07
   71.02500       -8.1615570E-07
   71.14375       -8.5705398E-07
   71.26250       -8.9320434E-07
   71.38125       -9.2424949E-07
   71.50000       -9.4991486E-07
   71.61875       -9.7000634E-07
   71.73750       -9.8440705E-07
   71.85625       -9.9307226E-07
   71.97500       -9.9602335E-07
   72.09375       -9.9334216E-07
   72.21250       -9.8516307E-07
   72.33125       -9.7166651E-07
   72.45000       -9.5307161E-07
   72.56875       -9.2962898E-07
   72.68750       -9.0161438E-07
   72.80625       -8.6932198E-07
   72.92500       -8.3305838E-07
   73.04375       -7.9313742E-07
   73.16250       -7.4987514E-07
   73.28125       -7.0358504E-07
   73.40000       -6.5457436E-07
   73.51875       -6.0314062E-07
   73.63750       -5.4956877E-07
   73.75625       -4.9412870E-07
   73.87500       -4.3707351E-07
   73.99375       -3.7863848E-07
   74.11250       -3.1904034E-07
   74.23125       -2.5847737E-07
   74.35000       -1.9713008E-07
   74.46875       -1.3516257E-07
   74.58750       -7.2724546E-08
   74.70625       -9.9538990E-09
   74.82500        5.3020578E-08
   74.94375        1.1607545E-07
   75.06250        1.7908889E-07
   75.18125        2.4193733E-07
   75.30000        3.0449155E-07
   75.41875        3.6661297E-07
   75.53750        4.2815122E-07
   75.65625        4.8894157E-07
   75.77500        5.4880320E-07
   75.89375        6.0753922E-07
   76.01250        6.6493681E-07
   76.13125        7.2076904E-07
   76.25000        7.7479751E-07
   76.36875        8.2677644E-07
   76.48750        8.7645702E-07
   76.60625        9.2359318E-07
   76.72500        9.6794770E-07
   76.84375        1.0092981E-06
   76.96250        1.0474431E-06
   77.08125        1.0822084E-06
   77.20000        1.1134520E-06
   77.31875        1.1410681E-06
   77.43750        1.1649903E-06
   77.55625        1.1851934E-06
   77.67500        1.2016930E-06
   77.79375        1.2145442E-06
   77.91250        1.2238389E-06
   78.03125        1.2297006E-06
   78.15000        1.2322788E-06
   78.26875        1.2317427E-06
   78.38750        1.2282735E-06
   78.50625        1.2220572E-06
   78.62500        1.2132770E-06
   78.74375        1.2021063E-06
   78.86250        1.1887039E-06
   78.98125        1.1732086E-06
   79.10000        1.1557377E-06
   79.21875        1.1363853E-06
   79.33750        1.1152243E-06
   79.45625        1.0923100E-06
   79.57500        1.0676845E-06
   79.69375        1.0413848E-06
   79.81250        1.0134514E-06
   79.93125        9.8393718E-07
   80.05000        9.5291773E-07
   80.16875        9.2050192E-07
   80.28750        8.8684084E-07
   80.40625        8.5213657E-07
   80.52500        8.1664825E-07
   80.64375        7.8069712E-07
   80.76250        7.4466794E-07
   80.88125        7.0900796E-07
   81.00000        6.7422297E-07
   81.11875        6.4086987E-07
   81.23750        6.0954670E-07
   81.35625        5.8087954E-07
   81.47500        5.5550748E-07
   81.59375        5.3406512E-07
   81.71250        5.1716478E-07
   81.83125        5.0537744E-07
   81.95000        4.9921431E-07
   82.06875        4.9910875E-07
   82.18750        5.0540052E-07
   82.30625        5.1832205E-07
   82.42500        5.3798698E-07
   82.54375        5.6438307E-07
   82.66250        5.9736794E-07
   82.78125        6.3666880E-07
   82.90000        6.8188604E-07
   83.01875        7.3250055E-07
   83.13750        7.8788423E-07
   83.25625        8.4731374E-07
   83.37500        9.0998657E-07
   83.49375        9.7503903E-07
   83.61250        1.0415654E-06
   83.73125        1.1086369E-06
   83.85000        1.1753217E-06
   83.96875        1.2407030E-06
   84.08750        1.3038954E-06
   84.20625        1.3640605E-06
   84.32500        1.4204179E-06
   84.44375        1.4722559E-06
   84.56250        1.5189376E-06
   84.68125        1.5599040E-06
   84.80000        1.5946762E-06
   84.91875        1.6228522E-06
   85.03750        1.6441043E-06
   85.15625        1.6581719E-06
   85.27500        1.6648562E-06
   85.39375        1.6640109E-06
   85.51250        1.6555354E-06
   85.63125        1.6393655E-06
   85.75000        1.6154679E-06
   85.86875        1.5838334E-06
   85.98750        1.5444728E-06
   86.10625        1.4974138E-06
   86.22500        1.4427006E-06
   86.34375        1.3803948E-06
   86.46250        1.3105778E-06
   86.58125        1.2333553E-06
   86.70000        1.1488634E-06
   86.81875        1.0572743E-06
   86.93750        9.5880478E-07
   87.05625        8.5372295E-07
   87.17500        7.4235601E-07
   87.29375        6.2509633E-07
   87.41250        5.0240789E-07
   87.53125        3.7483008E-07
   87.65000        2.4298041E-07
   87.76875        1.0755543E-07
   87.88750       -3.0670851E-08
   88.00625       -1.7085006E-07
   88.12500       -3.1206497E-07
   88.24375       -4.5333712E-07
   88.36250       -5.9363612E-07
   88.48125       -7.3189068E-07
   88.60000       -8.6700106E-07
   88.71875       -9.9785257E-07
   88.83750       -1.1233296E-06
   88.95625       -1.2423313E-06
   89.07500       -1.3537855E-06
   89.19375       -1.4566641E-06
   89.31250       -1.5499971E-06
   89.43125       -1.6328864E-06
   89.55000       -1.7045181E-06
   89.66875       -1.7641742E-06
   89.78750       -1.8112419E-06
   89.90625       -1.8452236E-06
   90.02500       -1.8657428E-06
   90.14375       -1.8725501E-06
   90.26250       -1.8655272E-06
   90.38125       -1.8446891E-06
   90.50000       -1.8101852E-06
   90.61875       -1.7622984E-06
   90.73750       -1.7014432E-06
   90.85625       -1.6281625E-06
   90.97500       -1.5431231E-06
   91.09375       -1.4471095E-06
   91.21250       -1.3410183E-06
   91.33125       -1.2258494E-06
   91.45000       -1.1026981E-06
   91.56875       -9.7274608E-07
   91.68750       -8.3725115E-07
   91.80625       -6.9753656E-07
   91.92500       -5.5498060E-07
   92.04375       -4.1100466E-07
   92.16250       -2.6706124E-07
   92.28125       -1.2462201E-07
   92.40000        1.4835116E-08
   92.51875        1.4983831E-07
   92.63750        2.7893563E-07
   92.75625        4.0070739E-07
   92.87500        5.1377992E-07
   92.99375        6.1683880E-07
   93.11250        7.0864195E-07
   93.23125        7.8803356E-07
   93.35000        8.5395612E-07
   93.46875        9.0546405E-07
   93.58750        9.4173572E-07
   93.70625        9.6208544E-07
   93.82500        9.6597432E-07
   93.94375        9.5302079E-07
   94.06250        9.2300985E-07
   94.18125        8.7590041E-07
   94.30000        8.1183254E-07
   94.41875        7.3113091E-07
   94.53750        6.3430844E-07
   94.65625        5.2206593E-07
   94.77500        3.9529010E-07
   94.89375        2.5504889E-07
   95.01250        1.0258408E-07
   95.13125       -6.0699442E-08
   95.25000       -2.3324714E-07
   95.36875       -4.1337103E-07
   95.48750       -5.9926890E-07
   95.60625       -7.8904645E-07
   95.72500       -9.8074145E-07
   95.84375       -1.1723505E-06
   95.96250       -1.3618570E-06
   96.08125       -1.5472610E-06
   96.20000       -1.7266093E-06
   96.31875       -1.8980254E-06
   96.43750       -2.0597399E-06
   96.55625       -2.2101187E-06
   96.67500       -2.3476898E-06
   96.79375       -2.4711674E-06
   96.91250       -2.5794727E-06
   97.03125       -2.6717523E-06
   97.15000       -2.7473900E-06
   97.26875       -2.8060153E-06
   97.38750       -2.8475085E-06
   97.50625       -2.8719978E-06
   97.62500       -2.8798534E-06
   97.74375       -2.8716761E-06
   97.86250       -2.8482809E-06
   97.98125       -2.8106770E-06
   98.10000       -2.7600429E-06
   98.21875       -2.6976998E-06
   98.33750       -2.6250812E-06
   98.45625       -2.5437012E-06
   98.57500       -2.4551223E-06
   98.69375       -2.3609241E-06
   98.81250       -2.2626703E-06
   98.93125       -2.1618807E-06
   99.05000       -2.0600028E-06
   99.16875       -1.9583892E-06
   99.28750       -1.8582768E-06
   99.40625       -1.7607715E-06
   99.52500       -1.6668363E-06
   99.64375       -1.5772854E-06
   99.76250       -1.4927817E-06
   99.88125       -1.4138393E-06
   100.0000       -1.3408303E-06
   100.1188       -1.2739952E-06
   100.2375       -1.2134553E-06
   100.3562       -1.1592296E-06
   100.4750       -1.1112505E-06
   100.5938       -1.0693839E-06
   100.7125       -1.0334456E-06
   100.8313       -1.0032196E-06
   100.9500       -9.7847362E-07
   101.0687       -9.5897337E-07
   101.1875       -9.4449371E-07
   101.3063       -9.3482674E-07
   101.4250       -9.2978752E-07
   101.5437       -9.2921516E-07
   101.6625       -9.3297200E-07
   101.7812       -9.4093906E-07
   101.9000       -9.5300896E-07
   102.0188       -9.6907740E-07
   102.1375       -9.8903195E-07
   102.2562       -1.0127413E-06
   102.3750       -1.0400432E-06
   102.4938       -1.0707346E-06
   102.6125       -1.1045610E-06
   102.7312       -1.1412099E-06
   102.8500       -1.1803047E-06
   102.9688       -1.2214041E-06
   103.0875       -1.2640020E-06
   103.2063       -1.3075324E-06
   103.3250       -1.3513779E-06