  -4.500000        9.7081854E-18
  -4.381250        9.7109920E-18
  -4.262500        9.7157128E-18
  -4.143750        9.7209306E-18
  -4.025000        9.7252609E-18
  -3.906250        9.7278988E-18
  -3.787500        9.7289096E-18
  -3.668750        9.7291627E-18
  -3.550000        9.7299303E-18
  -3.431250        9.7323250E-18
  -3.312500        9.7368059E-18
  -3.193750        9.7429650E-18
  -3.075000        9.7496776E-18
  -2.956250        9.7555539E-18
  -2.837500        9.7595103E-18
  -2.718750        9.7612151E-18
  -2.600000        9.7612275E-18
  -2.481250        9.7607742E-18
  -2.362500        9.7612490E-18
  -2.243750        9.7636470E-18
  -2.125000        9.7681643E-18
  -2.006250        9.7741274E-18
  -1.887500        9.7802808E-18
  -1.768750        9.7853068E-18
  -1.650000        9.7883731E-18
  -1.531250        9.7894675E-18
  -1.412500        9.7893972E-18
  -1.293750        9.7894427E-18
  -1.175000        9.7908183E-18
  -1.056250        9.7941708E-18
 -0.9375000        9.7993068E-18
 -0.8187500        9.8052790E-18
 -0.7000000        9.8107872E-18
 -0.5812500        9.8147188E-18
 -0.4625000        9.8166197E-18
 -0.3437500        9.8168761E-18
 -0.2250000        9.8165601E-18
 -0.1062500        9.8169754E-18
  1.2500000E-02    9.8191153E-18
  0.1312500        9.8232462E-18
  0.2500000        9.8287991E-18
  0.3687500        9.8346018E-18
  0.4875000        9.8393729E-18
  0.6062500        9.8422482E-18
  0.7250000        9.8431432E-18
  0.8437500        9.8427875E-18
  0.9625000        9.8424178E-18
   1.081250        9.8432648E-18
   1.200000        9.8460408E-18
   1.318750        9.8506458E-18
   1.437500        9.8562193E-18
   1.556250        9.8614975E-18
   1.675000        9.8653514E-18
   1.793750        9.8672605E-18
   1.912500        9.8675310E-18
   2.031250        9.8671679E-18
   2.150000        9.8674532E-18
   2.268750        9.8694054E-18
   2.387500        9.8733469E-18
   2.506250        9.8787616E-18
   2.625000        9.8845047E-18
   2.743750        9.8892759E-18
   2.862500        9.8921586E-18
   2.981250        9.8930040E-18
   3.100000        9.8925003E-18
   3.218750        9.8918849E-18
   3.337500        9.8924324E-18
   3.456250        9.8949264E-18
   3.575000        9.8993253E-18
   3.693750        9.9047823E-18
   3.812500        9.9099844E-18
   3.931250        9.9136993E-18
   4.050000        9.9152833E-18
   4.168750        9.9149458E-18
   4.287500        9.9136637E-18
   4.406250        9.9127670E-18
   4.525000        9.9133882E-18
   4.643750        9.9159872E-18
   4.762500        9.9201554E-18
   4.881250        9.9247818E-18
   5.000000        9.9285199E-18
   5.118750        9.9303487E-18
   5.237500        9.9300071E-18
   5.356250        9.9281145E-18
   5.475000        9.9259275E-18
   5.593750        9.9248298E-18
   5.712500        9.9257678E-18
   5.831250        9.9288631E-18
   5.950000        9.9333572E-18
   6.068750        9.9379307E-18
   6.187500        9.9412394E-18
   6.306250        9.9424645E-18
   6.425000        9.9416489E-18
   6.543750        9.9396719E-18
   6.662500        9.9378835E-18
   6.781250        9.9375394E-18
   6.900000        9.9392806E-18
   7.018750        9.9428681E-18
   7.137500        9.9472811E-18
   7.256250        9.9511424E-18
   7.375000        9.9532931E-18
   7.493750        9.9532757E-18
   7.612500        9.9515337E-18
   7.731250        9.9492374E-18
   7.850000        9.9478105E-18
   7.968750        9.9483540E-18
   8.087500        9.9512028E-18
   8.206250        9.9557961E-18
   8.325000        9.9609131E-18
   8.443750        9.9651822E-18
   8.562500        9.9676339E-18
   8.681250        9.9680963E-18
   8.800000        9.9672336E-18
   8.918750        9.9662517E-18
   9.037500        9.9663683E-18
   9.156250        9.9682766E-18
   9.275000        9.9718319E-18
   9.393750        9.9760902E-18
   9.512500        9.9796826E-18
   9.631250        9.9813750E-18
   9.750000        9.9805851E-18
   9.868750        9.9776420E-18
   9.987500        9.9736831E-18
   10.10625        9.9702354E-18
   10.22500        9.9686489E-18
   10.34375        9.9696092E-18
   10.46250        9.9729378E-18
   10.58125        9.9777313E-18
   10.70000        9.9827937E-18
   10.81875        9.9871521E-18
   10.93750        9.9904434E-18
   11.05625        9.9930044E-18
   11.17500        9.9956241E-18
   11.29375        9.9990717E-18
   11.41250        1.0003605E-17
   11.53125        1.0008679E-17
   11.65000        1.0013007E-17
   11.76875        1.0014958E-17
   11.88750        1.0013173E-17
   12.00625        1.0007157E-17
   12.12500        9.9976341E-18
   12.24375        9.9865358E-18
   12.36250        9.9766477E-18
   12.48125        9.9710601E-18
   12.60000        9.9726590E-18
   12.71875        9.9838433E-18
   12.83750        1.0006573E-17
   12.95625        1.0042697E-17
   13.07500        1.0094381E-17
   13.19375        1.0164431E-17
   13.31250        1.0256317E-17
   13.43125        1.0373852E-17
   13.55000        1.0520599E-17
   13.66875        1.0699181E-17
   13.78750        1.0910688E-17
   13.90625        1.1154306E-17
   14.02500        1.1427131E-17
   14.14375        1.1724041E-17
   14.26250        1.2037351E-17
   14.38125        1.2356044E-17
   14.50000        1.2664453E-17
   14.61875        1.2940457E-17
   14.73750        1.3153424E-17
   14.85625        1.3262245E-17
   14.97500        1.3213845E-17
   15.09375        1.2942457E-17
   15.21250        1.2369826E-17
   15.33125        1.1406395E-17
   15.45000        9.9534296E-18
   15.56875        7.9060633E-18
   15.68750        5.1572833E-18
   15.80625        1.6029671E-18
   15.92500       -2.8519029E-18
   16.04375       -8.2857648E-18
   16.16250       -1.4751823E-17
   16.28125       -2.2268499E-17
   16.40000       -3.0809457E-17
   16.51875       -4.0293857E-17
   16.63750       -5.0577389E-17
   16.75625       -6.1444591E-17
   16.87500       -7.2602556E-17
   16.99375       -8.3675890E-17
   17.11250       -9.4202591E-17
   17.23125       -1.0363004E-16
   17.35000       -1.1131033E-16
   17.46875       -1.1649427E-16
   17.58750       -1.1832304E-16
   17.70625       -1.1581713E-16
   17.82500       -1.0786135E-16
   17.94375       -9.3186171E-17
   18.06250       -7.0344478E-17
   18.18125       -3.7684420E-17
   18.30000        6.6809103E-18
   18.41875        6.4905395E-17
   18.53750        1.3944005E-16
   18.65625        2.3305818E-16
   18.77500        3.4886976E-16
   18.89375        4.9032027E-16
   19.01250        6.6116787E-16
   19.13125        8.6543177E-16
   19.25000        1.1073087E-15
   19.36875        1.3910508E-15
   19.48750        1.7208037E-15
   19.60625        2.1004031E-15
   19.72500        2.5331321E-15
   19.84375        3.0214417E-15
   19.96250        3.5666461E-15
   20.08125        4.1685973E-15
   20.20000        4.8253633E-15
   20.31875        5.5329145E-15
   20.43750        6.2848460E-15
   20.55625        7.0721593E-15
   20.67500        7.8831112E-15
   20.79375        8.7031636E-15
   20.91250        9.5150404E-15
   21.03125        1.0298899E-14
   21.15000        1.1032629E-14
   21.26875        1.1692264E-14
   21.38750        1.2252503E-14
   21.50625        1.2687298E-14
   21.62500        1.2970513E-14
   21.74375        1.3076567E-14
   21.86250        1.2981038E-14
   21.98125        1.2661188E-14
   22.10000        1.2096312E-14
   22.21875        1.1267888E-14
   22.33750        1.0159493E-14
   22.45625        8.7564013E-15
   22.57500        7.0448997E-15
   22.69375        5.0112794E-15
   22.81250        2.6405553E-15
   22.93125       -8.5050929E-17
   23.05000       -3.1877742E-15
   23.16875       -6.6960258E-15
   23.28750       -1.0646017E-14
   23.40625       -1.5083158E-14
   23.52500       -2.0063036E-14
   23.64375       -2.5651832E-14
   23.76250       -3.1925986E-14
   23.88125       -3.8970953E-14
   24.00000       -4.6878900E-14
   24.11875       -5.5745295E-14
   24.23750       -6.5664325E-14
   24.35625       -7.6723086E-14
   24.47500       -8.8994757E-14
   24.59375       -1.0253073E-13
   24.71250       -1.1735201E-13
   24.83125       -1.3344027E-13
   24.95000       -1.5072859E-13
   25.06875       -1.6909267E-13
   25.18750       -1.8834271E-13
   25.30625       -2.0821642E-13
   25.42500       -2.2837380E-13
   25.54375       -2.4839400E-13
   25.66250       -2.6777468E-13
   25.78125       -2.8593442E-13
   25.90000       -3.0221802E-13
   26.01875       -3.1590556E-13
   26.13750       -3.2622440E-13
   26.25625       -3.3236481E-13
   26.37500       -3.3349875E-13
   26.49375       -3.2880117E-13
   26.61250       -3.1747386E-13
   26.73125       -2.9877072E-13
   26.85000       -2.7202448E-13
   26.96875       -2.3667266E-13
   27.08750       -1.9228387E-13
   27.20625       -1.3858145E-13
   27.32500       -7.5464944E-14
   27.44375       -3.0281197E-15
   27.56250        7.8427790E-14
   27.68125        1.6838566E-13
   27.80000        2.6611000E-13
   27.91875        3.7065031E-13
   28.03750        4.8085169E-13
   28.15625        5.9537092E-13
   28.27500        7.1269970E-13
   28.39375        8.3119340E-13
   28.51250        9.4910429E-13
   28.63125        1.0646201E-12
   28.75000        1.1759045E-12
   28.86875        1.2811396E-12
   28.98750        1.3785683E-12
   29.10625        1.4665351E-12
   29.22500        1.5435237E-12
   29.34375        1.6081892E-12
   29.46250        1.6593844E-12
   29.58125        1.6961780E-12
   29.70000        1.7178632E-12
   29.81875        1.7239575E-12
   29.93750        1.7141918E-12
   30.05625        1.6884895E-12
   30.17500        1.6469362E-12
   30.29375        1.5897406E-12
   30.41250        1.5171905E-12
   30.53125        1.4296009E-12
   30.65000        1.3272633E-12
   30.76875        1.2103940E-12
   30.88750        1.0790860E-12
   31.00625        9.3326941E-13
   31.12500        7.7268069E-13
   31.24375        5.9684674E-13
   31.36250        4.0508336E-13
   31.48125        1.9651307E-13
   31.60000       -2.9898230E-14
   31.71875       -2.7528416E-13
   31.83750       -5.4080134E-13
   31.95625       -8.2753433E-13
   32.07500       -1.1363843E-12
   32.19375       -1.4679447E-12
   32.31250       -1.8223702E-12
   32.43125       -2.1992391E-12
   32.55000       -2.5974225E-12
   32.66875       -3.0149587E-12
   32.78750       -3.4489464E-12
   32.90625       -3.8954586E-12
   33.02500       -4.3494852E-12
   33.14375       -4.8049104E-12
   33.26250       -5.2545303E-12
   33.38125       -5.6901081E-12
   33.50000       -6.1024792E-12
   33.61875       -6.4817002E-12
   33.73750       -6.8172364E-12
   33.85625       -7.0982001E-12
   33.97500       -7.3136115E-12
   34.09375       -7.4526982E-12
   34.21250       -7.5052117E-12
   34.33125       -7.4617552E-12
   34.45000       -7.3141103E-12
   34.56875       -7.0555519E-12
   34.68750       -6.6811478E-12
   34.80625       -6.1880128E-12
   34.92500       -5.5755266E-12
   35.04375       -4.8454981E-12
   35.16250       -4.0022647E-12
   35.28125       -3.0527234E-12
   35.40000       -2.0063001E-12
   35.51875       -8.7483563E-13
   35.63750        3.2759028E-13
   35.75625        1.5849067E-12
   35.87500        2.8793563E-12
   35.99375        4.1918517E-12
   36.11250        5.5023750E-12
   36.23125        6.7904037E-12
   36.35000        8.0353510E-12
   36.46875        9.2170126E-12
   36.58750        1.0315993E-11
   36.70625        1.1314112E-11
   36.82500        1.2194778E-11
   36.94375        1.2943304E-11
   37.06250        1.3547174E-11
   37.18125        1.3996245E-11
   37.30000        1.4282892E-11
   37.41875        1.4402070E-11
   37.53750        1.4351330E-11
   37.65625        1.4130765E-11
   37.77500        1.3742904E-11
   37.89375        1.3192557E-11
   38.01250        1.2486638E-11
   38.13125        1.1633945E-11
   38.25000        1.0644938E-11
   38.36875        9.5315101E-12
   38.48750        8.3067659E-12
   38.60625        6.9848047E-12
   38.72500        5.5805395E-12
   38.84375        4.1095296E-12
   38.96250        2.5878440E-12
   39.08125        1.0319565E-12
   39.20000       -5.4133943E-13
   39.31875       -2.1149872E-12
   39.43750       -3.6717109E-12
   39.55625       -5.1940492E-12
   39.67500       -6.6643887E-12
   39.79375       -8.0650053E-12
   39.91250       -9.3781224E-12
   40.03125       -1.0585996E-11
   40.15000       -1.1671030E-11
   40.26875       -1.2615927E-11
   40.38750       -1.3403883E-11
   40.50625       -1.4018829E-11
   40.62500       -1.4445701E-11
   40.74375       -1.4670763E-11
   40.86250       -1.4681948E-11
   40.98125       -1.4469234E-11
   41.10000       -1.4025029E-11
   41.21875       -1.3344555E-11
   41.33750       -1.2426222E-11
   41.45625       -1.1271965E-11
   41.57500       -9.8875630E-12
   41.69375       -8.2828718E-12
   41.81250       -6.4720039E-12
   41.93125       -4.4734195E-12
   42.05000       -2.3099259E-12
   42.16875       -8.5758723E-15
   42.28750        2.3995461E-12
   42.40625        4.8796405E-12
   42.52500        7.3936239E-12
   42.64375        9.9006636E-12
   42.76250        1.2357807E-11
   42.88125        1.4720700E-11
   43.00000        1.6944375E-11
   43.11875        1.8984090E-11
   43.23750        2.0796210E-11
   43.35625        2.2339096E-11
   43.47500        2.3573981E-11
   43.59375        2.4465827E-11
   43.71250        2.4984100E-11
   43.83125        2.5103496E-11
   43.95000        2.4804540E-11
   44.06875        2.4074092E-11
   44.18750        2.2905689E-11
   44.30625        2.1299766E-11
   44.42500        1.9263709E-11
   44.54375        1.6811760E-11
   44.66250        1.3964753E-11
   44.78125        1.0749718E-11
   44.90000        7.1993344E-12
   45.01875        3.3512709E-12
   45.13750       -7.5257818E-13
   45.25625       -5.0669299E-12
   45.37500       -9.5440036E-12
   45.49375       -1.4134433E-11
   45.61250       -1.8788172E-11
   45.73125       -2.3455359E-11
   45.85000       -2.8087121E-11
   45.96875       -3.2636300E-11
   46.08750       -3.7058065E-11
   46.20625       -4.1310396E-11
   46.32500       -4.5354435E-11
   46.44375       -4.9154715E-11
   46.56250       -5.2679236E-11
   46.68125       -5.5899386E-11
   46.80000       -5.8789827E-11
   46.91875       -6.1328172E-11
   47.03750       -6.3494682E-11
   47.15625       -6.5271843E-11
   47.27500       -6.6643975E-11
   47.39375       -6.7596810E-11
   47.51250       -6.8117123E-11
   47.63125       -6.8192431E-11
   47.75000       -6.7810743E-11
   47.86875       -6.6960465E-11
   47.98750       -6.5630369E-11
   48.10625       -6.3809749E-11
   48.22500       -6.1488634E-11
   48.34375       -5.8658113E-11
   48.46250       -5.5310843E-11
   48.58125       -5.1441539E-11
   48.70000       -4.7047560E-11
   48.81875       -4.2129526E-11
   48.93750       -3.6691913E-11
   49.05625       -3.0743592E-11
   49.17500       -2.4298287E-11
   49.29375       -1.7374947E-11
   49.41250       -9.9979495E-12
   49.53125       -2.1971622E-12
   49.65000        5.9921916E-12
   49.76875        1.4529845E-11
   49.88750        2.3370970E-11
   50.00625        3.2466800E-11
   50.12500        4.1765466E-11
   50.24375        5.1212895E-11
   50.36250        6.0753798E-11
   50.48125        7.0332677E-11
   50.60000        7.9894813E-11
   50.71875        8.9387220E-11
   50.83750        9.8759390E-11
   50.95625        1.0796396E-10
   51.07500        1.1695710E-10
   51.19375        1.2569858E-10
   51.31250        1.3415172E-10
   51.43125        1.4228287E-10
   51.55000        1.5006074E-10
   51.66875        1.5745537E-10
   51.78750        1.6443680E-10
   51.90625        1.7097383E-10
   52.02500        1.7703229E-10
   52.14375        1.8257357E-10
   52.26250        1.8755300E-10
   52.38125        1.9191851E-10
   52.50000        1.9560945E-10
   52.61875        1.9855578E-10
   52.73750        2.0067778E-10
   52.85625        2.0188612E-10
   52.97500        2.0208264E-10
   53.09375        2.0116166E-10
   53.21250        1.9901202E-10
   53.33125        1.9551964E-10
   53.45000        1.9057067E-10
   53.56875        1.8405526E-10
   53.68750        1.7587155E-10
   53.80625        1.6593013E-10
   53.92500        1.5415846E-10
   54.04375        1.4050536E-10
   54.16250        1.2494511E-10
   54.28125        1.0748133E-10
   54.40000        8.8150064E-11
   54.51875        6.7022110E-11
   54.63750        4.4204501E-11
   54.75625        1.9840820E-11
   54.87500       -5.8895796E-12
   54.99375       -3.2773589E-11
   55.11250       -6.0567530E-11
   55.23125       -8.9001508E-11
   55.35000       -1.1778484E-10
   55.46875       -1.4661235E-10
   55.58750       -1.7517143E-10
   55.70625       -2.0314958E-10
   55.82500       -2.3024212E-10
   55.94375       -2.5615990E-10
   56.06250       -2.8063657E-10
   56.18125       -3.0343542E-10
   56.30000       -3.2435507E-10
   56.41875       -3.4323419E-10
   56.53750       -3.5995470E-10
   56.65625       -3.7444373E-10
   56.77500       -3.8667342E-10
   56.89375       -3.9665993E-10
   57.01250       -4.0445980E-10
   57.13125       -4.1016573E-10
   57.25000       -4.1390025E-10
   57.36875       -4.1580855E-10
   57.48750       -4.1605075E-10
   57.60625       -4.1479301E-10
   57.72500       -4.1219875E-10
   57.84375       -4.0842002E-10
   57.96250       -4.0358941E-10
   58.08125       -3.9781273E-10
   58.20000       -3.9116285E-10
   58.31875       -3.8367512E-10
   58.43750       -3.7534448E-10
   58.55625       -3.6612421E-10
   58.67500       -3.5592695E-10
   58.79375       -3.4462722E-10
   58.91250       -3.3206621E-10
   59.03125       -3.1805822E-10
   59.15000       -3.0239833E-10
   59.26875       -2.8487182E-10
   59.38750       -2.6526403E-10
   59.50625       -2.4337105E-10
   59.62500       -2.1901045E-10
   59.74375       -1.9203183E-10
   59.86250       -1.6232669E-10
   59.98125       -1.2983732E-10
   60.10000       -9.4564169E-11
   60.21875       -5.6571890E-11
   60.33750       -1.5993085E-11
   60.45625        2.6969706E-11
   60.57500        7.2044343E-11
   60.69375        1.1889158E-10
   60.81250        1.6710978E-10
   60.93125        2.1624155E-10
   61.05000        2.6578217E-10
   61.16875        3.1518979E-10
   61.28750        3.6389675E-10
   61.40625        4.1132164E-10
   61.52500        4.5688259E-10
   61.64375        5.0000998E-10
   61.76250        5.4015975E-10
   61.88125        5.7682525E-10
   62.00000        6.0954891E-10
   62.11875        6.3793254E-10
   62.23750        6.6164585E-10
   62.35625        6.8043343E-10
   62.47500        6.9411965E-10
   62.59375        7.0261214E-10
   62.71250        7.0590206E-10
   62.83125        7.0406353E-10
   62.95000        6.9725015E-10
   63.06875        6.8569023E-10
   63.18750        6.6967981E-10
   63.30625        6.4957462E-10
   63.42500        6.2578026E-10
   63.54375        5.9874206E-10
   63.66250        5.6893351E-10
   63.78125        5.3684479E-10
   63.90000        5.0297144E-10
   64.01875        4.6780274E-10
   64.13750        4.3181089E-10
   64.25625        3.9544151E-10
   64.37500        3.5910430E-10
   64.49375        3.2316594E-10
   64.61250        2.8794370E-10
   64.73125        2.5370092E-10
   64.85000        2.2064443E-10
   64.96875        1.8892334E-10
   65.08750        1.5862943E-10
   65.20625        1.2979944E-10
   65.32500        1.0241868E-10
   65.44375        7.6425775E-11
   65.56250        5.1718720E-11
   65.68125        2.8161520E-11
   65.80000        5.5915433E-12
   65.91875       -1.6172792E-11
   66.03750       -3.7324054E-11
   66.15625       -5.8058384E-11
   66.27500       -7.8568339E-11
   66.39375       -9.9036300E-11
   66.51250       -1.1962885E-10
   66.63125       -1.4049185E-10
   66.75000       -1.6174677E-10
   66.86875       -1.8348799E-10
   66.98750       -2.0578084E-10
   67.10625       -2.2866103E-10
   67.22500       -2.5213470E-10
   67.34375       -2.7617855E-10
   67.46250       -3.0074160E-10
   67.58125       -3.2574621E-10
   67.70000       -3.5109038E-10
   67.81875       -3.7664877E-10
   67.93750       -4.0227446E-10
   68.05625       -4.2780018E-10
   68.17500       -4.5303902E-10
   68.29375       -4.7778498E-10
   68.41250       -5.0181315E-10
   68.53125       -5.2487953E-10
   68.65000       -5.4672089E-10
   68.76875       -5.6705501E-10
   68.88750       -5.8558058E-10
   69.00625       -6.0197874E-10
   69.12500       -6.1591426E-10
   69.24375       -6.2703898E-10
   69.36250       -6.3499545E-10
   69.48125       -6.3942268E-10
   69.60000       -6.3996319E-10
   69.71875       -6.3627154E-10
   69.83750       -6.2802452E-10
   69.95625       -6.1493216E-10
   70.07500       -5.9675048E-10
   70.19375       -5.7329380E-10
   70.31250       -5.4444765E-10
   70.43125       -5.1018173E-10
   70.55000       -4.7056053E-10
   70.66875       -4.2575343E-10
   70.78750       -3.7604186E-10
   70.90625       -3.2182390E-10
   71.02500       -2.6361577E-10
   71.14375       -2.0204953E-10
   71.26250       -1.3786612E-10
   71.38125       -7.1904961E-11
   71.50000       -5.0891635E-12
   71.61875        6.1593348E-11
   71.73750        1.2711227E-10
   71.85625        1.9042040E-10
   71.97500        2.5048078E-10
   72.09375        3.0629585E-10
   72.21250        3.5693673E-10
   72.33125        4.0157178E-10
   72.45000        4.3949350E-10
   72.56875        4.7014270E-10
   72.68750        4.9312926E-10
   72.80625        5.0824700E-10
   72.92500        5.1548471E-10
   73.04375        5.1502980E-10
   73.16250        5.0726556E-10
   73.28125        4.9276239E-10
   73.40000        4.7226179E-10
   73.51875        4.4665358E-10
   73.63750        4.1694923E-10
   73.75625        3.8424947E-10
   73.87500        3.4970754E-10
   73.99375        3.1449060E-10
   74.11250        2.7974009E-10
   74.23125        2.4653102E-10
   74.35000        2.1583337E-10
   74.46875        1.8847617E-10
   74.58750        1.6511585E-10
   74.70625        1.4621028E-10
   74.82500        1.3199836E-10
   74.94375        1.2248749E-10
   75.06250        1.1744788E-10
   75.18125        1.1641578E-10
   75.30000        1.1870392E-10
   75.41875        1.2341998E-10
   75.53750        1.2949274E-10
   75.65625        1.3570294E-10
   75.77500        1.4072257E-10
   75.89375        1.4315585E-10
   76.01250        1.4158523E-10
   76.13125        1.3461833E-10
   76.25000        1.2093535E-10
   76.36875        9.9335810E-11
   76.48750        6.8782785E-11
   76.60625        2.8442816E-11
   76.72500       -2.2277959E-11
   76.84375       -8.3705758E-11
   76.96250       -1.5587540E-10
   77.08125       -2.3851579E-10
   77.20000       -3.3104189E-10
   77.31875       -4.3255605E-10
   77.43750       -5.4185728E-10
   77.55625       -6.5745892E-10
   77.67500       -7.7761331E-10
   77.79375       -9.0034491E-10
   77.91250       -1.0234893E-09
   78.03125       -1.1447367E-09
   78.15000       -1.2616820E-09
   78.26875       -1.3718765E-09
   78.38750       -1.4728835E-09
   78.50625       -1.5623324E-09
   78.62500       -1.6379751E-09
   78.74375       -1.6977388E-09
   78.86250       -1.7397777E-09
   78.98125       -1.7625188E-09
   79.10000       -1.7647038E-09
   79.21875       -1.7454227E-09
   79.33750       -1.7041407E-09
   79.45625       -1.6407178E-09
   79.57500       -1.5554162E-09
   79.69375       -1.4489023E-09
   79.81250       -1.3222365E-09
   79.93125       -1.1768545E-09
   80.05000       -1.0145383E-09
   80.16875       -8.3738111E-10
   80.28750       -6.4774025E-10
   80.40625       -4.4818579E-10
   80.52500       -2.4144270E-10
   80.64375       -3.0327466E-11
   80.76250        1.8231701E-10
   80.88125        3.9368558E-10
   81.00000        6.0107702E-10
   81.11875        8.0195456E-10
   81.23750        9.9400599E-10
   81.35625        1.1751923E-09
   81.47500        1.3437924E-09
   81.59375        1.4984375E-09
   81.71250        1.6381355E-09
   81.83125        1.7622840E-09
   81.95000        1.8706714E-09
   82.06875        1.9634689E-09
   82.18750        2.0412079E-09
   82.30625        2.1047488E-09
   82.42500        2.1552404E-09
   82.54375        2.1940705E-09
   82.66250        2.2228110E-09
   82.78125        2.2431585E-09
   82.90000        2.2568709E-09
   83.01875        2.2657056E-09
   83.13750        2.2713584E-09
   83.25625        2.2754054E-09
   83.37500        2.2792483E-09
   83.49375        2.2840716E-09
   83.61250        2.2908033E-09
   83.73125        2.3000888E-09
   83.85000        2.3122715E-09
   83.96875        2.3273878E-09
   84.08750        2.3451681E-09
   84.20625        2.3650497E-09
   84.32500        2.3862012E-09
   84.44375        2.4075508E-09
   84.56250        2.4278239E-09
   84.68125        2.4455853E-09
   84.80000        2.4592857E-09
   84.91875        2.4673090E-09
   85.03750        2.4680242E-09
   85.15625        2.4598306E-09
   85.27500        2.4412046E-09
   85.39375        2.4107429E-09
   85.51250        2.3671980E-09
   85.63125        2.3095115E-09
   85.75000        2.2368376E-09
   85.86875        2.1485629E-09
   85.98750        2.0443178E-09
   86.10625        1.9239819E-09
   86.22500        1.7876806E-09
   86.34375        1.6357808E-09
   86.46250        1.4688775E-09
   86.58125        1.2877758E-09
   86.70000        1.0934710E-09
   86.81875        8.8712115E-10
   86.93750        6.7002304E-10
   87.05625        4.4357967E-10
   87.17500        2.0927149E-10
   87.29375       -3.1373827E-11
   87.41250       -2.7681135E-10
   87.53125       -5.2550647E-10
   87.65000       -7.7596352E-10
   87.76875       -1.0267471E-09
   87.88750       -1.2765075E-09
   88.00625       -1.5239972E-09
   88.12500       -1.7680872E-09
   88.24375       -2.0077788E-09
   88.36250       -2.2422106E-09
   88.48125       -2.4706597E-09
   88.60000       -2.6925426E-09
   88.71875       -2.9074052E-09
   88.83750       -3.1149110E-09
   88.95625       -3.3148293E-09
   89.07500       -3.5070120E-09
   89.19375       -3.6913743E-09
   89.31250       -3.8678678E-09
   89.43125       -4.0364565E-09
   89.55000       -4.1970862E-09
   89.66875       -4.3496562E-09
   89.78750       -4.4939923E-09
   89.90625       -4.6298201E-09
   90.02500       -4.7567443E-09
   90.14375       -4.8742299E-09
   90.26250       -4.9815894E-09
   90.38125       -5.0779776E-09
   90.50000       -5.1623932E-09
   90.61875       -5.2336842E-09
   90.73750       -5.2905609E-09
   90.85625       -5.3316183E-09
   90.97500       -5.3553610E-09
   91.09375       -5.3602407E-09
   91.21250       -5.3446900E-09
   91.33125       -5.3071685E-09
   91.45000       -5.2462101E-09
   91.56875       -5.1604654E-09
   91.68750       -5.0487561E-09
   91.80625       -4.9101185E-09
   91.92500       -4.7438413E-09
   92.04375       -4.5495110E-09
   92.16250       -4.3270378E-09
   92.28125       -4.0766870E-09
   92.40000       -3.7990939E-09
   92.51875       -3.4952821E-09
   92.63750       -3.1666600E-09
   92.75625       -2.8150187E-09
   92.87500       -2.4425195E-09
   92.99375       -2.0516717E-09
   93.11250       -1.6453039E-09
   93.23125       -1.2265273E-09
   93.35000       -7.9869300E-10
   93.46875       -3.6534492E-10
   93.58750        6.9830031E-11
   93.70625        5.0305637E-10
   93.82500        9.3052749E-10
   93.94375        1.3484646E-09
   94.06250        1.7531752E-09
   94.18125        2.1411135E-09
   94.30000        2.5089419E-09
   94.41875        2.8535860E-09
   94.53750        3.1722933E-09
   94.65625        3.4626804E-09
   94.77500        3.7227847E-09
   94.89375        3.9511017E-09
   95.01250        4.1466213E-09
   95.13125        4.3088502E-09
   95.25000        4.4378350E-09
   95.36875        4.5341686E-09
   95.48750        4.5989843E-09
   95.60625        4.6339452E-09
   95.72500        4.6412110E-09
   95.84375        4.6233963E-09
   95.96250        4.5835167E-09
   96.08125        4.5249160E-09
   96.20000        4.4511874E-09
   96.31875        4.3660813E-09
   96.43750        4.2734034E-09
   96.55625        4.1769099E-09
   96.67500        4.0801975E-09
   96.79375        3.9865915E-09
   96.91250        3.8990406E-09
   97.03125        3.8200154E-09
   97.15000        3.7514227E-09
   97.26875        3.6945302E-09
   97.38750        3.6499128E-09
   97.50625        3.6174208E-09
   97.62500        3.5961705E-09
   97.74375        3.5845609E-09
   97.86250        3.5803176E-09
   97.98125        3.5805632E-09
   98.10000        3.5819077E-09
   98.21875        3.5805658E-09
   98.33750        3.5724890E-09
   98.45625        3.5535119E-09
   98.57500        3.5195118E-09
   98.69375        3.4665677E-09
   98.81250        3.3911203E-09
   98.93125        3.2901204E-09
   99.05000        3.1611656E-09
   99.16875        3.0026173E-09
   99.28750        2.8136886E-09
   99.40625        2.5945084E-09
   99.52500        2.3461517E-09
   99.64375        2.0706350E-09
   99.76250        1.7708793E-09
   99.88125        1.4506418E-09
   100.0000        1.1144177E-09
   100.1188        7.6731205E-10
   100.2375        4.1489084E-10
   100.3562        6.3013893E-11
   100.4750       -2.8233904E-10
   100.5938       -6.1525623E-10
   100.7125       -9.3006980E-10
   100.8313       -1.2215285E-09
   100.9500       -1.4849553E-09
   101.0687       -1.7163795E-09
   101.1875       -1.9126478E-09
   101.3063       -2.0715076E-09
   101.4250       -2.1916577E-09
   101.5437       -2.2727662E-09
   101.6625       -2.3154596E-09
   101.7812       -2.3212814E-09
   101.9000       -2.2926212E-09
   102.0188       -2.2326203E-09
   102.1375       -2.1450564E-09
   102.2562       -2.0342108E-09
   102.3750       -1.9047273E-09
   102.4938       -1.7614644E-09
   102.6125       -1.6093479E-09
   102.7312       -1.4532294E-09
   102.8500       -1.2977558E-09
   102.9688       -1.1472479E-09
   103.0875       -1.0055993E-09
   103.2063       -8.7619112E-10
   103.3250       -7.6182655E-10