  -4.500000        1.0472097E-17
  -4.381250        1.0479652E-17
  -4.262500        1.0495109E-17
  -4.143750        1.1098227E-17
  -4.025000        1.4129974E-17
  -3.906250        2.2628786E-17
  -3.787500        3.9397507E-17
  -3.668750        6.4387249E-17
  -3.550000        9.2091698E-17
  -3.431250        1.1074843E-16
  -3.312500        1.0483297E-16
  -3.193750        6.0986730E-17
  -3.075000       -2.4432315E-17
  -2.956250       -1.3968408E-16
  -2.837500       -2.5783180E-16
  -2.718750       -3.4533509E-16
  -2.600000       -3.7840257E-16
  -2.481250       -3.6236440E-16
  -2.362500       -3.4589591E-16
  -2.243750       -4.2075083E-16
  -2.125000       -6.9986013E-16
  -2.006250       -1.2722069E-15
  -1.887500       -2.1405916E-15
  -1.768750       -3.1560206E-15
  -1.650000       -3.9674824E-15
  -1.531250       -4.0062930E-15
  -1.412500       -2.5191745E-15
  -1.293750        1.3453925E-15
  -1.175000        8.4051054E-15
  -1.056250        1.9285202E-14
 -0.9375000        3.4260568E-14
 -0.8187500        5.3128925E-14
 -0.7000000        7.5142475E-14
 -0.5812500        9.9017799E-14
 -0.4625000        1.2303318E-13
 -0.3437500        1.4521079E-13
 -0.2250000        1.6357147E-13
 -0.1062500        1.7644053E-13
  1.2500000E-02    1.8277750E-13
  0.1312500        1.8249844E-13
  0.2500000        1.7675779E-13
  0.3687500        1.6815858E-13
  0.4875000        1.6086474E-13
  0.6062500        1.6060338E-13
  0.7250000        1.7456343E-13
  0.8437500        2.1122522E-13
  0.9625000        2.8018825E-13
   1.081250        3.9209933E-13
   1.200000        5.5881271E-13
   1.318750        7.9393512E-13
   1.437500        1.1139118E-12
   1.556250        1.5397995E-12
   1.675000        2.0998355E-12
   1.793750        2.8328633E-12
   1.912500        3.7925977E-12
   2.031250        5.0526397E-12
   2.150000        6.7120341E-12
   2.268750        8.9010700E-12
   2.387500        1.1786902E-11
   2.506250        1.5578426E-11
   2.625000        2.0529752E-11
   2.743750        2.6941472E-11
   2.862500        3.5158862E-11
   2.981250        4.5566096E-11
   3.100000        5.8575554E-11
   3.218750        7.4611400E-11
   3.337500        9.4086808E-11
   3.456250        1.1737437E-10
   3.575000        1.4476974E-10
   3.693750        1.7644866E-10
   3.812500        2.1241850E-10
   3.931250        2.5246527E-10
   4.050000        2.9609795E-10
   4.168750        3.4249262E-10
   4.287500        3.9043835E-10
   4.406250        4.3828843E-10
   4.525000        4.8391929E-10
   4.643750        5.2470073E-10
   4.762500        5.5747995E-10
   4.881250        5.7858285E-10
   5.000000        5.8383420E-10
   5.118750        5.6860011E-10
   5.237500        5.2785321E-10
   5.356250        4.5626233E-10
   5.475000        3.4830880E-10
   5.593750        1.9842752E-10
   5.712500        1.1754323E-12
   5.831250       -2.4857461E-10
   5.950000       -5.5541233E-10
   6.068750       -9.2314395E-10
   6.187500       -1.3545194E-09
   6.306250       -1.8509360E-09
   6.425000       -2.4121170E-09
   6.543750       -3.0357687E-09
   6.662500       -3.7172163E-09
   6.781250       -4.4490260E-09
   6.900000       -5.2206208E-09
   7.018750       -6.0178853E-09
   7.137500       -6.8227965E-09
   7.256250       -7.6130764E-09
   7.375000       -8.3618907E-09
   7.493750       -9.0376382E-09
   7.612500       -9.6038386E-09
   7.731250       -1.0019185E-08
   7.850000       -1.0237780E-08
   7.968750       -1.0209615E-08
   8.087500       -9.8813642E-09
   8.206250       -9.1974997E-09
   8.325000       -8.1018223E-09
   8.443750       -6.5394223E-09
   8.562500       -4.4591131E-09
   8.681250       -1.8163414E-09
   8.800000        1.4234268E-09
   8.918750        5.2808682E-09
   9.037500        9.7585913E-09
   9.156250        1.4836647E-08
   9.275000        2.0467880E-08
   9.393750        2.6573307E-08
   9.512500        3.3037718E-08
   9.631250        3.9705768E-08
   9.750000        4.6378776E-08
   9.868750        5.2812585E-08
   9.987500        5.8716690E-08
   10.10625        6.3755046E-08
   10.22500        6.7548733E-08
   10.34375        6.9680780E-08
   10.46250        6.9703319E-08
   10.58125        6.7147305E-08
   10.70000        6.1534656E-08
   10.81875        5.2393030E-08
   10.93750        3.9272980E-08
   11.05625        2.1767191E-08
   11.17500       -4.6832049E-10
   11.29375       -2.7691820E-08
   11.41250       -6.0052578E-08
   11.53125       -9.7567586E-08
   11.65000       -1.4009882E-07
   11.76875       -1.8733199E-07
   11.88750       -2.3875776E-07
   12.00625       -2.9365592E-07
   12.12500       -3.5108366E-07
   12.24375       -4.0986882E-07
   12.36250       -4.6860862E-07
   12.48125       -5.2567447E-07
   12.60000       -5.7922369E-07
   12.71875       -6.2721756E-07
   12.83750       -6.6744718E-07
   12.95625       -6.9756578E-07
   13.07500       -7.1512750E-07
   13.19375       -7.1763276E-07
   13.31250       -7.0257869E-07
   13.43125       -6.6751409E-07
   13.55000       -6.1009723E-07
   13.66875       -5.2815659E-07
   13.78750       -4.1975139E-07
   13.90625       -2.8323200E-07
   14.02500       -1.1729733E-07
   14.14375        7.8950691E-08
   14.26250        3.0595871E-07
   14.38125        5.6367986E-07
   14.50000        8.5153943E-07
   14.61875        1.1684099E-06
   14.73750        1.5125956E-06
   14.85625        1.8818279E-06
   14.97500        2.2732720E-06
   15.09375        2.6835448E-06
   15.21250        3.1087434E-06
   15.33125        3.5444857E-06
   15.45000        3.9859610E-06
   15.56875        4.4279900E-06
   15.68750        4.8650936E-06
   15.80625        5.2915702E-06
   15.92500        5.7015777E-06
   16.04375        6.0892185E-06
   16.16250        6.4486335E-06
   16.28125        6.7740907E-06
   16.40000        7.0600781E-06
   16.51875        7.3013907E-06
   16.63750        7.4932154E-06
   16.75625        7.6312117E-06
   16.87500        7.7115801E-06
   16.99375        7.7311306E-06
   17.11250        7.6873312E-06
   17.23125        7.5783482E-06
   17.35000        7.4030800E-06
   17.46875        7.1611717E-06
   17.58750        6.8530180E-06
   17.70625        6.4797541E-06
   17.82500        6.0432308E-06
   17.94375        5.5459805E-06
   18.06250        4.9911628E-06
   18.18125        4.3825080E-06
   18.30000        3.7242460E-06
   18.41875        3.0210253E-06
   18.53750        2.2778286E-06
   18.65625        1.4998823E-06
   18.77500        6.9256339E-07
   18.89375       -1.3869408E-07
   19.01250       -9.8849068E-07
   19.13125       -1.8515483E-06
   19.25000       -2.7227907E-06
   19.36875       -3.5974115E-06
   19.48750       -4.4709363E-06
   19.60625       -5.3392655E-06
   19.72500       -6.1987089E-06
   19.84375       -7.0460001E-06
   19.96250       -7.8782950E-06
   20.08125       -8.6931595E-06
   20.20000       -9.4885354E-06
   20.31875       -1.0262694E-05
   20.43750       -1.1014174E-05
   20.55625       -1.1741708E-05
   20.67500       -1.2444141E-05
   20.79375       -1.3120338E-05
   20.91250       -1.3769091E-05
   21.03125       -1.4389026E-05
   21.15000       -1.4978507E-05
   21.26875       -1.5535552E-05
   21.38750       -1.6057757E-05
   21.50625       -1.6542221E-05
   21.62500       -1.6985499E-05
   21.74375       -1.7383567E-05
   21.86250       -1.7731798E-05
   21.98125       -1.8024970E-05
   22.10000       -1.8257289E-05
   22.21875       -1.8422428E-05
   22.33750       -1.8513590E-05
   22.45625       -1.8523586E-05
   22.57500       -1.8444942E-05
   22.69375       -1.8269997E-05
   22.81250       -1.7991048E-05
   22.93125       -1.7600463E-05
   23.05000       -1.7090850E-05
   23.16875       -1.6455171E-05
   23.28750       -1.5686901E-05
   23.40625       -1.4780170E-05
   23.52500       -1.3729892E-05
   23.64375       -1.2531905E-05
   23.76250       -1.1183080E-05
   23.88125       -9.6814310E-06
   24.00000       -8.0262171E-06
   24.11875       -6.2180152E-06
   24.23750       -4.2587858E-06
   24.35625       -2.1519145E-06
   24.47500        9.7728822E-08
   24.59375        2.4837934E-06
   24.71250        4.9984237E-06
   24.83125        7.6322713E-06
   24.95000        1.0374511E-05
   25.06875        1.3212871E-05
   25.18750        1.6133674E-05
   25.30625        1.9121895E-05
   25.42500        2.2161241E-05
   25.54375        2.5234212E-05
   25.66250        2.8322225E-05
   25.78125        3.1405689E-05
   25.90000        3.4464159E-05
   26.01875        3.7476446E-05
   26.13750        4.0420786E-05
   26.25625        4.3275024E-05
   26.37500        4.6016761E-05
   26.49375        4.8623577E-05
   26.61250        5.1073253E-05
   26.73125        5.3343963E-05
   26.85000        5.5414541E-05
   26.96875        5.7264690E-05
   27.08750        5.8875259E-05
   27.20625        6.0228474E-05
   27.32500        6.1308165E-05
   27.44375        6.2100014E-05
   27.56250        6.2591760E-05
   27.68125        6.2773404E-05
   27.80000        6.2637388E-05
   27.91875        6.2178711E-05
   28.03750        6.1395069E-05
   28.15625        6.0286926E-05
   28.27500        5.8857546E-05
   28.39375        5.7113004E-05
   28.51250        5.5062133E-05
   28.63125        5.2716470E-05
   28.75000        5.0090104E-05
   28.86875        4.7199544E-05
   28.98750        4.4063512E-05
   29.10625        4.0702747E-05
   29.22500        3.7139747E-05
   29.34375        3.3398523E-05
   29.46250        2.9504334E-05
   29.58125        2.5483394E-05
   29.70000        2.1362583E-05
   29.81875        1.7169197E-05
   29.93750        1.2930664E-05
   30.05625        8.6742857E-06
   30.17500        4.4270109E-06
   30.29375        2.1520796E-07
   30.41250       -3.9355218E-06
   30.53125       -8.0005220E-06
   30.65000       -1.1956260E-05
   30.76875       -1.5780439E-05
   30.88750       -1.9452102E-05
   31.00625       -2.2951745E-05
   31.12500       -2.6261396E-05
   31.24375       -2.9364677E-05
   31.36250       -3.2246837E-05
   31.48125       -3.4894845E-05
   31.60000       -3.7297381E-05
   31.71875       -3.9444909E-05
   31.83750       -4.1329691E-05
   31.95625       -4.2945820E-05
   32.07500       -4.4289256E-05
   32.19375       -4.5357843E-05
   32.31250       -4.6151315E-05
   32.43125       -4.6671332E-05
   32.55000       -4.6921439E-05
   32.66875       -4.6907106E-05
   32.78750       -4.6635665E-05
   32.90625       -4.6116282E-05
   33.02500       -4.5359917E-05
   33.14375       -4.4379216E-05
   33.26250       -4.3188433E-05
   33.38125       -4.1803280E-05
   33.50000       -4.0240790E-05
   33.61875       -3.8519152E-05
   33.73750       -3.6657493E-05
   33.85625       -3.4675679E-05
   33.97500       -3.2594089E-05
   34.09375       -3.0433383E-05
   34.21250       -2.8214223E-05
   34.33125       -2.5957061E-05
   34.45000       -2.3681872E-05
   34.56875       -2.1407921E-05
   34.68750       -1.9153538E-05
   34.80625       -1.6935943E-05
   34.92500       -1.4771028E-05
   35.04375       -1.2673234E-05
   35.16250       -1.0655446E-05
   35.28125       -8.7289081E-06
   35.40000       -6.9031826E-06
   35.51875       -5.1861684E-06
   35.63750       -3.5841479E-06
   35.75625       -2.1018482E-06
   35.87500       -7.4257821E-07
   35.99375        4.9164277E-07
   36.11250        1.5999037E-06
   36.23125        2.5822046E-06
   36.35000        3.4392492E-06
   36.46875        4.1722210E-06
   36.58750        4.7825715E-06
   36.70625        5.2718001E-06
   36.82500        5.6412464E-06
   36.94375        5.8919227E-06
   37.06250        6.0243365E-06
   37.18125        6.0383968E-06
   37.30000        5.9332965E-06
   37.41875        5.7074640E-06
   37.53750        5.3585513E-06
   37.65625        4.8834422E-06
   37.77500        4.2783522E-06
   37.89375        3.5389071E-06
   38.01250        2.6603000E-06
   38.13125        1.6374615E-06
   38.25000        4.6526219E-07
   38.36875       -8.6125232E-07
   38.48750       -2.3466507E-06
   38.60625       -3.9948231E-06
   38.72500       -5.8087739E-06
   38.84375       -7.7903469E-06
   38.96250       -9.9400158E-06
   39.08125       -1.2256667E-05
   39.20000       -1.4737404E-05
   39.31875       -1.7377388E-05
   39.43750       -2.0169731E-05
   39.55625       -2.3105400E-05
   39.67500       -2.6173182E-05
   39.79375       -2.9359679E-05
   39.91250       -3.2649375E-05
   40.03125       -3.6024710E-05
   40.15000       -3.9466220E-05
   40.26875       -4.2952677E-05
   40.38750       -4.6461315E-05
   40.50625       -4.9968050E-05
   40.62500       -5.3447740E-05
   40.74375       -5.6874465E-05
   40.86250       -6.0221835E-05
   40.98125       -6.3463260E-05
   41.10000       -6.6572327E-05
   41.21875       -6.9523041E-05
   41.33750       -7.2290190E-05
   41.45625       -7.4849646E-05
   41.57500       -7.7178629E-05
   41.69375       -7.9256009E-05
   41.81250       -8.1062564E-05
   41.93125       -8.2581246E-05
   42.05000       -8.3797349E-05
   42.16875       -8.4698797E-05
   42.28750       -8.5276261E-05
   42.40625       -8.5523323E-05
   42.52500       -8.5436615E-05
   42.64375       -8.5015912E-05
   42.76250       -8.4264175E-05
   42.88125       -8.3187580E-05
   43.00000       -8.1795530E-05
   43.11875       -8.0100574E-05
   43.23750       -7.8118363E-05
   43.35625       -7.5867472E-05
   43.47500       -7.3369265E-05
   43.59375       -7.0647664E-05
   43.71250       -6.7728899E-05
   43.83125       -6.4641179E-05
   43.95000       -6.1414372E-05
   44.06875       -5.8079600E-05
   44.18750       -5.4668832E-05
   44.30625       -5.1214411E-05
   44.42500       -4.7748617E-05
   44.54375       -4.4303160E-05
   44.66250       -4.0908701E-05
   44.78125       -3.7594360E-05
   44.90000       -3.4387256E-05
   45.01875       -3.1312051E-05
   45.13750       -2.8390559E-05
   45.25625       -2.5641370E-05
   45.37500       -2.3079561E-05
   45.49375       -2.0716445E-05
   45.61250       -1.8559429E-05
   45.73125       -1.6611923E-05
   45.85000       -1.4873341E-05
   45.96875       -1.3339204E-05
   46.08750       -1.2001311E-05
   46.20625       -1.0847985E-05
   46.32500       -9.8644277E-06
   46.44375       -9.0331105E-06
   46.56250       -8.3342484E-06
   46.68125       -7.7463110E-06
   46.80000       -7.2465864E-06
   46.91875       -6.8117424E-06
   47.03750       -6.4184192E-06
   47.15625       -6.0438083E-06
   47.27500       -5.6662084E-06
   47.39375       -5.2655391E-06
   47.51250       -4.8238248E-06
   47.63125       -4.3255886E-06
   47.75000       -3.7582033E-06
   47.86875       -3.1121435E-06
   47.98750       -2.3811754E-06
   48.10625       -1.5624322E-06
   48.22500       -6.5643076E-07
   48.34375        3.3300645E-07
   48.46250        1.3989317E-06
   48.58125        2.5314985E-06
   48.70000        3.7182745E-06
   48.81875        4.9446080E-06
   48.93750        6.1940368E-06
   49.05625        7.4487320E-06
   49.17500        8.6899645E-06
   49.29375        9.8985965E-06
   49.41250        1.1055543E-05
   49.53125        1.2142256E-05
   49.65000        1.3141153E-05
   49.76875        1.4036024E-05
   49.88750        1.4812421E-05
   50.00625        1.5457963E-05
   50.12500        1.5962605E-05
   50.24375        1.6318860E-05
   50.36250        1.6521932E-05
   50.48125        1.6569827E-05
   50.60000        1.6463380E-05
   50.71875        1.6206248E-05
   50.83750        1.5804802E-05
   50.95625        1.5268030E-05
   51.07500        1.4607373E-05
   51.19375        1.3836514E-05
   51.31250        1.2971132E-05
   51.43125        1.2028651E-05
   51.55000        1.1027951E-05
   51.66875        9.9890667E-06
   51.78750        8.9328832E-06
   51.90625        7.8808134E-06
   52.02500        6.8544932E-06
   52.14375        5.8754799E-06
   52.26250        4.9649611E-06
   52.38125        4.1434596E-06
   52.50000        3.4305872E-06
   52.61875        2.8447971E-06
   52.73750        2.4031324E-06
   52.85625        2.1210319E-06
   52.97500        2.0121649E-06
   53.09375        2.0882026E-06
   53.21250        2.3587133E-06
   53.33125        2.8310233E-06
   53.45000        3.5101057E-06
   53.56875        4.3985115E-06
   53.68750        5.4962966E-06
   53.80625        6.8009736E-06
   53.92500        8.3074974E-06
   54.04375        1.0008264E-05
   54.16250        1.1893133E-05
   54.28125        1.3949464E-05
   54.40000        1.6162201E-05
   54.51875        1.8513965E-05
   54.63750        2.0985204E-05
   54.75625        2.3554347E-05
   54.87500        2.6197982E-05
   54.99375        2.8891134E-05
   55.11250        3.1607451E-05
   55.23125        3.4319561E-05
   55.35000        3.6999361E-05
   55.46875        3.9618386E-05
   55.58750        4.2148167E-05
   55.70625        4.4560646E-05
   55.82500        4.6828580E-05
   55.94375        4.8926013E-05
   56.06250        5.0828661E-05
   56.18125        5.2514381E-05
   56.30000        5.3963555E-05
   56.41875        5.5159537E-05
   56.53750        5.6088964E-05
   56.65625        5.6742108E-05
   56.77500        5.7113175E-05
   56.89375        5.7200534E-05
   57.01250        5.7006855E-05
   57.13125        5.6539266E-05
   57.25000        5.5809356E-05
   57.36875        5.4833155E-05
   57.48750        5.3631007E-05
   57.60625        5.2227369E-05
   57.72500        5.0650611E-05
   57.84375        4.8932605E-05
   57.96250        4.7108369E-05
   58.08125        4.5215598E-05
   58.20000        4.3294189E-05
   58.31875        4.1385683E-05
   58.43750        3.9532719E-05
   58.55625        3.7778398E-05
   58.67500        3.6165689E-05
   58.79375        3.4736833E-05
   58.91250        3.3532713E-05
   59.03125        3.2592212E-05
   59.15000        3.1951731E-05
   59.26875        3.1644584E-05
   59.38750        3.1700529E-05
   59.50625        3.2145301E-05
   59.62500        3.3000200E-05
   59.74375        3.4281751E-05
   59.86250        3.6001340E-05
   59.98125        3.8165002E-05
   60.10000        4.0773215E-05
   60.21875        4.3820750E-05
   60.33750        4.7296642E-05
   60.45625        5.1184110E-05
   60.57500        5.5460659E-05
   60.69375        6.0098140E-05
   60.81250        6.5063003E-05
   60.93125        7.0316491E-05
   61.05000        7.5814954E-05
   61.16875        8.1510261E-05
   61.28750        8.7350156E-05
   61.40625        9.3278781E-05
   61.52500        9.9237266E-05
   61.64375        1.0516433E-04
   61.76250        1.1099695E-04
   61.88125        1.1667107E-04
   62.00000        1.2212244E-04
   62.11875        1.2728736E-04
   62.23750        1.3210357E-04
   62.35625        1.3651098E-04
   62.47500        1.4045266E-04
   62.59375        1.4387566E-04
   62.71250        1.4673172E-04
   62.83125        1.4897813E-04
   62.95000        1.5057842E-04
   63.06875        1.5150306E-04
   63.18750        1.5172997E-04
   63.30625        1.5124504E-04
   63.42500        1.5004253E-04
   63.54375        1.4812523E-04
   63.66250        1.4550461E-04
   63.78125        1.4220085E-04
   63.90000        1.3824258E-04
   64.01875        1.3366659E-04
   64.13750        1.2851736E-04
   64.25625        1.2284656E-04
   64.37500        1.1671228E-04
   64.49375        1.1017823E-04
   64.61250        1.0331281E-04
   64.73125        9.6188145E-05
   64.85000        8.8878900E-05
   64.96875        8.1461250E-05
   65.08750        7.4011630E-05
   65.20625        6.6605578E-05
   65.32500        5.9316615E-05
   65.44375        5.2215066E-05
   65.56250        4.5366993E-05
   65.68125        3.8833241E-05
   65.80000        3.2668540E-05
   65.91875        2.6920727E-05
   66.03750        2.1630016E-05
   66.15625        1.6828602E-05
   66.27500        1.2540156E-05
   66.39375        8.7796325E-06
   66.51250        5.5531391E-06
   66.63125        2.8581310E-06
   66.75000        6.8355536E-07
   66.86875       -9.8973953E-07
   66.98750       -2.1884582E-06
   67.10625       -2.9462235E-06
   67.22500       -3.3028314E-06
   67.34375       -3.3033982E-06
   67.46250       -2.9974697E-06
   67.58125       -2.4380286E-06
   67.70000       -1.6805063E-06
   67.81875       -7.8174548E-07
   67.93750        2.0105722E-07
   68.05625        1.2112732E-06
   68.17500        2.1939088E-06
   68.29375        3.0964036E-06
   68.41250        3.8695316E-06
   68.53125        4.4680064E-06
   68.65000        4.8511570E-06
   68.76875        4.9834698E-06
   68.88750        4.8349229E-06
   69.00625        4.3813084E-06
   69.12500        3.6044453E-06
   69.24375        2.4921731E-06
   69.36250        1.0384009E-06
   69.48125       -7.5709579E-07
   69.60000       -2.8888012E-06
   69.71875       -5.3458471E-06
   69.83750       -8.1123517E-06
   69.95625       -1.1167795E-05
   70.07500       -1.4487525E-05
   70.19375       -1.8043189E-05
   70.31250       -2.1803280E-05
   70.43125       -2.5733576E-05
   70.55000       -2.9797628E-05
   70.66875       -3.3957411E-05
   70.78750       -3.8173701E-05
   70.90625       -4.2406660E-05
   71.02500       -4.6616282E-05
   71.14375       -5.0762905E-05
   71.26250       -5.4807642E-05
   71.38125       -5.8712849E-05
   71.50000       -6.2442494E-05
   71.61875       -6.5962602E-05
   71.73750       -6.9241665E-05
   71.85625       -7.2251016E-05
   71.97500       -7.4965210E-05
   72.09375       -7.7362369E-05
   72.21250       -7.9424542E-05
   72.33125       -8.1137943E-05
   72.45000       -8.2493243E-05
   72.56875       -8.3485676E-05
   72.68750       -8.4115265E-05
   72.80625       -8.4386833E-05
   72.92500       -8.4309955E-05
   73.04375       -8.3898965E-05
   73.16250       -8.3172767E-05
   73.28125       -8.2154605E-05
   73.40000       -8.0871716E-05
   73.51875       -7.9354955E-05
   73.63750       -7.7638266E-05
   73.75625       -7.5758115E-05
   73.87500       -7.3752839E-05
   73.99375       -7.1661925E-05
   74.11250       -6.9525304E-05
   74.23125       -6.7382607E-05
   74.35000       -6.5272405E-05
   74.46875       -6.3231470E-05
   74.58750       -6.1294144E-05
   74.70625       -5.9491624E-05
   74.82500       -5.7851448E-05
   74.94375       -5.6396930E-05
   75.06250       -5.5146753E-05
   75.18125       -5.4114673E-05
   75.30000       -5.3309337E-05
   75.41875       -5.2734194E-05
   75.53750       -5.2387542E-05
   75.65625       -5.2262742E-05
   75.77500       -5.2348467E-05
   75.89375       -5.2629075E-05
   76.01250       -5.3085107E-05
   76.13125       -5.3693759E-05
   76.25000       -5.4429482E-05
   76.36875       -5.5264609E-05
   76.48750       -5.6170007E-05
   76.60625       -5.7115751E-05
   76.72500       -5.8071819E-05
   76.84375       -5.9008737E-05
   76.96250       -5.9898251E-05
   77.08125       -6.0713908E-05
   77.20000       -6.1431572E-05
   77.31875       -6.2029903E-05
   77.43750       -6.2490770E-05
   77.55625       -6.2799532E-05
   77.67500       -6.2945401E-05
   77.79375       -6.2921565E-05
   77.91250       -6.2725419E-05
   78.03125       -6.2358573E-05
   78.15000       -6.1826955E-05
   78.26875       -6.1140709E-05
   78.38750       -6.0314087E-05
   78.50625       -5.9365342E-05
   78.62500       -5.8316411E-05
   78.74375       -5.7192690E-05
   78.86250       -5.6022687E-05
   78.98125       -5.4837667E-05
   79.10000       -5.3671254E-05
   79.21875       -5.2559000E-05
   79.33750       -5.1537885E-05
   79.45625       -5.0645791E-05
   79.57500       -4.9920924E-05
   79.69375       -4.9401184E-05
   79.81250       -4.9123522E-05
   79.93125       -4.9123268E-05
   80.05000       -4.9433431E-05
   80.16875       -5.0084036E-05
   80.28750       -5.1101437E-05
   80.40625       -5.2507654E-05
   80.52500       -5.4319753E-05
   80.64375       -5.6549237E-05
   80.76250       -5.9201473E-05
   80.88125       -6.2275241E-05
   81.00000       -6.5762259E-05
   81.11875       -6.9646936E-05
   81.23750       -7.3906143E-05
   81.35625       -7.8509132E-05
   81.47500       -8.3417661E-05
   81.59375       -8.8586166E-05
   81.71250       -9.3962131E-05
   81.83125       -9.9486599E-05
   81.95000       -1.0509476E-04
   82.06875       -1.1071674E-04
   82.18750       -1.1627849E-04
   82.30625       -1.2170281E-04
   82.42500       -1.2691047E-04
   82.54375       -1.3182142E-04
   82.66250       -1.3635616E-04
   82.78125       -1.4043698E-04
   82.90000       -1.4398945E-04
   83.01875       -1.4694371E-04
   83.13750       -1.4923577E-04
   83.25625       -1.5080885E-04
   83.37500       -1.5161441E-04
   83.49375       -1.5161336E-04
   83.61250       -1.5077693E-04
   83.73125       -1.4908744E-04
   83.85000       -1.4653899E-04
   83.96875       -1.4313783E-04
   84.08750       -1.3890261E-04
   84.20625       -1.3386438E-04
   84.32500       -1.2806627E-04
   84.44375       -1.2156318E-04
   84.56250       -1.1442097E-04
   84.68125       -1.0671566E-04
   84.80000       -9.8532342E-05
   84.91875       -8.9964014E-05
   85.03750       -8.1110127E-05
   85.15625       -7.2075192E-05
   85.27500       -6.2967134E-05
   85.39375       -5.3895634E-05
   85.51250       -4.4970420E-05
   85.63125       -3.6299552E-05
   85.75000       -2.7987728E-05
   85.86875       -2.0134679E-05
   85.98750       -1.2833651E-05
   86.10625       -6.1699852E-06
   86.22500       -2.1994398E-07
   86.34375        4.9504229E-06
   86.46250        9.2861583E-06
   86.58125        1.2744123E-05
   86.70000        1.5293501E-05
   86.81875        1.6916143E-05
   86.93750        1.7606690E-05
   87.05625        1.7372457E-05
   87.17500        1.6233151E-05
   87.29375        1.4220381E-05
   87.41250        1.1376977E-05
   87.53125        7.7562272E-06
   87.65000        3.4209133E-06
   87.76875       -1.5577398E-06
   87.88750       -7.1011609E-06
   88.00625       -1.3124672E-05
   88.12500       -1.9538707E-05
   88.24375       -2.6250083E-05
   88.36250       -3.3163338E-05
   88.48125       -4.0182025E-05
   88.60000       -4.7210040E-05
   88.71875       -5.4152875E-05
   88.83750       -6.0918785E-05
   88.95625       -6.7419947E-05
   89.07500       -7.3573501E-05
   89.19375       -7.9302525E-05
   89.31250       -8.4536907E-05
   89.43125       -8.9214096E-05
   89.55000       -9.3279858E-05
   89.66875       -9.6688789E-05
   89.78750       -9.9404846E-05
   89.90625       -1.0140164E-04
   90.02500       -1.0266273E-04
   90.14375       -1.0318165E-04
   90.26250       -1.0296190E-04
   90.38125       -1.0201676E-04
   90.50000       -1.0036896E-04
   90.61875       -9.8050288E-05
   90.73750       -9.5101015E-05
   90.85625       -9.1569265E-05
   90.97500       -8.7510241E-05
   91.09375       -8.2985367E-05
   91.21250       -7.8061297E-05
   91.33125       -7.2808842E-05
   91.45000       -6.7301873E-05
   91.56875       -6.1616069E-05
   91.68750       -5.5827761E-05
   91.80625       -5.0012641E-05
   91.92500       -4.4244607E-05
   92.04375       -3.8594568E-05
   92.16250       -3.3129334E-05
   92.28125       -2.7910570E-05
   92.40000       -2.2993823E-05
   92.51875       -1.8427687E-05
   92.63750       -1.4253030E-05
   92.75625       -1.0502418E-05
   92.87500       -7.1996933E-06
   92.99375       -4.3596742E-06
   93.11250       -1.9880983E-06
   93.23125       -8.1704457E-08
   93.35000        1.3715063E-06
   93.46875        2.3918567E-06
   93.58750        3.0074204E-06
   93.70625        3.2533301E-06
   93.82500        3.1709740E-06
   93.94375        2.8070688E-06
   94.06250        2.2126499E-06
   94.18125        1.4419991E-06
   94.30000        5.5150133E-07
   94.41875       -4.0151849E-07
   94.53750       -1.3599397E-06
   94.65625       -2.2679685E-06
   94.77500       -3.0721992E-06
   94.89375       -3.7225934E-06
   95.01250       -4.1733756E-06
   95.13125       -4.3838113E-06
   95.25000       -4.3188879E-06
   95.36875       -3.9498659E-06
   95.48750       -3.2547284E-06
   95.60625       -2.2184815E-06
   95.72500       -8.3333185E-07
   95.84375        9.0127025E-07
   95.96250        2.9787343E-06
   96.08125        5.3855542E-06
   96.20000        8.1016387E-06
   96.31875        1.1100755E-05
   96.43750        1.4351034E-05
   96.55625        1.7815561E-05
   96.67500        2.1452977E-05
   96.79375        2.5218162E-05
   96.91250        2.9062914E-05
   97.03125        3.2936670E-05
   97.15000        3.6787264E-05
   97.26875        4.0561652E-05
   97.38750        4.4206656E-05
   97.50625        4.7669735E-05
   97.62500        5.0899642E-05
   97.74375        5.3847129E-05
   97.86250        5.6465589E-05
   97.98125        5.8711666E-05
   98.10000        6.0545834E-05
   98.21875        6.1932944E-05
   98.33750        6.2842795E-05
   98.45625        6.3250634E-05
   98.57500        6.3137632E-05
   98.69375        6.2491315E-05
   98.81250        6.1305953E-05
   98.93125        5.9582882E-05
   99.05000        5.7330741E-05
   99.16875        5.4565662E-05
   99.28750        5.1311355E-05
   99.40625        4.7599173E-05
   99.52500        4.3467971E-05
   99.64375        3.8963961E-05
   99.76250        3.4140430E-05
   99.88125        2.9057295E-05
   100.0000        2.3780571E-05
   100.1188        1.8381692E-05
   100.2375        1.2936670E-05
   100.3562        7.5251437E-06
   100.4750        2.2293550E-06
   100.5938       -2.8670386E-06
   100.7125       -7.6801853E-06
   100.8313       -1.2127345E-05
   100.9500       -1.6128210E-05
   101.0687       -1.9606277E-05
   101.1875       -2.2490198E-05
   101.3063       -2.4715087E-05
   101.4250       -2.6223775E-05
   101.5437       -2.6967959E-05
   101.6625       -2.6909231E-05
   101.7812       -2.6019936E-05
   101.9000       -2.4283852E-05
   102.0188       -2.1696664E-05
   102.1375       -1.8266219E-05
   102.2562       -1.4012575E-05
   102.3750       -8.9678097E-06
   102.4938       -3.1756329E-06
   102.6125        3.3092354E-06
   102.7312        1.0421877E-05
   102.8500        1.8088163E-05
   102.9688        2.6225944E-05
   103.0875        3.4746354E-05
   103.2063        4.3555239E-05
   103.3250        5.2554682E-05