  -4.500000        3.4494133E-18
  -4.381250        3.4540163E-18
  -4.262500        3.4586853E-18
  -4.143750        3.3835575E-18
  -4.025000        2.8512376E-18
  -3.906250        7.4164176E-19
  -3.787500       -5.4072631E-18
  -3.668750       -1.9833071E-17
  -3.550000       -4.8245074E-17
  -3.431250       -9.6123780E-17
  -3.312500       -1.6519441E-16
  -3.193750       -2.4824961E-16
  -3.075000       -3.2338056E-16
  -2.956250       -3.4958143E-16
  -2.837500       -2.6625920E-16
  -2.718750        9.4765285E-19
  -2.600000        5.2668196E-16
  -2.481250        1.3652726E-15
  -2.362500        2.5260663E-15
  -2.243750        3.9501437E-15
  -2.125000        5.4955218E-15
  -2.006250        6.9381379E-15
  -1.887500        7.9942063E-15
  -1.768750        8.3659445E-15
  -1.650000        7.8076244E-15
  -1.531250        6.2033271E-15
  -1.412500        3.6428253E-15
  -1.293750        4.7894552E-16
  -1.175000       -2.6504593E-15
  -1.056250       -4.8496376E-15
 -0.9375000       -5.0483363E-15
 -0.8187500       -2.1394955E-15
 -0.7000000        4.8412414E-15
 -0.5812500        1.6516814E-14
 -0.4625000        3.2981572E-14
 -0.3437500        5.3660747E-14
 -0.2250000        7.7251234E-14
 -0.1062500        1.0177270E-13
  1.2500000E-02    1.2474704E-13
  0.1312500        1.4350955E-13
  0.2500000        1.5563840E-13
  0.3687500        1.5947112E-13
  0.4875000        1.5466354E-13
  0.6062500        1.4273500E-13
  0.7250000        1.2754248E-13
  0.8437500        1.1562994E-13
  0.9625000        1.1641491E-13
   1.081250        1.4219610E-13
   1.200000        2.0799745E-13
   1.318750        3.3129903E-13
   1.437500        5.3174419E-13
   1.556250        8.3095065E-13
   1.675000        1.2525842E-12
   1.793750        1.8228802E-12
   1.912500        2.5718097E-12
   2.031250        3.5350848E-12
   2.150000        4.7571821E-12
   2.268750        6.2955236E-12
   2.387500        8.2259130E-12
   2.506250        1.0649241E-11
   2.625000        1.3699428E-11
   2.743750        1.7552446E-11
   2.862500        2.2436199E-11
   2.981250        2.8640944E-11
   3.100000        3.6529817E-11
   3.218750        4.6548987E-11
   3.337500        5.9236803E-11
   3.456250        7.5231328E-11
   3.575000        9.5275510E-11
   3.693750        1.2021927E-10
   3.812500        1.5101763E-10
   3.931250        1.8872430E-10
   4.050000        2.3447982E-10
   4.168750        2.8949360E-10
   4.287500        3.5501951E-10
   4.406250        4.3232415E-10
   4.525000        5.2264815E-10
   4.643750        6.2715960E-10
   4.762500        7.4690071E-10
   4.881250        8.8272722E-10
   5.000000        1.0352419E-09
   5.118750        1.2047222E-09
   5.237500        1.3910454E-09
   5.356250        1.5936086E-09
   5.475000        1.8112508E-09
   5.593750        2.0421740E-09
   5.712500        2.2838682E-09
   5.831250        2.5330424E-09
   5.950000        2.7855624E-09
   6.068750        3.0364014E-09
   6.187500        3.2795984E-09
   6.306250        3.5082366E-09
   6.425000        3.7144356E-09
   6.543750        3.8893644E-09
   6.662500        4.0232710E-09
   6.781250        4.1055417E-09
   6.900000        4.1247783E-09
   7.018750        4.0688999E-09
   7.137500        3.9252748E-09
   7.256250        3.6808789E-09
   7.375000        3.3224743E-09
   7.493750        2.8368170E-09
   7.612500        2.2108968E-09
   7.731250        1.4321909E-09
   7.850000        4.8894339E-10
   7.968750       -6.2953887E-10
   8.087500       -1.9325743E-09
   8.206250       -3.4277901E-09
   8.325000       -5.1208002E-09
   8.443750       -7.0148833E-09
   8.562500       -9.1106731E-09
   8.681250       -1.1405859E-08
   8.800000       -1.3894903E-08
   8.918750       -1.6568769E-08
   9.037500       -1.9414692E-08
   9.156250       -2.2415929E-08
   9.275000       -2.5551556E-08
   9.393750       -2.8796247E-08
   9.512500       -3.2120056E-08
   9.631250       -3.5488192E-08
   9.750000       -3.8860765E-08
   9.868750       -4.2192500E-08
   9.987500       -4.5432422E-08
   10.10625       -4.8523514E-08
   10.22500       -5.1402349E-08
   10.34375       -5.3998736E-08
   10.46250       -5.6235343E-08
   10.58125       -5.8027464E-08
   10.70000       -5.9282844E-08
   10.81875       -5.9901744E-08
   10.93750       -5.9777207E-08
   11.05625       -5.8795735E-08
   11.17500       -5.6838402E-08
   11.29375       -5.3782443E-08
   11.41250       -4.9503534E-08
   11.53125       -4.3878771E-08
   11.65000       -3.6790375E-08
   11.76875       -2.8130335E-08
   11.88750       -1.7805800E-08
   12.00625       -5.7453979E-09
   12.12500        8.0936573E-09
   12.24375        2.3717712E-08
   12.36250        4.1088242E-08
   12.48125        6.0112967E-08
   12.60000        8.0636710E-08
   12.71875        1.0243240E-07
   12.83750        1.2519233E-07
   12.95625        1.4852030E-07
   13.07500        1.7192451E-07
   13.19375        1.9481234E-07
   13.31250        2.1648665E-07
   13.43125        2.3614466E-07
   13.55000        2.5287915E-07
   13.66875        2.6568307E-07
   13.78750        2.7345703E-07
   13.90625        2.7502074E-07
   14.02500        2.6912761E-07
   14.14375        2.5448375E-07
   14.26250        2.2977012E-07
   14.38125        1.9366828E-07
   14.50000        1.4488981E-07
   14.61875        8.2208203E-08
   14.73750        4.4931947E-09
   14.85625       -8.9252886E-08
   14.97500       -1.9985805E-07
   15.09375       -3.2794307E-07
   15.21250       -4.7388491E-07
   15.33125       -6.3778145E-07
   15.45000       -8.1941852E-07
   15.56875       -1.0182412E-06
   15.68750       -1.2333289E-06
   15.80625       -1.4633761E-06
   15.92500       -1.7066795E-06
   16.04375       -1.9611316E-06
   16.16250       -2.2242225E-06
   16.28125       -2.4930496E-06
   16.40000       -2.7643352E-06
   16.51875       -3.0344540E-06
   16.63750       -3.2994681E-06
   16.75625       -3.5551698E-06
   16.87500       -3.7971342E-06
   16.99375       -4.0207779E-06
   17.11250       -4.2214247E-06
   17.23125       -4.3943746E-06
   17.35000       -4.5349821E-06
   17.46875       -4.6387327E-06
   17.58750       -4.7013232E-06
   17.70625       -4.7187436E-06
   17.82500       -4.6873538E-06
   17.94375       -4.6039622E-06
   18.06250       -4.4658959E-06
   18.18125       -4.2710672E-06
   18.30000       -4.0180312E-06
   18.41875       -3.7060372E-06
   18.53750       -3.3350664E-06
   18.65625       -2.9058619E-06
   18.77500       -2.4199460E-06
   18.89375       -1.8796245E-06
   19.01250       -1.2879788E-06
   19.13125       -6.4884523E-07
   19.25000        3.3218832E-08
   19.36875        7.5298021E-07
   19.48750        1.5045873E-06
   19.60625        2.2816384E-06
   19.72500        3.0772596E-06
   19.84375        3.8841908E-06
   19.96250        4.6948776E-06
   20.08125        5.5015707E-06
   20.20000        6.2964268E-06
   20.31875        7.0716123E-06
   20.43750        7.8194043E-06
   20.55625        8.5322927E-06
   20.67500        9.2030768E-06
   20.79375        9.8249538E-06
   20.91250        1.0391605E-05
   21.03125        1.0897273E-05
   21.15000        1.1336820E-05
   21.26875        1.1705785E-05
   21.38750        1.2000431E-05
   21.50625        1.2217766E-05
   21.62500        1.2355566E-05
   21.74375        1.2412382E-05
   21.86250        1.2387522E-05
   21.98125        1.2281048E-05
   22.10000        1.2093727E-05
   22.21875        1.1827007E-05
   22.33750        1.1482958E-05
   22.45625        1.1064212E-05
   22.57500        1.0573911E-05
   22.69375        1.0015623E-05
   22.81250        9.3932786E-06
   22.93125        8.7110975E-06
   23.05000        7.9735100E-06
   23.16875        7.1850859E-06
   23.28750        6.3504635E-06
   23.40625        5.4742832E-06
   23.52500        4.5611259E-06
   23.64375        3.6154611E-06
   23.76250        2.6415996E-06
   23.88125        1.6436503E-06
   24.00000        6.2550009E-07
   24.11875       -4.0921628E-07
   24.23750       -1.4571186E-06
   24.35625       -2.5150900E-06
   24.47500       -3.5802607E-06
   24.59375       -4.6499981E-06
   24.71250       -5.7218813E-06
   24.83125       -6.7936689E-06
   24.95000       -7.8632602E-06
   25.06875       -8.9286632E-06
   25.18750       -9.9879408E-06
   25.30625       -1.1039177E-05
   25.42500       -1.2080423E-05
   25.54375       -1.3109668E-05
   25.66250       -1.4124793E-05
   25.78125       -1.5123544E-05
   25.90000       -1.6103508E-05
   26.01875       -1.7062097E-05
   26.13750       -1.7996543E-05
   26.25625       -1.8903895E-05
   26.37500       -1.9781048E-05
   26.49375       -2.0624750E-05
   26.61250       -2.1431642E-05
   26.73125       -2.2198314E-05
   26.85000       -2.2921335E-05
   26.96875       -2.3597329E-05
   27.08750       -2.4223033E-05
   27.20625       -2.4795365E-05
   27.32500       -2.5311494E-05
   27.44375       -2.5768904E-05
   27.56250       -2.6165468E-05
   27.68125       -2.6499507E-05
   27.80000       -2.6769845E-05
   27.91875       -2.6975846E-05
   28.03750       -2.7117465E-05
   28.15625       -2.7195261E-05
   28.27500       -2.7210408E-05
   28.39375       -2.7164699E-05
   28.51250       -2.7060521E-05
   28.63125       -2.6900836E-05
   28.75000       -2.6689124E-05
   28.86875       -2.6429330E-05
   28.98750       -2.6125803E-05
   29.10625       -2.5783202E-05
   29.22500       -2.5406418E-05
   29.34375       -2.5000478E-05
   29.46250       -2.4570450E-05
   29.58125       -2.4121331E-05
   29.70000       -2.3657947E-05
   29.81875       -2.3184861E-05
   29.93750       -2.2706265E-05
   30.05625       -2.2225897E-05
   30.17500       -2.1746959E-05
   30.29375       -2.1272035E-05
   30.41250       -2.0803041E-05
   30.53125       -2.0341175E-05
   30.65000       -1.9886864E-05
   30.76875       -1.9439758E-05
   30.88750       -1.8998719E-05
   31.00625       -1.8561823E-05
   31.12500       -1.8126377E-05
   31.24375       -1.7688957E-05
   31.36250       -1.7245457E-05
   31.48125       -1.6791140E-05
   31.60000       -1.6320710E-05
   31.71875       -1.5828396E-05
   31.83750       -1.5308040E-05
   31.95625       -1.4753183E-05
   32.07500       -1.4157172E-05
   32.19375       -1.3513260E-05
   32.31250       -1.2814719E-05
   32.43125       -1.2054938E-05
   32.55000       -1.1227527E-05
   32.66875       -1.0326418E-05
   32.78750       -9.3459657E-06
   32.90625       -8.2810211E-06
   33.02500       -7.1270238E-06
   33.14375       -5.8800747E-06
   33.26250       -4.5369898E-06
   33.38125       -3.0953468E-06
   33.50000       -1.5535369E-06
   33.61875        8.9220897E-08
   33.73750        1.8328584E-06
   33.85625        3.6764436E-06
   33.97500        5.6182084E-06
   34.09375        7.6555425E-06
   34.21250        9.7850352E-06
   34.33125        1.2002495E-05
   34.45000        1.4302997E-05
   34.56875        1.6680920E-05
   34.68750        1.9130006E-05
   34.80625        2.1643411E-05
   34.92500        2.4213752E-05
   35.04375        2.6833170E-05
   35.16250        2.9493389E-05
   35.28125        3.2185770E-05
   35.40000        3.4901364E-05
   35.51875        3.7630976E-05
   35.63750        4.0365212E-05
   35.75625        4.3094537E-05
   35.87500        4.5809316E-05
   35.99375        4.8499875E-05
   36.11250        5.1156541E-05
   36.23125        5.3769676E-05
   36.35000        5.6329747E-05
   36.46875        5.8827325E-05
   36.58750        6.1253158E-05
   36.70625        6.3598192E-05
   36.82500        6.5853586E-05
   36.94375        6.8010755E-05
   37.06250        7.0061404E-05
   37.18125        7.1997514E-05
   37.30000        7.3811381E-05
   37.41875        7.5495613E-05
   37.53750        7.7043122E-05
   37.65625        7.8447178E-05
   37.77500        7.9701320E-05
   37.89375        8.0799429E-05
   38.01250        8.1735678E-05
   38.13125        8.2504543E-05
   38.25000        8.3100764E-05
   38.36875        8.3519393E-05
   38.48750        8.3755731E-05
   38.60625        8.3805346E-05
   38.72500        8.3664083E-05
   38.84375        8.3328101E-05
   38.96250        8.2793827E-05
   39.08125        8.2058046E-05
   39.20000        8.1117898E-05
   39.31875        7.9970952E-05
   39.43750        7.8615223E-05
   39.55625        7.7049270E-05
   39.67500        7.5272241E-05
   39.79375        7.3283962E-05
   39.91250        7.1085014E-05
   40.03125        6.8676803E-05
   40.15000        6.6061664E-05
   40.26875        6.3242944E-05
   40.38750        6.0225055E-05
   40.50625        5.7013578E-05
   40.62500        5.3615324E-05
   40.74375        5.0038372E-05
   40.86250        4.6292123E-05
   40.98125        4.2387343E-05
   41.10000        3.8336129E-05
   41.21875        3.4151948E-05
   41.33750        2.9849585E-05
   41.45625        2.5445112E-05
   41.57500        2.0955804E-05
   41.69375        1.6400074E-05
   41.81250        1.1797356E-05
   41.93125        7.1679838E-06
   42.05000        2.5330530E-06
   42.16875       -2.0857333E-06
   42.28750       -6.6662342E-06
   42.40625       -1.1186048E-05
   42.52500       -1.5622694E-05
   42.64375       -1.9953815E-05
   42.76250       -2.4157360E-05
   42.88125       -2.8211782E-05
   43.00000       -3.2096228E-05
   43.11875       -3.5790730E-05
   43.23750       -3.9276369E-05
   43.35625       -4.2535459E-05
   43.47500       -4.5551682E-05
   43.59375       -4.8310252E-05
   43.71250       -5.0798018E-05
   43.83125       -5.3003580E-05
   43.95000       -5.4917382E-05
   44.06875       -5.6531782E-05
   44.18750       -5.7841098E-05
   44.30625       -5.8841644E-05
   44.42500       -5.9531762E-05
   44.54375       -5.9911785E-05
   44.66250       -5.9984057E-05
   44.78125       -5.9752871E-05
   44.90000       -5.9224440E-05
   45.01875       -5.8406811E-05
   45.13750       -5.7309819E-05
   45.25625       -5.5944991E-05
   45.37500       -5.4325465E-05
   45.49375       -5.2465864E-05
   45.61250       -5.0382223E-05
   45.73125       -4.8091879E-05
   45.85000       -4.5613335E-05
   45.96875       -4.2966174E-05
   46.08750       -4.0170922E-05
   46.20625       -3.7248927E-05
   46.32500       -3.4222259E-05
   46.44375       -3.1113555E-05
   46.56250       -2.7945907E-05
   46.68125       -2.4742722E-05
   46.80000       -2.1527583E-05
   46.91875       -1.8324108E-05
   47.03750       -1.5155799E-05
   47.15625       -1.2045886E-05
   47.27500       -9.0171661E-06
   47.39375       -6.0918278E-06
   47.51250       -3.2912892E-06
   47.63125       -6.3601442E-07
   47.75000        1.8546641E-06
   47.86875        4.1627254E-06
   47.98750        6.2716354E-06
   48.10625        8.1665185E-06
   48.22500        9.8343235E-06
   48.34375        1.1263969E-05
   48.46250        1.2446482E-05
   48.58125        1.3375110E-05
   48.70000        1.4045419E-05
   48.81875        1.4455346E-05
   48.93750        1.4605248E-05
   49.05625        1.4497892E-05
   49.17500        1.4138429E-05
   49.29375        1.3534323E-05
   49.41250        1.2695245E-05
   49.53125        1.1632935E-05
   49.65000        1.0361022E-05
   49.76875        8.8948318E-06
   49.88750        7.2511166E-06
   50.00625        5.4478292E-06
   50.12500        3.5038140E-06
   50.24375        1.4385192E-06
   50.36250       -7.2831983E-07
   50.48125       -2.9769822E-06
   50.60000       -5.2880646E-06
   50.71875       -7.6428014E-06
   50.83750       -1.0023321E-05
   50.95625       -1.2412918E-05
   51.07500       -1.4796277E-05
   51.19375       -1.7159677E-05
   51.31250       -1.9491128E-05
   51.43125       -2.1780512E-05
   51.55000       -2.4019633E-05
   51.66875       -2.6202264E-05
   51.78750       -2.8324113E-05
   51.90625       -3.0382773E-05
   52.02500       -3.2377589E-05
   52.14375       -3.4309538E-05
   52.26250       -3.6181023E-05
   52.38125       -3.7995658E-05
   52.50000       -3.9758012E-05
   52.61875       -4.1473337E-05
   52.73750       -4.3147291E-05
   52.85625       -4.4785611E-05
   52.97500       -4.6393845E-05
   53.09375       -4.7977002E-05
   53.21250       -4.9539311E-05
   53.33125       -5.1083895E-05
   53.45000       -5.2612548E-05
   53.56875       -5.4125496E-05
   53.68750       -5.5621189E-05
   53.80625       -5.7096175E-05
   53.92500       -5.8544945E-05
   54.04375       -5.9959886E-05
   54.16250       -6.1331251E-05
   54.28125       -6.2647181E-05
   54.40000       -6.3893785E-05
   54.51875       -6.5055268E-05
   54.63750       -6.6114102E-05
   54.75625       -6.7051231E-05
   54.87500       -6.7846362E-05
   54.99375       -6.8478264E-05
   55.11250       -6.8925096E-05
   55.23125       -6.9164773E-05
   55.35000       -6.9175396E-05
   55.46875       -6.8935631E-05
   55.58750       -6.8425135E-05
   55.70625       -6.7624984E-05
   55.82500       -6.6518078E-05
   55.94375       -6.5089589E-05
   56.06250       -6.3327279E-05
   56.18125       -6.1221901E-05
   56.30000       -5.8767506E-05
   56.41875       -5.5961715E-05
   56.53750       -5.2805943E-05
   56.65625       -4.9305560E-05
   56.77500       -4.5470035E-05
   56.89375       -4.1312978E-05
   57.01250       -3.6852107E-05
   57.13125       -3.2109219E-05
   57.25000       -2.7110018E-05
   57.36875       -2.1883947E-05
   57.48750       -1.6463906E-05
   57.60625       -1.0885965E-05
   57.72500       -5.1889933E-06
   57.84375        5.8574665E-07
   57.96250        6.3950542E-06
   58.08125        1.2194281E-05
   58.20000        1.7937813E-05
   58.31875        2.3579623E-05
   58.43750        2.9073808E-05
   58.55625        3.4375124E-05
   58.67500        3.9439543E-05
   58.79375        4.4224798E-05
   58.91250        4.8690865E-05
   59.03125        5.2800497E-05
   59.15000        5.6519657E-05
   59.26875        5.9817947E-05
   59.38750        6.2668980E-05
   59.50625        6.5050743E-05
   59.62500        6.6945846E-05
   59.74375        6.8341738E-05
   59.86250        6.9230889E-05
   59.98125        6.9610833E-05
   60.10000        6.9484224E-05
   60.21875        6.8858804E-05
   60.33750        6.7747256E-05
   60.45625        6.6167013E-05
   60.57500        6.4140047E-05
   60.69375        6.1692539E-05
   60.81250        5.8854512E-05
   60.93125        5.5659417E-05
   61.05000        5.2143656E-05
   61.16875        4.8346079E-05
   61.28750        4.4307442E-05
   61.40625        4.0069888E-05
   61.52500        3.5676341E-05
   61.64375        3.1169933E-05
   61.76250        2.6593485E-05
   61.88125        2.1988913E-05
   62.00000        1.7396767E-05
   62.11875        1.2855701E-05
   62.23750        8.4021058E-06
   62.35625        4.0696900E-06
   62.47500       -1.1082469E-07
   62.59375       -4.1119633E-06
   62.71250       -7.9096390E-06
   62.83125       -1.1483277E-05
   62.95000       -1.4815879E-05
   63.06875       -1.7893954E-05
   63.18750       -2.0707408E-05
   63.30625       -2.3249395E-05
   63.42500       -2.5516107E-05
   63.54375       -2.7506439E-05
   63.66250       -2.9221745E-05
   63.78125       -3.0665426E-05
   63.90000       -3.1842603E-05
   64.01875       -3.2759690E-05
   64.13750       -3.3424043E-05
   64.25625       -3.3843564E-05
   64.37500       -3.4026350E-05
   64.49375       -3.3980377E-05
   64.61250       -3.3713193E-05
   64.73125       -3.3231703E-05
   64.85000       -3.2541939E-05
   64.96875       -3.1648964E-05
   65.08750       -3.0556774E-05
   65.20625       -2.9268273E-05
   65.32500       -2.7785345E-05
   65.44375       -2.6108930E-05
   65.56250       -2.4239158E-05
   65.68125       -2.2175596E-05
   65.80000       -1.9917432E-05
   65.91875       -1.7463790E-05
   66.03750       -1.4813970E-05
   66.15625       -1.1967845E-05
   66.27500       -8.9260921E-06
   66.39375       -5.6905665E-06
   66.51250       -2.2645586E-06
   66.63125        1.3468887E-06
   66.75000        5.1367529E-06
   66.86875        9.0958056E-06
   66.98750        1.3212466E-05
   67.10625        1.7472667E-05
   67.22500        2.1859782E-05
   67.34375        2.6354654E-05
   67.46250        3.0935626E-05
   67.58125        3.5578680E-05
   67.70000        4.0257564E-05
   67.81875        4.4944107E-05
   67.93750        4.9608436E-05
   68.05625        5.4219352E-05
   68.17500        5.8744710E-05
   68.29375        6.3151827E-05
   68.41250        6.7407949E-05
   68.53125        7.1480688E-05
   68.65000        7.5338554E-05
   68.76875        7.8951402E-05
   68.88750        8.2290928E-05
   69.00625        8.5331136E-05
   69.12500        8.8048735E-05
   69.24375        9.0423579E-05
   69.36250        9.2439019E-05
   69.48125        9.4082214E-05
   69.60000        9.5344330E-05
   69.71875        9.6220814E-05
   69.83750        9.6711439E-05
   69.95625        9.6820440E-05
   70.07500        9.6556432E-05
   70.19375        9.5932373E-05
   70.31250        9.4965420E-05
   70.43125        9.3676739E-05
   70.55000        9.2091206E-05
   70.66875        9.0237118E-05
   70.78750        8.8145869E-05
   70.90625        8.5851498E-05
   71.02500        8.3390303E-05
   71.14375        8.0800361E-05
   71.26250        7.8121084E-05
   71.38125        7.5392672E-05
   71.50000        7.2655668E-05
   71.61875        6.9950504E-05
   71.73750        6.7316927E-05
   71.85625        6.4793589E-05
   71.97500        6.2417559E-05
   72.09375        6.0223920E-05
   72.21250        5.8245321E-05
   72.33125        5.6511610E-05
   72.45000        5.5049466E-05
   72.56875        5.3882111E-05
   72.68750        5.3028991E-05
   72.80625        5.2505566E-05
   72.92500        5.2323099E-05
   73.04375        5.2488518E-05
   73.16250        5.3004311E-05
   73.28125        5.3868480E-05
   73.40000        5.5074543E-05
   73.51875        5.6611614E-05
   73.63750        5.8464499E-05
   73.75625        6.0613882E-05
   73.87500        6.3036568E-05
   73.99375        6.5705761E-05
   74.11250        6.8591376E-05
   74.23125        7.1660492E-05
   74.35000        7.4877695E-05
   74.46875        7.8205601E-05
   74.58750        8.1605300E-05
   74.70625        8.5036918E-05
   74.82500        8.8460067E-05
   74.94375        9.1834452E-05
   75.06250        9.5120296E-05
   75.18125        9.8278928E-05
   75.30000        1.0127316E-04
   75.41875        1.0406780E-04
   75.53750        1.0662999E-04
   75.65625        1.0892960E-04
   75.77500        1.1093947E-04
   75.89375        1.1263564E-04
   76.01250        1.1399761E-04
   76.13125        1.1500831E-04
   76.25000        1.1565426E-04
   76.36875        1.1592553E-04
   76.48750        1.1581564E-04
   76.60625        1.1532155E-04
   76.72500        1.1444341E-04
   76.84375        1.1318441E-04
   76.96250        1.1155059E-04
   77.08125        1.0955060E-04
   77.20000        1.0719541E-04
   77.31875        1.0449810E-04
   77.43750        1.0147359E-04
   77.55625        9.8138422E-05
   77.67500        9.4510484E-05
   77.79375        9.0608839E-05
   77.91250        8.6453496E-05
   78.03125        8.2065228E-05
   78.15000        7.7465455E-05
   78.26875        7.2676063E-05
   78.38750        6.7719331E-05
   78.50625        6.2617815E-05
   78.62500        5.7394263E-05
   78.74375        5.2071577E-05
   78.86250        4.6672722E-05
   78.98125        4.1220716E-05
   79.10000        3.5738540E-05
   79.21875        3.0249112E-05
   79.33750        2.4775225E-05
   79.45625        1.9339492E-05
   79.57500        1.3964259E-05
   79.69375        8.6715418E-06
   79.81250        3.4829222E-06
   79.93125       -1.5805526E-06
   80.05000       -6.4984874E-06
   80.16875       -1.1251263E-05
   80.28750       -1.5820167E-05
   80.40625       -2.0187543E-05
   80.52500       -2.4336909E-05
   80.64375       -2.8253116E-05
   80.76250       -3.1922478E-05
   80.88125       -3.5332898E-05
   81.00000       -3.8473980E-05
   81.11875       -4.1337134E-05
   81.23750       -4.3915661E-05
   81.35625       -4.6204812E-05
   81.47500       -4.8201826E-05
   81.59375       -4.9905939E-05
   81.71250       -5.1318373E-05
   81.83125       -5.2442283E-05
   81.95000       -5.3282700E-05
   82.06875       -5.3846390E-05
   82.18750       -5.4141743E-05
   82.30625       -5.4178614E-05
   82.42500       -5.3968110E-05
   82.54375       -5.3522406E-05
   82.66250       -5.2854499E-05
   82.78125       -5.1977971E-05
   82.90000       -5.0906739E-05
   83.01875       -4.9654802E-05
   83.13750       -4.8235961E-05
   83.25625       -4.6663627E-05
   83.37500       -4.4950557E-05
   83.49375       -4.3108666E-05
   83.61250       -4.1148858E-05
   83.73125       -3.9080882E-05
   83.85000       -3.6913239E-05
   83.96875       -3.4653138E-05
   84.08750       -3.2306481E-05
   84.20625       -2.9877914E-05
   84.32500       -2.7370925E-05
   84.44375       -2.4787973E-05
   84.56250       -2.2130685E-05
   84.68125       -1.9400071E-05
   84.80000       -1.6596785E-05
   84.91875       -1.3721404E-05
   85.03750       -1.0774727E-05
   85.15625       -7.7580780E-06
   85.27500       -4.6736004E-06
   85.39375       -1.5245460E-06
   85.51250        1.6844713E-06
   85.63125        4.9472474E-06
   85.75000        8.2558117E-06
   85.86875        1.1600307E-05
   85.98750        1.4968899E-05
   86.10625        1.8347790E-05
   86.22500        2.1721251E-05
   86.34375        2.5071777E-05
   86.46250        2.8380229E-05
   86.58125        3.1626099E-05
   86.70000        3.4787823E-05
   86.81875        3.7843092E-05
   86.93750        4.0769264E-05
   87.05625        4.3543769E-05
   87.17500        4.6144542E-05
   87.29375        4.8550450E-05
   87.41250        5.0741739E-05
   87.53125        5.2700456E-05
   87.65000        5.4410822E-05
   87.76875        5.5859611E-05
   87.88750        5.7036465E-05
   88.00625        5.7934158E-05
   88.12500        5.8548787E-05
   88.24375        5.8879927E-05
   88.36250        5.8930738E-05
   88.48125        5.8707938E-05
   88.60000        5.8221798E-05
   88.71875        5.7485984E-05
   88.83750        5.6517423E-05
   88.95625        5.5336055E-05
   89.07500        5.3964555E-05
   89.19375        5.2428000E-05
   89.31250        5.0753508E-05
   89.43125        4.8969836E-05
   89.55000        4.7106954E-05
   89.66875        4.5195582E-05
   89.78750        4.3266740E-05
   89.90625        4.1351264E-05
   90.02500        3.9479353E-05
   90.14375        3.7680089E-05
   90.26250        3.5981015E-05
   90.38125        3.4407669E-05
   90.50000        3.2983218E-05
   90.61875        3.1728057E-05
   90.73750        3.0659503E-05
   90.85625        2.9791483E-05
   90.97500        2.9134315E-05
   91.09375        2.8694498E-05
   91.21250        2.8474593E-05
   91.33125        2.8473156E-05
   91.45000        2.8684717E-05
   91.56875        2.9099838E-05
   91.68750        2.9705232E-05
   91.80625        3.0483932E-05
   91.92500        3.1415537E-05
   92.04375        3.2476506E-05
   92.16250        3.3640492E-05
   92.28125        3.4878733E-05
   92.40000        3.6160487E-05
   92.51875        3.7453490E-05
   92.63750        3.8724429E-05
   92.75625        3.9939445E-05
   92.87500        4.1064646E-05
   92.99375        4.2066597E-05
   93.11250        4.2912827E-05
   93.23125        4.3572280E-05
   93.35000        4.4015804E-05
   93.46875        4.4216529E-05
   93.58750        4.4150267E-05
   93.70625        4.3795844E-05
   93.82500        4.3135387E-05
   93.94375        4.2154566E-05
   94.06250        4.0842766E-05
   94.18125        3.9193226E-05
   94.30000        3.7203099E-05
   94.41875        3.4873461E-05
   94.53750        3.2209267E-05
   94.65625        2.9219256E-05
   94.77500        2.5915766E-05
   94.89375        2.2314547E-05
   95.01250        1.8434499E-05
   95.13125        1.4297359E-05
   95.25000        9.9273630E-06
   95.36875        5.3508766E-06
   95.48750        5.9598676E-07
   95.60625       -4.3079135E-06
   95.72500       -9.3305616E-06
   95.84375       -1.4441257E-05
   95.96250       -1.9609291E-05
   96.08125       -2.4804369E-05
   96.20000       -2.9997002E-05
   96.31875       -3.5158875E-05
   96.43750       -4.0263178E-05
   96.55625       -4.5284891E-05
   96.67500       -5.0201026E-05
   96.79375       -5.4990818E-05
   96.91250       -5.9635851E-05
   97.03125       -6.4120126E-05
   97.15000       -6.8430076E-05
   97.26875       -7.2554547E-05
   97.38750       -7.6484655E-05
   97.50625       -8.0213678E-05
   97.62500       -8.3736842E-05
   97.74375       -8.7051107E-05
   97.86250       -9.0154856E-05
   97.98125       -9.3047682E-05
   98.10000       -9.5730007E-05
   98.21875       -9.8202814E-05
   98.33750       -1.0046738E-04
   98.45625       -1.0252492E-04
   98.57500       -1.0437639E-04
   98.69375       -1.0602222E-04
   98.81250       -1.0746216E-04
   98.93125       -1.0869511E-04
   99.05000       -1.0971905E-04
   99.16875       -1.1053102E-04
   99.28750       -1.1112714E-04
   99.40625       -1.1150270E-04
   99.52500       -1.1165225E-04
   99.64375       -1.1156991E-04
   99.76250       -1.1124951E-04
   99.88125       -1.1068489E-04
   100.0000       -1.0987022E-04
   100.1188       -1.0880038E-04
   100.2375       -1.0747123E-04
   100.3562       -1.0587998E-04
   100.4750       -1.0402553E-04
   100.5938       -1.0190882E-04
   100.7125       -9.9533012E-05
   100.8313       -9.6903852E-05
   100.9500       -9.4029747E-05
   101.0687       -9.0921953E-05
   101.1875       -8.7594643E-05
   101.3063       -8.4064879E-05
   101.4250       -8.0352569E-05
   101.5437       -7.6480341E-05
   101.6625       -7.2473267E-05
   101.7812       -6.8358706E-05
   101.9000       -6.4165870E-05
   102.0188       -5.9925525E-05
   102.1375       -5.5669527E-05
   102.2562       -5.1430379E-05
   102.3750       -4.7240748E-05
   102.4938       -4.3132957E-05
   102.6125       -3.9138507E-05
   102.7312       -3.5287554E-05
   102.8500       -3.1608459E-05
   102.9688       -2.8127313E-05
   103.0875       -2.4867535E-05
   103.2063       -2.1849493E-05
   103.3250       -1.9090188E-05