  -4.500000        8.9563970E-20
  -4.381250        7.7743953E-20
  -4.262500       -8.2679002E-16
  -4.143750       -4.2316457E-15
  -4.025000       -1.2797178E-14
  -3.906250       -2.9613539E-14
  -3.787500       -5.7708971E-14
  -3.668750       -9.9269951E-14
  -3.550000       -1.5474754E-13
  -3.431250       -2.2200430E-13
  -3.312500       -2.9569004E-13
  -3.193750       -3.6702331E-13
  -3.075000       -4.2410240E-13
  -2.956250       -4.5276814E-13
  -2.837500       -4.3792137E-13
  -2.718750       -3.6508717E-13
  -2.600000       -2.2193151E-13
  -2.481250        5.7662144E-16
  -2.362500        3.0764220E-13
  -2.243750        7.0095541E-13
  -2.125000        1.1798900E-12
  -2.006250        1.7435224E-12
  -1.887500        2.3932646E-12
  -1.768750        3.1357709E-12
  -1.650000        3.9857631E-12
  -1.531250        4.9682576E-12
  -1.412500        6.1197141E-12
  -1.293750        7.4876485E-12
  -1.175000        9.1281618E-12
  -1.056250        1.1100994E-11
 -0.9375000        1.3461851E-11
 -0.8187500        1.6251930E-11
 -0.7000000        1.9484787E-11
 -0.5812500        2.3131188E-11
 -0.4625000        2.7102834E-11
 -0.3437500        3.1236277E-11
 -0.2250000        3.5278835E-11
 -0.1062500        3.8877915E-11
  1.2500000E-02    4.1576333E-11
  0.1312500        4.2815345E-11
  0.2500000        4.1946977E-11
  0.3687500        3.8258632E-11
  0.4875000        3.1008928E-11
  0.6062500        1.9476891E-11
  0.7250000        3.0244871E-12
  0.8437500       -1.8829870E-11
  0.9625000       -4.6328639E-11
   1.081250       -7.9387573E-11
   1.200000       -1.1750806E-10
   1.318750       -1.5969553E-10
   1.437500       -2.0439532E-10
   1.556250       -2.4945124E-10
   1.675000       -2.9210123E-10
   1.793750       -3.2901851E-10
   1.912500       -3.5640940E-10
   2.031250       -3.7017903E-10
   2.150000       -3.6616371E-10
   2.268750       -3.4044828E-10
   2.387500       -2.8974939E-10
   2.506250       -2.1187481E-10
   2.625000       -1.0624231E-10
   2.743750        2.5563019E-11
   2.862500        1.7920733E-10
   2.981250        3.4704692E-10
   3.100000        5.1759902E-10
   3.218750        6.7511802E-10
   3.337500        7.9927126E-10
   3.456250        8.6501256E-10
   3.575000        8.4265650E-10
   3.693750        6.9818940E-10
   3.812500        3.9386641E-10
   3.931250       -1.1085877E-10
   4.050000       -8.5815927E-10
   4.168750       -1.8902910E-09
   4.287500       -3.2477949E-09
   4.406250       -4.9673958E-09
   4.525000       -7.0797732E-09
   4.643750       -9.6069757E-09
   4.762500       -1.2560009E-08
   4.881250       -1.5936186E-08
   5.000000       -1.9716659E-08
   5.118750       -2.3864176E-08
   5.237500       -2.8320855E-08
   5.356250       -3.3006454E-08
   5.475000       -3.7816982E-08
   5.593750       -4.2623896E-08
   5.712500       -4.7273517E-08
   5.831250       -5.1587044E-08
   5.950000       -5.5361493E-08
   6.068750       -5.8370578E-08
   6.187500       -6.0366425E-08
   6.306250       -6.1081941E-08
   6.425000       -6.0233383E-08
   6.543750       -5.7523756E-08
   6.662500       -5.2645685E-08
   6.781250       -4.5286409E-08
   6.900000       -3.5132210E-08
   7.018750       -2.1872847E-08
   7.137500       -5.2081006E-09
   7.256250        1.5146574E-08
   7.375000        3.9451368E-08
   7.493750        6.7935211E-08
   7.612500        1.0078475E-07
   7.731250        1.3813377E-07
   7.850000        1.8004962E-07
   7.968750        2.2652004E-07
   8.087500        2.7743346E-07
   8.206250        3.3256302E-07
   8.325000        3.9154210E-07
   8.443750        4.5384408E-07
   8.562500        5.1875571E-07
   8.681250        5.8534891E-07
   8.800000        6.5245592E-07
   8.918750        7.1863866E-07
   9.037500        7.8216306E-07
   9.156250        8.4097269E-07
   9.275000        8.9266632E-07
   9.393750        9.3448006E-07
   9.512500        9.6327653E-07
   9.631250        9.7554016E-07
   9.750000        9.6738188E-07
   9.868750        9.3455992E-07
   9.987500        8.7250805E-07
   10.10625        7.7638242E-07
   10.22500        6.4112345E-07
   10.34375        4.6153488E-07
   10.46250        2.3237936E-07
   10.58125       -5.1503200E-08
   10.70000       -3.9506838E-07
   10.81875       -8.0291517E-07
   10.93750       -1.2791254E-06
   11.05625       -1.8270879E-06
   11.17500       -2.4493152E-06
   11.29375       -3.1472573E-06
   11.41250       -3.9211150E-06
   11.53125       -4.7696567E-06
   11.65000       -5.6900490E-06
   11.76875       -6.6777061E-06
   11.88750       -7.7261629E-06
   12.00625       -8.8269699E-06
   12.12500       -9.9696354E-06
   12.24375       -1.1141599E-05
   12.36250       -1.2328263E-05
   12.48125       -1.3513059E-05
   12.60000       -1.4677576E-05
   12.71875       -1.5801734E-05
   12.83750       -1.6864018E-05
   12.95625       -1.7841745E-05
   13.07500       -1.8711406E-05
   13.19375       -1.9449000E-05
   13.31250       -2.0030462E-05
   13.43125       -2.0432060E-05
   13.55000       -2.0630832E-05
   13.66875       -2.0605019E-05
   13.78750       -2.0334504E-05
   13.90625       -1.9801204E-05
   14.02500       -1.8989454E-05
   14.14375       -1.7886341E-05
   14.26250       -1.6481974E-05
   14.38125       -1.4769735E-05
   14.50000       -1.2746406E-05
   14.61875       -1.0412272E-05
   14.73750       -7.7711156E-06
   14.85625       -4.8302113E-06
   14.97500       -1.6001047E-06
   15.09375        1.9055046E-06
   15.21250        5.6700160E-06
   15.33125        9.6742760E-06
   15.45000        1.3896908E-05
   15.56875        1.8314675E-05
   15.68750        2.2902890E-05
   15.80625        2.7635790E-05
   15.92500        3.2486951E-05
   16.04375        3.7429701E-05
   16.16250        4.2437452E-05
   16.28125        4.7484045E-05
   16.40000        5.2544026E-05
   16.51875        5.7592963E-05
   16.63750        6.2607636E-05
   16.75625        6.7566216E-05
   16.87500        7.2448413E-05
   16.99375        7.7235643E-05
   17.11250        8.1911043E-05
   17.23125        8.6459586E-05
   17.35000        9.0868147E-05
   17.46875        9.5125557E-05
   17.58750        9.9222561E-05
   17.70625        1.0315206E-04
   17.82500        1.0690904E-04
   17.94375        1.1049074E-04
   18.06250        1.1389680E-04
   18.18125        1.1712931E-04
   18.30000        1.2019317E-04
   18.41875        1.2309606E-04
   18.53750        1.2584888E-04
   18.65625        1.2846578E-04
   18.77500        1.3096460E-04
   18.89375        1.3336695E-04
   19.01250        1.3569844E-04
   19.13125        1.3798906E-04
   19.25000        1.4027310E-04
   19.36875        1.4258937E-04
   19.48750        1.4498118E-04
   19.60625        1.4749641E-04
   19.72500        1.5018723E-04
   19.84375        1.5310993E-04
   19.96250        1.5632471E-04
   20.08125        1.5989502E-04
   20.20000        1.6388709E-04
   20.31875        1.6836928E-04
   20.43750        1.7341114E-04
   20.55625        1.7908266E-04
   20.67500        1.8545322E-04
   20.79375        1.9259041E-04
   20.91250        2.0055899E-04
   21.03125        2.0941957E-04
   21.15000        2.1922751E-04
   21.26875        2.3003157E-04
   21.38750        2.4187284E-04
   21.50625        2.5478355E-04
   21.62500        2.6878598E-04
   21.74375        2.8389171E-04
   21.86250        3.0010066E-04
   21.98125        3.1740053E-04
   22.10000        3.3576647E-04
   22.21875        3.5516082E-04
   22.33750        3.7553321E-04
   22.45625        3.9682069E-04
   22.57500        4.1894824E-04
   22.69375        4.4182947E-04
   22.81250        4.6536754E-04
   22.93125        4.8945635E-04
   23.05000        5.1398162E-04
   23.16875        5.3882244E-04
   23.28750        5.6385272E-04
   23.40625        5.8894278E-04
   23.52500        6.1396084E-04
   23.64375        6.3877495E-04
   23.76250        6.6325406E-04
   23.88125        6.8726984E-04
   24.00000        7.1069779E-04
   24.11875        7.3341845E-04
   24.23750        7.5531844E-04
   24.35625        7.7629095E-04
   24.47500        7.9623674E-04
   24.59375        8.1506395E-04
   24.71250        8.3268841E-04
   24.83125        8.4903359E-04
   24.95000        8.6403004E-04
   25.06875        8.7761501E-04
   25.18750        8.8973163E-04
   25.30625        9.0032828E-04
   25.42500        9.0935756E-04
   25.54375        9.1677555E-04
   25.66250        9.2254061E-04
   25.78125        9.2661276E-04
   25.90000        9.2895300E-04
   26.01875        9.2952227E-04
   26.13750        9.2828146E-04
   26.25625        9.2519069E-04
   26.37500        9.2020951E-04
   26.49375        9.1329700E-04
   26.61250        9.0441207E-04
   26.73125        8.9351425E-04
   26.85000        8.8056433E-04
   26.96875        8.6552592E-04
   27.08750        8.4836606E-04
   27.20625        8.2905719E-04
   27.32500        8.0757856E-04
   27.44375        7.8391784E-04
   27.56250        7.5807271E-04
   27.68125        7.3005276E-04
   27.80000        6.9988082E-04
   27.91875        6.6759461E-04
   28.03750        6.3324784E-04
   28.15625        5.9691176E-04
   28.27500        5.5867533E-04
   28.39375        5.1864615E-04
   28.51250        4.7695063E-04
   28.63125        4.3373360E-04
   28.75000        3.8915806E-04
   28.86875        3.4340390E-04
   28.98750        2.9666699E-04
   29.10625        2.4915734E-04
   29.22500        2.0109709E-04
   29.34375        1.5271851E-04
   29.46250        1.0426115E-04
   29.58125        5.5969198E-05
   29.70000        8.0888340E-06
   29.81875       -3.9135182E-05
   29.93750       -8.5462067E-05
   30.05625       -1.3065837E-04
   30.17500       -1.7450041E-04
   30.29375       -2.1677752E-04
   30.41250       -2.5729404E-04
   30.53125       -2.9587184E-04
   30.65000       -3.3235204E-04
   30.76875       -3.6659659E-04
   30.88750       -3.9848933E-04
   31.00625       -4.2793679E-04
   31.12500       -4.5486839E-04
   31.24375       -4.7923636E-04
   31.36250       -5.0101511E-04
   31.48125       -5.2020035E-04
   31.60000       -5.3680799E-04
   31.71875       -5.5087195E-04
   31.83750       -5.6244305E-04
   31.95625       -5.7158637E-04
   32.07500       -5.7837932E-04
   32.19375       -5.8290927E-04
   32.31250       -5.8527099E-04
   32.43125       -5.8556476E-04
   32.55000       -5.8389391E-04
   32.66875       -5.8036280E-04
   32.78750       -5.7507539E-04
   32.90625       -5.6813320E-04
   33.02500       -5.5963453E-04
   33.14375       -5.4967328E-04
   33.26250       -5.3833856E-04
   33.38125       -5.2571436E-04
   33.50000       -5.1188003E-04
   33.61875       -4.9691036E-04
   33.73750       -4.8087657E-04
   33.85625       -4.6384748E-04
   33.97500       -4.4589059E-04
   34.09375       -4.2707374E-04
   34.21250       -4.0746649E-04
   34.33125       -3.8714195E-04
   34.45000       -3.6617828E-04
   34.56875       -3.4466007E-04
   34.68750       -3.2268002E-04
   34.80625       -3.0033971E-04
   34.92500       -2.7775092E-04
   35.04375       -2.5503582E-04
   35.16250       -2.3232738E-04
   35.28125       -2.0976916E-04
   35.40000       -1.8751468E-04
   35.51875       -1.6572651E-04
   35.63750       -1.4457478E-04
   35.75625       -1.2423546E-04
   35.87500       -1.0488822E-04
   35.99375       -8.6713822E-05
   36.11250       -6.9891634E-05
   36.23125       -5.4596629E-05
   36.35000       -4.0996241E-05
   36.46875       -2.9247341E-05
   36.58750       -1.9493120E-05
   36.70625       -1.1860167E-05
   36.82500       -6.4555775E-06
   36.94375       -3.3644690E-06
   37.06250       -2.6478135E-06
   37.18125       -4.3405348E-06
   37.30000       -8.4500753E-06
   37.41875       -1.4955574E-05
   37.53750       -2.3807517E-05
   37.65625       -3.4927787E-05
   37.77500       -4.8210375E-05
   37.89375       -6.3522573E-05
   38.01250       -8.0706763E-05
   38.13125       -9.9582481E-05
   38.25000       -1.1994908E-04
   38.36875       -1.4158868E-04
   38.48750       -1.6426934E-04
   38.60625       -1.8774861E-04
   38.72500       -2.1177702E-04
   38.84375       -2.3610180E-04
   38.96250       -2.6047046E-04
   39.08125       -2.8463439E-04
   39.20000       -3.0835194E-04
   39.31875       -3.3139181E-04
   39.43750       -3.5353558E-04
   39.55625       -3.7458015E-04
   39.67500       -3.9433982E-04
   39.79375       -4.1264785E-04
   39.91250       -4.2935752E-04
   40.03125       -4.4434285E-04
   40.15000       -4.5749891E-04
   40.26875       -4.6874167E-04
   40.38750       -4.7800751E-04
   40.50625       -4.8525244E-04
   40.62500       -4.9045094E-04
   40.74375       -4.9359468E-04
   40.86250       -4.9469119E-04
   40.98125       -4.9376214E-04
   41.10000       -4.9084192E-04
   41.21875       -4.8597608E-04
   41.33750       -4.7921983E-04
   41.45625       -4.7063682E-04
   41.57500       -4.6029792E-04
   41.69375       -4.4828025E-04
   41.81250       -4.3466652E-04
   41.93125       -4.1954441E-04
   42.05000       -4.0300636E-04
   42.16875       -3.8514927E-04
   42.28750       -3.6607476E-04
   42.40625       -3.4588925E-04
   42.52500       -3.2470422E-04
   42.64375       -3.0263665E-04
   42.76250       -2.7980914E-04
   42.88125       -2.5635044E-04
   43.00000       -2.3239531E-04
   43.11875       -2.0808485E-04
   43.23750       -1.8356608E-04
   43.35625       -1.5899159E-04
   43.47500       -1.3451884E-04
   43.59375       -1.1030921E-04
   43.71250       -8.6526765E-05
   43.83125       -6.3336644E-05
   43.95000       -4.0903426E-05
   44.06875       -1.9388950E-05
   44.18750        1.0499003E-06
   44.30625        2.0263420E-05
   44.42500        3.8111630E-05
   44.54375        5.4466760E-05
   44.66250        6.9215661E-05
   44.78125        8.2262013E-05
   44.90000        9.3528521E-05
   45.01875        1.0295872E-04
   45.13750        1.1051847E-04
   45.25625        1.1619716E-04
   45.37500        1.2000831E-04
   45.49375        1.2198980E-04
   45.61250        1.2220361E-04
   45.73125        1.2073509E-04
   45.85000        1.1769164E-04
   45.96875        1.1320093E-04
   46.08750        1.0740868E-04
   46.20625        1.0047609E-04
   46.32500        9.2576833E-05
   46.44375        8.3893799E-05
   46.56250        7.4615673E-05
   46.68125        6.4933367E-05
   46.80000        5.5036431E-05
   46.91875        4.5109526E-05
   47.03750        3.5329023E-05
   47.15625        2.5859887E-05
   47.27500        1.6852809E-05
   47.39375        8.4418261E-06
   47.51250        7.4223561E-07
   47.63125       -6.1508663E-06
   47.75000       -1.2163587E-05
   47.86875       -1.7243754E-05
   47.98750       -2.1360827E-05
   48.10625       -2.4505252E-05
   48.22500       -2.6687447E-05
   48.34375       -2.7936225E-05
   48.46250       -2.8296905E-05
   48.58125       -2.7829001E-05
   48.70000       -2.6603757E-05
   48.81875       -2.4701449E-05
   48.93750       -2.2208606E-05
   49.05625       -1.9215218E-05
   49.17500       -1.5812093E-05
   49.29375       -1.2088285E-05
   49.41250       -8.1287653E-06
   49.53125       -4.0125196E-06
   49.65000        1.8923677E-07
   49.76875        4.4141998E-06
   49.88750        8.6099008E-06
   50.00625        1.2734099E-05
   50.12500        1.6754746E-05
   50.24375        2.0649613E-05
   50.36250        2.4405414E-05
   50.48125        2.8016731E-05
   50.60000        3.1484553E-05
   50.71875        3.4814639E-05
   50.83750        3.8015667E-05
   50.95625        4.1097446E-05
   51.07500        4.4068984E-05
   51.19375        4.6936701E-05
   51.31250        4.9702812E-05
   51.43125        5.2363848E-05
   51.55000        5.4909608E-05
   51.66875        5.7322279E-05
   51.78750        5.9576014E-05
   51.90625        6.1636987E-05
   52.02500        6.3463631E-05
   52.14375        6.5007560E-05
   52.26250        6.6214699E-05
   52.38125        6.7026849E-05
   52.50000        6.7383582E-05
   52.61875        6.7224391E-05
   52.73750        6.6490968E-05
   52.85625        6.5129760E-05
   52.97500        6.3094420E-05
   53.09375        6.0348269E-05
   53.21250        5.6866731E-05
   53.33125        5.2639320E-05
   53.45000        4.7671587E-05
   53.56875        4.1986543E-05
   53.68750        3.5625719E-05
   53.80625        2.8649731E-05
   53.92500        2.1138307E-05
   54.04375        1.3189776E-05
   54.16250        4.9200926E-06
   54.28125       -3.5388682E-06
   54.40000       -1.2041357E-05
   54.51875       -2.0430372E-05
   54.63750       -2.8540688E-05
   54.75625       -3.6202164E-05
   54.87500       -4.3243468E-05
   54.99375       -4.9495851E-05
   55.11250       -5.4797019E-05
   55.23125       -5.8995018E-05
   55.35000       -6.1951985E-05
   55.46875       -6.3547595E-05
   55.58750       -6.3682266E-05
   55.70625       -6.2279818E-05
   55.82500       -5.9289770E-05
   55.94375       -5.4688917E-05
   56.06250       -4.8482289E-05
   56.18125       -4.0703555E-05
   56.30000       -3.1414635E-05
   56.41875       -2.0704674E-05
   56.53750       -8.6883056E-06
   56.65625        4.4966191E-06
   56.77500        1.8691904E-05
   56.89375        3.3722405E-05
   57.01250        4.9399699E-05
   57.13125        6.5526176E-05
   57.25000        8.1899168E-05
   57.36875        9.8315293E-05
   57.48750        1.1457453E-04
   57.60625        1.3048433E-04
   57.72500        1.4586331E-04
   57.84375        1.6054454E-04
   57.96250        1.7437844E-04
   58.08125        1.8723511E-04
   58.20000        1.9900597E-04
   58.31875        2.0960484E-04
   58.43750        2.1896839E-04
   58.55625        2.2705582E-04
   58.67500        2.3384808E-04
   58.79375        2.3934637E-04
   58.91250        2.4357029E-04
   59.03125        2.4655540E-04
   59.15000        2.4835058E-04
   59.26875        2.4901514E-04
   59.38750        2.4861578E-04
   59.50625        2.4722354E-04
   59.62500        2.4491092E-04
   59.74375        2.4174913E-04
   59.86250        2.3780584E-04
   59.98125        2.3314303E-04
   60.10000        2.2781552E-04
   60.21875        2.2186994E-04
   60.33750        2.1534419E-04
   60.45625        2.0826758E-04
   60.57500        2.0066129E-04
   60.69375        1.9253964E-04
   60.81250        1.8391153E-04
   60.93125        1.7478240E-04
   61.05000        1.6515650E-04
   61.16875        1.5503934E-04
   61.28750        1.4444035E-04
   61.40625        1.3337530E-04
   61.52500        1.2186891E-04
   61.64375        1.0995704E-04
   61.76250        9.7688615E-05
   61.88125        8.5127183E-05
   62.00000        7.2351977E-05
   62.11875        5.9458322E-05
   62.23750        4.6557616E-05
   62.35625        3.3776552E-05
   62.47500        2.1255806E-05
   62.59375        9.1480497E-06
   62.71250       -2.3845539E-06
   62.83125       -1.3173384E-05
   62.95000       -2.3046807E-05
   63.06875       -3.1833966E-05
   63.18750       -3.9368802E-05
   63.30625       -4.5494184E-05
   63.42500       -5.0065992E-05
   63.54375       -5.2957032E-05
   63.66250       -5.4060834E-05
   63.78125       -5.3294811E-05
   63.90000       -5.0603110E-05
   64.01875       -4.5958754E-05
   64.13750       -3.9365172E-05
   64.25625       -3.0856972E-05
   64.37500       -2.0499914E-05
   64.49375       -8.3901014E-06
   64.61250        5.3475678E-06
   64.73125        2.0561731E-05
   64.85000        3.7077516E-05
   64.96875        5.4700133E-05
   65.08750        7.3218966E-05
   65.20625        9.2411945E-05
   65.32500        1.1205032E-04
   65.44375        1.3190341E-04
   65.56250        1.5174328E-04
   65.68125        1.7134940E-04
   65.80000        1.9051289E-04
   65.91875        2.0904024E-04
   66.03750        2.2675670E-04
   66.15625        2.4350884E-04
   66.27500        2.5916647E-04
   66.39375        2.7362382E-04
   66.51250        2.8680009E-04
   66.63125        2.9863877E-04
   66.75000        3.0910701E-04
   66.86875        3.1819352E-04
   66.98750        3.2590638E-04
   67.10625        3.3227034E-04
   67.22500        3.3732346E-04
   67.34375        3.4111380E-04
   67.46250        3.4369584E-04
   67.58125        3.4512702E-04
   67.70000        3.4546439E-04
   67.81875        3.4476153E-04
   67.93750        3.4306591E-04
   68.05625        3.4041682E-04
   68.17500        3.3684363E-04
   68.29375        3.3236505E-04
   68.41250        3.2698872E-04
   68.53125        3.2071167E-04
   68.65000        3.1352142E-04
   68.76875        3.0539767E-04
   68.88750        2.9631445E-04
   69.00625        2.8624298E-04
   69.12500        2.7515454E-04
   69.24375        2.6302401E-04
   69.36250        2.4983313E-04
   69.48125        2.3557400E-04
   69.60000        2.2025224E-04
   69.71875        2.0389014E-04
   69.83750        1.8652907E-04
   69.95625        1.6823162E-04
   70.07500        1.4908303E-04
   70.19375        1.2919206E-04
   70.31250        1.0869085E-04
   70.43125        8.7734399E-05
   70.55000        6.6498986E-05
   70.66875        4.5179942E-05
   70.78750        2.3988825E-05
   70.90625        3.1498284E-06
   71.02500       -1.7104272E-05
   71.14375       -3.6536516E-05
   71.26250       -5.4910692E-05
   71.38125       -7.1996095E-05
   71.50000       -8.7572633E-05
   71.61875       -1.0143557E-04
   71.73750       -1.1340021E-04
   71.85625       -1.2330596E-04
   71.97500       -1.3102013E-04
   72.09375       -1.3644090E-04
   72.21250       -1.3949969E-04
   72.33125       -1.4016280E-04
   72.45000       -1.3843205E-04
   72.56875       -1.3434472E-04
   72.68750       -1.2797269E-04
   72.80625       -1.1942069E-04
   72.92500       -1.0882374E-04
   73.04375       -9.6344091E-05
   73.16250       -8.2167469E-05
   73.28125       -6.6498877E-05
   73.40000       -4.9558028E-05
   73.51875       -3.1574640E-05
   73.63750       -1.2783560E-05
   73.75625        6.5798963E-06
   73.87500        2.6284613E-05
   73.99375        4.6107813E-05
   74.11250        6.5838867E-05
   74.23125        8.5282525E-05
   74.35000        1.0426155E-04
   74.46875        1.2261869E-04
   74.58750        1.4021780E-04
   74.70625        1.5694450E-04
   74.82500        1.7270577E-04
   74.94375        1.8742921E-04
   75.06250        2.0106137E-04
   75.18125        2.1356570E-04
   75.30000        2.2492011E-04
   75.41875        2.3511382E-04
   75.53750        2.4414441E-04
   75.65625        2.5201443E-04
   75.77500        2.5872828E-04
   75.89375        2.6428883E-04
   76.01250        2.6869480E-04
   76.13125        2.7193816E-04
   76.25000        2.7400203E-04
   76.36875        2.7485914E-04
   76.48750        2.7447115E-04
   76.60625        2.7278817E-04
   76.72500        2.6974920E-04
   76.84375        2.6528345E-04
   76.96250        2.5931181E-04
   77.08125        2.5174936E-04
   77.20000        2.4250821E-04
   77.31875        2.3150096E-04
   77.43750        2.1864424E-04
   77.55625        2.0386283E-04
   77.67500        1.8709376E-04
   77.79375        1.6829034E-04
   77.91250        1.4742625E-04
   78.03125        1.2449923E-04
   78.15000        9.9534460E-05
   78.26875        7.2587500E-05
   78.38750        4.3746528E-05
   78.50625        1.3133978E-05
   78.62500       -1.9092493E-05
   78.74375       -5.2740030E-05
   78.86250       -8.7581247E-05
   78.98125       -1.2335583E-04
   79.10000       -1.5977297E-04
   79.21875       -1.9651439E-04
   79.33750       -2.3323858E-04
   79.45625       -2.6958506E-04
   79.57500       -3.0517974E-04
   79.69375       -3.3964048E-04
   79.81250       -3.7258310E-04
   79.93125       -4.0362761E-04
   80.05000       -4.3240419E-04
   80.16875       -4.5855987E-04
   80.28750       -4.8176423E-04
   80.40625       -5.0171517E-04
   80.52500       -5.1814428E-04
   80.64375       -5.3082127E-04
   80.76250       -5.3955830E-04
   80.88125       -5.4421317E-04
   81.00000       -5.4469163E-04
   81.11875       -5.4094929E-04
   81.23750       -5.3299201E-04
   81.35625       -5.2087608E-04
   81.47500       -5.0470699E-04
   81.59375       -4.8463768E-04
   81.71250       -4.6086591E-04
   81.83125       -4.3363095E-04
   81.95000       -4.0320947E-04
   82.06875       -3.6991146E-04
   82.18750       -3.3407495E-04
   82.30625       -2.9606125E-04
   82.42500       -2.5624933E-04
   82.54375       -2.1503067E-04
   82.66250       -1.7280391E-04
   82.78125       -1.2996957E-04
   82.90000       -8.6925400E-05
   83.01875       -4.4061613E-05
   83.13750       -1.7568474E-06
   83.25625        3.9625513E-05
   83.37500        7.9740603E-05
   83.49375        1.1826475E-04
   83.61250        1.5489759E-04
   83.73125        1.8936368E-04
   83.85000        2.2141384E-04
   83.96875        2.5082583E-04
   84.08750        2.7740476E-04
   84.20625        3.0098297E-04
   84.32500        3.2141994E-04
   84.44375        3.3860188E-04
   84.56250        3.5244098E-04
   84.68125        3.6287497E-04
   84.80000        3.6986609E-04
   84.91875        3.7340066E-04
   85.03750        3.7348832E-04
   85.15625        3.7016132E-04
   85.27500        3.6347436E-04
   85.39375        3.5350383E-04
   85.51250        3.4034773E-04
   85.63125        3.2412529E-04
   85.75000        3.0497689E-04
   85.86875        2.8306365E-04
   85.98750        2.5856734E-04
   86.10625        2.3169001E-04
   86.22500        2.0265339E-04
   86.34375        1.7169835E-04
   86.46250        1.3908393E-04
   86.58125        1.0508621E-04
   86.70000        6.9996757E-05
   86.81875        3.4120942E-05
   86.93750       -2.2242730E-06
   87.05625       -3.8712857E-05
   87.17500       -7.5012460E-05
   87.29375       -1.1078759E-04
   87.41250       -1.4570294E-04
   87.53125       -1.7942711E-04
   87.65000       -2.1163627E-04
   87.76875       -2.4201805E-04
   87.88750       -2.7027546E-04
   88.00625       -2.9613060E-04
   88.12500       -3.1932839E-04
   88.24375       -3.3963993E-04
   88.36250       -3.5686552E-04
   88.48125       -3.7083746E-04
   88.60000       -3.8142208E-04
   88.71875       -3.8852147E-04
   88.83750       -3.9207452E-04
   88.95625       -3.9205758E-04
   89.07500       -3.8848401E-04
   89.19375       -3.8140363E-04
   89.31250       -3.7090131E-04
   89.43125       -3.5709492E-04
   89.55000       -3.4013309E-04
   89.66875       -3.2019211E-04
   89.78750       -2.9747287E-04
   89.90625       -2.7219718E-04
   90.02500       -2.4460410E-04
   90.14375       -2.1494614E-04
   90.26250       -1.8348542E-04
   90.38125       -1.5049007E-04
   90.50000       -1.1623057E-04
   90.61875       -8.0976592E-05
   90.73750       -4.4994100E-05
   90.85625       -8.5427801E-06
   90.97500        2.8126047E-05
   91.09375        6.4771077E-05
   91.21250        1.0116229E-04
   91.33125        1.3708172E-04
   91.45000        1.7232385E-04
   91.56875        2.0669564E-04
   91.68750        2.4001631E-04
   91.80625        2.7211680E-04
   91.92500        3.0283924E-04
   92.04375        3.3203597E-04
   92.16250        3.5956901E-04
   92.28125        3.8530919E-04
   92.40000        4.0913574E-04
   92.51875        4.3093567E-04
   92.63750        4.5060381E-04
   92.75625        4.6804274E-04
   92.87500        4.8316328E-04
   92.99375        4.9588497E-04
   93.11250        5.0613715E-04
   93.23125        5.1385991E-04
   93.35000        5.1900564E-04
   93.46875        5.2154058E-04
   93.58750        5.2144600E-04
   93.70625        5.1872031E-04
   93.82500        5.1338022E-04
   93.94375        5.0546258E-04
   94.06250        4.9502496E-04
   94.18125        4.8214721E-04
   94.30000        4.6693149E-04
   94.41875        4.4950284E-04
   94.53750        4.3000845E-04
   94.65625        4.0861726E-04
   94.77500        3.8551836E-04
   94.89375        3.6091942E-04
   95.01250        3.3504431E-04
   95.13125        3.0813043E-04
   95.25000        2.8042559E-04
   95.36875        2.5218460E-04
   95.48750        2.2366557E-04
   95.60625        1.9512609E-04
   95.72500        1.6681934E-04
   95.84375        1.3899022E-04
   95.96250        1.1187153E-04
   96.08125        8.5680629E-05
   96.20000        6.0616123E-05
   96.31875        3.6855159E-05
   96.43750        1.4551144E-05
   96.55625       -6.1680803E-06
   96.67500       -2.5201271E-05
   96.79375       -4.2474421E-05
   96.91250       -5.7940699E-05
   97.03125       -7.1579751E-05
   97.15000       -8.3396451E-05
   97.26875       -9.3419185E-05
   97.38750       -1.0169759E-04
   97.50625       -1.0829991E-04
   97.62500       -1.1331008E-04
   97.74375       -1.1682459E-04
   97.86250       -1.1894919E-04
   97.98125       -1.1979570E-04
   98.10000       -1.1947876E-04
   98.21875       -1.1811286E-04
   98.33750       -1.1580959E-04
   98.45625       -1.1267526E-04
   98.57500       -1.0880890E-04
   98.69375       -1.0430068E-04
   98.81250       -9.9230878E-05
   98.93125       -9.3669340E-05
   99.05000       -8.7675333E-05
   99.16875       -8.1297978E-05
   99.28750       -7.4577125E-05
   99.40625       -6.7544461E-05
   99.52500       -6.0225189E-05
   99.64375       -5.2639738E-05
   99.76250       -4.4805773E-05
   99.88125       -3.6740261E-05
   100.0000       -2.8461545E-05
   100.1188       -1.9991323E-05
   100.2375       -1.1356477E-05
   100.3562       -2.5906793E-06
   100.4750        6.2643817E-06
   100.5938        1.5158008E-05
   100.7125        2.4030043E-05
   100.8313        3.2810742E-05
   100.9500        4.1421132E-05
   101.0687        4.9773840E-05
   101.1875        5.7774309E-05
   101.3063        6.5322398E-05
   101.4250        7.2314411E-05
   101.5437        7.8645258E-05
   101.6625        8.4211024E-05
   101.7812        8.8911547E-05
   101.9000        9.2653128E-05
   102.0188        9.5351177E-05
   102.1375        9.6932847E-05
   102.2562        9.7339333E-05
   102.3750        9.6528063E-05
   102.4938        9.4474388E-05
   102.6125        9.1173068E-05
   102.7312        8.6639149E-05
   102.8500        8.0908452E-05
   102.9688        7.4037518E-05
   103.0875        6.6103035E-05
   103.2063        5.7200821E-05
   103.3250        4.7444250E-05