  -4.500000        2.9010686E-18
  -4.381250        2.9077067E-18
  -4.262500        3.9571663E-18
  -4.143750       -3.9814056E-18
  -4.025000       -6.1303844E-17
  -3.906250       -2.5305109E-16
  -3.787500       -7.0453538E-16
  -3.668750       -1.5502972E-15
  -3.550000       -2.8794305E-15
  -3.431250       -4.6725268E-15
  -3.312500       -6.7536453E-15
  -3.193750       -8.7806171E-15
  -3.075000       -1.0287429E-14
  -2.956250       -1.0775811E-14
  -2.837500       -9.8348953E-15
  -2.718750       -7.2546127E-15
  -2.600000       -3.0955766E-15
  -2.481250        2.3124101E-15
  -2.362500        8.4517710E-15
  -2.243750        1.4763850E-14
  -2.125000        2.0826826E-14
  -2.006250        2.6522031E-14
  -1.887500        3.2150579E-14
  -1.768750        3.8479152E-14
  -1.650000        4.6716540E-14
  -1.531250        5.8443383E-14
  -1.412500        7.5528762E-14
  -1.293750        1.0006478E-13
  -1.175000        1.3433470E-13
  -1.056250        1.8080908E-13
 -0.9375000        2.4214325E-13
 -0.8187500        3.2114272E-13
 -0.7000000        4.2066952E-13
 -0.5812500        5.4348561E-13
 -0.4625000        6.9206685E-13
 -0.3437500        8.6845217E-13
 -0.2250000        1.0742219E-12
 -0.1062500        1.3107053E-12
  1.2500000E-02    1.5795052E-12
  0.1312500        1.8833971E-12
  0.2500000        2.2276189E-12
  0.3687500        2.6215232E-12
  0.4875000        3.0805256E-12
  0.6062500        3.6282485E-12
  0.7250000        4.2987371E-12
  0.8437500        5.1386053E-12
  0.9625000        6.2089240E-12
   1.081250        7.5866822E-12
   1.200000        9.3655569E-12
   1.318750        1.1655796E-11
   1.437500        1.4582970E-11
   1.556250        1.8285432E-11
   1.675000        2.2910446E-11
   1.793750        2.8608990E-11
   1.912500        3.5529513E-11
   2.031250        4.3810962E-11
   2.150000        5.3575481E-11
   2.268750        6.4921193E-11
   2.387500        7.7915480E-11
   2.506250        9.2588548E-11
   2.625000        1.0892739E-10
   2.743750        1.2686942E-10
   2.862500        1.4629485E-10
   2.981250        1.6701711E-10
   3.100000        1.8876971E-10
   3.218750        2.1118937E-10
   3.337500        2.3379437E-10
   3.456250        2.5595887E-10
   3.575000        2.7688404E-10
   3.693750        2.9556832E-10
   3.812500        3.1078054E-10
   3.931250        3.2103989E-10
   4.050000        3.2460792E-10
   4.168750        3.1949948E-10
   4.287500        3.0351771E-10
   4.406250        2.7431932E-10
   4.525000        2.2951437E-10
   4.643750        1.6680385E-10
   4.762500        8.4153670E-11
   4.881250       -1.9997193E-11
   5.000000       -1.4650246E-10
   5.118750       -2.9526132E-10
   5.237500       -4.6497398E-10
   5.356250       -6.5292177E-10
   5.475000       -8.5479701E-10
   5.593750       -1.0646082E-09
   5.712500       -1.2746879E-09
   5.831250       -1.4758268E-09
   5.950000       -1.6575568E-09
   6.068750       -1.8085905E-09
   6.187500       -1.9174151E-09
   6.306250       -1.9730366E-09
   6.425000       -1.9658322E-09
   6.543750       -1.8884718E-09
   6.662500       -1.7368373E-09
   6.781250       -1.5108643E-09
   6.900000       -1.2152035E-09
   7.018750       -8.5960089E-10
   7.137500       -4.5890416E-10
   7.256250       -3.2563858E-11
   7.375000        3.9640588E-10
   7.493750        8.0310758E-10
   7.612500        1.1630702E-09
   7.731250        1.4551546E-09
   7.850000        1.6649723E-09
   7.968750        1.7886568E-09
   8.087500        1.8367474E-09
   8.206250        1.8379031E-09
   8.325000        1.8420661E-09
   8.443750        1.9226958E-09
   8.562500        2.1775841E-09
   8.681250        2.7278624E-09
   8.800000        3.7147223E-09
   8.918750        5.2935474E-09
   9.037500        7.6251574E-09
   9.156250        1.0864064E-08
   9.275000        1.5143838E-08
   9.393750        2.0559815E-08
   9.512500        2.7149765E-08
   9.631250        3.4873203E-08
   9.750000        4.3590553E-08
   9.868750        5.3043369E-08
   9.987500        6.2837103E-08
   10.10625        7.2428314E-08
   10.22500        8.1117967E-08
   10.34375        8.8052531E-08
   10.46250        9.2234956E-08
   10.58125        9.2546451E-08
   10.70000        8.7780862E-08
   10.81875        7.6691670E-08
   10.93750        5.8052393E-08
   11.05625        3.0729172E-08
   11.17500       -6.2356356E-09
   11.29375       -5.3530535E-08
   11.41250       -1.1147625E-07
   11.53125       -1.7992494E-07
   11.65000       -2.5816146E-07
   11.76875       -3.4481238E-07
   11.88750       -4.3776760E-07
   12.00625       -5.3412060E-07
   12.12500       -6.3013294E-07
   12.24375       -7.2122839E-07
   12.36250       -8.0202091E-07
   12.48125       -8.6638158E-07
   12.60000       -9.0754395E-07
   12.71875       -9.1825387E-07
   12.83750       -8.9095749E-07
   12.95625       -8.1803006E-07
   13.07500       -6.9203702E-07
   13.19375       -5.0602449E-07
   13.31250       -2.5382823E-07
   13.43125        6.9606337E-08
   13.55000        4.6790711E-07
   13.66875        9.4297121E-07
   13.78750        1.4946868E-06
   13.90625        2.1206968E-06
   14.02500        2.8162131E-06
   14.14375        3.5738969E-06
   14.26250        4.3838145E-06
   14.38125        5.2334708E-06
   14.50000        6.1079404E-06
   14.61875        6.9900839E-06
   14.73750        7.8608591E-06
   14.85625        8.6997170E-06
   14.97500        9.4850775E-06
   15.09375        1.0194880E-05
   15.21250        1.0807184E-05
   15.33125        1.1300808E-05
   15.45000        1.1655990E-05
   15.56875        1.1855032E-05
   15.68750        1.1882946E-05
   15.80625        1.1728011E-05
   15.92500        1.1382301E-05
   16.04375        1.0842085E-05
   16.16250        1.0108137E-05
   16.28125        9.1859047E-06
   16.40000        8.0855452E-06
   16.51875        6.8218114E-06
   16.63750        5.4137872E-06
   16.75625        3.8844696E-06
   16.87500        2.2602183E-06
   16.99375        5.7007219E-07
   17.11250       -1.1550375E-06
   17.23125       -2.8831678E-06
   17.35000       -4.5822953E-06
   17.46875       -6.2212835E-06
   17.58750       -7.7708382E-06
   17.70625       -9.2044347E-06
   17.82500       -1.0499164E-05
   17.94375       -1.1636481E-05
   18.06250       -1.2602825E-05
   18.18125       -1.3390076E-05
   18.30000       -1.3995826E-05
   18.41875       -1.4423467E-05
   18.53750       -1.4682070E-05
   18.65625       -1.4786057E-05
   18.77500       -1.4754676E-05
   18.89375       -1.4611279E-05
   19.01250       -1.4382451E-05
   19.13125       -1.4096978E-05
   19.25000       -1.3784726E-05
   19.36875       -1.3475445E-05
   19.48750       -1.3197516E-05
   19.60625       -1.2976773E-05
   19.72500       -1.2835337E-05
   19.84375       -1.2790551E-05
   19.96250       -1.2854111E-05
   20.08125       -1.3031342E-05
   20.20000       -1.3320696E-05
   20.31875       -1.3713523E-05
   20.43750       -1.4194065E-05
   20.55625       -1.4739771E-05
   20.67500       -1.5321872E-05
   20.79375       -1.5906196E-05
   20.91250       -1.6454300E-05
   21.03125       -1.6924765E-05
   21.15000       -1.7274722E-05
   21.26875       -1.7461503E-05
   21.38750       -1.7444407E-05
   21.50625       -1.7186485E-05
   21.62500       -1.6656339E-05
   21.74375       -1.5829817E-05
   21.86250       -1.4691587E-05
   21.98125       -1.3236525E-05
   22.10000       -1.1470823E-05
   22.21875       -9.4128327E-06
   22.33750       -7.0935657E-06
   22.45625       -4.5568049E-06
   22.57500       -1.8588445E-06
   22.69375        9.3217949E-07
   22.81250        3.7373609E-06
   22.93125        6.4684682E-06
   23.05000        9.0297817E-06
   23.16875        1.1320221E-05
   23.28750        1.3235767E-05
   23.40625        1.4672128E-05
   23.52500        1.5527499E-05
   23.64375        1.5705489E-05
   23.76250        1.5117971E-05
   23.88125        1.3687904E-05
   24.00000        1.1352023E-05
   24.11875        8.0632490E-06
   24.23750        3.7928280E-06
   24.35625       -1.4679141E-06
   24.47500       -7.7062286E-06
   24.59375       -1.4887106E-05
   24.71250       -2.2952938E-05
   24.83125       -3.1823718E-05
   24.95000       -4.1397823E-05
   25.06875       -5.1553317E-05
   25.18750       -6.2149797E-05
   25.30625       -7.3030766E-05
   25.42500       -8.4026433E-05
   25.54375       -9.4956893E-05
   25.66250       -1.0563572E-04
   25.78125       -1.1587376E-04
   25.90000       -1.2548304E-04
   26.01875       -1.3428090E-04
   26.13750       -1.4209384E-04
   26.25625       -1.4876160E-04
   26.37500       -1.5414071E-04
   26.49375       -1.5810794E-04
   26.61250       -1.6056317E-04
   26.73125       -1.6143196E-04
   26.85000       -1.6066757E-04
   26.96875       -1.5825219E-04
   27.08750       -1.5419783E-04
   27.20625       -1.4854634E-04
   27.32500       -1.4136882E-04
   27.44375       -1.3276441E-04
   27.56250       -1.2285850E-04
   27.68125       -1.1180017E-04
   27.80000       -9.9759243E-05
   27.91875       -8.6922853E-05
   28.03750       -7.3491567E-05
   28.15625       -5.9675265E-05
   28.27500       -4.5688794E-05
   28.39375       -3.1747524E-05
   28.51250       -1.8062945E-05
   28.63125       -4.8383472E-06
   28.75000        7.7352724E-06
   28.86875        1.9482990E-05
   28.98750        3.0249286E-05
   29.10625        3.9900970E-05
   29.22500        4.8329486E-05
   29.34375        5.5452670E-05
   29.46250        6.1215826E-05
   29.58125        6.5592190E-05
   29.70000        6.8582667E-05
   29.81875        7.0215028E-05
   29.93750        7.0542359E-05
   30.05625        6.9641072E-05
   30.17500        6.7608307E-05
   30.29375        6.4558975E-05
   30.41250        6.0622366E-05
   30.53125        5.5938595E-05
   30.65000        5.0654788E-05
   30.76875        4.4921282E-05
   30.88750        3.8887807E-05
   31.00625        3.2699831E-05
   31.12500        2.6495145E-05
   31.24375        2.0400721E-05
   31.36250        1.4530002E-05
   31.48125        8.9806190E-06
   31.60000        3.8326320E-06
   31.71875       -8.5269397E-07
   31.83750       -5.0335511E-06
   31.95625       -8.6876735E-06
   32.07500       -1.1811870E-05
   32.19375       -1.4421006E-05
   32.31250       -1.6546506E-05
   32.43125       -1.8234408E-05
   32.55000       -1.9543009E-05
   32.66875       -2.0540265E-05
   32.78750       -2.1300890E-05
   32.90625       -2.1903352E-05
   33.02500       -2.2426833E-05
   33.14375       -2.2948163E-05
   33.26250       -2.3538949E-05
   33.38125       -2.4262852E-05
   33.50000       -2.5173151E-05
   33.61875       -2.6310652E-05
   33.73750       -2.7702037E-05
   33.85625       -2.9358589E-05
   33.97500       -3.1275446E-05
   34.09375       -3.3431301E-05
   34.21250       -3.5788660E-05
   34.33125       -3.8294565E-05
   34.45000       -4.0881750E-05
   34.56875       -4.3470289E-05
   34.68750       -4.5969606E-05
   34.80625       -4.8280810E-05
   34.92500       -5.0299353E-05
   35.04375       -5.1917817E-05
   35.16250       -5.3028871E-05
   35.28125       -5.3528300E-05
   35.40000       -5.3317959E-05
   35.51875       -5.2308646E-05
   35.63750       -5.0422819E-05
   35.75625       -4.7597052E-05
   35.87500       -4.3784163E-05
   35.99375       -3.8955037E-05
   36.11250       -3.3099968E-05
   36.23125       -2.6229629E-05
   36.35000       -1.8375549E-05
   36.46875       -9.5900959E-06
   36.58750        5.4022973E-08
   36.70625        1.0464730E-05
   36.82500        2.1532000E-05
   36.94375        3.3129741E-05
   37.06250        4.5118053E-05
   37.18125        5.7345849E-05
   37.30000        6.9653746E-05
   37.41875        8.1877231E-05
   37.53750        9.3849958E-05
   37.65625        1.0540718E-04
   37.77500        1.1638916E-04
   37.89375        1.2664463E-04
   38.01250        1.3603398E-04
   38.13125        1.4443236E-04
   38.25000        1.5173253E-04
   38.36875        1.5784721E-04
   38.48750        1.6271134E-04
   38.60625        1.6628351E-04
   38.72500        1.6854719E-04
   38.84375        1.6951136E-04
   38.96250        1.6921049E-04
   39.08125        1.6770398E-04
   39.20000        1.6507522E-04
   39.31875        1.6142975E-04
   39.43750        1.5689319E-04
   39.55625        1.5160850E-04
   39.67500        1.4573291E-04
   39.79375        1.3943427E-04
   39.91250        1.3288739E-04
   40.03125        1.2626985E-04
   40.15000        1.1975790E-04
   40.26875        1.1352220E-04
   40.38750        1.0772363E-04
   40.50625        1.0250936E-04
   40.62500        9.8009106E-05
   40.74375        9.4331750E-05
   40.86250        9.1562484E-05
   40.98125        8.9760433E-05
   41.10000        8.8956956E-05
   41.21875        8.9154571E-05
   41.33750        9.0326612E-05
   41.45625        9.2417591E-05
   41.57500        9.5344396E-05
   41.69375        9.8998076E-05
   41.81250        1.0324644E-04
   41.93125        1.0793726E-04
   42.05000        1.1290194E-04
   42.16875        1.1795988E-04
   42.28750        1.2292292E-04
   42.40625        1.2760035E-04
   42.52500        1.3180380E-04
   42.64375        1.3535230E-04
   42.76250        1.3807711E-04
   42.88125        1.3982634E-04
   43.00000        1.4046906E-04
   43.11875        1.3989919E-04
   43.23750        1.3803838E-04
   43.35625        1.3483853E-04
   43.47500        1.3028333E-04
   43.59375        1.2438904E-04
   43.71250        1.1720444E-04
   43.83125        1.0880981E-04
   43.95000        9.9315243E-05
   44.06875        8.8857931E-05
   44.18750        7.7598903E-05
   44.30625        6.5719032E-05
   44.42500        5.3414482E-05
   44.54375        4.0891704E-05
   44.66250        2.8362228E-05
   44.78125        1.6037202E-05
   44.90000        4.1219982E-06
   45.01875       -7.1890795E-06
   45.13750       -1.7717764E-05
   45.25625       -2.7306411E-05
   45.37500       -3.5821955E-05
   45.49375       -4.3159267E-05
   45.61250       -4.9243703E-05
   45.73125       -5.4032796E-05
   45.85000       -5.7517143E-05
   45.96875       -5.9720267E-05
   46.08750       -6.0697635E-05
   46.20625       -6.0534774E-05
   46.32500       -5.9344569E-05
   46.44375       -5.7263747E-05
   46.56250       -5.4448759E-05
   46.68125       -5.1071096E-05
   46.80000       -4.7312147E-05
   46.91875       -4.3357908E-05
   47.03750       -3.9393457E-05
   47.15625       -3.5597473E-05
   47.27500       -3.2137104E-05
   47.39375       -2.9162989E-05
   47.51250       -2.6804868E-05
   47.63125       -2.5167854E-05
   47.75000       -2.4329325E-05
   47.86875       -2.4336709E-05
   47.98750       -2.5206080E-05
   48.10625       -2.6921784E-05
   48.22500       -2.9436931E-05
   48.34375       -3.2674816E-05
   48.46250       -3.6531223E-05
   48.58125       -4.0877600E-05
   48.70000       -4.5564935E-05
   48.81875       -5.0428283E-05
   48.93750       -5.5291755E-05
   49.05625       -5.9973958E-05
   49.17500       -6.4293527E-05
   49.29375       -6.8074842E-05
   49.41250       -7.1153510E-05
   49.53125       -7.3381678E-05
   49.65000       -7.4632873E-05
   49.76875       -7.4806332E-05
   49.88750       -7.3830604E-05
   50.00625       -7.1666364E-05
   50.12500       -6.8308393E-05
   50.24375       -6.3786567E-05
   50.36250       -5.8165879E-05
   50.48125       -5.1545481E-05
   50.60000       -4.4056735E-05
   50.71875       -3.5860336E-05
   50.83750       -2.7142554E-05
   50.95625       -1.8110721E-05
   51.07500       -8.9880268E-06
   51.19375       -7.8076328E-09
   51.31250        8.5925685E-06
   51.43125        1.6578046E-05
   51.55000        2.3722239E-05
   51.66875        2.9813755E-05
   51.78750        3.4662135E-05
   51.90625        3.8103448E-05
   52.02500        4.0005190E-05
   52.14375        4.0270523E-05
   52.26250        3.8841521E-05
   52.38125        3.5701629E-05
   52.50000        3.0876861E-05
   52.61875        2.4436080E-05
   52.73750        1.6489988E-05
   52.85625        7.1891282E-06
   52.97500       -3.2793027E-06
   53.09375       -1.4695563E-05
   53.21250       -2.6812517E-05
   53.33125       -3.9361534E-05
   53.45000       -5.2059055E-05
   53.56875       -6.4613669E-05
   53.68750       -7.6733573E-05
   53.80625       -8.8134060E-05
   53.92500       -9.8545017E-05
   54.04375       -1.0771815E-04
   54.16250       -1.1543374E-04
   54.28125       -1.2150679E-04
   54.40000       -1.2579223E-04
   54.51875       -1.2818926E-04
   54.63750       -1.2864459E-04
   54.75625       -1.2715434E-04
   54.87500       -1.2376482E-04
   54.99375       -1.1857185E-04
   55.11250       -1.1171881E-04
   55.23125       -1.0339343E-04
   55.35000       -9.3823284E-05
   55.46875       -8.3270243E-05
   55.58750       -7.2023860E-05
   55.70625       -6.0394032E-05
   55.82500       -4.8702968E-05
   55.94375       -3.7276754E-05
   56.06250       -2.6436743E-05
   56.18125       -1.6490978E-05
   56.30000       -7.7259201E-06
   56.41875       -3.9862510E-07
   56.53750        5.2703140E-06
   56.65625        9.1028733E-06
   56.77500        1.0968681E-05
   56.89375        1.0788779E-05
   57.01250        8.5380425E-06
   57.13125        4.2461670E-06
   57.25000       -2.0028338E-06
   57.36875       -1.0072623E-05
   57.48750       -1.9777926E-05
   57.60625       -3.0889303E-05
   57.72500       -4.3139131E-05
   57.84375       -5.6228673E-05
   57.96250       -6.9835973E-05
   58.08125       -8.3624494E-05
   58.20000       -9.7252152E-05
   58.31875       -1.1038050E-04
   58.43750       -1.2268391E-04
   58.55625       -1.3385843E-04
   58.67500       -1.4362999E-04
   58.79375       -1.5176201E-04
   58.91250       -1.5806177E-04
   59.03125       -1.6238577E-04
   59.15000       -1.6464374E-04
   59.26875       -1.6480118E-04
   59.38750       -1.6288034E-04
   59.50625       -1.5895987E-04
   59.62500       -1.5317260E-04
   59.74375       -1.4570223E-04
   59.86250       -1.3677831E-04
   59.98125       -1.2667022E-04
   60.10000       -1.1567993E-04
   60.21875       -1.0413399E-04
   60.33750       -9.2374685E-05
   60.45625       -8.0750993E-05
   60.57500       -6.9609217E-05
   60.69375       -5.9283764E-05
   60.81250       -5.0088209E-05
   60.93125       -4.2306980E-05
   61.05000       -3.6187819E-05
   61.16875       -3.1935244E-05
   61.28750       -2.9705143E-05
   61.40625       -2.9600726E-05
   61.52500       -3.1669861E-05
   61.64375       -3.5903860E-05
   61.76250       -4.2237789E-05
   61.88125       -5.0552233E-05
   62.00000       -6.0676492E-05
   62.11875       -7.2393064E-05
   62.23750       -8.5443353E-05
   62.35625       -9.9534402E-05
   62.47500       -1.1434641E-04
   62.59375       -1.2954092E-04
   62.71250       -1.4476942E-04
   62.83125       -1.5968212E-04
   62.95000       -1.7393666E-04
   63.06875       -1.8720645E-04
   63.18750       -1.9918868E-04
   63.30625       -2.0961151E-04
   63.42500       -2.1824041E-04
   63.54375       -2.2488346E-04
   63.66250       -2.2939552E-04
   63.78125       -2.3168112E-04
   63.90000       -2.3169610E-04
   64.01875       -2.2944796E-04
   64.13750       -2.2499477E-04
   64.25625       -2.1844298E-04
   64.37500       -2.0994399E-04
   64.49375       -1.9968968E-04
   64.61250       -1.8790698E-04
   64.73125       -1.7485175E-04
   64.85000       -1.6080194E-04
   64.96875       -1.4605043E-04
   65.08750       -1.3089764E-04
   65.20625       -1.1564405E-04
   65.32500       -1.0058303E-04
   65.44375       -8.5993801E-05
   65.56250       -7.2135037E-05
   65.68125       -5.9239181E-05
   65.80000       -4.7507427E-05
   65.91875       -3.7105699E-05
   66.03750       -2.8161599E-05
   66.15625       -2.0762407E-05
   66.27500       -1.4954139E-05
   66.39375       -1.0741724E-05
   66.51250       -8.0902009E-06
   66.63125       -6.9269436E-06
   66.75000       -7.1447994E-06
   66.86875       -8.6060554E-06
   66.98750       -1.1147135E-05
   67.10625       -1.4583855E-05
   67.22500       -1.8717092E-05
   67.34375       -2.3338767E-05
   67.46250       -2.8237919E-05
   67.58125       -3.3206714E-05
   67.70000       -3.8046288E-05
   67.81875       -4.2572206E-05
   67.93750       -4.6619425E-05
   68.05625       -5.0046649E-05
   68.17500       -5.2739924E-05
   68.29375       -5.4615470E-05
   68.41250       -5.5621560E-05
   68.53125       -5.5739521E-05
   68.65000       -5.4983790E-05
   68.76875       -5.3400974E-05
   68.88750       -5.1068066E-05
   69.00625       -4.8089798E-05
   69.12500       -4.4595196E-05
   69.24375       -4.0733466E-05
   69.36250       -3.6669342E-05
   69.48125       -3.2577969E-05
   69.60000       -2.8639508E-05
   69.71875       -2.5033592E-05
   69.83750       -2.1933834E-05
   69.95625       -1.9502395E-05
   70.07500       -1.7884986E-05
   70.19375       -1.7206201E-05
   70.31250       -1.7565471E-05
   70.43125       -1.9033727E-05
   70.55000       -2.1650778E-05
   70.66875       -2.5423589E-05
   70.78750       -3.0325416E-05
   70.90625       -3.6295882E-05
   71.02500       -4.3241987E-05
   71.14375       -5.1040028E-05
   71.26250       -5.9538339E-05
   71.38125       -6.8560839E-05
   71.50000       -7.7911303E-05
   71.61875       -8.7378190E-05
   71.73750       -9.6739925E-05
   71.85625       -1.0577055E-04
   71.97500       -1.1424554E-04
   72.09375       -1.2194766E-04
   72.21250       -1.2867265E-04
   72.33125       -1.3423469E-04
   72.45000       -1.3847156E-04
   72.56875       -1.4124891E-04
   72.68750       -1.4246433E-04
   72.80625       -1.4205025E-04
   72.92500       -1.3997626E-04
   73.04375       -1.3625030E-04
   73.16250       -1.3091907E-04
   73.28125       -1.2406737E-04
   73.40000       -1.1581648E-04
   73.51875       -1.0632167E-04
   73.63750       -9.5768693E-05
   73.75625       -8.4369618E-05
   73.87500       -7.2357921E-05
   73.99375       -5.9982955E-05
   74.11250       -4.7503981E-05
   74.23125       -3.5183901E-05
   74.35000       -2.3282842E-05
   74.46875       -1.2051712E-05
   74.58750       -1.7259420E-06
   74.70625        7.4804593E-06
   74.82500        1.5380374E-05
   74.94375        2.1818460E-05
   75.06250        2.6675283E-05
   75.18125        2.9870595E-05
   75.30000        3.1365696E-05
   75.41875        3.1164818E-05
   75.53750        2.9315383E-05
   75.65625        2.5907308E-05
   75.77500        2.1071171E-05
   75.89375        1.4975422E-05
   76.01250        7.8225748E-06
   76.13125       -1.5542527E-07
   76.25000       -8.7026228E-06
   76.36875       -1.7545113E-05
   76.48750       -2.6397605E-05
   76.60625       -3.4970322E-05
   76.72500       -4.2976098E-05
   76.84375       -5.0137423E-05
   76.96250       -5.6193403E-05
   77.08125       -6.0906303E-05
   77.20000       -6.4067644E-05
   77.31875       -6.5503606E-05
   77.43750       -6.5079665E-05
   77.55625       -6.2704275E-05
   77.67500       -5.8331607E-05
   77.79375       -5.1963150E-05
   77.91250       -4.3648182E-05
   78.03125       -3.3483120E-05
   78.15000       -2.1609689E-05
   78.26875       -8.2119859E-06
   78.38750        6.4874903E-06
   78.50625        2.2232758E-05
   78.62500        3.8740171E-05
   78.74375        5.5704910E-05
   78.86250        7.2808041E-05
   78.98125        8.9723959E-05
   79.10000        1.0612810E-04
   79.21875        1.2170459E-04
   79.33750        1.3615382E-04
   79.45625        1.4919965E-04
   79.57500        1.6059612E-04
   79.69375        1.7013332E-04
   79.81250        1.7764275E-04
   79.93125        1.8300134E-04
   80.05000        1.8613464E-04
   80.16875        1.8701873E-04
   80.28750        1.8568101E-04
   80.40625        1.8219958E-04
   80.52500        1.7670162E-04
   80.64375        1.6936031E-04
   80.76250        1.6039082E-04
   80.88125        1.5004509E-04
   81.00000        1.3860590E-04
   81.11875        1.2637996E-04
   81.23750        1.1369048E-04
   81.35625        1.0086931E-04
   81.47500        8.8248853E-05
   81.59375        7.6153949E-05
   81.71250        6.4893917E-05
   81.83125        5.4755008E-05
   81.95000        4.5993344E-05
   82.06875        3.8828712E-05
   82.18750        3.3439170E-05
   82.30625        2.9956742E-05
   82.42500        2.8464256E-05
   82.54375        2.8993414E-05
   82.66250        3.1524152E-05
   82.78125        3.5985300E-05
   82.90000        4.2256543E-05
   83.01875        5.0171620E-05
   83.13750        5.9522681E-05
   83.25625        7.0065675E-05
   83.37500        8.1526712E-05
   83.49375        9.3609073E-05
   83.61250        1.0600092E-04
   83.73125        1.1838326E-04
   83.85000        1.3043817E-04
   83.96875        1.4185692E-04
   84.08750        1.5234787E-04
   84.20625        1.6164397E-04
   84.32500        1.6950950E-04
   84.44375        1.7574613E-04
   84.56250        1.8019788E-04
   84.68125        1.8275515E-04
   84.80000        1.8335735E-04
   84.91875        1.8199449E-04
   85.03750        1.7870730E-04
   85.15625        1.7358616E-04
   85.27500        1.6676867E-04
   85.39375        1.5843612E-04
   85.51250        1.4880876E-04
   85.63125        1.3814014E-04
   85.75000        1.2671058E-04
   85.86875        1.1482002E-04
   85.98750        1.0278031E-04
   86.10625        9.0907277E-05
   86.22500        7.9512691E-05
   86.34375        6.8896377E-05
   86.46250        5.9338599E-05
   86.58125        5.1093033E-05
   86.70000        4.4380420E-05
   86.81875        3.9383027E-05
   86.93750        3.6240206E-05
   87.05625        3.5044977E-05
   87.17500        3.5841844E-05
   87.29375        3.8625887E-05
   87.41250        4.3343018E-05
   87.53125        4.9891609E-05
   87.65000        5.8125286E-05
   87.76875        6.7856774E-05
   87.88750        7.8862889E-05
   88.00625        9.0890404E-05
   88.12500        1.0366254E-04
   88.24375        1.1688626E-04
   88.36250        1.3025964E-04
   88.48125        1.4347975E-04
   88.60000        1.5625030E-04
   88.71875        1.6828928E-04
   88.83750        1.7933590E-04
   88.95625        1.8915730E-04
   89.07500        1.9755434E-04
   89.19375        2.0436649E-04
   89.31250        2.0947574E-04
   89.43125        2.1280943E-04
   89.55000        2.1434182E-04
   89.66875        2.1409462E-04
   89.78750        2.1213597E-04
   89.90625        2.0857861E-04
   90.02500        2.0357659E-04
   90.14375        1.9732107E-04
   90.26250        1.9003508E-04
   90.38125        1.8196751E-04
   90.50000        1.7338645E-04
   90.61875        1.6457190E-04
   90.73750        1.5580836E-04
   90.85625        1.4737711E-04
   90.97500        1.3954865E-04
   91.09375        1.3257546E-04
   91.21250        1.2668502E-04
   91.33125        1.2207370E-04
   91.45000        1.1890131E-04
   91.56875        1.1728650E-04
   91.68750        1.1730336E-04
   91.80625        1.1897908E-04
   91.92500        1.2229284E-04
   92.04375        1.2717584E-04
   92.16250        1.3351263E-04
   92.28125        1.4114377E-04
   92.40000        1.4986930E-04
   92.51875        1.5945356E-04
   92.63750        1.6963085E-04
   92.75625        1.8011181E-04
   92.87500        1.9059048E-04
   92.99375        2.0075182E-04
   93.11250        2.1027957E-04
   93.23125        2.1886392E-04
   93.35000        2.2620936E-04
   93.46875        2.3204203E-04
   93.58750        2.3611663E-04
   93.70625        2.3822248E-04
   93.82500        2.3818901E-04
   93.94375        2.3589015E-04
   94.06250        2.3124751E-04
   94.18125        2.2423260E-04
   94.30000        2.1486774E-04
   94.41875        2.0322567E-04
   94.53750        1.8942809E-04
   94.65625        1.7364287E-04
   94.77500        1.5608020E-04
   94.89375        1.3698780E-04
   95.01250        1.1664505E-04
   95.13125        9.5356547E-05
   95.25000        7.3445051E-05
   95.36875        5.1244006E-05
   95.48750        2.9089844E-05
   95.60625        7.3142969E-06
   95.72500       -1.3763110E-05
   95.84375       -3.3842207E-05
   95.96250       -5.2648771E-05
   96.08125       -6.9940455E-05
   96.20000       -8.5511798E-05
   96.31875       -9.9198318E-05
   96.43750       -1.1087951E-04
   96.55625       -1.2048075E-04
   96.67500       -1.2797398E-04
   96.79375       -1.3337728E-04
   96.91250       -1.3675319E-04
   97.03125       -1.3820609E-04
   97.15000       -1.3787838E-04
   97.26875       -1.3594594E-04
   97.38750       -1.3261268E-04
   97.50625       -1.2810451E-04
   97.62500       -1.2266287E-04
   97.74375       -1.1653797E-04
   97.86250       -1.0998193E-04
   97.98125       -1.0324198E-04
   98.10000       -9.6553958E-05
   98.21875       -9.0136215E-05
   98.33750       -8.4184190E-05
   98.45625       -7.8865582E-05
   98.57500       -7.4316515E-05
   98.69375       -7.0638584E-05
   98.81250       -6.7896937E-05
   98.93125       -6.6119406E-05
   99.05000       -6.5296750E-05
   99.16875       -6.5383960E-05
   99.28750       -6.6302506E-05
   99.40625       -6.7943634E-05
   99.52500       -7.0172398E-05
   99.64375       -7.2832539E-05
   99.76250       -7.5751799E-05
   99.88125       -7.8747806E-05
   100.0000       -8.1634120E-05
   100.1188       -8.4226398E-05
   100.2375       -8.6348511E-05
   100.3562       -8.7838351E-05
   100.4750       -8.8553192E-05
   100.5938       -8.8374582E-05
   100.7125       -8.7212378E-05
   100.8313       -8.5008076E-05
   100.9500       -8.1737118E-05
   101.0687       -7.7410310E-05
   101.1875       -7.2074094E-05
   101.3063       -6.5809887E-05
   101.4250       -5.8732272E-05
   101.5437       -5.0986335E-05
   101.6625       -4.2743981E-05
   101.7812       -3.4199518E-05
   101.9000       -2.5564506E-05
   102.0188       -1.7062061E-05
   102.1375       -8.9207715E-06
   102.2562       -1.3683930E-06
   102.3750        5.3745403E-06
   102.4938        1.1100950E-05
   102.6125        1.5623194E-05
   102.7312        1.8778554E-05
   102.8500        2.0434127E-05
   102.9688        2.0490977E-05
   103.0875        1.8887411E-05
   103.2063        1.5601279E-05
   103.3250        1.0651283E-05