  -4.500000        3.3847970E-19
  -4.381250        3.2714347E-19
  -4.262500       -2.0141775E-17
  -4.143750       -9.6754046E-17
  -4.025000       -2.6548196E-16
  -3.906250       -5.4349414E-16
  -3.787500       -9.1363409E-16
  -3.668750       -1.3192588E-15
  -3.550000       -1.6726011E-15
  -3.431250       -1.8748096E-15
  -3.312500       -1.8413772E-15
  -3.193750       -1.5245245E-15
  -3.075000       -9.2521303E-16
  -2.956250       -9.1487102E-17
  -2.837500        8.9464478E-16
  -2.718750        1.9347202E-15
  -2.600000        2.9264008E-15
  -2.481250        3.7632602E-15
  -2.362500        4.3189138E-15
  -2.243750        4.4194613E-15
  -2.125000        3.8145100E-15
  -2.006250        2.1605701E-15
  -1.887500       -9.7057027E-16
  -1.768750       -6.0516985E-15
  -1.650000       -1.3530287E-14
  -1.531250       -2.3740929E-14
  -1.412500       -3.6819160E-14
  -1.293750       -5.2638930E-14
  -1.175000       -7.0793110E-14
  -1.056250       -9.0627985E-14
 -0.9375000       -1.1133259E-13
 -0.8187500       -1.3207071E-13
 -0.7000000       -1.5213490E-13
 -0.5812500       -1.7109419E-13
 -0.4625000       -1.8890382E-13
 -0.3437500       -2.0594649E-13
 -0.2250000       -2.2297260E-13
 -0.1062500       -2.4091029E-13
  1.2500000E-02   -2.6051633E-13
  0.1312500       -2.8184532E-13
  0.2500000       -3.0352148E-13
  0.3687500       -3.2181988E-13
  0.4875000       -3.2959486E-13
  0.6062500       -3.1513282E-13
  0.7250000       -2.6105883E-13
  0.8437500       -1.4348222E-13
  0.9625000        6.8408698E-14
   1.081250        4.1203274E-13
   1.200000        9.3017087E-13
   1.318750        1.6685770E-12
   1.437500        2.6723446E-12
   1.556250        3.9810286E-12
   1.675000        5.6227015E-12
   1.793750        7.6072247E-12
   1.912500        9.9192356E-12
   2.031250        1.2511366E-11
   2.150000        1.5298363E-11
   2.268750        1.8152696E-11
   2.387500        2.0902195E-11
   2.506250        2.3330090E-11
   2.625000        2.5177645E-11
   2.743750        2.6149187E-11
   2.862500        2.5919208E-11
   2.981250        2.4140944E-11
   3.100000        2.0455374E-11
   3.218750        1.4500054E-11
   3.337500        5.9164206E-12
   3.456250       -5.6449420E-12
   3.575000       -2.0521886E-11
   3.693750       -3.9041336E-11
   3.812500       -6.1522419E-11
   3.931250       -8.8282111E-11
   4.050000       -1.1964160E-10
   4.168750       -1.5593195E-10
   4.287500       -1.9749719E-10
   4.406250       -2.4469360E-10
   4.525000       -2.9788205E-10
   4.643750       -3.5741266E-10
   4.762500       -4.2360215E-10
   4.881250       -4.9670257E-10
   5.000000       -5.7686622E-10
   5.118750       -6.6410577E-10
   5.237500       -7.5826051E-10
   5.356250       -8.5897256E-10
   5.475000       -9.6568420E-10
   5.593750       -1.0776628E-09
   5.712500       -1.1940695E-09
   5.831250       -1.3140783E-09
   5.950000       -1.4370554E-09
   6.068750       -1.5628070E-09
   6.187500       -1.6918946E-09
   6.306250       -1.8260223E-09
   6.425000       -1.9684765E-09
   6.543750       -2.1246096E-09
   6.662500       -2.3023430E-09
   6.781250       -2.5126441E-09
   6.900000       -2.7699494E-09
   7.018750       -3.0924767E-09
   7.137500       -3.5023759E-09
   7.256250       -4.0256452E-09
   7.375000       -4.6917794E-09
   7.493750       -5.5330691E-09
   7.612500       -6.5835151E-09
   7.731250       -7.8773299E-09
   7.850000       -9.4469872E-09
   7.968750       -1.1320843E-08
   8.087500       -1.3520331E-08
   8.206250       -1.6056802E-08
   8.325000       -1.8928096E-08
   8.443750       -2.2114895E-08
   8.562500       -2.5577076E-08
   8.681250       -2.9250144E-08
   8.800000       -3.3041903E-08
   8.918750       -3.6829604E-08
   9.037500       -4.0457614E-08
   9.156250       -4.3735838E-08
   9.275000       -4.6439013E-08
   9.393750       -4.8306834E-08
   9.512500       -4.9045138E-08
   9.631250       -4.8327976E-08
   9.750000       -4.5800572E-08
   9.868750       -4.1083094E-08
   9.987500       -3.3775052E-08
   10.10625       -2.3460126E-08
   10.22500       -9.7113775E-09
   10.34375        7.9035605E-09
   10.46250        2.9817286E-08
   10.58125        5.6457537E-08
   10.70000        8.8242317E-08
   10.81875        1.2557510E-07
   10.93750        1.6883997E-07
   11.05625        2.1839641E-07
   11.17500        2.7457307E-07
   11.29375        3.3766062E-07
   11.41250        4.0790260E-07
   11.53125        4.8548344E-07
   11.65000        5.7051346E-07
   11.76875        6.6301050E-07
   11.88750        7.6287603E-07
   12.00625        8.6986847E-07
   12.12500        9.8356998E-07
   12.24375        1.1033494E-06
   12.36250        1.2283222E-06
   12.48125        1.3573052E-06
   12.60000        1.4887719E-06
   12.71875        1.6208071E-06
   12.83750        1.7510631E-06
   12.95625        1.8767222E-06
   13.07500        1.9944669E-06
   13.19375        2.1004576E-06
   13.31250        2.1903306E-06
   13.43125        2.2592069E-06
   13.55000        2.3017249E-06
   13.66875        2.3120906E-06
   13.78750        2.2841573E-06
   13.90625        2.2115262E-06
   14.02500        2.0876705E-06
   14.14375        1.9060903E-06
   14.26250        1.6604813E-06
   14.38125        1.3449285E-06
   14.50000        9.5411167E-07
   14.61875        4.8352047E-07
   14.73750       -7.0324340E-08
   14.85625       -7.0965859E-07
   14.97500       -1.4352720E-06
   15.09375       -2.2463234E-06
   15.21250       -3.1401869E-06
   15.33125       -4.1123290E-06
   15.45000       -5.1562374E-06
   15.56875       -6.2633926E-06
   15.68750       -7.4232953E-06
   15.80625       -8.6235514E-06
   15.92500       -9.8500223E-06
   16.04375       -1.1087026E-05
   16.16250       -1.2317605E-05
   16.28125       -1.3523842E-05
   16.40000       -1.4687222E-05
   16.51875       -1.5789039E-05
   16.63750       -1.6810816E-05
   16.75625       -1.7734765E-05
   16.87500       -1.8544217E-05
   16.99375       -1.9224071E-05
   17.11250       -1.9761206E-05
   17.23125       -2.0144840E-05
   17.35000       -2.0366864E-05
   17.46875       -2.0422080E-05
   17.58750       -2.0308380E-05
   17.70625       -2.0026850E-05
   17.82500       -1.9581750E-05
   17.94375       -1.8980440E-05
   18.06250       -1.8233175E-05
   18.18125       -1.7352835E-05
   18.30000       -1.6354554E-05
   18.41875       -1.5255276E-05
   18.53750       -1.4073248E-05
   18.65625       -1.2827454E-05
   18.77500       -1.1537015E-05
   18.89375       -1.0220569E-05
   19.01250       -8.8956731E-06
   19.13125       -7.5781832E-06
   19.25000       -6.2817130E-06
   19.36875       -5.0171261E-06
   19.48750       -3.7921161E-06
   19.60625       -2.6108578E-06
   19.72500       -1.4737901E-06
   19.84375       -3.7748211E-07
   19.96250        6.8536286E-07
   20.08125        1.7257938E-06
   20.20000        2.7583581E-06
   20.31875        3.8007443E-06
   20.43750        4.8733004E-06
   20.55625        5.9984645E-06
   20.67500        7.2000867E-06
   20.79375        8.5026923E-06
   20.91250        9.9306844E-06
   21.03125        1.1507507E-05
   21.15000        1.3254794E-05
   21.26875        1.5191546E-05
   21.38750        1.7333294E-05
   21.50625        1.9691352E-05
   21.62500        2.2272112E-05
   21.74375        2.5076446E-05
   21.86250        2.8099203E-05
   21.98125        3.1328829E-05
   22.10000        3.4747114E-05
   22.21875        3.8329086E-05
   22.33750        4.2043055E-05
   22.45625        4.5850782E-05
   22.57500        4.9707844E-05
   22.69375        5.3564083E-05
   22.81250        5.7364265E-05
   22.93125        6.1048799E-05
   23.05000        6.4554646E-05
   23.16875        6.7816261E-05
   23.28750        7.0766699E-05
   23.40625        7.3338735E-05
   23.52500        7.5466036E-05
   23.64375        7.7084442E-05
   23.76250        7.8133125E-05
   23.88125        7.8555880E-05
   24.00000        7.8302248E-05
   24.11875        7.7328696E-05
   24.23750        7.5599623E-05
   24.35625        7.3088362E-05
   24.47500        6.9777961E-05
   24.59375        6.5661916E-05
   24.71250        6.0744693E-05
   24.83125        5.5042106E-05
   24.95000        4.8581551E-05
   25.06875        4.1401956E-05
   25.18750        3.3553657E-05
   25.30625        2.5097994E-05
   25.42500        1.6106749E-05
   25.54375        6.6614066E-06
   25.66250       -3.1477975E-06
   25.78125       -1.3222971E-05
   25.90000       -2.3459817E-05
   26.01875       -3.3749020E-05
   26.13750       -4.3977740E-05
   26.25625       -5.4031188E-05
   26.37500       -6.3794294E-05
   26.49375       -7.3153307E-05
   26.61250       -8.1997547E-05
   26.73125       -9.0220950E-05
   26.85000       -9.7723714E-05
   26.96875       -1.0441372E-04
   27.08750       -1.1020792E-04
   27.20625       -1.1503352E-04
   27.32500       -1.1882906E-04
   27.44375       -1.2154521E-04
   27.56250       -1.2314548E-04
   27.68125       -1.2360654E-04
   27.80000       -1.2291859E-04
   27.91875       -1.2108517E-04
   28.03750       -1.1812309E-04
   28.15625       -1.1406188E-04
   28.27500       -1.0894322E-04
   28.39375       -1.0282012E-04
   28.51250       -9.5755982E-05
   28.63125       -8.7823471E-05
   28.75000       -7.9103389E-05
   28.86875       -6.9683389E-05
   28.98750       -5.9656657E-05
   29.10625       -4.9120667E-05
   29.22500       -3.8175825E-05
   29.34375       -2.6924266E-05
   29.46250       -1.5468624E-05
   29.58125       -3.9109718E-06
   29.70000        7.6482120E-06
   29.81875        1.9110923E-05
   29.93750        3.0382407E-05
   30.05625        4.1371819E-05
   30.17500        5.1992738E-05
   30.29375        6.2163606E-05
   30.41250        7.1808048E-05
   30.53125        8.0855090E-05
   30.65000        8.9239315E-05
   30.76875        9.6900956E-05
   30.88750        1.0378598E-04
   31.00625        1.0984608E-04
   31.12500        1.1503871E-04
   31.24375        1.1932717E-04
   31.36250        1.2268059E-04
   31.48125        1.2507406E-04
   31.60000        1.2648880E-04
   31.71875        1.2691223E-04
   31.83750        1.2633829E-04
   31.95625        1.2476758E-04
   32.07500        1.2220774E-04
   32.19375        1.1867367E-04
   32.31250        1.1418783E-04
   32.43125        1.0878052E-04
   32.55000        1.0249014E-04
   32.66875        9.5363321E-05
   32.78750        8.7455082E-05
   32.90625        7.8828802E-05
   33.02500        6.9556139E-05
   33.14375        5.9716796E-05
   33.26250        4.9398150E-05
   33.38125        3.8694736E-05
   33.50000        2.7707581E-05
   33.61875        1.6543376E-05
   33.73750        5.3135004E-06
   33.85625       -5.8670807E-06
   33.97500       -1.6881053E-05
   34.09375       -2.7610125E-05
   34.21250       -3.7936414E-05
   34.33125       -4.7744001E-05
   34.45000       -5.6920413E-05
   34.56875       -6.5358196E-05
   34.68750       -7.2956405E-05
   34.80625       -7.9622070E-05
   34.92500       -8.5271640E-05
   35.04375       -8.9832138E-05
   35.16250       -9.3242401E-05
   35.28125       -9.5454023E-05
   35.40000       -9.6432115E-05
   35.51875       -9.6155978E-05
   35.63750       -9.4619449E-05
   35.75625       -9.1831142E-05
   35.87500       -8.7814355E-05
   35.99375       -8.2606894E-05
   36.11250       -7.6260563E-05
   36.23125       -6.8840542E-05
   36.35000       -6.0424540E-05
   36.46875       -5.1101757E-05
   36.58750       -4.0971740E-05
   36.70625       -3.0143021E-05
   36.82500       -1.8731747E-05
   36.94375       -6.8601112E-06
   37.06250        5.3452395E-06
   37.18125        1.7754841E-05
   37.30000        3.0238081E-05
   37.41875        4.2664895E-05
   37.53750        5.4907374E-05
   37.65625        6.6841465E-05
   37.77500        7.8348450E-05
   37.89375        8.9316476E-05
   38.01250        9.9641889E-05
   38.13125        1.0923055E-04
   38.25000        1.1799892E-04
   38.36875        1.2587506E-04
   38.48750        1.3279944E-04
   38.60625        1.3872565E-04
   38.72500        1.4362078E-04
   38.84375        1.4746578E-04
   38.96250        1.5025548E-04
   39.08125        1.5199852E-04
   39.20000        1.5271702E-04
   39.31875        1.5244604E-04
   39.43750        1.5123287E-04
   39.55625        1.4913623E-04
   39.67500        1.4622505E-04
   39.79375        1.4257738E-04
   39.91250        1.3827899E-04
   40.03125        1.3342183E-04
   40.15000        1.2810253E-04
   40.26875        1.2242082E-04
   40.38750        1.1647776E-04
   40.50625        1.1037412E-04
   40.62500        1.0420878E-04
   40.74375        9.8077136E-05
   40.86250        9.2069633E-05
   40.98125        8.6270389E-05
   41.10000        8.0756043E-05
   41.21875        7.5594719E-05
   41.33750        7.0845170E-05
   41.45625        6.6556211E-05
   41.57500        6.2766296E-05
   41.69375        5.9503360E-05
   41.81250        5.6784866E-05
   41.93125        5.4618093E-05
   42.05000        5.3000618E-05
   42.16875        5.1920964E-05
   42.28750        5.1359431E-05
   42.40625        5.1289087E-05
   42.52500        5.1676790E-05
   42.64375        5.2484371E-05
   42.76250        5.3669799E-05
   42.88125        5.5188368E-05
   43.00000        5.6993867E-05
   43.11875        5.9039627E-05
   43.23750        6.1279570E-05
   43.35625        6.3669089E-05
   43.47500        6.6165783E-05
   43.59375        6.8730056E-05
   43.71250        7.1325579E-05
   43.83125        7.3919553E-05
   43.95000        7.6482786E-05
   44.06875        7.8989673E-05
   44.18750        8.1418024E-05
   44.30625        8.3748695E-05
   44.42500        8.5965199E-05
   44.54375        8.8053210E-05
   44.66250        8.9999987E-05
   44.78125        9.1793794E-05
   44.90000        9.3423383E-05
   45.01875        9.4877367E-05
   45.13750        9.6143805E-05
   45.25625        9.7209762E-05
   45.37500        9.8061049E-05
   45.49375        9.8681994E-05
   45.61250        9.9055447E-05
   45.73125        9.9162789E-05
   45.85000        9.8984194E-05
   45.96875        9.8498946E-05
   46.08750        9.7685865E-05
   46.20625        9.6523931E-05
   46.32500        9.4992814E-05
   46.44375        9.3073664E-05
   46.56250        9.0749760E-05
   46.68125        8.8007269E-05
   46.80000        8.4835970E-05
   46.91875        8.1229911E-05
   47.03750        7.7187950E-05
   47.15625        7.2714261E-05
   47.27500        6.7818750E-05
   47.39375        6.2517189E-05
   47.51250        5.6831363E-05
   47.63125        5.0788993E-05
   47.75000        4.4423476E-05
   47.86875        3.7773490E-05
   47.98750        3.0882467E-05
   48.10625        2.3797926E-05
   48.22500        1.6570677E-05
   48.34375        9.2539221E-06
   48.46250        1.9023072E-06
   48.58125       -5.4290813E-06
   48.70000       -1.2685748E-05
   48.81875       -1.9814786E-05
   48.93750       -2.6765871E-05
   49.05625       -3.3492142E-05
   49.17500       -3.9951046E-05
   49.29375       -4.6104997E-05
   49.41250       -5.1922012E-05
   49.53125       -5.7376099E-05
   49.65000       -6.2447521E-05
   49.76875       -6.7122965E-05
   49.88750       -7.1395443E-05
   50.00625       -7.5264157E-05
   50.12500       -7.8734105E-05
   50.24375       -8.1815619E-05
   50.36250       -8.4523803E-05
   50.48125       -8.6877801E-05
   50.60000       -8.8900088E-05
   50.71875       -9.0615627E-05
   50.83750       -9.2050999E-05
   50.95625       -9.3233662E-05
   51.07500       -9.4191040E-05
   51.19375       -9.4949792E-05
   51.31250       -9.5535121E-05
   51.43125       -9.5970136E-05
   51.55000       -9.6275398E-05
   51.66875       -9.6468473E-05
   51.78750       -9.6563723E-05
   51.90625       -9.6572185E-05
   52.02500       -9.6501550E-05
   52.14375       -9.6356402E-05
   52.26250       -9.6138443E-05
   52.38125       -9.5846961E-05
   52.50000       -9.5479365E-05
   52.61875       -9.5031755E-05
   52.73750       -9.4499745E-05
   52.85625       -9.3879127E-05
   52.97500       -9.3166767E-05
   53.09375       -9.2361348E-05
   53.21250       -9.1464193E-05
   53.33125       -9.0480033E-05
   53.45000       -8.9417656E-05
   53.56875       -8.8290486E-05
   53.68750       -8.7117071E-05
   53.80625       -8.5921383E-05
   53.92500       -8.4732863E-05
   54.04375       -8.3586514E-05
   54.16250       -8.2522551E-05
   54.28125       -8.1586033E-05
   54.40000       -8.0826154E-05
   54.51875       -8.0295402E-05
   54.63750       -8.0048543E-05
   54.75625       -8.0141319E-05
   54.87500       -8.0629186E-05
   54.99375       -8.1565711E-05
   55.11250       -8.3001003E-05
   55.23125       -8.4980071E-05
   55.35000       -8.7541157E-05
   55.46875       -9.0714057E-05
   55.58750       -9.4518633E-05
   55.70625       -9.8963319E-05
   55.82500       -1.0404393E-04
   55.94375       -1.0974256E-04
   56.06250       -1.1602685E-04
   56.18125       -1.2284952E-04
   56.30000       -1.3014830E-04
   56.41875       -1.3784600E-04
   56.53750       -1.4585129E-04
   56.65625       -1.5405958E-04
   56.77500       -1.6235448E-04
   56.89375       -1.7060942E-04
   57.01250       -1.7868984E-04
   57.13125       -1.8645555E-04
   57.25000       -1.9376342E-04
   57.36875       -2.0047024E-04
   57.48750       -2.0643574E-04
   57.60625       -2.1152574E-04
   57.72500       -2.1561532E-04
   57.84375       -2.1859184E-04
   57.96250       -2.2035792E-04
   58.08125       -2.2083413E-04
   58.20000       -2.1996138E-04
   58.31875       -2.1770307E-04
   58.43750       -2.1404664E-04
   58.55625       -2.0900469E-04
   58.67500       -2.0261564E-04
   58.79375       -1.9494377E-04
   58.91250       -1.8607861E-04
   59.03125       -1.7613392E-04
   59.15000       -1.6524583E-04
   59.26875       -1.5357068E-04
   59.38750       -1.4128223E-04
   59.50625       -1.2856832E-04
   59.62500       -1.1562729E-04
   59.74375       -1.0266399E-04
   59.86250       -8.9885507E-05
   59.98125       -7.7496974E-05
   60.10000       -6.5697030E-05
   60.21875       -5.4673612E-05
   60.33750       -4.4599801E-05
   60.45625       -3.5629942E-05
   60.57500       -2.7896212E-05
   60.69375       -2.1505608E-05
   60.81250       -1.6537435E-05
   60.93125       -1.3041482E-05
   61.05000       -1.1036842E-05
   61.16875       -1.0511395E-05
   61.28750       -1.1422043E-05
   61.40625       -1.3695670E-05
   61.52500       -1.7230774E-05
   61.64375       -2.1899796E-05
   61.76250       -2.7552036E-05
   61.88125       -3.4017143E-05
   62.00000       -4.1109048E-05
   62.11875       -4.8630303E-05
   62.23750       -5.6376626E-05
   62.35625       -6.4141634E-05
   62.47500       -7.1721646E-05
   62.59375       -7.8920355E-05
   62.71250       -8.5553307E-05
   62.83125       -9.1452122E-05
   62.95000       -9.6468240E-05
   63.06875       -1.0047625E-04
   63.18750       -1.0337657E-04
   63.30625       -1.0509744E-04
   63.42500       -1.0559637E-04
   63.54375       -1.0486073E-04
   63.66250       -1.0290759E-04
   63.78125       -9.9782948E-05
   63.90000       -9.5560070E-05
   64.01875       -9.0337337E-05
   64.13750       -8.4235347E-05
   64.25625       -7.7393561E-05
   64.37500       -6.9966409E-05
   64.49375       -6.2119172E-05
   64.61250       -5.4023494E-05
   64.73125       -4.5852827E-05
   64.85000       -3.7777860E-05
   64.96875       -2.9962050E-05
   65.08750       -2.2557353E-05
   65.20625       -1.5700307E-05
   65.32500       -9.5085225E-06
   65.44375       -4.0777363E-06
   65.56250        5.2059482E-07
   65.68125        4.2409888E-06
   65.80000        7.0649548E-06
   65.91875        9.0012500E-06
   66.03750        1.0085406E-05
   66.15625        1.0378525E-05
   66.27500        9.9653480E-06
   66.39375        8.9516952E-06
   66.51250        7.4612644E-06
   66.63125        5.6319809E-06
   66.75000        3.6118793E-06
   66.86875        1.5546901E-06
   66.98750       -3.8475929E-07
   67.10625       -2.0552109E-06
   67.22500       -3.3136066E-06
   67.34375       -4.0294881E-06
   67.46250       -4.0891591E-06
   67.58125       -3.3993445E-06
   67.70000       -1.8903844E-06
   67.81875        4.8122274E-07
   67.93750        3.7309692E-06
   68.05625        7.8452867E-06
   68.17500        1.2781236E-05
   68.29375        1.8467088E-05
   68.41250        2.4803658E-05
   68.53125        3.1666459E-05
   68.65000        3.8908642E-05
   68.76875        4.6364534E-05
   68.88750        5.3853859E-05
   69.00625        6.1186358E-05
   69.12500        6.8166832E-05
   69.24375        7.4600364E-05
   69.36250        8.0297730E-05
   69.48125        8.5080581E-05
   69.60000        8.8786648E-05
   69.71875        9.1274444E-05
   69.83750        9.2427508E-05
   69.95625        9.2158160E-05
   70.07500        9.0410394E-05
   70.19375        8.7162080E-05
   70.31250        8.2426275E-05
   70.43125        7.6251570E-05
   70.55000        6.8721551E-05
   70.66875        5.9953309E-05
   70.78750        5.0095023E-05
   70.90625        3.9322702E-05
   71.02500        2.7836148E-05
   71.14375        1.5854248E-05
   71.26250        3.6096853E-06
   71.38125       -8.6567270E-06
   71.50000       -2.0702037E-05
   71.61875       -3.2287226E-05
   71.73750       -4.3183201E-05
   71.85625       -5.3176671E-05
   71.97500       -6.2075502E-05
   72.09375       -6.9713649E-05
   72.21250       -7.5955439E-05
   72.33125       -8.0698956E-05
   72.45000       -8.3878622E-05
   72.56875       -8.5466803E-05
   72.68750       -8.5474392E-05
   72.80625       -8.3950312E-05
   72.92500       -8.0980033E-05
   73.04375       -7.6683085E-05
   73.16250       -7.1209579E-05
   73.28125       -6.4735912E-05
   73.40000       -5.7459762E-05
   73.51875       -4.9594444E-05
   73.63750       -4.1362815E-05
   73.75625       -3.2990894E-05
   73.87500       -2.4701456E-05
   73.99375       -1.6707536E-05
   74.11250       -9.2063992E-06
   74.23125       -2.3737782E-06
   74.35000        3.6412105E-06
   74.46875        8.7204326E-06
   74.58750        1.2780218E-05
   74.70625        1.5773870E-05
   74.82500        1.7693137E-05
   74.94375        1.8568518E-05
   75.06250        1.8468541E-05
   75.18125        1.7497845E-05
   75.30000        1.5794258E-05
   75.41875        1.3524889E-05
   75.53750        1.0881302E-05
   75.65625        8.0739892E-06
   75.77500        5.3262179E-06
   75.89375        2.8674610E-06
   76.01250        9.2659661E-07
   76.13125       -2.7495659E-07
   76.25000       -5.2994977E-07
   76.36875        3.4830751E-07
   76.48750        2.5200895E-06
   76.60625        6.1140663E-06
   76.72500        1.1222953E-05
   76.84375        1.7900144E-05
   76.96250        2.6157355E-05
   77.08125        3.5963443E-05
   77.20000        4.7244372E-05
   77.31875        5.9884384E-05
   77.43750        7.3728283E-05
   77.55625        8.8584828E-05
   77.67500        1.0423117E-04
   77.79375        1.2041812E-04
   77.91250        1.3687617E-04
   78.03125        1.5332222E-04
   78.15000        1.6946648E-04
   78.26875        1.8501989E-04
   78.38750        1.9970126E-04
   78.50625        2.1324449E-04
   78.62500        2.2540533E-04
   78.74375        2.3596751E-04
   78.86250        2.4474834E-04
   78.98125        2.5160334E-04
   79.10000        2.5642989E-04
   79.21875        2.5916978E-04
   79.33750        2.5981071E-04
   79.45625        2.5838654E-04
   79.57500        2.5497636E-04
   79.69375        2.4970228E-04
   79.81250        2.4272644E-04
   79.93125        2.3424656E-04
   80.05000        2.2449094E-04
   80.16875        2.1371248E-04
   80.28750        2.0218229E-04
   80.40625        1.9018257E-04
   80.52500        1.7799964E-04
   80.64375        1.6591647E-04
   80.76250        1.5420577E-04
   80.88125        1.4312311E-04
   81.00000        1.3290063E-04
   81.11875        1.2374154E-04
   81.23750        1.1581516E-04
   81.35625        1.0925328E-04
   81.47500        1.0414715E-04
   81.59375        1.0054585E-04
   81.71250        9.8455726E-05
   81.83125        9.7840923E-05
   81.95000        9.8625096E-05
   82.06875        1.0069417E-04
   82.18750        1.0390010E-04
   82.30625        1.0806545E-04
   82.42500        1.1298876E-04
   82.54375        1.1845054E-04
   82.66250        1.2421957E-04
   82.78125        1.3005955E-04
   82.90000        1.3573575E-04
   83.01875        1.4102162E-04
   83.13750        1.4570497E-04
   83.25625        1.4959382E-04
   83.37500        1.5252156E-04
   83.49375        1.5435138E-04
   83.61250        1.5497980E-04
   83.73125        1.5433934E-04
   83.85000        1.5240011E-04
   83.96875        1.4917029E-04
   84.08750        1.4469575E-04
   84.20625        1.3905852E-04
   84.32500        1.3237426E-04
   84.44375        1.2478896E-04
   84.56250        1.1647470E-04
   84.68125        1.0762495E-04
   84.80000        9.8449120E-05
   84.91875        8.9166831E-05
   85.03750        8.0002064E-05
   85.15625        7.1177041E-05
   85.27500        6.2906387E-05
   85.39375        5.5391425E-05
   85.51250        4.8814996E-05
   85.63125        4.3336739E-05
   85.75000        3.9089027E-05
   85.86875        3.6173733E-05
   85.98750        3.4659755E-05
   86.10625        3.4581448E-05
   86.22500        3.5938036E-05
   86.34375        3.8693841E-05
   86.46250        4.2779513E-05
   86.58125        4.8094040E-05
   86.70000        5.4507636E-05
   86.81875        6.1865219E-05
   86.93750        6.9990616E-05
   87.05625        7.8691155E-05
   87.17500        8.7762695E-05
   87.29375        9.6994801E-05
   87.41250        1.0617600E-04
   87.53125        1.1509906E-04
   87.65000        1.2356600E-04
   87.76875        1.3139271E-04
   87.88750        1.3841331E-04
   88.00625        1.4448374E-04
   88.12500        1.4948488E-04
   88.24375        1.5332495E-04
   88.36250        1.5594097E-04
   88.48125        1.5729974E-04
   88.60000        1.5739784E-04
   88.71875        1.5626085E-04
   88.83750        1.5394199E-04
   88.95625        1.5051987E-04
   89.07500        1.4609598E-04
   89.19375        1.4079128E-04
   89.31250        1.3474264E-04
   89.43125        1.2809898E-04
   89.55000        1.2101710E-04
   89.66875        1.1365754E-04
   89.78750        1.0618052E-04
   89.90625        9.8741970E-05
   90.02500        9.1489921E-05
   90.14375        8.4561136E-05
   90.26250        7.8078323E-05
   90.38125        7.2147763E-05
   90.50000        6.6857552E-05
   90.61875        6.2276376E-05
   90.73750        5.8452901E-05
   90.85625        5.5415763E-05
   90.97500        5.3174077E-05
   91.09375        5.1718525E-05
   91.21250        5.1022864E-05
   91.33125        5.1045809E-05
   91.45000        5.1733281E-05
   91.56875        5.3020856E-05
   91.68750        5.4836364E-05
   91.80625        5.7102508E-05
   91.92500        5.9739461E-05
   92.04375        6.2667350E-05
   92.16250        6.5808505E-05
   92.28125        6.9089408E-05
   92.40000        7.2442424E-05
   92.51875        7.5806987E-05
   92.63750        7.9130485E-05
   92.75625        8.2368701E-05
   92.87500        8.5485859E-05
   92.99375        8.8454224E-05
   93.11250        9.1253271E-05
   93.23125        9.3868679E-05
   93.35000        9.6290845E-05
   93.46875        9.8513359E-05
   93.58750        1.0053123E-04
   93.70625        1.0233902E-04
   93.82500        1.0392909E-04
   93.94375        1.0528982E-04
   94.06250        1.0640412E-04
   94.18125        1.0724799E-04
   94.30000        1.0778954E-04
   94.41875        1.0798831E-04
   94.53750        1.0779494E-04
   94.65625        1.0715127E-04
   94.77500        1.0599090E-04
   94.89375        1.0424016E-04
   95.01250        1.0181956E-04
   95.13125        9.8645491E-05
   95.25000        9.4632444E-05
   95.36875        8.9695386E-05
   95.48750        8.3752398E-05
   95.60625        7.6727541E-05
   95.72500        6.8553687E-05
   95.84375        5.9175381E-05
   95.96250        4.8551621E-05
   96.08125        3.6658348E-05
   96.20000        2.3490793E-05
   96.31875        9.0653548E-06
   96.43750       -6.5788913E-06
   96.55625       -2.3379183E-05
   96.67500       -4.1248590E-05
   96.79375       -6.0076105E-05
   96.91250       -7.9727295E-05
   97.03125       -1.0004554E-04
   97.15000       -1.2085388E-04
   97.26875       -1.4195727E-04
   97.38750       -1.6314548E-04
   97.50625       -1.8419632E-04
   97.62500       -2.0487924E-04
   97.74375       -2.2495918E-04
   97.86250       -2.4420067E-04
   97.98125       -2.6237188E-04
   98.10000       -2.7924884E-04
   98.21875       -2.9461941E-04
   98.33750       -3.0828718E-04
   98.45625       -3.2007482E-04
   98.57500       -3.2982731E-04
   98.69375       -3.3741465E-04
   98.81250       -3.4273413E-04
   98.93125       -3.4571189E-04
   99.05000       -3.4630406E-04
   99.16875       -3.4449718E-04
   99.28750       -3.4030827E-04
   99.40625       -3.3378394E-04
   99.52500       -3.2499939E-04
   99.64375       -3.1405652E-04
   99.76250       -3.0108189E-04
   99.88125       -2.8622404E-04
   100.0000       -2.6965066E-04
   100.1188       -2.5154540E-04
   100.2375       -2.3210471E-04
   100.3562       -2.1153425E-04
   100.4750       -1.9004554E-04
   100.5938       -1.6785268E-04
   100.7125       -1.4516899E-04
   100.8313       -1.2220404E-04
   100.9500       -9.9160919E-05
   101.0687       -7.6233635E-05
   101.1875       -5.3604988E-05
   101.3063       -3.1444815E-05
   101.4250       -9.9084446E-06
   101.5437        1.0864284E-05
   101.6625        3.0749754E-05
   101.7812        4.9640887E-05
   101.9000        6.7447159E-05
   102.0188        8.4094274E-05
   102.1375        9.9523582E-05
   102.2562        1.1369130E-04
   102.3750        1.2656745E-04
   102.4938        1.3813480E-04
   102.6125        1.4838752E-04
   102.7312        1.5732998E-04
   102.8500        1.6497538E-04
   102.9688        1.7134452E-04
   103.0875        1.7646456E-04
   103.2063        1.8036788E-04
   103.3250        1.8309115E-04