  -4.500000        1.0641342E-17
  -4.381250        1.0651223E-17
  -4.262500        2.8282903E-17
  -4.143750        8.6275686E-17
  -4.025000        1.8893888E-16
  -3.906250        3.0278024E-16
  -3.787500        3.5722093E-16
  -3.668750        2.7243354E-16
  -3.550000        6.3779732E-18
  -3.431250       -4.0105488E-16
  -3.312500       -8.1447798E-16
  -3.193750       -1.0401724E-15
  -3.075000       -9.1401420E-16
  -2.956250       -4.1449248E-16
  -2.837500        2.4578048E-16
  -2.718750        6.0183856E-16
  -2.600000        2.7201495E-17
  -2.481250       -2.0661101E-15
  -2.362500       -5.9629692E-15
  -2.243750       -1.1398400E-14
  -2.125000       -1.7426119E-14
  -2.006250       -2.2481503E-14
  -1.887500       -2.4667759E-14
  -1.768750       -2.2222240E-14
  -1.650000       -1.4049021E-14
  -1.531250       -1.5970528E-16
  -1.412500        1.8139382E-14
  -1.293750        3.8424894E-14
  -1.175000        5.7721867E-14
  -1.056250        7.3370644E-14
 -0.9375000        8.4015531E-14
 -0.8187500        9.0480473E-14
 -0.7000000        9.6305105E-14
 -0.5812500        1.0778774E-13
 -0.4625000        1.3349110E-13
 -0.3437500        1.8330383E-13
 -0.2250000        2.6724873E-13
 -0.1062500        3.9429164E-13
  1.2500000E-02    5.7138821E-13
  0.1312500        8.0293584E-13
  0.2500000        1.0906724E-12
  0.3687500        1.4339537E-12
  0.4875000        1.8302525E-12
  0.6062500        2.2756927E-12
  0.7250000        2.7654639E-12
  0.8437500        3.2940751E-12
  0.9625000        3.8555101E-12
   1.081250        4.4434972E-12
   1.200000        5.0521484E-12
   1.318750        5.6772438E-12
   1.437500        6.3183560E-12
   1.556250        6.9818387E-12
   1.675000        7.6845518E-12
   1.793750        8.4579635E-12
   1.912500        9.3522004E-12
   2.031250        1.0439507E-11
   2.150000        1.1816755E-11
   2.268750        1.3606740E-11
   2.387500        1.5958504E-11
   2.506250        1.9047106E-11
   2.625000        2.3074015E-11
   2.743750        2.8269281E-11
   2.862500        3.4897227E-11
   2.981250        4.3267036E-11
   3.100000        5.3749651E-11
   3.218750        6.6801426E-11
   3.337500        8.2994223E-11
   3.456250        1.0305059E-10
   3.575000        1.2788154E-10
   3.693750        1.5862209E-10
   3.812500        1.9666052E-10
   3.931250        2.4365496E-10
   4.050000        3.0153130E-10
   4.168750        3.7245654E-10
   4.287500        4.5878265E-10
   4.406250        5.6295701E-10
   4.525000        6.8739731E-10
   4.643750        8.3432999E-10
   4.762500        1.0055973E-09
   4.881250        1.2024346E-09
   5.000000        1.4252246E-09
   5.118750        1.6732415E-09
   5.237500        1.9443909E-09
   5.356250        2.2349620E-09
   5.475000        2.5394016E-09
   5.593750        2.8501295E-09
   5.712500        3.1573995E-09
   5.831250        3.4492293E-09
   5.950000        3.7114010E-09
   6.068750        3.9275565E-09
   6.187500        4.0793813E-09
   6.306250        4.1469099E-09
   6.425000        4.1089505E-09
   6.543750        3.9436530E-09
   6.662500        3.6292427E-09
   6.781250        3.1449436E-09
   6.900000        2.4721327E-09
   7.018750        1.5957488E-09
   7.137500        5.0602073E-10
   7.256250       -7.9948170E-10
   7.375000       -2.3133997E-09
   7.493750       -4.0157575E-09
   7.612500       -5.8707457E-09
   7.731250       -7.8231510E-09
   7.850000       -9.7945145E-09
   7.968750       -1.1679171E-08
   8.087500       -1.3340342E-08
   8.206250       -1.4606602E-08
   8.325000       -1.5269006E-08
   8.443750       -1.5079372E-08
   8.562500       -1.3750149E-08
   8.681250       -1.0956510E-08
   8.800000       -6.3411951E-09
   8.918750        4.7726367E-10
   9.037500        9.8922737E-09
   9.156250        2.2292477E-08
   9.275000        3.8040099E-08
   9.393750        5.7444215E-08
   9.512500        8.0728810E-08
   9.631250        1.0799620E-07
   9.750000        1.3918613E-07
   9.868750        1.7403190E-07
   9.987500        2.1201484E-07
   10.10625        2.5231921E-07
   10.22500        2.9378967E-07
   10.34375        3.3489405E-07
   10.46250        3.7369477E-07
   10.58125        4.0783178E-07
   10.70000        4.3452081E-07
   10.81875        4.5056930E-07
   10.93750        4.5241390E-07
   11.05625        4.3618169E-07
   11.17500        3.9777692E-07
   11.29375        3.3299338E-07
   11.41250        2.3765348E-07
   11.53125        1.0777134E-07
   11.65000       -6.0262337E-08
   11.76875       -2.6947870E-07
   11.88750       -5.2211755E-07
   12.00625       -8.1941090E-07
   12.12500       -1.1613704E-06
   12.24375       -1.5465897E-06
   12.36250       -1.9720710E-06
   12.48125       -2.4330857E-06
   12.60000       -2.9230819E-06
   12.71875       -3.4336449E-06
   12.83750       -3.9545234E-06
   12.95625       -4.4737212E-06
   13.07500       -4.9776691E-06
   13.19375       -5.4514671E-06
   13.31250       -5.8792057E-06
   13.43125       -6.2443592E-06
   13.55000       -6.5302343E-06
   13.66875       -6.7204796E-06
   13.78750       -6.7996261E-06
   13.90625       -6.7536539E-06
   14.02500       -6.5705522E-06
   14.14375       -6.2408708E-06
   14.26250       -5.7582192E-06
   14.38125       -5.1197089E-06
   14.50000       -4.3263076E-06
   14.61875       -3.3830916E-06
   14.73750       -2.2993756E-06
   14.85625       -1.0887100E-06
   14.97500        2.3126991E-07
   15.09375        1.6391376E-06
   15.21250        3.1101151E-06
   15.33125        4.6166551E-06
   15.45000        6.1291553E-06
   15.56875        7.6167712E-06
   15.68750        9.0483272E-06
   15.80625        1.0393280E-05
   15.92500        1.1622715E-05
   16.04375        1.2710335E-05
   16.16250        1.3633412E-05
   16.28125        1.4373664E-05
   16.40000        1.4918017E-05
   16.51875        1.5259229E-05
   16.63750        1.5396350E-05
   16.75625        1.5334977E-05
   16.87500        1.5087307E-05
   16.99375        1.4671965E-05
   17.11250        1.4113607E-05
   17.23125        1.3442309E-05
   17.35000        1.2692736E-05
   17.46875        1.1903141E-05
   17.58750        1.1114188E-05
   17.70625        1.0367664E-05
   17.82500        9.7051025E-06
   17.94375        9.1663642E-06
   18.06250        8.7882299E-06
   18.18125        8.6030532E-06
   18.30000        8.6375085E-06
   18.41875        8.9114938E-06
   18.53750        9.4372335E-06
   18.65625        1.0218589E-05
   18.77500        1.1250640E-05
   18.89375        1.2519541E-05
   19.01250        1.4002659E-05
   19.13125        1.5669002E-05
   19.25000        1.7479908E-05
   19.36875        1.9390023E-05
   19.48750        2.1348482E-05
   19.60625        2.3300270E-05
   19.72500        2.5187777E-05
   19.84375        2.6952379E-05
   19.96250        2.8536115E-05
   20.08125        2.9883317E-05
   20.20000        3.0942192E-05
   20.31875        3.1666259E-05
   20.43750        3.2015625E-05
   20.55625        3.1958039E-05
   20.67500        3.1469735E-05
   20.79375        3.0535954E-05
   20.91250        2.9151213E-05
   21.03125        2.7319313E-05
   21.15000        2.5053008E-05
   21.26875        2.2373479E-05
   21.38750        1.9309533E-05
   21.50625        1.5896645E-05
   21.62500        1.2175796E-05
   21.74375        8.1922535E-06
   21.86250        3.9942561E-06
   21.98125       -3.6828720E-07
   22.10000       -4.8450802E-06
   22.21875       -9.3866420E-06
   22.33750       -1.3945379E-05
   22.45625       -1.8476519E-05
   22.57500       -2.2938881E-05
   22.69375       -2.7295440E-05
   22.81250       -3.1513711E-05
   22.93125       -3.5565943E-05
   23.05000       -3.9429113E-05
   23.16875       -4.3084769E-05
   23.28750       -4.6518737E-05
   23.40625       -4.9720664E-05
   23.52500       -5.2683550E-05
   23.64375       -5.5403132E-05
   23.76250       -5.7877311E-05
   23.88125       -6.0105551E-05
   24.00000       -6.2088286E-05
   24.11875       -6.3826425E-05
   24.23750       -6.5320877E-05
   24.35625       -6.6572196E-05
   24.47500       -6.7580309E-05
   24.59375       -6.8344336E-05
   24.71250       -6.8862464E-05
   24.83125       -6.9132024E-05
   24.95000       -6.9149566E-05
   25.06875       -6.8910995E-05
   25.18750       -6.8411871E-05
   25.30625       -6.7647670E-05
   25.42500       -6.6614135E-05
   25.54375       -6.5307635E-05
   25.66250       -6.3725558E-05
   25.78125       -6.1866689E-05
   25.90000       -5.9731610E-05
   26.01875       -5.7323054E-05
   26.13750       -5.4646243E-05
   26.25625       -5.1709245E-05
   26.37500       -4.8523172E-05
   26.49375       -4.5102468E-05
   26.61250       -4.1465042E-05
   26.73125       -3.7632366E-05
   26.85000       -3.3629523E-05
   26.96875       -2.9485136E-05
   27.08750       -2.5231262E-05
   27.20625       -2.0903146E-05
   27.32500       -1.6538912E-05
   27.44375       -1.2179149E-05
   27.56250       -7.8664261E-06
   27.68125       -3.6446831E-06
   27.80000        4.4145995E-07
   27.91875        4.3474056E-06
   28.03750        8.0294121E-06
   28.15625        1.1445445E-05
   28.27500        1.4556008E-05
   28.39375        1.7325014E-05
   28.51250        1.9720628E-05
   28.63125        2.1716025E-05
   28.75000        2.3290098E-05
   28.86875        2.4428067E-05
   28.98750        2.5121943E-05
   29.10625        2.5370886E-05
   29.22500        2.5181382E-05
   29.34375        2.4567285E-05
   29.46250        2.3549688E-05
   29.58125        2.2156650E-05
   29.70000        2.0422754E-05
   29.81875        1.8388553E-05
   29.93750        1.6099882E-05
   30.05625        1.3607106E-05
   30.17500        1.0964259E-05
   30.29375        8.2281849E-06
   30.41250        5.4575989E-06
   30.53125        2.7122394E-06
   30.65000        5.1954668E-08
   30.76875       -2.4641201E-06
   30.88750       -4.7783192E-06
   31.00625       -6.8351746E-06
   31.12500       -8.5820675E-06
   31.24375       -9.9697800E-06
   31.36250       -1.0953040E-05
   31.48125       -1.1490971E-05
   31.60000       -1.1547531E-05
   31.71875       -1.1091906E-05
   31.83750       -1.0098893E-05
   31.95625       -8.5492720E-06
   32.07500       -6.4302039E-06
   32.19375       -3.7355981E-06
   32.31250       -4.6651061E-07
   32.43125        3.3684694E-06
   32.55000        7.7528430E-06
   32.66875        1.2661844E-05
   32.78750        1.8062110E-05
   32.90625        2.3911478E-05
   33.02500        3.0158821E-05
   33.14375        3.6744048E-05
   33.26250        4.3598215E-05
   33.38125        5.0643841E-05
   33.50000        5.7795412E-05
   33.61875        6.4960099E-05
   33.73750        7.2038682E-05
   33.85625        7.8926736E-05
   33.97500        8.5515960E-05
   34.09375        9.1695809E-05
   34.21250        9.7355194E-05
   34.33125        1.0238442E-04
   34.45000        1.0667719E-04
   34.56875        1.1013266E-04
   34.68750        1.1265754E-04
   34.80625        1.1416811E-04
   34.92500        1.1459224E-04
   35.04375        1.1387111E-04
   35.16250        1.1196087E-04
   35.28125        1.0883398E-04
   35.40000        1.0448030E-04
   35.51875        9.8907767E-05
   35.63750        9.2142880E-05
   35.75625        8.4230662E-05
   35.87500        7.5234326E-05
   35.99375        6.5234562E-05
   36.11250        5.4328397E-05
   36.23125        4.2627777E-05
   36.35000        3.0257845E-05
   36.46875        1.7354820E-05
   36.58750        4.0638001E-06
   36.70625       -9.4637389E-06
   36.82500       -2.3072498E-05
   36.94375       -3.6606030E-05
   37.06250       -4.9909399E-05
   37.18125       -6.2831794E-05
   37.30000       -7.5228993E-05
   37.41875       -8.6965731E-05
   37.53750       -9.7917786E-05
   37.65625       -1.0797382E-04
   37.77500       -1.1703691E-04
   37.89375       -1.2502572E-04
   38.01250       -1.3187531E-04
   38.13125       -1.3753762E-04
   38.25000       -1.4198151E-04
   38.36875       -1.4519243E-04
   38.48750       -1.4717184E-04
   38.60625       -1.4793614E-04
   38.72500       -1.4751549E-04
   38.84375       -1.4595229E-04
   38.96250       -1.4329961E-04
   39.08125       -1.3961927E-04
   39.20000       -1.3498012E-04
   39.31875       -1.2945621E-04
   39.43750       -1.2312502E-04
   39.55625       -1.1606582E-04
   39.67500       -1.0835826E-04
   39.79375       -1.0008111E-04
   39.91250       -9.1311260E-05
   40.03125       -8.2123021E-05
   40.15000       -7.2587653E-05
   40.26875       -6.2773186E-05
   40.38750       -5.2744457E-05
   40.50625       -4.2563381E-05
   40.62500       -3.2289419E-05
   40.74375       -2.1980108E-05
   40.86250       -1.1691733E-05
   40.98125       -1.4799555E-06
   41.10000        8.5995271E-06
   41.21875        1.8490473E-05
   41.33750        2.8135702E-05
   41.45625        3.7476882E-05
   41.57500        4.6454526E-05
   41.69375        5.5008211E-05
   41.81250        6.3077030E-05
   41.93125        7.0600283E-05
   42.05000        7.7518329E-05
   42.16875        8.3773681E-05
   42.28750        8.9312154E-05
   42.40625        9.4084186E-05
   42.52500        9.8046105E-05
   42.64375        1.0116144E-04
   42.76250        1.0340208E-04
   42.88125        1.0474940E-04
   43.00000        1.0519505E-04
   43.11875        1.0474167E-04
   43.23750        1.0340324E-04
   43.35625        1.0120526E-04
   43.47500        9.8184457E-05
   43.59375        9.4388415E-05
   43.71250        8.9874775E-05
   43.83125        8.4710271E-05
   43.95000        7.8969460E-05
   44.06875        7.2733339E-05
   44.18750        6.6087792E-05
   44.30625        5.9121940E-05
   44.42500        5.1926436E-05
   44.54375        4.4591798E-05
   44.66250        3.7206733E-05
   44.78125        2.9856601E-05
   44.90000        2.2621920E-05
   45.01875        1.5577136E-05
   45.13750        8.7894268E-06
   45.25625        2.3177940E-06
   45.37500       -3.7876910E-06
   45.49375       -9.4864427E-06
   45.61250       -1.4747709E-05
   45.73125       -1.9550766E-05
   45.85000       -2.3884832E-05
   45.96875       -2.7748927E-05
   46.08750       -3.1151485E-05
   46.20625       -3.4109882E-05
   46.32500       -3.6649715E-05
   46.44375       -3.8804061E-05
   46.56250       -4.0612580E-05
   46.68125       -4.2120511E-05
   46.80000       -4.3377549E-05
   46.91875       -4.4436649E-05
   47.03750       -4.5352790E-05
   47.15625       -4.6181642E-05
   47.27500       -4.6978192E-05
   47.39375       -4.7795387E-05
   47.51250       -4.8682723E-05
   47.63125       -4.9684888E-05
   47.75000       -5.0840405E-05
   47.86875       -5.2180443E-05
   47.98750       -5.3727657E-05
   48.10625       -5.5495137E-05
   48.22500       -5.7485602E-05
   48.34375       -5.9690719E-05
   48.46250       -6.2090665E-05
   48.58125       -6.4653897E-05
   48.70000       -6.7337234E-05
   48.81875       -7.0086120E-05
   48.93750       -7.2835261E-05
   49.05625       -7.5509488E-05
   49.17500       -7.8024874E-05
   49.29375       -8.0290192E-05
   49.41250       -8.2208571E-05
   49.53125       -8.3679355E-05
   49.65000       -8.4600259E-05
   49.76875       -8.4869578E-05
   49.88750       -8.4388623E-05
   50.00625       -8.3064195E-05
   50.12500       -8.0811085E-05
   50.24375       -7.7554592E-05
   50.36250       -7.3232986E-05
   50.48125       -6.7799796E-05
   50.60000       -6.1225990E-05
   50.71875       -5.3501812E-05
   50.83750       -4.4638451E-05
   50.95625       -3.4669254E-05
   51.07500       -2.3650582E-05
   51.19375       -1.1662198E-05
   51.31250        1.1928732E-06
   51.43125        1.4788927E-05
   51.55000        2.8978755E-05
   51.66875        4.3595421E-05
   51.78750        5.8454541E-05
   51.90625        7.3357071E-05
   52.02500        8.8092667E-05
   52.14375        1.0244341E-04
   52.26250        1.1618791E-04
   52.38125        1.2910576E-04
   52.50000        1.4098210E-04
   52.61875        1.5161226E-04
   52.73750        1.6080645E-04
   52.85625        1.6839408E-04
   52.97500        1.7422800E-04
   53.09375        1.7818816E-04
   53.21250        1.8018471E-04
   53.33125        1.8016066E-04
   53.45000        1.7809344E-04
   53.56875        1.7399606E-04
   53.68750        1.6791713E-04
   53.80625        1.5994013E-04
   53.92500        1.5018179E-04
   54.04375        1.3878971E-04
   54.16250        1.2593920E-04
   54.28125        1.1182943E-04
   54.40000        9.6679098E-05
   54.51875        8.0721613E-05
   54.63750        6.4200074E-05
   54.75625        4.7362078E-05
   54.87500        3.0454568E-05
   54.99375        1.3718872E-05
   55.11250       -2.6139842E-06
   55.23125       -1.8327470E-05
   55.35000       -3.3223263E-05
   55.46875       -4.7124304E-05
   55.58750       -5.9877220E-05
   55.70625       -7.1353985E-05
   55.82500       -8.1452927E-05
   55.94375       -9.0099042E-05
   56.06250       -9.7243646E-05
   56.18125       -1.0286345E-04
   56.30000       -1.0695914E-04
   56.41875       -1.0955358E-04
   56.53750       -1.1068969E-04
   56.65625       -1.1042798E-04
   56.77500       -1.0884418E-04
   56.89375       -1.0602665E-04
   57.01250       -1.0207395E-04
   57.13125       -9.7092408E-05
   57.25000       -9.1193957E-05
   57.36875       -8.4494073E-05
   57.48750       -7.7110024E-05
   57.60625       -6.9159265E-05
   57.72500       -6.0758113E-05
   57.84375       -5.2020630E-05
   57.96250       -4.3057677E-05
   58.08125       -3.3976175E-05
   58.20000       -2.4878491E-05
   58.31875       -1.5861942E-05
   58.43750       -7.0183860E-06
   58.55625        1.5660506E-06
   58.67500        9.8113660E-06
   58.79375        1.7643810E-05
   58.91250        2.4996210E-05
   59.03125        3.1808078E-05
   59.15000        3.8025835E-05
   59.26875        4.3602988E-05
   59.38750        4.8500209E-05
   59.50625        5.2685515E-05
   59.62500        5.6134228E-05
   59.74375        5.8829119E-05
   59.86250        6.0760252E-05
   59.98125        6.1925057E-05
   60.10000        6.2328138E-05
   60.21875        6.1981111E-05
   60.33750        6.0902490E-05
   60.45625        5.9117308E-05
   60.57500        5.6656972E-05
   60.69375        5.3558873E-05
   60.81250        4.9866012E-05
   60.93125        4.5626657E-05
   61.05000        4.0893872E-05
   61.16875        3.5725072E-05
   61.28750        3.0181458E-05
   61.40625        2.4327486E-05
   61.52500        1.8230245E-05
   61.64375        1.1958750E-05
   61.76250        5.5832757E-06
   61.88125       -8.2543153E-07
   62.00000       -7.1969462E-06
   62.11875       -1.3461971E-05
   62.23750       -1.9553187E-05
   62.35625       -2.5406025E-05
   62.47500       -3.0959476E-05
   62.59375       -3.6156791E-05
   62.71250       -4.0946128E-05
   62.83125       -4.5281082E-05
   62.95000       -4.9121107E-05
   63.06875       -5.2431795E-05
   63.18750       -5.5185010E-05
   63.30625       -5.7358844E-05
   63.42500       -5.8937501E-05
   63.54375       -5.9910999E-05
   63.66250       -6.0274746E-05
   63.78125       -6.0029088E-05
   63.90000       -5.9178794E-05
   64.01875       -5.7732461E-05
   64.13750       -5.5702025E-05
   64.25625       -5.3102271E-05
   64.37500       -4.9950442E-05
   64.49375       -4.6266006E-05
   64.61250       -4.2070475E-05
   64.73125       -3.7387443E-05
   64.85000       -3.2242733E-05
   64.96875       -2.6664673E-05
   65.08750       -2.0684533E-05
   65.20625       -1.4336948E-05
   65.32500       -7.6604938E-06
   65.44375       -6.9815161E-07
   65.56250        6.5022182E-06
   65.68125        1.3887534E-05
   65.80000        2.1399295E-05
   65.91875        2.8973607E-05
   66.03750        3.6541431E-05
   66.15625        4.4029068E-05
   66.27500        5.1358955E-05
   66.39375        5.8450685E-05
   66.51250        6.5222310E-05
   66.63125        7.1591821E-05
   66.75000        7.7478842E-05
   66.86875        8.2806378E-05
   66.98750        8.7502696E-05
   67.10625        9.1503076E-05
   67.22500        9.4751544E-05
   67.34375        9.7202384E-05
   67.46250        9.8821445E-05
   67.58125        9.9587138E-05
   67.70000        9.9491081E-05
   67.81875        9.8538367E-05
   67.93750        9.6747521E-05
   68.05625        9.4149902E-05
   68.17500        9.0788890E-05
   68.29375        8.6718646E-05
   68.41250        8.2002662E-05
   68.53125        7.6711920E-05
   68.65000        7.0923059E-05
   68.76875        6.4716325E-05
   68.88750        5.8173544E-05
   69.00625        5.1376177E-05
   69.12500        4.4403401E-05
   69.24375        3.7330501E-05
   69.36250        3.0227362E-05
   69.48125        2.3157341E-05
   69.60000        1.6176333E-05
   69.71875        9.3322169E-06
   69.83750        2.6645871E-06
   69.95625       -3.7952507E-06
   70.07500       -1.0023996E-05
   70.19375       -1.6005833E-05
   70.31250       -2.1731736E-05
   70.43125       -2.7198614E-05
   70.55000       -3.2408308E-05
   70.66875       -3.7366586E-05
   70.78750       -4.2082083E-05
   70.90625       -4.6565245E-05
   71.02500       -5.0827319E-05
   71.14375       -5.4879438E-05
   71.26250       -5.8731752E-05
   71.38125       -6.2392683E-05
   71.50000       -6.5868306E-05
   71.61875       -6.9161833E-05
   71.73750       -7.2273186E-05
   71.85625       -7.5198761E-05
   71.97500       -7.7931269E-05
   72.09375       -8.0459715E-05
   72.21250       -8.2769475E-05
   72.33125       -8.4842555E-05
   72.45000       -8.6657928E-05
   72.56875       -8.8192013E-05
   72.68750       -8.9419300E-05
   72.80625       -9.0313108E-05
   72.92500       -9.0846377E-05
   73.04375       -9.0992704E-05
   73.16250       -9.0727357E-05
   73.28125       -9.0028399E-05
   73.40000       -8.8877852E-05
   73.51875       -8.7262844E-05
   73.63750       -8.5176696E-05
   73.75625       -8.2619939E-05
   73.87500       -7.9601174E-05
   73.99375       -7.6137752E-05
   74.11250       -7.2256189E-05
   74.23125       -6.7992311E-05
   74.35000       -6.3391089E-05
   74.46875       -5.8506121E-05
   74.58750       -5.3398780E-05
   74.70625       -4.8137019E-05
   74.82500       -4.2793825E-05
   74.94375       -3.7445443E-05
   75.06250       -3.2169341E-05
   75.18125       -2.7042006E-05
   75.30000       -2.2136659E-05
   75.41875       -1.7520999E-05
   75.53750       -1.3254982E-05
   75.65625       -9.3888520E-06
   75.77500       -5.9613740E-06
   75.89375       -2.9984449E-06
   76.01250       -5.1209440E-07
   76.13125        1.5000603E-06
   76.25000        3.0548592E-06
   76.36875        4.1831963E-06
   76.48750        4.9290916E-06
   76.60625        5.3483527E-06
   76.72500        5.5068322E-06
   76.84375        5.4783372E-06
   76.96250        5.3423460E-06
   77.08125        5.1814964E-06
   77.20000        5.0790754E-06
   77.31875        5.1164825E-06
   77.43750        5.3708368E-06
   77.55625        5.9127892E-06
   77.67500        6.8045556E-06
   77.79375        8.0983173E-06
   77.91250        9.8348901E-06
   78.03125        1.2042862E-05
   78.15000        1.4738015E-05
   78.26875        1.7923167E-05
   78.38750        2.1588277E-05
   78.50625        2.5710919E-05
   78.62500        3.0256955E-05
   78.74375        3.5181431E-05
   78.86250        4.0429637E-05
   78.98125        4.5938272E-05
   79.10000        5.1636671E-05
   79.21875        5.7448087E-05
   79.33750        6.3290958E-05
   79.45625        6.9080226E-05
   79.57500        7.4728581E-05
   79.69375        8.0147736E-05
   79.81250        8.5249696E-05
   79.93125        8.9947964E-05
   80.05000        9.4158837E-05
   80.16875        9.7802644E-05
   80.28750        1.0080498E-04
   80.40625        1.0309804E-04
   80.52500        1.0462186E-04
   80.64375        1.0532547E-04
   80.76250        1.0516819E-04
   80.88125        1.0412060E-04
   81.00000        1.0216553E-04
   81.11875        9.9298821E-05
   81.23750        9.5529860E-05
   81.35625        9.0881913E-05
   81.47500        8.5392101E-05
   81.59375        7.9111087E-05
   81.71250        7.2102470E-05
   81.83125        6.4441774E-05
   81.95000        5.6215194E-05
   82.06875        4.7517955E-05
   82.18750        3.8452516E-05
   82.30625        2.9126466E-05
   82.42500        1.9650312E-05
   82.54375        1.0135169E-05
   82.66250        6.9042113E-07
   82.78125       -8.5785960E-06
   82.90000       -1.7572709E-05
   83.01875       -2.6201000E-05
   83.13750       -3.4382541E-05
   83.25625       -4.2047952E-05
   83.37500       -4.9140610E-05
   83.49375       -5.5617609E-05
   83.61250       -6.1450308E-05
   83.73125       -6.6624685E-05
   83.85000       -7.1141258E-05
   83.96875       -7.5014839E-05
   84.08750       -7.8273930E-05
   84.20625       -8.0960002E-05
   84.32500       -8.3126426E-05
   84.44375       -8.4837389E-05
   84.56250       -8.6166532E-05
   84.68125       -8.7195462E-05
   84.80000       -8.8012232E-05
   84.91875       -8.8709654E-05
   85.03750       -8.9383517E-05
   85.15625       -9.0130721E-05
   85.27500       -9.1047339E-05
   85.39375       -9.2226532E-05
   85.51250       -9.3756607E-05
   85.63125       -9.5718824E-05
   85.75000       -9.8185286E-05
   85.86875       -1.0121692E-04
   85.98750       -1.0486143E-04
   86.10625       -1.0915149E-04
   86.22500       -1.1410307E-04
   86.34375       -1.1971400E-04
   86.46250       -1.2596289E-04
   86.58125       -1.3280845E-04
   86.70000       -1.4018921E-04
   86.81875       -1.4802365E-04
   86.93750       -1.5621106E-04
   87.05625       -1.6463266E-04
   87.17500       -1.7315346E-04
   87.29375       -1.8162456E-04
   87.41250       -1.8988580E-04
   87.53125       -1.9776901E-04
   87.65000       -2.0510150E-04
   87.76875       -2.1170966E-04
   87.88750       -2.1742290E-04
   88.00625       -2.2207746E-04
   88.12500       -2.2552013E-04
   88.24375       -2.2761177E-04
   88.36250       -2.2823058E-04
   88.48125       -2.2727480E-04
   88.60000       -2.2466510E-04
   88.71875       -2.2034626E-04
   88.83750       -2.1428830E-04
   88.95625       -2.0648709E-04
   89.07500       -1.9696433E-04
   89.19375       -1.8576691E-04
   89.31250       -1.7296578E-04
   89.43125       -1.5865441E-04
   89.55000       -1.4294681E-04
   89.66875       -1.2597532E-04
   89.78750       -1.0788812E-04
   89.90625       -8.8846609E-05
   90.02500       -6.9022863E-05
   90.14375       -4.8596878E-05
   90.26250       -2.7754151E-05
   90.38125       -6.6832013E-06
   90.50000        1.4426685E-05
   90.61875        3.5387533E-05
   90.73750        5.6014593E-05
   90.85625        7.6128097E-05
   90.97500        9.5554838E-05
   91.09375        1.1412959E-04
   91.21250        1.3169654E-04
   91.33125        1.4811040E-04
   91.45000        1.6323778E-04
   91.56875        1.7695817E-04
   91.68750        1.8916509E-04
   91.80625        1.9976718E-04
   91.92500        2.0868916E-04
   92.04375        2.1587277E-04
   92.16250        2.2127757E-04
   92.28125        2.2488172E-04
   92.40000        2.2668242E-04
   92.51875        2.2669627E-04
   92.63750        2.2495945E-04
   92.75625        2.2152743E-04
   92.87500        2.1647449E-04
   92.99375        2.0989307E-04
   93.11250        2.0189244E-04
   93.23125        1.9259745E-04
   93.35000        1.8214670E-04
   93.46875        1.7069055E-04
   93.58750        1.5838888E-04
   93.70625        1.4540859E-04
   93.82500        1.3192106E-04
   93.94375        1.1809946E-04
   94.06250        1.0411610E-04
   94.18125        9.0139751E-05
   94.30000        7.6333134E-05
   94.41875        6.2850544E-05
   94.53750        4.9835744E-05
   94.65625        3.7420010E-05
   94.77500        2.5720621E-05
   94.89375        1.4839517E-05
   95.01250        4.8624361E-06
   95.13125       -4.1417288E-06
   95.25000       -1.2121118E-05
   95.36875       -1.9040875E-05
   95.48750       -2.4882747E-05
   95.60625       -2.9644400E-05
   95.72500       -3.3338525E-05
   95.84375       -3.5991692E-05
   95.96250       -3.7643029E-05
   96.08125       -3.8342794E-05
   96.20000       -3.8150843E-05
   96.31875       -3.7135014E-05
   96.43750       -3.5369521E-05
   96.55625       -3.2933382E-05
   96.67500       -2.9908864E-05
   96.79375       -2.6380032E-05
   96.91250       -2.2431421E-05
   97.03125       -1.8146804E-05
   97.15000       -1.3608124E-05
   97.26875       -8.8946035E-06
   97.38750       -4.0819832E-06
   97.50625        7.5808282E-07
   97.62500        5.5584237E-06
   97.74375        1.0256679E-05
   97.86250        1.4795442E-05
   97.98125        1.9122323E-05
   98.10000        2.3189954E-05
   98.21875        2.6955877E-05
   98.33750        3.0382560E-05
   98.45625        3.3437205E-05
   98.57500        3.6091784E-05
   98.69375        3.8323007E-05
   98.81250        4.0112405E-05
   98.93125        4.1446492E-05
   99.05000        4.2317002E-05
   99.16875        4.2721265E-05
   99.28750        4.2662497E-05
   99.40625        4.2150306E-05
   99.52500        4.1201074E-05
   99.64375        3.9838469E-05
   99.76250        3.8093709E-05
   99.88125        3.6005844E-05
   100.0000        3.3621876E-05
   100.1188        3.0996689E-05
   100.2375        2.8192742E-05
   100.3562        2.5279496E-05
   100.4750        2.2332619E-05
   100.5938        1.9432935E-05
   100.7125        1.6665015E-05
   100.8313        1.4115598E-05
   100.9500        1.1871740E-05
   101.0687        1.0018869E-05
   101.1875        8.6386081E-06
   101.3063        7.8066096E-06
   101.4250        7.5903367E-06
   101.5437        8.0469799E-06
   101.6625        9.2214559E-06
   101.7812        1.1144646E-05
   101.9000        1.3831916E-05
   102.0188        1.7281958E-05
   102.1375        2.1475955E-05
   102.2562        2.6377274E-05
   102.3750        3.1931446E-05
   102.4938        3.8066697E-05
   102.6125        4.4694832E-05
   102.7312        5.1712585E-05
   102.8500        5.9003331E-05
   102.9688        6.6439148E-05
   103.0875        7.3883217E-05
   103.2063        8.1192367E-05
   103.3250        8.8219960E-05