  -3.00000000         0.00000000    
  -2.80999994         0.00000000    
  -2.61999989         0.00000000    
  -2.43000007         0.00000000    
  -2.24000001         0.00000000    
  -2.04999995         0.00000000    
  -1.86000001         0.00000000    
  -1.66999996         0.00000000    
  -1.48000002         0.00000000    
  -1.28999996         0.00000000    
  -1.10000002         0.00000000    
 -0.910000026         0.00000000    
 -0.720000029         0.00000000    
 -0.529999971         0.00000000    
 -0.340000004         0.00000000    
 -0.150000006         0.00000000    
   3.99999991E-02     0.00000000    
  0.230000004         0.00000000    
  0.419999987         0.00000000    
  0.610000014         0.00000000    
  0.800000012         0.00000000    
  0.990000010         0.00000000    
   1.17999995         0.00000000    
   1.37000000         0.00000000    
   1.55999994         0.00000000    
   1.75000000         0.00000000    
   1.94000006         0.00000000    
   2.13000011         0.00000000    
   2.31999993         0.00000000    
   2.50999999         0.00000000    
   2.70000005         0.00000000    
   2.89000010         0.00000000    
   3.07999992         0.00000000    
   3.26999998         0.00000000    
   3.46000004         0.00000000    
   3.65000010         0.00000000    
   3.83999991         0.00000000    
   4.03000021         0.00000000    
   4.21999979         0.00000000    
   4.40999985        -1.26116862E-43
   4.59999990        -1.35925951E-43
   4.78999996        -2.69049305E-43
   4.98000002        -3.88159675E-43
   5.17000008        -7.23070008E-43
   5.36000013        -2.06551394E-42
   5.55000019        -4.69434986E-42
   5.73999977        -7.23770657E-42
   5.92999983        -1.08250306E-41
   6.11999989        -1.27700329E-41
   6.30999994        -3.13977737E-40
   6.50000000        -7.02123398E-40
   6.69000006        -1.55319782E-39
   6.88000011        -1.07650691E-39
   7.07000017         1.60285703E-39
   7.26000023         8.90889091E-39
   7.44999981         2.03301881E-38
   7.63999987         3.84640958E-38
   7.82999992         6.98189449E-38
   8.02000046         1.04182785E-37
   8.21000004         1.54697611E-37
   8.39999962         2.22888740E-37
   8.59000015         2.97628036E-37
   8.77999973         3.78987470E-37
   8.97000027         4.53469196E-37
   9.15999985         4.94784811E-37
   9.35000038         4.58021735E-37
   9.53999996         2.76515109E-37
   9.72999954        -1.65142340E-37
   9.92000008        -1.01801002E-36
   10.1099997        -2.48604302E-36
   10.3000002        -4.84983614E-36
   10.4899998        -8.45674198E-36
   10.6800003        -1.37063316E-35
   10.8699999        -2.10318870E-35
   11.0600004        -3.08566578E-35
   11.2500000        -4.34829882E-35
   11.4399996        -5.89665906E-35
   11.6300001        -7.69163893E-35
   11.8199997        -9.62220531E-35
   12.0100002        -1.14723875E-34
   12.1999998        -1.28795346E-34
   12.3900003        -1.32902654E-34
   12.5799999        -1.19162583E-34
   12.7700005        -7.69760365E-35
   12.9600000         7.13843984E-36
   13.1499996         1.49427441E-34
   13.3400002         3.68219542E-34
   13.5299997         6.82539407E-34
   13.7200003         1.10972967E-33
   13.9099998         1.66189922E-33
   14.1000004         2.34089065E-33
   14.2900000         3.13175131E-33
   14.4799995         3.99464425E-33
   14.6700001         4.85543562E-33
   14.8599997         5.59543833E-33
   15.0500002         6.04114795E-33
   15.2399998         5.95528066E-33
   15.4300003         5.03074774E-33
   15.6199999         2.88985019E-33
   15.8100004        -9.08693959E-34
   16.0000000        -6.85188457E-33
   16.1900005        -1.54404607E-32
   16.3799992        -2.71396578E-32
   16.5699997        -4.23098268E-32
   16.7600002        -6.11146977E-32
   16.9500008        -8.34063318E-32
   17.1399994        -1.08587443E-31
   17.3299999        -1.35453848E-31
   17.5200005        -1.62022677E-31
   17.7099991        -1.85355135E-31
   17.8999996        -2.01386350E-31
   18.0900002        -2.04778757E-31
   18.2800007        -1.88820328E-31
   18.4699993        -1.45393029E-31
   18.6599998        -6.50418774E-32
   18.8500004         6.28206574E-32
   19.0400009         2.49536010E-31
   19.2299995         5.06604822E-31
   19.4200001         8.44831552E-31
   19.6100006         1.27316505E-30
   19.7999992         1.79719432E-30
   19.9899998         2.41726401E-30
   20.1800003         3.12619224E-30
   20.3700008         3.90658752E-30
   20.5599995         4.72779464E-30
   20.7500000         5.54254426E-30
   20.9400005         6.28342694E-30
   21.1299992         6.85938231E-30
   21.3199997         7.15248553E-30
   21.5100002         7.01539091E-30
   21.7000008         6.26990706E-30
   21.8899994         4.70727634E-30
   22.0799999         2.09083074E-30
   22.2700005        -1.83821305E-30
   22.4599991        -7.35102408E-30
   22.6499996        -1.47166717E-29
   22.8400002        -2.41821329E-29
   23.0300007        -3.59462035E-29
   23.2199993        -5.01268768E-29
   23.4099998        -6.67222360E-29
   23.6000004        -8.55651373E-29
   23.7900009        -1.06272790E-28
   23.9799995        -1.28192690E-28
   24.1700001        -1.50347360E-28
   24.3600006        -1.71380790E-28
   24.5499992        -1.89510676E-28
   24.7399998        -2.02490734E-28
   24.9300003        -2.07588405E-28
   25.1200008        -2.01583560E-28
   25.3099995        -1.80794134E-28
   25.5000000        -1.41134530E-28
   25.6900005        -7.82130141E-29
   25.8799992         1.25268713E-29
   26.0699997         1.35615910E-28
   26.2600002         2.95315453E-28
   26.4500008         4.95317741E-28
   26.6399994         7.38387722E-28
   26.8299999         1.02594654E-27
   27.0200005         1.35759611E-27
   27.2099991         1.73058884E-27
   27.3999996         2.13924595E-27
   27.5900002         2.57433220E-27
   27.7800007         3.02240019E-27
   27.9699993         3.46511852E-27
   28.1599998         3.87860874E-27
   28.3500004         4.23282539E-27
   28.5400009         4.49101980E-27
   28.7299995         4.60934662E-27
   28.9200001         4.53669053E-27
   29.1100006         4.21479099E-27
   29.2999992         3.57878536E-27
   29.4899998         2.55828381E-27
   29.6800003         1.07911261E-27
   29.8700008        -9.34132934E-28
   30.0599995        -3.55459299E-27
   30.2500000        -6.84857838E-27
   30.4400005        -1.08698562E-26
   30.6299992        -1.56527506E-26
   30.8199997        -2.12040727E-26
   31.0100002        -2.74940520E-26
   31.2000008        -3.44464681E-26
   31.3899994        -4.19283824E-26
   31.5799999        -4.97400220E-26
   31.7700005        -5.76054398E-26
   31.9599991        -6.51647980E-26
   32.1500015        -7.19692225E-26
   32.3400002        -7.74792742E-26
   32.5299988        -8.10680736E-26
   32.7200012        -8.20301265E-26
   32.9099998        -7.95967802E-26
   33.0999985        -7.29590211E-26
   33.2900009        -6.12979374E-26
   33.4799995        -4.38228842E-26
   33.6699982        -1.98167344E-26
   33.8600006         1.13129248E-26
   34.0499992         4.99784521E-26
   34.2400017         9.63551749E-26
   34.4300003         1.50325827E-25
   34.6199989         2.11429933E-25
   34.8100014         2.78822345E-25
   35.0000000         3.51244731E-25
   35.1899986         4.27014106E-25
   35.3800011         5.04031829E-25
   35.5699997         5.79816069E-25
   35.7599983         6.51557988E-25
   35.9500008         7.16203217E-25
   36.1399994         7.70554451E-25
   36.3300018         8.11392893E-25
   36.5200005         8.35610577E-25
   36.7099991         8.40345518E-25
   36.9000015         8.23109055E-25
   37.0900002         7.81893439E-25
   37.2799988         7.15245589E-25
   37.4700012         6.22296081E-25
   37.6599998         5.02728729E-25
   37.8499985         3.56683877E-25
   38.0400009         1.84587412E-25
   38.2299995        -1.30954331E-26
   38.4199982        -2.36176056E-25
   38.6100006        -4.85116472E-25
   38.7999992        -7.61442368E-25
   38.9900017        -1.06816608E-24
   39.1800003        -1.41018402E-24
   39.3699989        -1.79460551E-24
   39.5600014        -2.23096372E-24
   39.7500000        -2.73125300E-24
   39.9399986        -3.30974481E-24
   40.1300011        -3.98251892E-24
   40.3199997        -4.76668058E-24
   40.5099983        -5.67920214E-24
   40.7000008        -6.73539538E-24
   40.8899994        -7.94698555E-24
   41.0800018        -9.31982362E-24
   41.2700005        -1.08512661E-23
   41.4599991        -1.25273044E-23
   41.6500015        -1.43195404E-23
   41.8400002        -1.61821325E-23
   42.0299988        -1.80488867E-23
   42.2200012        -1.98306458E-23
   42.4099998        -2.14132064E-23
   42.5999985        -2.26559732E-23
   42.7900009        -2.33915528E-23
   42.9799995        -2.34265404E-23
   43.1699982        -2.25436788E-23
   43.3600006        -2.05055841E-23
   43.5499992        -1.70601947E-23
   43.7400017        -1.19480620E-23
   43.9300003        -4.91151742E-24
   44.1199989         4.29428030E-24
   44.3100014         1.58884554E-23
   44.5000000         3.00498765E-23
   44.6899986         4.69012076E-23
   44.8800011         6.64917667E-23
   45.0699997         8.87796558E-23
   45.2599983         1.13613679E-22
   45.4500008         1.40715456E-22
   45.6399994         1.69662461E-22
   45.8300018         1.99872716E-22
   46.0200005         2.30591818E-22
   46.2099991         2.60883067E-22
   46.4000015         2.89621837E-22
   46.5900002         3.15494683E-22
   46.7799988         3.37004357E-22
   46.9700012         3.52481581E-22
   47.1599998         3.60104628E-22
   47.3499985         3.57927069E-22
   47.5400009         3.43915183E-22
   47.7299995         3.15994959E-22
   47.9199982         2.72109554E-22
   48.1100006         2.10287586E-22
   48.2999992         1.28721829E-22
   48.4900017         2.58584440E-23
   48.6800003        -9.95044470E-23
   48.8699989        -2.48109604E-22
   49.0600014        -4.20127048E-22
   49.2500000        -6.15036452E-22
   49.4399986        -8.31507710E-22
   49.6300011        -1.06728453E-21
   49.8199997        -1.31907459E-21
   50.0099983        -1.58245225E-21
   50.2000008        -1.85177769E-21
   50.3899994        -2.12014166E-21
   50.5800018        -2.37934000E-21
   50.7700005        -2.61988557E-21
   50.9599991        -2.83106624E-21
   51.1500015        -3.00105347E-21
   51.3400002        -3.11706737E-21
   51.5299988        -3.16560869E-21
   51.7200012        -3.13275149E-21
   51.9099998        -3.00451083E-21
   52.0999985        -2.76727619E-21
   52.2900009        -2.40831252E-21
   52.4799995        -1.91632060E-21
   52.6699982        -1.28205190E-21
   52.8600006        -4.98962070E-22
   53.0499992         4.36112601E-22
   53.2400017         1.52227264E-21
   53.4300003         2.75389469E-21
   53.6199989         4.12001619E-21
   53.8100014         5.60378918E-21
   54.0000000         7.18205141E-21
   54.1899986         8.82502840E-21
   54.3800011         1.04962103E-20
   54.5699997         1.21524311E-20
   54.7599983         1.37441843E-20
   54.9500008         1.52161942E-20
   55.1399994         1.65082648E-20
   55.3300018         1.75564222E-20
   55.5200005         1.82943546E-20
   55.7099991         1.86551362E-20
   55.9000015         1.85732291E-20
   56.0900002         1.79867161E-20
   56.2799988         1.68397526E-20
   56.4700012         1.50851458E-20
   56.6599998         1.26870119E-20
   56.8499985         9.62342571E-21
   57.0400009         5.88898272E-21
   57.2299995         1.49713481E-21
   57.4199982        -3.51776044E-21
   57.6100006        -9.09882518E-21
   57.7999992        -1.51655762E-20
   57.9900017        -2.16134685E-20
   58.1800003        -2.83141920E-20
   58.3699989        -3.51167800E-20
   58.5600014        -4.18496037E-20
   58.7500000        -4.83232807E-20
   58.9399986        -5.43345411E-20
   59.1300011        -5.96709935E-20
   59.3199997        -6.41167338E-20
   59.5099983        -6.74587762E-20
   59.7000008        -6.94940217E-20
   59.8899994        -7.00367556E-20
   60.0800018        -6.89263497E-20
   60.2700005        -6.60349075E-20
   60.4599991        -6.12747222E-20
   60.6500015        -5.46050034E-20
   60.8400002        -4.60377968E-20
   61.0299988        -3.56426342E-20
   61.2200012        -2.35495881E-20
   61.4099998        -9.95056918E-21
   61.5999985         4.90149871E-21
   61.7900009         2.06958602E-20
   61.9799995         3.70694206E-20
   62.1699982         5.36148585E-20
   62.3600006         6.98911007E-20
   62.5499992         8.54361574E-20
   62.7400017         9.97820541E-20
   62.9300003         1.12471412E-19
   63.1199989         1.23075389E-19
   63.3100014         1.31212132E-19
   63.5000000         1.36565322E-19
   63.6899986         1.38901862E-19
   63.8800011         1.38087993E-19
   64.0699997         1.34102883E-19
   64.2600021         1.27048867E-19
   64.4499969         1.17157545E-19
   64.6399994         1.04790807E-19
   64.8300018         9.04363995E-20
   65.0199966         7.46972463E-20
   65.2099991         5.82744800E-20
   65.4000015         4.19439378E-20
   65.5899963         2.65264496E-20
   65.7799988         1.28524246E-20
   65.9700012         1.72156218E-21
   66.1600037        -6.14119728E-21
   66.3499985        -1.01319124E-20
   66.5400009        -9.81433156E-21
   66.7300034        -4.96494322E-21
   66.9199982         4.38573423E-21
   67.1100006         1.79182556E-20
   67.3000031         3.49979116E-20
   67.4899979         5.46596942E-20
   67.6800003         7.56064018E-20
   67.8700027         9.62223470E-20
   68.0599976         1.14603780E-19
   68.2500000         1.28607431E-19
   68.4400024         1.35917316E-19
   68.6299973         1.34129882E-19
   68.8199997         1.20855818E-19
   69.0100021         9.38368938E-20
   69.1999969         5.10747322E-20
   69.3899994        -9.03250694E-21
   69.5800018        -8.75502048E-20
   69.7699966        -1.84869684E-19
   69.9599991        -3.00579262E-19
   70.1500015        -4.33350850E-19
   70.3399963        -5.80848966E-19
   70.5299988        -7.39669091E-19
   70.7200012        -9.05312784E-19
   70.9100037        -1.07220485E-18
   71.0999985        -1.23375850E-18
   71.2900009        -1.38249260E-18
   71.4800034        -1.51020205E-18
   71.6699982        -1.60818438E-18
   71.8600006        -1.66751753E-18
   72.0500031        -1.67938747E-18
   72.2399979        -1.63545746E-18
   72.4300003        -1.52827005E-18
   72.6200027        -1.35167020E-18
   72.8099976        -1.10123506E-18
   73.0000000        -7.74694297E-19
   73.1900024        -3.72322808E-19
   73.3799973         1.02713905E-19
   73.5699997         6.44079945E-19
   73.7600021         1.24207673E-18
   73.9499969         1.88355560E-18
   74.1399994         2.55195145E-18
   74.3300018         3.22745485E-18
   74.5199966         3.88732908E-18
   74.7099991         4.50638113E-18
   74.9000015         5.05758782E-18
   75.0899963         5.51286886E-18
   75.2799988         5.84400001E-18
   75.4700012         6.02364337E-18
   75.6600037         6.02647605E-18
   75.8499985         5.83037883E-18
   76.0400009         5.41765085E-18
   76.2300034         4.77620662E-18
   76.4199982         3.90070832E-18
   76.6100006         2.79358104E-18
   76.8000031         1.46586052E-18
   76.9899979        -6.21800391E-20
   77.1800003        -1.76067317E-18
   77.3700027        -3.59011275E-18
   77.5599976        -5.50166304E-18
   77.7500000        -7.43784677E-18
   77.9400024        -9.33363472E-18
   78.1299973        -1.11179353E-17
   78.3199997        -1.27154775E-17
   78.5100021        -1.40490638E-17
   78.6999969        -1.50421405E-17
   78.8899994        -1.56216434E-17
   79.0800018        -1.57210159E-17
   79.2699966        -1.52833397E-17
   79.4599991        -1.42644451E-17
   79.6500015        -1.26359076E-17
   79.8399963        -1.03877896E-17
   80.0299988        -7.53100550E-18
   80.2200012        -4.09918906E-18
   80.4100037        -1.49939540E-19
   80.5999985         4.23468084E-18
   80.7900009         8.94846634E-18
   80.9800034         1.38623022E-17
   81.1699982         1.88263495E-17
   81.3600006         2.36732126E-17
   81.5500031         2.82220459E-17
   81.7399979         3.22835854E-17
   81.9300003         3.56659799E-17
   82.1200027         3.81813137E-17
   82.3099976         3.96526331E-17
   82.5000000         3.99212948E-17
   82.6900024         3.88543873E-17
   82.8799973         3.63519343E-17
   83.0699997         3.23536774E-17
   83.2600021         2.68450499E-17
   83.4499969         1.98621368E-17
   83.6399994         1.14952851E-17
   83.8300018         1.89111541E-18
   84.0199966        -8.74724473E-18
   84.2099991        -2.01619583E-17
   84.4000015        -3.20443648E-17
   84.5899963        -4.40410446E-17
   84.7799988        -5.57620384E-17
   84.9700012        -6.67910758E-17
   85.1600037        -7.66977746E-17
   85.3499985        -8.50513062E-17
   85.5400009        -9.14354067E-17
   85.7300034        -9.54641469E-17
   85.9199982        -9.67980716E-17
   86.1100006        -9.51600620E-17
   86.3000031        -9.03503575E-17
   86.4899979        -8.22601539E-17
   86.6800003        -7.08831581E-17
   86.8700027        -5.63243823E-17
   87.0599976        -3.88058417E-17
   87.2500000        -1.86684358E-17
   87.4400024         3.63017063E-18
   87.6299973         2.75220741E-17
   87.8199997         5.23401080E-17
   88.0100021         7.73333140E-17
   88.1999969         1.01686696E-16
   88.3899994         1.24544879E-16
   88.5800018         1.45039146E-16
   88.7699966         1.62317162E-16
   88.9599991         1.75574511E-16
   89.1500015         1.84087007E-16
   89.3399963         1.87242748E-16
   89.5299988         1.84572648E-16
   89.7200012         1.75778170E-16
   89.9100037         1.60755114E-16
   90.0999985         1.39612206E-16
   90.2900009         1.12683413E-16
   90.4800034         8.05328949E-17
   90.6699982         4.39521260E-17
   90.8600006         3.94818683E-18
   91.0500031        -3.82764991E-17
   91.2399979        -8.13534184E-17
   91.4300003        -1.23785540E-16
   91.6200027        -1.63992633E-16
   91.8099976        -2.00363248E-16
   92.0000000        -2.31311834E-16
   92.1900024        -2.55339644E-16
   92.3799973        -2.71096998E-16
   92.5699997        -2.77445086E-16
   92.7600021        -2.73515038E-16
   92.9499969        -2.58761207E-16
   93.1399994        -2.33007144E-16
   93.3300018        -1.96481415E-16
   93.5199966        -1.49841028E-16
   93.7099991        -9.41811037E-17
   93.9000015        -3.10288352E-17
   94.0899963         3.76789967E-17
   94.2799988         1.09635564E-16
   94.4700012         1.82220491E-16
   94.6600037         2.52572546E-16
   94.8499985         3.17677351E-16
   95.0400009         3.74467549E-16
   95.2300034         4.19933657E-16
   95.4199982         4.51241291E-16
   95.6100006         4.65852027E-16
   95.8000031         4.61643227E-16
   95.9899979         4.37021938E-16
   96.1800003         3.91029663E-16
   96.3700027         3.23431696E-16
   96.5599976         2.34788030E-16
   96.7500000         1.26500784E-16
   96.9400024         8.35317640E-19
   97.1299973        -1.39088408E-16
   97.3199997        -2.89335840E-16
   97.5100021        -4.45230375E-16
   97.6999969        -6.01458614E-16
   97.8899994        -7.52206603E-16
   98.0800018        -8.91325465E-16
   98.2699966        -1.01252148E-15
   98.4599991        -1.10956753E-15
   98.6500015        -1.17652876E-15
   98.8399963        -1.20799561E-15
   99.0299988        -1.19931776E-15
   99.2200012        -1.14682957E-15
   99.4100037        -1.04805917E-15
   99.5999985        -9.01912635E-16
   99.7900009        -7.08824858E-16
   99.9800034        -4.70869798E-16
   100.169998        -1.91822562E-16
   100.360001         1.22831014E-16
   100.550003         4.65943401E-16
   100.739998         8.28813163E-16
   100.930000         1.20135371E-15
   101.120003         1.57232111E-15
   101.309998         1.92959696E-15
   101.500000         2.26052130E-15
   101.690002         2.55226697E-15
   101.879997         2.79224644E-15
   102.070000         2.96853835E-15
   102.260002         3.07032270E-15
   102.449997         3.08830860E-15
   102.639999         3.01514210E-15
   102.830002         2.84577744E-15
   103.019997         2.57779697E-15
   103.209999         2.21166888E-15
   103.400002         1.75092436E-15
   103.589996         1.20225252E-15
   103.779999         5.75494672E-16
   103.970001        -1.16460108E-16
   104.160004        -8.57883704E-16
   104.349998        -1.63052159E-15
   104.540001        -2.41400324E-15
   104.730003        -3.18634461E-15
   104.919998        -3.92453023E-15
   105.110001        -4.60516016E-15
   105.300003        -5.20514452E-15
   105.489998        -5.70242782E-15
   105.680000        -6.07671643E-15
   105.870003        -6.31019217E-15
   106.059998        -6.38818061E-15
   106.250000        -6.29975799E-15
   106.440002        -6.03827045E-15
   106.629997        -5.60174101E-15
   106.820000        -4.99315504E-15
   107.010002        -4.22060128E-15
   107.199997        -3.29725913E-15
   107.389999        -2.24122779E-15
   107.580002        -1.07519652E-15
   107.769997         1.74044254E-16
   107.959999         1.47624121E-15
   108.150002         2.79844354E-15
   108.339996         4.10589014E-15
   108.529999         5.36298021E-15
   108.720001         6.53430989E-15
   108.910004         7.58573570E-15
   109.099998         8.48544054E-15
   109.290001         9.20495691E-15
   109.480003         9.72012405E-15
   109.669998         1.00119294E-14
   109.860001         1.00672297E-14
   110.050003         9.87928747E-15
   110.239998         9.44813668E-15
   110.430000         8.78073486E-15
   110.620003         7.89089710E-15
   110.809998         6.79901107E-15
   111.000000         5.53153511E-15
   111.190002         4.12028420E-15
   111.379997         2.60152829E-15
   111.570000         1.01492663E-15
   111.760002        -5.97676188E-16
   111.949997        -2.19354471E-15
   112.139999        -3.73040467E-15
   112.330002        -5.16780773E-15
   112.519997        -6.46845308E-15
   112.709999        -7.59943222E-15
   112.900002        -8.53334110E-15
   113.089996        -9.24922201E-15
   113.279999        -9.73329710E-15
   113.470001        -9.97946690E-15
   113.660004        -9.98953304E-15
   113.849998        -9.77315932E-15
   114.040001        -9.34753627E-15
   114.230003        -8.73677131E-15
   114.419998        -7.97101202E-15
   114.610001        -7.08533404E-15
   114.800003        -6.11841629E-15
   114.989998        -5.11105821E-15
   115.180000        -4.10458317E-15
   115.370003        -3.13918372E-15
   115.559998        -2.25226908E-15
   115.750000        -1.47688273E-15
   115.940002        -8.40240061E-16
   116.129997        -3.62457918E-16
   116.320000        -5.55227715E-17
   116.510002         7.74529243E-17
   116.699997         4.26467589E-17
   116.889999        -1.44416987E-16
   117.080002        -4.59179367E-16
   117.269997        -8.68733614E-16
   117.459999        -1.33288480E-15
   117.650002        -1.80554115E-15
   117.839996        -2.23641622E-15
   118.029999        -2.57298031E-15
   118.220001        -2.76260262E-15
   118.410004        -2.75481669E-15
   118.599998        -2.50362356E-15
   118.790001        -1.96974865E-15
   118.980003        -1.12278473E-15
   119.169998         5.69005566E-17
   119.360001         1.57653160E-15
   119.550003         3.42966817E-15
   119.739998         5.59538530E-15
   119.930000         8.03792678E-15
   120.120003         1.07068844E-14
   120.309998         1.35379184E-14
   120.500000         1.64540114E-14
   120.690002         1.93672525E-14
   120.879997         2.21811078E-14
   121.070000         2.47931202E-14
   121.260002         2.70979731E-14
   121.449997         2.89908275E-14
   121.639999         3.03708271E-14
   121.830002         3.11446662E-14
   122.019997         3.12301082E-14
   122.209999         3.05593157E-14
   122.400002         2.90819072E-14
   122.589996         2.67675930E-14
   122.779999         2.36082872E-14
   122.970001         1.96196514E-14
   123.160004         1.48419383E-14
   123.349998         9.34009594E-15
   123.540001         3.20314996E-15
   123.730003        -3.45723443E-15
   123.919998        -1.05089057E-14
   124.110001        -1.78021067E-14
   124.300003        -2.51729959E-14
   124.489998        -3.24477180E-14
   124.680000        -3.94469207E-14
   124.870003        -4.59905992E-14
   125.059998        -5.19030789E-14
   125.250000        -5.70180499E-14
   125.440002        -6.11834734E-14
   125.629997        -6.42661515E-14
   125.820000        -6.61558956E-14
   126.010002        -6.67691339E-14
   126.199997        -6.60517648E-14
   126.389999        -6.39812368E-14
   126.580002        -6.05677617E-14
   126.769997        -5.58545587E-14
   126.959999        -4.99171424E-14
   127.150002        -4.28617306E-14
   127.339996        -3.48226256E-14
   127.529999        -2.59588900E-14
   127.720001        -1.64501811E-14
   127.910004        -6.49201626E-15
   128.100006         3.70944569E-15
   128.289993         1.39429153E-14
   128.479996         2.39976445E-14
   128.669998         3.36690311E-14
   128.860001         4.27640101E-14
   129.050003         5.11060378E-14
   129.240005         5.85395312E-14
   129.429993         6.49335864E-14
   129.619995         7.01848925E-14
   129.809998         7.42197509E-14
   130.000000         7.69950713E-14
   130.190002         7.84984260E-14
   130.380005         7.87471013E-14
   130.570007         7.77861865E-14
   130.759995         7.56858362E-14
   130.949997         7.25377671E-14
   131.139999         6.84511109E-14
   131.330002         6.35478676E-14
   131.520004         5.79580803E-14
   131.710007         5.18148519E-14
   131.899994         4.52495707E-14
   132.089996         3.83873841E-14
   132.279999         3.13431532E-14
   132.470001         2.42180442E-14
   132.660004         1.70969281E-14
   132.850006         1.00466468E-14
   133.039993         3.11523704E-15
   133.229996        -3.66785426E-15
   133.419998        -1.02905567E-14
   133.610001        -1.67560227E-14
   133.800003        -2.30796200E-14
   133.990005        -2.92852053E-14
   134.179993        -3.54008171E-14
   134.369995        -4.14540093E-14
   134.559998        -4.74669606E-14
   134.750000        -5.34517228E-14
   134.940002        -5.94057003E-14
   135.130005        -6.53076700E-14
   135.320007        -7.11145213E-14
   135.509995        -7.67589727E-14
   135.699997        -8.21483316E-14
   135.889999        -8.71645692E-14
   136.080002        -9.16656006E-14
   136.270004        -9.54880570E-14
   136.460007        -9.84512764E-14
   136.649994        -1.00362725E-13
   136.839996        -1.01024386E-13
   137.029999        -1.00240257E-13
   137.220001        -9.78246008E-14
   137.410004        -9.36105712E-14
   137.600006        -8.74590927E-14
   137.789993        -7.92676607E-14
   137.979996        -6.89785008E-14
   138.169998        -5.65860191E-14
   138.360001        -4.21430130E-14
   138.550003        -2.57654768E-14
   138.740005        -7.63550735E-15
   138.929993         1.19976025E-14
   139.119995         3.28186236E-14
   139.309998         5.44497986E-14
   139.500000         7.64567039E-14
   139.690002         9.83562461E-14
   139.880005         1.19627032E-13
   140.070007         1.39721527E-13
   140.259995         1.58080051E-13
   140.449997         1.74146071E-13
   140.639999         1.87382472E-13
   140.830002         1.97288326E-13
   141.020004         2.03415626E-13
   141.210007         2.05385473E-13
   141.399994         2.02903354E-13
   141.589996         1.95772530E-13
   141.779999         1.83905598E-13
   141.970001         1.67333378E-13
   142.160004         1.46210816E-13
   142.350006         1.20819641E-13
   142.539993         9.15675074E-14
   142.729996         5.89833290E-14
   142.919998         2.37091908E-14
   143.110001        -1.35117510E-14
   143.300003        -5.18504747E-14
   143.490005        -9.04106502E-14
   143.679993        -1.28249868E-13
   143.869995        -1.64403118E-13
   144.059998        -1.97907784E-13
   144.250000        -2.27829772E-13
   144.440002        -2.53289821E-13
   144.630005        -2.73489212E-13
   144.820007        -2.87734436E-13
   145.009995        -2.95459620E-13
   145.199997        -2.96246453E-13
   145.389999        -2.89840444E-13
   145.580002        -2.76163478E-13
   145.770004        -2.55321832E-13
   145.960007        -2.27609408E-13
   146.149994        -1.93505720E-13
   146.339996        -1.53669178E-13
   146.529999        -1.08924812E-13
   146.720001        -6.02474003E-14
   146.910004        -8.74001036E-15
   147.100006         4.43916009E-14
   147.289993         9.78679350E-14
   147.479996         1.50367417E-13
   147.669998         2.00560028E-13
   147.860001         2.47141825E-13
   148.050003         2.88869541E-13
   148.240005         3.24594301E-13
   148.429993         3.53293485E-13
   148.619995         3.74099704E-13
   148.809998         3.86326333E-13
   149.000000         3.89488463E-13
   149.190002         3.83318919E-13
   149.380005         3.67778724E-13
   149.570007         3.43061544E-13
   149.759995         3.09592114E-13
   149.949997         2.68018599E-13
   150.139999         2.19198588E-13
   150.330002         1.64180030E-13
   150.520004         1.04176338E-13
   150.710007         4.05373977E-14