  -3.00000000         0.00000000    
  -2.80999994         0.00000000    
  -2.61999989         0.00000000    
  -2.43000007         0.00000000    
  -2.24000001         0.00000000    
  -2.04999995         0.00000000    
  -1.86000001         0.00000000    
  -1.66999996         0.00000000    
  -1.48000002         0.00000000    
  -1.28999996         0.00000000    
  -1.10000002         0.00000000    
 -0.910000026         0.00000000    
 -0.720000029         0.00000000    
 -0.529999971         0.00000000    
 -0.340000004         0.00000000    
 -0.150000006         0.00000000    
   3.99999991E-02     0.00000000    
  0.230000004         0.00000000    
  0.419999987         0.00000000    
  0.610000014         0.00000000    
  0.800000012         0.00000000    
  0.990000010         0.00000000    
   1.17999995         0.00000000    
   1.37000000         0.00000000    
   1.55999994         0.00000000    
   1.75000000         0.00000000    
   1.94000006         0.00000000    
   2.13000011         0.00000000    
   2.31999993         0.00000000    
   2.50999999         0.00000000    
   2.70000005         0.00000000    
   2.89000010         0.00000000    
   3.07999992         0.00000000    
   3.26999998         0.00000000    
   3.46000004         0.00000000    
   3.65000010         0.00000000    
   3.83999991         0.00000000    
   4.03000021         0.00000000    
   4.21999979         0.00000000    
   4.40999985         3.92363570E-44
   4.59999990         2.71851902E-43
   4.78999996         8.32371288E-43
   4.98000002         3.03100858E-42
   5.17000008         7.82625192E-42
   5.36000013         1.40003730E-41
   5.55000019         2.60459346E-41
   5.73999977         4.50265223E-41
   5.92999983         7.38596395E-41
   6.11999989        -2.83775551E-40
   6.30999994        -5.99119553E-40
   6.50000000        -1.47527581E-39
   6.69000006        -1.40675792E-39
   6.88000011        -4.98445647E-39
   7.07000017        -1.17468973E-38
   7.26000023        -2.52465582E-38
   7.44999981        -4.61007044E-38
   7.63999987        -8.93532977E-38
   7.82999992        -1.58346648E-37
   8.02000046        -2.65588008E-37
   8.21000004        -4.21934376E-37
   8.39999962        -6.52380486E-37
   8.59000015        -9.76050433E-37
   8.77999973        -1.42203105E-36
   8.97000027        -2.02410815E-36
   9.15999985        -2.81320662E-36
   9.35000038        -3.81197665E-36
   9.53999996        -5.03457293E-36
   9.72999954        -6.47609857E-36
   9.92000008        -8.09346730E-36
   10.1099997        -9.80160394E-36
   10.3000002        -1.14560735E-35
   10.4899998        -1.28494146E-35
   10.6800003        -1.36969486E-35
   10.8699999        -1.36639337E-35
   11.0600004        -1.24067388E-35
   11.2500000        -9.64837641E-36
   11.4399996        -5.32874892E-36
   11.6300001         2.07107474E-37
   11.8199997         5.90345976E-36
   12.0100002         9.60444174E-36
   12.1999998         7.57063203E-36
   12.3900003        -6.10006593E-36
   12.5799999        -4.00837145E-35
   12.7700005        -1.06460127E-34
   12.9600000        -2.21193277E-34
   13.1499996        -4.04355822E-34
   13.3400002        -6.79899780E-34
   13.5299997        -1.07468873E-33
   13.7200003        -1.61651834E-33
   13.9099998        -2.33082016E-33
   14.1000004        -3.23567751E-33
   14.2900000        -4.33490248E-33
   14.4799995        -5.60899509E-33
   14.6700001        -7.00394358E-33
   14.8599997        -8.41817349E-33
   15.0500002        -9.68823416E-33
   15.2399998        -1.05743152E-32
   15.4300003        -1.07472929E-32
   15.6199999        -9.77959064E-33
   15.8100004        -7.14285395E-33
   16.0000000        -2.21611983E-33
   16.1900005         5.69125692E-33
   16.3799992         1.72973200E-32
   16.5699997         3.32811750E-32
   16.7600002         5.41882854E-32
   16.9500008         8.03042316E-32
   17.1399994         1.11495345E-31
   17.3299999         1.47017492E-31
   17.5200005         1.85297782E-31
   17.7099991         2.23698714E-31
   17.8999996         2.58279854E-31
   18.0900002         2.83578984E-31
   18.2800007         2.92440895E-31
   18.4699993         2.75930278E-31
   18.6599998         2.23371175E-31
   18.8500004         1.22561343E-31
   19.0400009        -3.97863989E-32
   19.2299995        -2.77323050E-31
   19.4200001        -6.03013697E-31
   19.6100006        -1.02771788E-30
   19.7999992        -1.55837515E-30
   19.9899998        -2.19578978E-30
   20.1800003        -2.93204214E-30
   20.3700008        -3.74758508E-30
   20.5599995        -4.60813496E-30
   20.7500000        -5.46150925E-30
   20.9400005        -6.23462493E-30
   21.1299992        -6.83092745E-30
   21.3199997        -7.12857164E-30
   21.5100002        -6.97973638E-30
   21.7000008        -6.21149195E-30
   21.8899994        -4.62867696E-30
   22.0799999        -2.01924783E-30
   22.2700005         1.83744193E-30
   22.4599991         7.15901112E-30
   22.6499996         1.41447126E-29
   22.8400002         2.29561400E-29
   23.0300007         3.36938675E-29
   23.2199993         4.63700736E-29
   23.4099998         6.08774659E-29
   23.6000004         7.69550208E-29
   23.7900009         9.41514446E-29
   23.9799995         1.11787546E-28
   24.1700001         1.28919223E-28
   24.3600006         1.44302985E-28
   24.5499992         1.56366938E-28
   24.7399998         1.63190015E-28
   24.9300003         1.62493394E-28
   25.1200008         1.51648470E-28
   25.3099995         1.27706140E-28
   25.5000000         8.74528977E-29
   25.6900005         2.74995081E-29
   25.8799992        -5.55917391E-29
   26.0699997        -1.65135565E-28
   26.2600002        -3.04102388E-28
   26.4500008        -4.74843757E-28
   26.6399994        -6.78761701E-28
   26.8299999        -9.15922785E-28
   27.0200005        -1.18462160E-27
   27.2099991        -1.48090156E-27
   27.3999996        -1.79804858E-27
   27.5900002        -2.12607913E-27
   27.7800007        -2.45125064E-27
   27.9699993        -2.75563116E-27
   28.1599998        -3.01677301E-27
   28.3500004        -3.20754214E-27
   28.5400009        -3.29615746E-27
   28.7299995        -3.24650197E-27
   28.9200001        -3.01876422E-27
   29.1100006        -2.57046532E-27
   29.2999992        -1.85791265E-27
   29.4899998        -8.38109438E-28
   29.6800003         5.28869800E-28
   29.8700008         2.27706992E-27
   30.0599995         4.43146119E-27
   30.2500000         7.00446007E-27
   30.4400005         9.99230618E-27
   30.6299992         1.33714681E-26
   30.8199997         1.70952968E-26
   31.0100002         2.10911731E-26
   31.2000008         2.52584233E-26
   31.3899994         2.94672428E-26
   31.5799999         3.35589225E-26
   31.7700005         3.73475534E-26
   31.9599991         4.06233691E-26
   32.1500015         4.31577789E-26
   32.3400002         4.47100353E-26
   32.5299988         4.50353480E-26
   32.7200012         4.38940635E-26
   32.9099998         4.10614674E-26
   33.0999985         3.63375156E-26
   33.2900009         2.95557493E-26
   33.4799995         2.05905053E-26
   33.6699982         9.36152561E-27
   33.8600006        -4.16489284E-27
   34.0499992        -1.99790364E-26
   34.2400017        -3.80357359E-26
   34.4300003        -5.82674605E-26
   34.6199989        -8.06024731E-26
   34.8100014        -1.04987402E-25
   35.0000000        -1.31413244E-25
   35.1899986        -1.59942966E-25
   35.3800011        -1.90738382E-25
   35.5699997        -2.24083434E-25
   35.7599983        -2.60400347E-25
   35.9500008        -3.00254709E-25
   36.1399994        -3.44345279E-25
   36.3300018        -3.93474230E-25
   36.5200005        -4.48493901E-25
   36.7099991        -5.10225816E-25
   36.9000015        -5.79349852E-25
   37.0900002        -6.56261374E-25
   37.2799988        -7.40895598E-25
   37.4700012        -8.32521201E-25
   37.6599998        -9.29506916E-25
   37.8499985        -1.02906530E-24
   38.0400009        -1.12698395E-24
   38.2299995        -1.21735447E-24
   38.4199982        -1.29231115E-24
   38.6100006        -1.34179886E-24
   38.7999992        -1.35338653E-24
   38.9900017        -1.31214863E-24
   39.1800003        -1.20063634E-24
   39.3699989        -9.98966415E-25
   39.5600014        -6.85048634E-25
   39.7500000        -2.34982065E-25
   39.9399986         3.76358019E-25
   40.1300011         1.17451686E-24
   40.3199997         2.18442329E-24
   40.5099983         3.42909868E-24
   40.7000008         4.92810677E-24
   40.8899994         6.69574171E-24
   41.0800018         8.73895693E-24
   41.2700005         1.10550604E-23
   41.4599991         1.36292161E-23
   41.6500015         1.64317849E-23
   41.8400002         1.94155882E-23
   42.0299988         2.25132004E-23
   42.2200012         2.56343380E-23
   42.4099998         2.86635324E-23
   42.5999985         3.14582078E-23
   42.7900009         3.38473803E-23
   42.9799995         3.56311589E-23
   43.1699982         3.65812504E-23
   43.3600006         3.64427548E-23
   43.5499992         3.49374220E-23
   43.7400017         3.17686246E-23
   43.9300003         2.66282902E-23
   44.1199989         1.92058585E-23
   44.3100014         9.19952391E-24
   44.5000000        -3.67023453E-24
   44.6899986        -1.96448864E-23
   44.8800011        -3.89098605E-23
   45.0699997        -6.15746516E-23
   45.2599983        -8.76513260E-23
   45.4500008        -1.17031958E-22
   45.6399994        -1.49465589E-22
   45.8300018        -1.84535480E-22
   46.0200005        -2.21637779E-22
   46.2099991        -2.59962510E-22
   46.4000015        -2.98477956E-22
   46.5900002        -3.35920324E-22
   46.7799988        -3.70789263E-22
   46.9700012        -4.01351274E-22
   47.1599998        -4.25652078E-22
   47.3499985        -4.41539408E-22
   47.5400009        -4.46697120E-22
   47.7299995        -4.38691785E-22
   47.9199982        -4.15032394E-22
   48.1100006        -3.73243542E-22
   48.2999992        -3.10951601E-22
   48.4900017        -2.25983683E-22
   48.6800003        -1.16478342E-22
   48.8699989         1.89944122E-23
   49.0600014         1.81305454E-22
   49.2500000         3.70634419E-22
   49.4399986         5.86337364E-22
   49.6300011         8.26817560E-22
   49.8199997         1.08940505E-21
   50.0099983         1.37025033E-21
   50.2000008         1.66423781E-21
   50.3899994         1.96492493E-21
   50.5800018         2.26451295E-21
   50.7700005         2.55385855E-21
   50.9599991         2.82252584E-21
   51.1500015         3.05889189E-21
   51.3400002         3.25030464E-21
   51.5299988         3.38329957E-21
   51.7200012         3.44387762E-21
   51.9099998         3.41784324E-21
   52.0999985         3.29120363E-21
   52.2900009         3.05062534E-21
   52.4799995         2.68394239E-21
   52.6699982         2.18070820E-21
   52.8600006         1.53277860E-21
   53.0499992         7.34918016E-22
   53.2400017        -2.14594779E-22
   53.4300003        -1.31337419E-21
   53.6199989        -2.55437291E-21
   53.8100014        -3.92538519E-21
   54.0000000        -5.40863635E-21
   54.1899986        -6.98048187E-21
   54.3800011        -8.61123775E-21
   54.5699997        -1.02651781E-20
   54.7599983        -1.19007097E-20
   54.9500008        -1.34707558E-20
   55.1399994        -1.49233577E-20
   55.3300018        -1.62025101E-20
   55.5200005        -1.72492280E-20
   55.7099991        -1.80028639E-20
   55.9000015        -1.84026377E-20
   56.0900002        -1.83893785E-20
   56.2799988        -1.79074457E-20
   56.4700012        -1.69067898E-20
   56.6599998        -1.53451067E-20
   56.8499985        -1.31900193E-20
   57.0400009        -1.04212471E-20
   57.2299995        -7.03264756E-21
   57.4199982        -3.03409243E-21
   57.6100006         1.54692630E-21
   57.7999992         6.66403722E-21
   57.9900017         1.22511572E-20
   58.1800003         1.82221637E-20
   58.3699989         2.44711238E-20
   58.5600014         3.08731722E-20
   58.7500000         3.72860094E-20
   58.9399986         4.35521158E-20
   59.1300011         4.95016092E-20
   59.3199997         5.49557990E-20
   59.5099983         5.97312743E-20
   59.7000008         6.36445753E-20
   59.8899994         6.65172378E-20
   60.0800018         6.81811439E-20
   60.2700005         6.84839890E-20
   60.4599991         6.72947488E-20
   60.6500015         6.45088756E-20
   60.8400002         6.00531380E-20
   61.0299988         5.38898120E-20
   61.2200012         4.60201191E-20
   61.4099998         3.64866557E-20
   61.5999985         2.53747427E-20
   61.7900009         1.28125406E-20
   61.9799995        -1.03016268E-21
   62.1699982        -1.59445105E-20
   62.3600006        -3.16864491E-20
   62.5499992        -4.79818457E-20
   62.7400017        -6.45327992E-20
   62.9300003        -8.10247838E-20
   63.1199989        -9.71345979E-20
   63.3100014        -1.12538620E-19
   63.5000000        -1.26921275E-19
   63.6899986        -1.39983077E-19
   63.8800011        -1.51448175E-19
   64.0699997        -1.61070819E-19
   64.2600021        -1.68640413E-19
   64.4499969        -1.73985125E-19
   64.6399994        -1.76973340E-19
   64.8300018        -1.77513244E-19
   65.0199966        -1.75550202E-19
   65.2099991        -1.71062062E-19
   65.4000015        -1.64052560E-19
   65.5899963        -1.54543149E-19
   65.7799988        -1.42563506E-19
   65.9700012        -1.28141664E-19
   66.1600037        -1.11293933E-19
   66.3499985        -9.20158428E-20
   66.5400009        -7.02746411E-20
   66.7300034        -4.60044026E-20
   66.9199982        -1.91045392E-20
   67.1100006         1.05577076E-20
   67.3000031         4.31395143E-20
   67.4899979         7.88095101E-20
   67.6800003         1.17729036E-19
   67.8700027         1.60027550E-19
   68.0599976         2.05772344E-19
   68.2500000         2.54933704E-19
   68.4400024         3.07345522E-19
   68.6299973         3.62664027E-19
   68.8199997         4.20325288E-19
   69.0100021         4.79504348E-19
   69.1999969         5.39078206E-19
   69.3899994         5.97595755E-19
   69.5800018         6.53256583E-19
   69.7699966         7.03903870E-19
   69.9599991         7.47031154E-19
   70.1500015         7.79808909E-19
   70.3399963         7.99131228E-19
   70.5299988         8.01685148E-19
   70.7200012         7.84044022E-19
   70.9100037         7.42784564E-19
   71.0999985         6.74627570E-19
   71.2900009         5.76599688E-19
   71.4800034         4.46213482E-19
   71.6699982         2.81660918E-19
   71.8600006         8.20153002E-20
   72.0500031        -1.52566963E-19
   72.2399979        -4.20651275E-19
   72.4300003        -7.19347745E-19
   72.6200027        -1.04416053E-18
   72.8099976        -1.38887461E-18
   73.0000000        -1.74549233E-18
   73.1900024        -2.10422712E-18
   73.3799973        -2.45356659E-18
   73.5699997        -2.78041253E-18
   73.7600021        -3.07030294E-18
   73.9499969        -3.30772322E-18
   74.1399994        -3.47650446E-18
   74.3300018        -3.56030819E-18
   74.5199966        -3.54319383E-18
   74.7099991        -3.41025473E-18
   74.9000015        -3.14831269E-18
   75.0899963        -2.74665219E-18
   75.2799988        -2.19777091E-18
   75.4700012        -1.49812128E-18
   75.6600037        -6.48814882E-19
   75.8499985         3.43742374E-19
   76.0400009         1.46731749E-18
   76.2300034         2.70345392E-18
   76.4199982         4.02724338E-18
   76.6100006         5.40729910E-18
   76.8000031         6.80595440E-18
   76.9899979         8.17971280E-18
   77.1800003         9.47996628E-18
   77.3700027         1.06539821E-17
   77.5599976         1.16461736E-17
   77.7500000         1.23996227E-17
   77.9400024         1.28578534E-17
   78.1299973         1.29668072E-17
   78.3199997         1.26769838E-17
   78.5100021         1.19456899E-17
   78.6999969         1.07393223E-17
   78.8899994         9.03562470E-18
   79.0800018         6.82581128E-18
   79.2699966         4.11649699E-18
   79.4599991         9.31316344E-19
   79.6500015        -2.68784813E-18
   79.8399963        -6.68010879E-18
   80.0299988        -1.09653808E-17
   80.2200012        -1.54448170E-17
   80.4100037        -2.00019187E-17
   80.5999985        -2.45043720E-17
   80.7900009        -2.88066045E-17
   80.9800034        -3.27530733E-17
   81.1699982        -3.61822266E-17
   81.3600006        -3.89310901E-17
   81.5500031        -4.08403718E-17
   81.7399979        -4.17599849E-17
   81.9300003        -4.15548144E-17
   82.1200027        -4.01105636E-17
   82.3099976        -3.73395317E-17
   82.5000000        -3.31860296E-17
   82.6900024        -2.76313083E-17
   82.8799973        -2.06977282E-17
   83.0699997        -1.24519898E-17
   83.2600021        -3.00719320E-18
   83.4499969         7.47640414E-18
   83.6399994         1.87921224E-17
   83.8300018         3.06891617E-17
   84.0199966         4.28765431E-17
   84.2099991         5.50287163E-17
   84.4000015         6.67927500E-17
   84.5899963         7.77970447E-17
   84.7799988         8.76613720E-17
   84.9700012         9.60079950E-17
   85.1600037         1.02473662E-16
   85.3499985         1.06722035E-16
   85.5400009         1.08456243E-16
   85.7300034         1.07431114E-16
   85.9199982         1.03464691E-16
   86.1100006         9.64484984E-17
   86.3000031         8.63562133E-17
   86.4899979         7.32502909E-17
   86.6800003         5.72861286E-17
   86.8700027         3.87135416E-17
   87.0599976         1.78752076E-17
   87.2500000        -4.79805204E-18
   87.4400024        -2.87951067E-17
   87.6299973        -5.35356289E-17
   87.8199997        -7.83840716E-17
   88.0100021        -1.02666481E-16
   88.1999969        -1.25689485E-16
   88.3899994        -1.46761177E-16
   88.5800018        -1.65213141E-16
   88.7699966        -1.80422968E-16
   88.9599991        -1.91836485E-16
   89.1500015        -1.98988950E-16
   89.3399963        -2.01524332E-16
   89.5299988        -1.99211852E-16
   89.7200012        -1.91959186E-16
   89.9100037        -1.79821389E-16
   90.0999985        -1.63005231E-16
   90.2900009        -1.41868331E-16
   90.4800034        -1.16912861E-16
   90.6699982        -8.87737711E-17
   90.8600006        -5.82015595E-17
   91.0500031        -2.60400824E-17
   91.2399979         6.80038871E-18
   91.4300003         3.93736317E-17
   91.6200027         7.07309966E-17
   91.8099976         9.99567170E-17
   92.0000000         1.26203449E-16
   92.1900024         1.48727259E-16
   92.3799973         1.66920164E-16
   92.5699997         1.80338847E-16
   92.7600021         1.88728615E-16
   92.9499969         1.92040594E-16
   93.1399994         1.90441726E-16
   93.3300018         1.84316222E-16
   93.5199966         1.74258090E-16
   93.7099991         1.61054103E-16
   93.9000015         1.45657718E-16
   94.0899963         1.29153771E-16
   94.2799988         1.12715204E-16
   94.4700012         9.75526125E-17
   94.6600037         8.48585069E-17
   94.8499985         7.57478668E-17
   95.0400009         7.11972220E-17
   95.2300034         7.19847244E-17
   95.4199982         7.86337213E-17
   95.6100006         9.13623964E-17
   95.8000031         1.10042166E-16
   95.9899979         1.34167094E-16
   96.1800003         1.62836830E-16
   96.3700027         1.94754672E-16
   96.5599976         2.28242292E-16
   96.7500000         2.61272289E-16
   96.9400024         2.91518353E-16
   97.1299973         3.16423160E-16
   97.3199997         3.33282795E-16
   97.5100021         3.39345751E-16
   97.6999969         3.31924233E-16
   97.8899994         3.08514493E-16
   98.0800018         2.66922316E-16
   98.2699966         2.05389780E-16
   98.4599991         1.22717776E-16
   98.6500015         1.83802113E-17
   98.8399963        -1.07375654E-16
   99.0299988        -2.53447610E-16
   99.2200012        -4.17820468E-16
   99.4100037        -5.97535369E-16
   99.5999985        -7.88690747E-16
   99.7900009        -9.86476805E-16
   99.9800034        -1.18524643E-15
   100.169998        -1.37862140E-15
   100.360001        -1.55963584E-15
   100.550003        -1.72091186E-15
   100.739998        -1.85486726E-15
   100.930000        -1.95394831E-15
   101.120003        -2.01088184E-15
   101.309998        -2.01894369E-15
   101.500000        -1.97222749E-15
   101.690002        -1.86591427E-15
   101.879997        -1.69652705E-15
   102.070000        -1.46216236E-15
   102.260002        -1.16269290E-15
   102.449997        -7.99925739E-16
   102.639999        -3.77714623E-16
   102.830002         9.79865911E-17
   103.019997         6.19129733E-16
   103.209999         1.17564774E-15
   103.400002         1.75559670E-15
   103.589996         2.34536562E-15
   103.779999         2.92995536E-15
   103.970001         3.49331825E-15
   104.160004         4.01875248E-15
   104.349998         4.48934408E-15
   104.540001         4.88844398E-15
   104.730003         5.20016862E-15
   104.919998         5.40990541E-15
   105.110001         5.50481673E-15
   105.300003         5.47431634E-15
   105.489998         5.31051033E-15
   105.680000         5.00857909E-15
   105.870003         4.56709408E-15
   106.059998         3.98824786E-15
   106.250000         3.27799400E-15
   106.440002         2.44607953E-15
   106.629997         1.50596984E-15
   106.820000         4.74661064E-16
   107.010002        -6.27616474E-16
   107.199997        -1.77780950E-15
   107.389999        -2.95054440E-15
   107.580002        -4.11872439E-15
   107.769997        -5.25419958E-15
   107.959999        -6.32849020E-15
   108.150002        -7.31355352E-15
   108.339996        -8.18255850E-15
   108.529999        -8.91065701E-15
   108.720001        -9.47572285E-15
   108.910004        -9.85903237E-15
   109.099998        -1.00458675E-14
   109.290001        -1.00260232E-14
   109.480003        -9.79419284E-15
   109.669998        -9.35022476E-15
   109.860001        -8.69923166E-15
   110.050003        -7.85155158E-15
   110.239998        -6.82255266E-15
   110.430000        -5.63229095E-15
   110.620003        -4.30502208E-15
   110.809998        -2.86857914E-15
   111.000000        -1.35364367E-15
   111.190002         2.07085487E-16
   111.379997         1.77977695E-15
   111.570000         3.33041306E-15
   111.760002         4.82572627E-15
   111.949997         6.23413158E-15
   112.139999         7.52660009E-15
   112.330002         8.67745444E-15
   112.519997         9.66506944E-15
   112.709999         1.04724164E-14
   112.900002         1.10874876E-14
   113.089996         1.15035333E-14
   113.279999         1.17191320E-14
   113.470001         1.17380801E-14
   113.660004         1.15691106E-14
   113.849998         1.12254312E-14
   114.040001         1.07241308E-14
   114.230003         1.00854350E-14
   114.419998         9.33187209E-15
   114.610001         8.48736246E-15
   114.800003         7.57626163E-15
   114.989998         6.62240894E-15
   115.180000         5.64819992E-15
   115.370003         4.67374061E-15
   115.559998         3.71609829E-15
   115.750000         2.78868996E-15
   115.940002         1.90083701E-15
   116.129997         1.05749893E-15
   116.320000         2.59213417E-16
   116.510002        -4.97761347E-16
   116.699997        -1.22109805E-15
   116.889999        -1.92185847E-15
   117.080002        -2.61376474E-15
   117.269997        -3.31231705E-15
   117.459999        -4.03379663E-15
   117.650002        -4.79416921E-15
   117.839996        -5.60796247E-15
   118.029999        -6.48713396E-15
   118.220001        -7.43999860E-15
   118.410004        -8.47025747E-15
   118.599998        -9.57616571E-15
   118.790001        -1.07499044E-14
   118.980003        -1.19771645E-14
   119.169998        -1.32369938E-14
   119.360001        -1.45019257E-14
   119.550003        -1.57383990E-14
   119.739998        -1.69074519E-14
   119.930000        -1.79657247E-14
   120.120003        -1.88667034E-14
   120.309998        -1.95621920E-14
   120.500000        -2.00039824E-14
   120.690002        -2.01456351E-14
   120.879997        -1.99443564E-14
   121.070000        -1.93628750E-14
   121.260002        -1.83712434E-14
   121.449997        -1.69485296E-14
   121.639999        -1.50842965E-14
   121.830002        -1.27798188E-14
   122.019997        -1.00489727E-14
   122.209999        -6.91875019E-15
   122.400002        -3.42936662E-15
   122.589996         3.66079805E-16
   122.779999         4.40239572E-15
   122.970001         8.60352710E-15
   123.160004         1.28842207E-14
   123.349998         1.71520851E-14
   123.540001         2.13099734E-14
   123.730003         2.52586512E-14
   123.919998         2.88996698E-14
   124.110001         3.21383206E-14
   124.300003         3.48866139E-14
   124.489998         3.70661787E-14
   124.680000         3.86109296E-14
   124.870003         3.94694958E-14
   125.059998         3.96072200E-14
   125.250000         3.90076934E-14
   125.440002         3.76738063E-14
   125.629997         3.56280930E-14
   125.820000         3.29125765E-14
   126.010002         2.95878671E-14
   126.199997         2.57316649E-14
   126.389999         2.14366607E-14
   126.580002         1.68078594E-14
   126.769997         1.19594242E-14
   126.959999         7.01114581E-15
   127.150002         2.08461055E-15
   127.339996        -2.70076519E-15
   127.529999        -7.23174369E-15
   127.720001        -1.14051284E-14
   127.910004        -1.51313881E-14
   128.100006        -1.83378686E-14
   128.289993        -2.09714855E-14
   128.479996        -2.30007545E-14
   128.669998        -2.44171274E-14
   128.860001        -2.52354510E-14
   129.050003        -2.54936402E-14
   129.240005        -2.52514244E-14
   129.429993        -2.45882552E-14
   129.619995        -2.36003810E-14
   129.809998        -2.23971995E-14
   130.000000        -2.10969497E-14
   130.190002        -1.98219432E-14
   130.380005        -1.86933649E-14
   130.570007        -1.78260015E-14
   130.759995        -1.73229080E-14
   130.949997        -1.72703682E-14
   131.139999        -1.77331904E-14
   131.330002        -1.87506549E-14
   131.520004        -2.03332495E-14
   131.710007        -2.24603271E-14
   131.899994        -2.50788549E-14
   132.089996        -2.81033436E-14
   132.279999        -3.14170043E-14
   132.470001        -3.48742031E-14
   132.660004        -3.83041004E-14
   132.850006        -4.15155310E-14
   133.039993        -4.43029131E-14
   133.229996        -4.64530656E-14
   133.419998        -4.77527868E-14
   133.610001        -4.79968780E-14
   133.800003        -4.69964372E-14
   133.990005        -4.45871130E-14
   134.179993        -4.06370358E-14
   134.369995        -3.50541197E-14
   134.559998        -2.77924910E-14
   134.750000        -1.88577469E-14
   134.940002        -8.31080945E-15
   135.130005         3.72983801E-15
   135.320007         1.70876734E-14
   135.509995         3.15295140E-14
   135.699997         4.67688598E-14
   135.889999         6.24711464E-14
   136.080002         7.82608096E-14
   136.270004         9.37301181E-14
   136.460007         1.08449457E-13
   136.649994         1.21978911E-13
   136.839996         1.33880794E-13
   137.029999         1.43732709E-13
   137.220001         1.51140941E-13
   137.410004         1.55753543E-13
   137.600006         1.57272822E-13
   137.789993         1.55466894E-13
   137.979996         1.50179646E-13
   138.169998         1.41339048E-13
   138.360001         1.28963287E-13
   138.550003         1.13164408E-13
   138.740005         9.41495552E-14
   138.929993         7.22192353E-14
   139.119995         4.77630122E-14
   139.309998         2.12522735E-14
   139.500000        -6.76954068E-15
   139.690002        -3.56991861E-14
   139.880005        -6.48879618E-14
   140.070007        -9.36579373E-14
   140.259995        -1.21319404E-13
   140.449997        -1.47189335E-13
   140.639999        -1.70610054E-13
   140.830002        -1.90967820E-13
   141.020004        -2.07710612E-13
   141.210007        -2.20364607E-13
   141.399994        -2.28548815E-13
   141.589996        -2.31987471E-13
   141.779999        -2.30519651E-13
   141.970001        -2.24105755E-13
   142.160004        -2.12830865E-13
   142.350006        -1.96904410E-13
   142.539993        -1.76656338E-13
   142.729996        -1.52529885E-13
   142.919998        -1.25070825E-13
   143.110001        -9.49138703E-14
   143.300003        -6.27661104E-14
   143.490005        -2.93884247E-14
   143.679993         4.42504919E-15
   143.869995         3.78683426E-14
   144.059998         7.01458545E-14
   144.250000         1.00494198E-13
   144.440002         1.28203288E-13
   144.630005         1.52635961E-13
   144.820007         1.73245600E-13
   145.009995         1.89591046E-13
   145.199997         2.01348378E-13
   145.389999         2.08319405E-13
   145.580002         2.10436228E-13
   145.770004         2.07762112E-13
   145.960007         2.00488213E-13
   146.149994         1.88926579E-13
   146.339996         1.73499561E-13
   146.529999         1.54725936E-13
   146.720001         1.33204117E-13
   146.910004         1.09593067E-13
   147.100006         8.45916422E-14
   147.289993         5.89167590E-14
   147.479996         3.32812798E-14
   147.669998         8.37239044E-15
   147.860001        -1.51690472E-14
   148.050003        -3.67672676E-14
   148.240005        -5.59280744E-14
   148.429993        -7.22523373E-14
   148.619995        -8.54460613E-14
   148.809998        -9.53269514E-14
   149.000000        -1.01826947E-13
   149.190002        -1.04990994E-13
   149.380005        -1.04971770E-13
   149.570007        -1.02020890E-13
   149.759995        -9.64767952E-14
   149.949997        -8.87497473E-14
   150.139999        -7.93045100E-14
   150.330002        -6.86414291E-14
   150.520004        -5.72765712E-14
   150.710007        -4.57215036E-14