  -3.00000000         0.00000000    
  -2.80999994         0.00000000    
  -2.61999989         0.00000000    
  -2.43000007         0.00000000    
  -2.24000001         0.00000000    
  -2.04999995         0.00000000    
  -1.86000001         0.00000000    
  -1.66999996         0.00000000    
  -1.48000002         0.00000000    
  -1.28999996         0.00000000    
  -1.10000002         0.00000000    
 -0.910000026         0.00000000    
 -0.720000029         0.00000000    
 -0.529999971         0.00000000    
 -0.340000004         0.00000000    
 -0.150000006         0.00000000    
   3.99999991E-02     0.00000000    
  0.230000004         0.00000000    
  0.419999987         0.00000000    
  0.610000014         0.00000000    
  0.800000012         0.00000000    
  0.990000010         0.00000000    
   1.17999995         0.00000000    
   1.37000000         0.00000000    
   1.55999994         0.00000000    
   1.75000000         0.00000000    
   1.94000006         0.00000000    
   2.13000011         0.00000000    
   2.31999993         0.00000000    
   2.50999999         0.00000000    
   2.70000005         0.00000000    
   2.89000010         0.00000000    
   3.07999992         0.00000000    
   3.26999998         0.00000000    
   3.46000004         0.00000000    
   3.65000010         0.00000000    
   3.83999991         0.00000000    
   4.03000021         0.00000000    
   4.21999979         0.00000000    
   4.40999985        -2.60641514E-43
   4.59999990        -1.24014914E-42
   4.78999996        -2.42004245E-42
   4.98000002        -5.72430423E-42
   5.17000008        -1.26971654E-41
   5.36000013        -2.56423606E-41
   5.55000019        -4.50951859E-41
   5.73999977        -7.60134352E-41
   5.92999983        -1.26226163E-40
   6.11999989        -2.36342999E-40
   6.30999994        -3.62137562E-40
   6.50000000        -1.21576655E-40
   6.69000006         1.69385735E-39
   6.88000011         9.17492182E-39
   7.07000017         2.46510568E-38
   7.26000023         4.68276952E-38
   7.44999981         8.40835411E-38
   7.63999987         1.44475441E-37
   7.82999992         2.44623664E-37
   8.02000046         3.98507670E-37
   8.21000004         6.43322717E-37
   8.39999962         1.01806221E-36
   8.59000015         1.57937610E-36
   8.77999973         2.40167113E-36
   8.97000027         3.57860328E-36
   9.15999985         5.23100869E-36
   9.35000038         7.50078110E-36
   9.53999996         1.05551300E-35
   9.72999954         1.45695092E-35
   9.92000008         1.97324247E-35
   10.1099997         2.61982506E-35
   10.3000002         3.40528832E-35
   10.4899998         4.32593860E-35
   10.6800003         5.35794630E-35
   10.8699999         6.44585656E-35
   11.0600004         7.49123035E-35
   11.2500000         8.33754668E-35
   11.4399996         8.75457913E-35
   11.6300001         8.42371420E-35
   11.8199997         6.92659128E-35
   12.0100002         3.73752418E-35
   12.1999998        -1.77086602E-35
   12.3900003        -1.03073624E-34
   12.5799999        -2.26217643E-34
   12.7700005        -3.94364028E-34
   12.9600000        -6.13460977E-34
   13.1499996        -8.86826642E-34
   13.3400002        -1.21343270E-33
   13.5299997        -1.58585227E-33
   13.7200003        -1.98798760E-33
   13.9099998        -2.39272132E-33
   14.1000004        -2.75970588E-33
   14.2900000        -3.03366054E-33
   14.4799995        -3.14356907E-33
   14.6700001        -3.00316674E-33
   14.8599997        -2.51332668E-33
   15.0500002        -1.56676481E-33
   15.2399998        -5.55517680E-35
   15.4300003         2.11822007E-33
   15.6199999         5.02842908E-33
   15.8100004         8.70762575E-33
   16.0000000         1.31267293E-32
   16.1900005         1.81724094E-32
   16.3799992         2.36230607E-32
   16.5699997         2.91248386E-32
   16.7600002         3.41694667E-32
   16.9500008         3.80759371E-32
   17.1399994         3.99788685E-32
   17.3299999         3.88264785E-32
   17.5200005         3.33919653E-32
   17.7099991         2.23027028E-32
   17.8999996         4.09255521E-33
   18.0900002        -2.27163637E-32
   18.2800007        -5.94949194E-32
   18.4699993        -1.07342853E-31
   18.6599998        -1.66869945E-31
   18.8500004        -2.37913121E-31
   19.0400009        -3.19181487E-31
   19.2299995        -4.07824364E-31
   19.4200001        -4.98922638E-31
   19.6100006        -5.84913764E-31
   19.7999992        -6.54973321E-31
   19.9899998        -6.94392913E-31
   20.1800003        -6.84019881E-31
   20.3700008        -5.99845457E-31
   20.5599995        -4.12862345E-31
   20.7500000        -8.93385581E-32
   20.9400005         4.08314499E-31
   21.1299992         1.11988435E-30
   21.3199997         2.08470180E-30
   21.5100002         3.33779458E-30
   21.7000008         4.90467062E-30
   21.8899994         6.79463646E-30
   22.0799999         8.99262357E-30
   22.2700005         1.14496340E-29
   22.4599991         1.40720810E-29
   22.6499996         1.67104997E-29
   22.8400002         1.91482997E-29
   23.0300007         2.10915269E-29
   23.2199993         2.21607505E-29
   23.4099998         2.18865237E-29
   23.6000004         1.97099520E-29
   23.7900009         1.49900770E-29
   23.9799995         7.01986494E-30
   24.1700001        -4.94765384E-30
   24.3600006        -2.16614532E-29
   24.5499992        -4.38217704E-29
   24.7399998        -7.20157929E-29
   24.9300003        -1.06639752E-28
   25.1200008        -1.47808118E-28
   25.3099995        -1.95251500E-28
   25.5000000        -2.48205714E-28
   25.6900005        -3.05295718E-28
   25.8799992        -3.64419457E-28
   26.0699997        -4.22636708E-28
   26.2600002        -4.76070816E-28
   26.4500008        -5.19830977E-28
   26.6399994        -5.47963951E-28
   26.8299999        -5.53445870E-28
   27.0200005        -5.28224373E-28
   27.2099991        -4.63322363E-28
   27.3999996        -3.49015821E-28
   27.5900002        -1.75096174E-28
   27.7800007         6.87706551E-29
   27.9699993         3.92578093E-28
   28.1599998         8.05398818E-28
   28.3500004         1.31468273E-27
   28.5400009         1.92543305E-27
   28.7299995         2.63926204E-27
   28.9200001         3.45333529E-27
   29.1100006         4.35922379E-27
   29.2999992         5.34168765E-27
   29.4899998         6.37742812E-27
   29.6800003         7.43385847E-27
   29.8700008         8.46795420E-27
   30.0599995         9.42524538E-27
   30.2500000         1.02390517E-26
   30.4400005         1.08300426E-26
   30.6299992         1.11062194E-26
   30.8199997         1.09634348E-26
   31.0100002         1.02865459E-26
   31.2000008         8.95130253E-27
   31.3899994         6.82705264E-27
   31.5799999         3.78034010E-27
   31.7700005        -3.20553080E-28
   31.9599991        -5.60012241E-27
   32.1500015        -1.21691717E-26
   32.3400002        -2.01174723E-26
   32.5299988        -2.95055395E-26
   32.7200012        -4.03556957E-26
   32.9099998        -5.26425309E-26
   33.0999985        -6.62828604E-26
   33.2900009        -8.11254201E-26
   33.4799995        -9.69404111E-26
   33.6699982        -1.13409146E-25
   33.8600006        -1.30113904E-25
   34.0499992        -1.46528337E-25
   34.2400017        -1.62008339E-25
   34.4300003        -1.75784131E-25
   34.6199989        -1.86953317E-25
   34.8100014        -1.94475833E-25
   35.0000000        -1.97170779E-25
   35.1899986        -1.93716184E-25
   35.3800011        -1.82652472E-25
   35.5699997        -1.62390456E-25
   35.7599983        -1.31225545E-25
   35.9500008        -8.73594304E-26
   36.1399994        -2.89312087E-26
   36.3300018         4.59399588E-26
   36.5200005         1.39098870E-25
   36.7099991         2.52281884E-25
   36.9000015         3.87026845E-25
   37.0900002         5.44562664E-25
   37.2799988         7.25677584E-25
   37.4700012         9.30564483E-25
   37.6599998         1.15864399E-24
   37.8499985         1.40836629E-24
   38.0400009         1.67699345E-24
   38.2299995         1.96036806E-24
   38.4199982         2.25267238E-24
   38.6100006         2.54618800E-24
   38.7999992         2.83106421E-24
   38.9900017         3.09510976E-24
   39.1800003         3.32362127E-24
   39.3699989         3.49926470E-24
   39.5600014         3.60202961E-24
   39.7500000         3.60927451E-24
   39.9399986         3.49588641E-24
   40.1300011         3.23457406E-24
   40.3199997         2.79631292E-24
   40.5099983         2.15097125E-24
   40.7000008         1.26812556E-24
   40.8899994         1.18084552E-25
   41.0800018        -1.32686552E-24
   41.2700005        -3.09098994E-24
   41.4599991        -5.19340897E-24
   41.6500015        -7.64618579E-24
   41.8400002        -1.04522066E-23
   42.0299988        -1.36028981E-23
   42.2200012        -1.70758078E-23
   42.4099998        -2.08320984E-23
   42.5999985        -2.48140489E-23
   42.7900009        -2.89426187E-23
   42.9799995        -3.31152133E-23
   43.1699982        -3.72037216E-23
   43.3600006        -4.10530283E-23
   43.5499992        -4.44801115E-23
   43.7400017        -4.72739349E-23
   43.9300003        -4.91962975E-23
   44.1199989        -4.99838268E-23
   44.3100014        -4.93513717E-23
   44.5000000        -4.69969406E-23
   44.6899986        -4.26083623E-23
   44.8800011        -3.58718404E-23
   45.0699997        -2.64825907E-23
   45.2599983        -1.41574121E-23
   45.4500008         1.35052780E-24
   45.6399994         2.02350064E-23
   45.8300018         4.26183335E-23
   46.0200005         6.85313256E-23
   46.2099991         9.78924571E-23
   46.4000015         1.30486454E-22
   46.5900002         1.65943240E-22
   46.7799988         2.03718192E-22
   46.9700012         2.43074500E-22
   47.1599998         2.83069117E-22
   47.3499985         3.22543338E-22
   47.5400009         3.60119421E-22
   47.7299995         3.94204826E-22
   47.9199982         4.23005090E-22
   48.1100006         4.44546925E-22
   48.2999992         4.56712599E-22
   48.4900017         4.57286284E-22
   48.6800003         4.44013024E-22
   48.8699989         4.14670755E-22
   49.0600014         3.67154722E-22
   49.2500000         2.99572844E-22
   49.4399986         2.10351805E-22
   49.6300011         9.83504382E-23
   49.8199997        -3.70227443E-23
   50.0099983        -1.95690529E-22
   50.2000008        -3.76791624E-22
   50.3899994        -5.78574266E-22
   50.5800018        -7.98304113E-22
   50.7700005        -1.03219216E-21
   50.9599991        -1.27534903E-21
   51.1500015        -1.52177312E-21
   51.3400002        -1.76437625E-21
   51.5299988        -1.99505361E-21
   51.7200012        -2.20480206E-21
   51.9099998        -2.38389050E-21
   52.0999985        -2.52208338E-21
   52.2900009        -2.60891695E-21
   52.4799995        -2.63402600E-21
   52.6699982        -2.58751749E-21
   52.8600006        -2.46038169E-21
   53.0499992        -2.24493345E-21
   53.2400017        -1.93526679E-21
   53.4300003        -1.52771121E-21
   53.6199989        -1.02127210E-21
   53.8100014        -4.18035468E-22
   54.0000000         2.76487922E-22
   54.1899986         1.05309392E-21
   54.3800011         1.89871817E-21
   54.5699997         2.79638887E-21
   54.7599983         3.72531573E-21
   54.9500008         4.66114377E-21
   55.1399994         5.57636055E-21
   55.3300018         6.44088586E-21
   55.5200005         7.22283044E-21
   55.7099991         7.88942250E-21
   55.9000015         8.40808817E-21
   56.0900002         8.74765631E-21
   56.2799988         8.87966917E-21
   56.4700012         8.77974995E-21
   56.6599998         8.42897933E-21
   56.8499985         7.81523959E-21
   57.0400009         6.93444491E-21
   57.2299995         5.79161451E-21
   57.4199982         4.40171521E-21
   57.6100006         2.79020218E-21
   57.7999992         9.93209353E-22
   57.9900017        -9.42677018E-22
   58.1800003        -2.96110343E-21
   58.3699989        -4.99713742E-21
   58.5600014        -6.97894141E-21
   58.7500000        -8.82996482E-21
   58.9399986        -1.04716203E-20
   59.1300011        -1.18263781E-20
   59.3199997        -1.28212381E-20
   59.5099983        -1.33914362E-20
   59.7000008        -1.34843163E-20
   59.8899994        -1.30631585E-20
   60.0800018        -1.21108539E-20
   60.2700005        -1.06331895E-20
   60.4599991        -8.66161014E-21
   60.6500015        -6.25518705E-21
   60.8400002        -3.50165748E-21
   61.0299988        -5.17347200E-22
   61.2200012         2.55423983E-21
   61.4099998         5.54517689E-21
   61.5999985         8.26741173E-21
   61.7900009         1.05185854E-20
   61.9799995         1.20892867E-20
   62.1699982         1.27717664E-20
   62.3600006         1.23698116E-20
   62.5499992         1.07095777E-20
   62.7400017         7.65110724E-21
   62.9300003         3.09999364E-21
   63.1199989        -2.98115630E-21
   63.3100014        -1.05620398E-20
   63.5000000        -1.95353581E-20
   63.6899986        -2.97094292E-20
   63.8800011        -4.08033591E-20
   64.0699997        -5.24453640E-20
   64.2600021        -6.41746752E-20
   64.4499969        -7.54476025E-20
   64.6399994        -8.56479931E-20
   64.8300018        -9.41022831E-20
   65.0199966        -1.00099246E-19
   65.2099991        -1.02914219E-19
   65.4000015        -1.01837404E-19
   65.5899963        -9.62056612E-20
   65.7799988        -8.54370169E-20
   65.9700012        -6.90668605E-20
   66.1600037        -4.67843144E-20
   66.3499985        -1.84677054E-20
   66.5400009         1.57827676E-20
   66.7300034         5.56167034E-20
   66.9199982         1.00411422E-19
   67.1100006         1.49257646E-19
   67.3000031         2.00954844E-19
   67.4899979         2.54017343E-19
   67.6800003         3.06692954E-19
   67.8700027         3.56994273E-19
   68.0599976         4.02743771E-19
   68.2500000         4.41632143E-19
   68.4400024         4.71289514E-19
   68.6299973         4.89368219E-19
   68.8199997         4.93635592E-19
   69.0100021         4.82073675E-19
   69.1999969         4.52983801E-19
   69.3899994         4.05091258E-19
   69.5800018         3.37646803E-19
   69.7699966         2.50520747E-19
   69.9599991         1.44283899E-19
   70.1500015         2.02718332E-20
   70.3399963        -1.19372864E-19
   70.5299988        -2.71684319E-19
   70.7200012        -4.32886827E-19
   70.9100037        -5.98441030E-19
   71.0999985        -7.63124987E-19
   71.2900009        -9.21150812E-19
   71.4800034        -1.06631636E-18
   71.6699982        -1.19219060E-18
   71.8600006        -1.29232785E-18
   72.0500031        -1.36050841E-18
   72.2399979        -1.39099633E-18
   72.4300003        -1.37880699E-18
   72.6200027        -1.31997708E-18
   72.8099976        -1.21182353E-18
   73.0000000        -1.05318311E-18
   73.1900024        -8.44618252E-19
   73.3799973        -5.88580106E-19
   73.5699997        -2.89516394E-19
   73.7600021         4.60864712E-20
   73.9499969         4.09734404E-19
   74.1399994         7.91037214E-19
   74.3300018         1.17790519E-18
   74.5199966         1.55683167E-18
   74.7099991         1.91325945E-18
   74.9000015         2.23202529E-18
   75.0899963         2.49787597E-18
   75.2799988         2.69603722E-18
   75.4700012         2.81282685E-18
   75.6600037         2.83628569E-18
   75.8499985         2.75680728E-18
   76.0400009         2.56774130E-18
   76.2300034         2.26594073E-18
   76.4199982         1.85223503E-18
   76.6100006         1.33178984E-18
   76.8000031         7.14340614E-19
   76.9899979         1.42694553E-20
   77.1800003        -7.49488346E-19
   77.3700027        -1.55372509E-18
   77.5599976        -2.37143314E-18
   77.7500000        -3.17246988E-18
   77.9400024        -3.92441283E-18
   78.1299973        -4.59358375E-18
   78.3199997        -5.14621939E-18
   78.5100021        -5.54976690E-18
   78.6999969        -5.77424511E-18
   78.8899994        -5.79364828E-18
   79.0800018        -5.58732131E-18
   79.2699966        -5.14126748E-18
   79.4599991        -4.44931353E-18
   79.6500015        -3.51408534E-18
   79.8399963        -2.34774062E-18
   80.0299988        -9.72385241E-19
   80.2200012         5.79843063E-19
   80.4100037         2.26707645E-18
   80.5999985         4.03843099E-18
   80.7900009         5.83512519E-18
   80.9800034         7.59201752E-18
   81.1699982         9.23952638E-18
   81.3600006         1.07059009E-17
   81.5500031         1.19197727E-17
   81.7399979         1.28129326E-17
   81.9300003         1.33232294E-17
   82.1200027         1.33974879E-17
   82.3099976         1.29943349E-17
   82.5000000         1.20868218E-17
   82.6900024         1.06647139E-17
   82.8799973         8.73630857E-18
   83.0699997         6.32971137E-18
   83.2600021         3.49342816E-18
   83.4499969         2.96210586E-19
   83.6399994        -3.17390049E-18
   83.8300018        -6.81138525E-18
   84.0199966        -1.04958880E-17
   84.2099991        -1.40956887E-17
   84.4000015        -1.74718958E-17
   84.5899963        -2.04833130E-17
   84.7799988        -2.29917846E-17
   84.9700012        -2.48678649E-17
   85.1600037        -2.59966670E-17
   85.3499985        -2.62835597E-17
   85.5400009        -2.56595810E-17
   85.7300034        -2.40862487E-17
   85.9199982        -2.15595660E-17
   86.1100006        -1.81129509E-17
   86.3000031        -1.38189132E-17
   86.4899979        -8.78927625E-18
   86.6800003        -3.17382480E-18
   86.8700027         2.84275197E-18
   87.0599976         9.04554260E-18
   87.2500000         1.51958207E-17
   87.4400024         2.10389269E-17
   87.6299973         2.63135566E-17
   87.8199997         3.07620562E-17
   88.0100021         3.41415688E-17
   88.1999969         3.62354871E-17
   88.3899994         3.68648988E-17
   88.5800018         3.58994334E-17
   88.7699966         3.32671462E-17
   88.9599991         2.89627795E-17
   89.1500015         2.30540928E-17
   89.3399963         1.56856605E-17
   89.5299988         7.07988188E-18
   89.7200012        -2.46520833E-18
   89.9100037        -1.25815098E-17
   90.0999985        -2.28398216E-17
   90.2900009        -3.27622517E-17
   90.4800034        -4.18378392E-17
   90.6699982        -4.95411307E-17
   90.8600006        -5.53530903E-17
   91.0500031        -5.87838946E-17
   91.2399979        -5.93967097E-17
   91.4300003        -5.68317484E-17
   91.6200027        -5.08295240E-17
   91.8099976        -4.12523144E-17
   92.0000000        -2.81029319E-17
   92.1900024        -1.15396146E-17
   92.3799973         8.11385433E-18
   92.5699997         3.03635934E-17
   92.7600021         5.45474494E-17
   92.9499969         7.98436880E-17
   93.1399994         1.05287029E-16
   93.3300018         1.29791785E-16
   93.5199966         1.52182148E-16
   93.7099991         1.71229140E-16
   93.9000015         1.85693326E-16
   94.0899963         1.94372131E-16
   94.2799988         1.96150702E-16
   94.4700012         1.90054354E-16
   94.6600037         1.75300999E-16
   94.8499985         1.51351526E-16
   95.0400009         1.17955982E-16
   95.2300034         7.51935433E-17
   95.4199982         2.35039599E-17
   95.6100006        -3.62908487E-17
   95.8000031        -1.02977614E-16
   95.9899979        -1.74955648E-16
   96.1800003        -2.50255487E-16
   96.3700027        -3.26572362E-16
   96.5599976        -4.01315078E-16
   96.7500000        -4.71669661E-16
   96.9400024        -5.34676737E-16
   97.1299973        -5.87320999E-16
   97.3199997        -6.26631110E-16
   97.5100021        -6.49786661E-16
   97.6999969        -6.54229720E-16
   97.8899994        -6.37776687E-16
   98.0800018        -5.98727092E-16
   98.2699966        -5.35965497E-16
   98.4599991        -4.49051817E-16
   98.6500015        -3.38295906E-16
   98.8399963        -2.04813864E-16
   99.0299988        -5.05610311E-17
   99.2200012         1.21660136E-16
   99.4100037         3.08219646E-16
   99.5999985         5.04709134E-16
   99.7900009         7.06019908E-16
   99.9800034         9.06450085E-16
   100.169998         1.09984009E-15
   100.360001         1.27973179E-15
   100.550003         1.43955049E-15
   100.739998         1.57280254E-15
   100.930000         1.67328458E-15
   101.120003         1.73529903E-15
   101.309998         1.75386684E-15
   101.500000         1.72493220E-15
   101.690002         1.64555187E-15
   101.879997         1.51406070E-15
   102.070000         1.33020775E-15
   102.260002         1.09525659E-15
   102.449997         8.12044504E-16
   102.639999         4.84994125E-16
   102.830002         1.20079851E-16
   103.019997        -2.75259370E-16
   103.209999        -6.92255093E-16
   103.400002        -1.12099485E-15
   103.589996        -1.55065019E-15
   103.779999        -1.96974674E-15
   103.970001        -2.36646669E-15
   104.160004        -2.72897689E-15
   104.349998        -3.04577229E-15
   104.540001        -3.30602529E-15
   104.730003        -3.49993019E-15
   104.919998        -3.61903085E-15
   105.110001        -3.65652138E-15
   105.300003        -3.60750782E-15
   105.489998        -3.46922143E-15
   105.680000        -3.24117750E-15
   105.870003        -2.92526936E-15
   106.059998        -2.52579042E-15
   106.250000        -2.04939113E-15
   106.440002        -1.50495690E-15
   106.629997        -9.03418025E-16
   106.820000        -2.57493146E-16
   107.010002         4.18629861E-16
   107.199997         1.10966091E-15
   107.389999         1.79962081E-15
   107.580002         2.47227720E-15
   107.769997         3.11159819E-15
   107.959999         3.70220695E-15
   108.150002         4.22981742E-15
   108.339996         4.68164597E-15
   108.529999         5.04677307E-15
   108.720001         5.31645227E-15
   108.910004         5.48435072E-15
   109.099998         5.54671140E-15
   109.290001         5.50243614E-15
   109.480003         5.35307628E-15
   109.669998         5.10274077E-15
   109.860001         4.75792510E-15
   110.050003         4.32724654E-15
   110.239998         3.82113037E-15
   110.430000         3.25142597E-15
   110.620003         2.63098555E-15
   110.809998         1.97321471E-15
   111.000000         1.29161344E-15
   111.190002         5.99331185E-16
   111.379997        -9.12590121E-17
   111.570000        -7.68934921E-16
   111.760002        -1.42394433E-15
   111.949997        -2.04824531E-15
   112.139999        -2.63566541E-15
   112.330002        -3.18196799E-15
   112.519997        -3.68482075E-15
   112.709999        -4.14366951E-15
   112.900002        -4.55951906E-15
   113.089996        -4.93463565E-15
   113.279999        -5.27217193E-15
   113.470001        -5.57574345E-15
   113.660004        -5.84896748E-15
   113.849998        -6.09498990E-15
   114.040001        -6.31602145E-15
   114.230003        -6.51290748E-15
   114.419998        -6.68475734E-15
   114.610001        -6.82864833E-15
   114.800003        -6.93943855E-15
   114.989998        -7.00968680E-15
   115.180000        -7.02971066E-15
   115.370003        -6.98777533E-15
   115.559998        -6.87042357E-15
   115.750000        -6.66294624E-15
   115.940002        -6.34996672E-15
   116.129997        -5.91615244E-15
   116.320000        -5.34699839E-15
   116.510002        -4.62967965E-15
   116.699997        -3.75393737E-15
   116.889999        -2.71294722E-15
   117.080002        -1.50415973E-15
   117.269997        -1.30050276E-16
   117.459999         1.40124660E-15
   117.650002         3.07545847E-15
   117.839996         4.87187898E-15
   118.029999         6.76329042E-15
   118.220001         8.71612488E-15
   118.410004         1.06908619E-14
   118.599998         1.26426969E-14
   118.790001         1.45224409E-14
   118.980003         1.62776761E-14
   119.169998         1.78541094E-14
   119.360001         1.91971107E-14
   119.550003         2.02533896E-14
   119.739998         2.09727696E-14
   119.930000         2.13099801E-14
   120.120003         2.12264322E-14
   120.309998         2.06919188E-14
   120.500000         1.96861333E-14
   120.690002         1.82000004E-14
   120.879997         1.62367237E-14
   121.070000         1.38125146E-14
   121.260002         1.09569573E-14
   121.449997         7.71295750E-15
   121.639999         4.13629778E-15
   121.830002         2.94744940E-16
   122.019997        -3.73325536E-15
   122.209999        -7.86029973E-15
   122.400002        -1.19920756E-14
   122.589996        -1.60297716E-14
   122.779999        -1.98727109E-14
   122.970001        -2.34211640E-14
   123.160004        -2.65792756E-14
   123.349998        -2.92579647E-14
   123.540001        -3.13777765E-14
   123.730003        -3.28715022E-14
   123.919998        -3.36865816E-14
   124.110001        -3.37870702E-14
   124.300003        -3.31552277E-14
   124.489998        -3.17925617E-14
   124.680000        -2.97203261E-14
   124.870003        -2.69794309E-14
   125.059998        -2.36297103E-14
   125.250000        -1.97486104E-14
   125.440002        -1.54292947E-14
   125.629997        -1.07781851E-14
   125.820000        -5.91204349E-15
   126.010002        -9.54674106E-16
   126.199997         3.96670866E-15
   126.389999         8.72526860E-15
   126.580002         1.31984166E-14
   126.769997         1.72716150E-14
   126.959999         2.08419995E-14
   127.150002         2.38216819E-14
   127.339996         2.61406666E-14
   127.529999         2.77491551E-14
   127.720001         2.86193053E-14
   127.910004         2.87462484E-14
   128.100006         2.81483939E-14
   128.289993         2.68669195E-14
   128.479996         2.49645377E-14
   128.669998         2.25234938E-14
   128.860001         1.96428770E-14
   129.050003         1.64353140E-14
   129.240005         1.30231595E-14
   129.429993         9.53429179E-15
   129.619995         6.09765043E-15
   129.809998         2.83867549E-15
   130.000000        -1.25193614E-16
   130.190002        -2.68883981E-15
   130.380005        -4.76336940E-15
   130.570007        -6.27954525E-15
   130.759995        -7.19056687E-15
   130.949997        -7.47407727E-15
   131.139999        -7.13334641E-15
   131.330002        -6.19753509E-15
   131.520004        -4.72101479E-15
   131.710007        -2.78179151E-15
   131.899994        -4.78989826E-16
   132.089996         2.07048141E-15
   132.279999         4.73598567E-15
   132.470001         7.37783485E-15
   132.660004         9.85242466E-15
   132.850006         1.20176289E-14
   133.039993         1.37383221E-14
   133.229996         1.48917828E-14
   133.419998         1.53728331E-14
   133.610001         1.50984555E-14
   133.800003         1.40117808E-14
   133.990005         1.20852442E-14
   134.179993         9.32279614E-15
   134.369995         5.76102556E-15
   134.559998         1.46916594E-15
   134.750000        -3.45206224E-15
   134.940002        -8.87277177E-15
   135.130005        -1.46373646E-14
   135.320007        -2.05689635E-14
   135.509995        -2.64748279E-14
   135.699997        -3.21524220E-14
   135.889999        -3.73961082E-14
   136.080002        -4.20041064E-14
   136.270004        -4.57856646E-14
   136.460007        -4.85679307E-14
   136.649994        -5.02026501E-14
   136.839996        -5.05720784E-14
   137.029999        -4.95941179E-14
   137.220001        -4.72264135E-14
   137.410004        -4.34692802E-14
   137.600006        -3.83672247E-14
   137.789993        -3.20090837E-14
   137.979996        -2.45266471E-14
   138.169998        -1.60918743E-14
   138.360001        -6.91263207E-15
   138.550003         2.77281423E-15
   138.740005         1.27025567E-14
   138.929993         2.25986561E-14
   139.119995         3.21755968E-14
   139.309998         4.11491181E-14
   139.500000         4.92453368E-14
   139.690002         5.62096620E-14
   139.880005         6.18154142E-14
   140.070007         6.58716855E-14
   140.259995         6.82302251E-14
   140.449997         6.87910964E-14
   140.639999         6.75070012E-14
   140.830002         6.43858610E-14
   141.020004         5.94917453E-14
   141.210007         5.29439807E-14
   141.399994         4.49145014E-14
   141.589996         3.56233868E-14
   141.779999         2.53328276E-14
   141.970001         1.43395461E-14
   142.160004         2.96605125E-15
   142.350006        -8.44922988E-15
   142.539993        -1.95622886E-14
   142.729996        -3.00345144E-14
   142.919998        -3.95433638E-14
   143.110001        -4.77929836E-14
   143.300003        -5.45238733E-14
   143.490005        -5.95216896E-14
   143.679993        -6.26246898E-14
   143.869995        -6.37295257E-14
   144.059998        -6.27952009E-14
   144.250000        -5.98451749E-14
   144.440002        -5.49672307E-14
   144.630005        -4.83113881E-14
   144.820007        -4.00856953E-14
   145.009995        -3.05500322E-14
   145.199997        -2.00082616E-14
   145.389999        -8.79869789E-15
   145.580002         2.71654033E-15
   145.770004         1.41631634E-14
   145.960007         2.51668227E-14
   146.149994         3.53653501E-14
   146.339996         4.44207591E-14
   146.529999         5.20305167E-14
   146.720001         5.79377854E-14
   146.910004         6.19402194E-14
   147.100006         6.38970349E-14
   147.289993         6.37340454E-14
   147.479996         6.14465686E-14
   147.669998         5.71000292E-14
   147.860001         5.08280958E-14
   148.050003         4.28286286E-14
   148.240005         3.33573128E-14
   148.429993         2.27193955E-14
   148.619995         1.12595522E-14
   148.809998        -6.49646107E-16
   149.000000        -1.26202014E-14
   149.190002        -2.42618883E-14
   149.380005        -3.51956928E-14
   149.570007        -4.50667031E-14
   149.759995        -5.35565482E-14
   149.949997        -6.03944114E-14
   150.139999        -6.53666100E-14
   150.330002        -6.83241102E-14
   150.520004        -6.91878941E-14
   150.710007        -6.79518426E-14