  -18.8999996         0.00000000    
  -18.7849998         0.00000000    
  -18.6700001         0.00000000    
  -18.5550003         0.00000000    
  -18.4400005         0.00000000    
  -18.3250008         0.00000000    
  -18.2099991         0.00000000    
  -18.0949993         0.00000000    
  -17.9799995         0.00000000    
  -17.8649998         0.00000000    
  -17.7500000         0.00000000    
  -17.6350002         0.00000000    
  -17.5200005         0.00000000    
  -17.4050007         0.00000000    
  -17.2900009         0.00000000    
  -17.1749992         0.00000000    
  -17.0599995         0.00000000    
  -16.9449997         0.00000000    
  -16.8299999         0.00000000    
  -16.7150002         0.00000000    
  -16.6000004         0.00000000    
  -16.4850006         0.00000000    
  -16.3700008         0.00000000    
  -16.2549992         0.00000000    
  -16.1399994         0.00000000    
  -16.0249996         0.00000000    
  -15.9099998         0.00000000    
  -15.7950001         0.00000000    
  -15.6800003         0.00000000    
  -15.5649996         0.00000000    
  -15.4499998         0.00000000    
  -15.3350000         0.00000000    
  -15.2200003         0.00000000    
  -15.1049995         0.00000000    
  -14.9899998         0.00000000    
  -14.8750000         0.00000000    
  -14.7600002         0.00000000    
  -14.6450005         0.00000000    
  -14.5299997         0.00000000    
  -14.4150000         0.00000000    
  -14.3000002         0.00000000    
  -14.1850004         0.00000000    
  -14.0699997         0.00000000    
  -13.9549999         0.00000000    
  -13.8400002         0.00000000    
  -13.7250004         0.00000000    
  -13.6099997         0.00000000    
  -13.4949999         0.00000000    
  -13.3800001         0.00000000    
  -13.2650003         0.00000000    
  -13.1499996         0.00000000    
  -13.0349998         0.00000000    
  -12.9200001         0.00000000    
  -12.8050003         0.00000000    
  -12.6899996         6.39453278E-33
  -12.5749998         1.69522243E-32
  -12.4600000         1.74015408E-32
  -12.3450003         2.14895605E-32
  -12.2299995         5.38364599E-32
  -12.1149998         1.40947274E-31
  -12.0000000         2.98069444E-31
  -11.8850002         4.90168543E-31
  -11.7700005         6.55469662E-31
  -11.6549997         7.37292532E-31
  -11.5400000         6.09809088E-31
  -11.4250002         1.58735595E-31
  -11.3100004        -7.41495066E-31
  -11.1949997        -2.13149156E-30
  -11.0799999        -4.17860293E-30
  -10.9650002        -6.79236296E-30
  -10.8500004        -9.73932466E-30
  -10.7349997        -1.26792334E-29
  -10.6199999        -1.50245933E-29
  -10.5050001        -1.59324044E-29
  -10.3900003        -1.40142655E-29
  -10.2749996        -8.18773080E-30
  -10.1599998         3.03099827E-30
  -10.0450001         2.09721282E-29
  -9.93000031         4.63148084E-29
  -9.81499958         7.87656236E-29
  -9.69999981         1.16265947E-28
  -9.58500004         1.54367558E-28
  -9.47000027         1.86324129E-28
  -9.35499954         2.02329509E-28
  -9.23999977         1.90160990E-28
  -9.12500000         1.35789376E-28
  -9.01000023         2.44233165E-29
  -8.89500046        -1.56740653E-28
  -8.77999973        -4.15540378E-28
  -8.66499996        -7.51609135E-28
  -8.55000019        -1.15100603E-27
  -8.43500042        -1.58250149E-27
  -8.31999969        -1.99424749E-27
  -8.20499992        -2.31104159E-27
  -8.09000015        -2.43490489E-27
  -7.97499990        -2.24865321E-27
  -7.86000013        -1.62401558E-27
  -7.74499989        -4.35077011E-28
  -7.63000011         1.42308514E-27
  -7.51499987         4.01066321E-27
  -7.40000010         7.31497390E-27
  -7.28499985         1.12205341E-26
  -7.17000008         1.54799608E-26
  -7.05499983         1.96903010E-26
  -6.94000006         2.32798246E-26
  -6.82499981         2.55102548E-26
  -6.71000004         2.55010966E-26
  -6.59499979         2.22809942E-26
  -6.48000002         1.48697215E-26
  -6.36499977         2.39248301E-27
  -6.25000000        -1.57749979E-26
  -6.13500023        -3.98357963E-26
  -6.01999998        -6.93860667E-26
  -5.90500021        -1.03229728E-25
  -5.78999996        -1.39213846E-25
  -5.67500019        -1.74109774E-25
  -5.55999994        -2.03568490E-25
  -5.44500017        -2.22180061E-25
  -5.32999992        -2.23666521E-25
  -5.21500015        -2.01233524E-25
  -5.09999990        -1.48099156E-25
  -4.98500013        -5.82064039E-26
  -4.86999989         7.28884612E-26
  -4.75500011         2.46977829E-25
  -4.63999987         4.62063837E-25
  -4.52500010         7.11190745E-25
  -4.40999985         9.81346417E-25
  -4.29500008         1.25255650E-24
  -4.17999983         1.49731815E-24
  -4.06500006         1.68053819E-24
  -3.95000005         1.76015576E-24
  -3.83500004         1.68862717E-24
  -3.72000003         1.41544583E-24
  -3.60500002         8.90833799E-25
  -3.49000001         7.06983121E-26
  -3.37500000        -1.07713997E-24
  -3.25999999        -2.56554034E-24
  -3.14499998        -4.37969855E-24
  -3.02999997        -6.46828038E-24
  -2.91499996        -8.73465291E-24
  -2.79999995        -1.10290619E-23
  -2.68499994        -1.31428487E-23
  -2.56999993        -1.48060152E-23
  -2.45499992        -1.56896214E-23
  -2.33999991        -1.54146340E-23
  -2.22499990        -1.35687610E-23
  -2.10999990        -9.73266529E-24
  -1.99500000        -3.51650052E-24
  -1.88000000         5.39298013E-24
  -1.76499999         1.71754315E-23
  -1.64999998         3.18120245E-23
  -1.53499997         4.90161027E-23
  -1.41999996         6.81645999E-23
  -1.30499995         8.82371341E-23
  -1.19000006         1.07771362E-22
  -1.07500005         1.24844508E-22
 -0.959999979         1.37091694E-22
 -0.845000029         1.41771558E-22
 -0.730000019         1.35888460E-22
 -0.615000010         1.16377873E-22
 -0.500000000         8.03574108E-23
 -0.384999990         2.54405749E-23
 -0.270000011        -4.98972382E-23
 -0.155000001        -1.45918643E-22
  -3.99999991E-02    -2.61217190E-22
   7.50000030E-02    -3.92338772E-22
  0.189999998        -5.33474445E-22
  0.305000007        -6.76272809E-22
  0.419999987        -8.09821735E-22
  0.535000026        -9.20847306E-22
  0.649999976        -9.94168708E-22
  0.764999986        -1.01343660E-21
  0.879999995        -9.62159989E-22
  0.995000005        -8.25004922E-22
   1.11000001        -5.89315800E-22
   1.22500002        -2.46782247E-22
   1.34000003         2.04860147E-22
   1.45500004         7.60232499E-22
   1.57000005         1.40497728E-21
   1.68499994         2.11485606E-21
   1.79999995         2.85544504E-21
   1.91499996         3.58257780E-21
   2.02999997         4.24364536E-21
   2.14499998         4.77980743E-21
   2.25999999         5.12910585E-21
   2.37500000         5.23037934E-21
   2.49000001         5.02780006E-21
   2.60500002         4.47575797E-21
   2.72000003         3.54374797E-21
   2.83500004         2.22085151E-21
   2.95000005         5.19389049E-22
   3.06500006        -1.52269410E-21
   3.18000007        -3.84107578E-21
   3.29500008        -6.34622094E-21
   3.41000009        -8.92660763E-21
   3.52500010        -1.14539885E-20
   3.64000010        -1.37904708E-20
   3.75500011        -1.57969751E-20
   3.86999989        -1.73424732E-20
   3.98499990        -1.83132149E-20
   4.09999990        -1.86210747E-20
   4.21500015        -1.82101017E-20
   4.32999992        -1.70604386E-20
   4.44500017        -1.51889214E-20
   4.55999994        -1.26459477E-20
   4.67500019        -9.50852354E-21
   4.78999996        -5.86986911E-21
   4.90500021        -1.82633563E-21
   5.01999998         2.53709885E-21
   5.13500023         7.16116833E-21
   5.25000000         1.20245767E-20
   5.36499977         1.71521975E-20
   5.48000002         2.26172715E-20
   5.59499979         2.85359992E-20
   5.71000004         3.50534360E-20
   5.82499981         4.23203761E-20
   5.94000006         5.04618366E-20
   6.05499983         5.95387932E-20
   6.17000008         6.95059577E-20
   6.28499985         8.01692916E-20
   6.40000010         9.11478653E-20
   6.51499987         1.01845127E-19
   6.63000011         1.11434761E-19
   6.74499989         1.18865906E-19
   6.86000013         1.22891587E-19
   6.97499990         1.22122852E-19
   7.09000015         1.15108787E-19
   7.20499992         1.00440800E-19
   7.32000017         7.68765635E-20
   7.43499994         4.34765775E-20
   7.55000019        -2.56022219E-22
   7.66499996        -5.42436547E-20
   7.78000021        -1.17722962E-19
   7.89499998        -1.89166577E-19
   8.01000023        -2.66249716E-19
   8.12500000        -3.45871459E-19
   8.23999977        -4.24237051E-19
   8.35499954        -4.97003665E-19
   8.47000027        -5.59486820E-19
   8.58500004        -6.06919269E-19
   8.69999981        -6.34748985E-19
   8.81499958        -6.38957525E-19
   8.93000031        -6.16375650E-19
   9.04500008        -5.64973147E-19
   9.15999985        -4.84095046E-19
   9.27499962        -3.74622267E-19
   9.39000034        -2.39035655E-19
   9.50500011        -8.13703643E-20
   9.61999989         9.29457230E-20
   9.73499966         2.77365343E-19
   9.85000038         4.64593332E-19
   9.96500015         6.47032824E-19
   10.0799999         8.17273160E-19
   10.1949997         9.68580417E-19
   10.3100004         1.09534791E-18
   10.4250002         1.19346270E-18
   10.5400000         1.26054994E-18
   10.6549997         1.29606215E-18
   10.7700005         1.30119636E-18
   10.8850002         1.27863222E-18
   11.0000000         1.23210651E-18
   11.1149998         1.16585276E-18
   11.2299995         1.08395371E-18
   11.3450003         9.89670628E-19
   11.4600000         8.84817007E-19
   11.5749998         7.69255171E-19
   11.6899996         6.40587175E-19
   11.8050003         4.94100881E-19
   11.9200001         3.23015839E-19
   12.0349998         1.19048183E-19
   12.1499996        -1.26717052E-19
   12.2650003        -4.22687173E-19
   12.3800001        -7.75435399E-19
   12.4949999        -1.18828962E-18
   12.6099997        -1.65996723E-18
   12.7250004        -2.18340051E-18
   12.8400002        -2.74489733E-18
   12.9549999        -3.32377734E-18
   13.0699997        -3.89259409E-18
   13.1850004        -4.41801839E-18
   13.3000002        -4.86241373E-18
   13.4150000        -5.18605807E-18
   13.5299997        -5.34993578E-18
   13.6450005        -5.31892768E-18
   13.7600002        -5.06519416E-18
   13.8750000        -4.57149017E-18
   13.9899998        -3.83413517E-18
   14.1049995        -2.86533751E-18
   14.2200003        -1.69461090E-18
   14.3350000        -3.69048905E-19
   14.4499998         1.04770231E-18
   14.5649996         2.47784724E-18
   14.6800003         3.83318805E-18
   14.7950001         5.02007725E-18
   14.9099998         5.94531847E-18
   15.0249996         6.52266406E-18
   15.1400003         6.67947145E-18
   15.2550001         6.36302482E-18
   15.3699999         5.54601564E-18
   15.4849997         4.23068597E-18
   15.6000004         2.45121409E-18
   15.7150002         2.74008024E-19
   15.8299999        -2.20427917E-18
   15.9449997        -4.86103440E-18
   16.0599995        -7.55412851E-18
   16.1749992        -1.01301790E-17
   16.2900009        -1.24341376E-17
   16.4050007        -1.43195717E-17
   16.5200005        -1.56589029E-17
   16.6350002        -1.63528313E-17
   16.7500000        -1.63381869E-17
   16.8649998        -1.55935143E-17
   16.9799995        -1.41418884E-17
   17.0949993        -1.20505558E-17
   17.2099991        -9.42734022E-18
   17.3250008        -6.41392207E-18
   17.4400005        -3.17639878E-18
   17.5550003         1.06224499E-19
   17.6700001         3.25477973E-18
   17.7849998         6.10292202E-18
   17.8999996         8.50930374E-18
   18.0149994         1.03679025E-17
   18.1299992         1.16155729E-17
   18.2450008         1.22360874E-17
   18.3600006         1.22601981E-17
   18.4750004         1.17615744E-17
   18.5900002         1.08488360E-17
   18.7049999         9.65424910E-18
   18.8199997         8.31997947E-18
   18.9349995         6.98309513E-18
   19.0499992         5.76065908E-18
   19.1650009         4.73635306E-18
   19.2800007         3.95002772E-18
   19.3950005         3.39138054E-18
   19.5100002         2.99868751E-18
   19.6250000         2.66310653E-18
   19.7399998         2.23859186E-18
   19.8549995         1.55694840E-18
   19.9699993         4.47028204E-19
   20.0849991        -1.24338853E-18
   20.2000008        -3.62487584E-18
   20.3150005        -6.74489317E-18
   20.4300003        -1.05697519E-17
   20.5450001        -1.49720998E-17
   20.6599998        -1.97257231E-17
   20.7749996        -2.45090009E-17
   20.8899994        -2.89177280E-17
   21.0049992        -3.24872936E-17
   21.1200008        -3.47233646E-17
   21.2350006        -3.51395125E-17
   21.3500004        -3.32993302E-17
   21.4650002        -2.88601397E-17
   21.5799999        -2.16148630E-17
   21.6949997        -1.15284642E-17
   21.8099995         1.23449241E-18
   21.9249992         1.62943314E-17
   22.0400009         3.30552258E-17
   22.1550007         5.07202469E-17
   22.2700005         6.83228951E-17
   22.3850002         8.47744786E-17
   22.5000000         9.89252161E-17
   22.6149998         1.09635968E-16
   22.7299995         1.15856267E-16
   22.8449993         1.16703630E-16
   22.9599991         1.11538556E-16
   23.0750008         1.00029628E-16
   23.1900005         8.22032902E-17
   23.3050003         5.84736423E-17
   23.4200001         2.96488001E-17
   23.5349998        -3.08841385E-18
   23.6499996        -3.82258657E-17
   23.7649994        -7.39922190E-17
   23.8799992        -1.08448692E-16
   23.9950008        -1.39597555E-16
   24.1100006        -1.65501185E-16
   24.2250004        -1.84404367E-16
   24.3400002        -1.94851909E-16
   24.4549999        -1.95793466E-16
   24.5699997        -1.86668419E-16
   24.6849995        -1.67463986E-16
   24.7999992        -1.38741641E-16
   24.9150009        -1.01629078E-16
   25.0300007        -5.77765475E-17
   25.1450005        -9.27921616E-18
   25.2600002         4.14307174E-17
   25.3750000         9.17162180E-17
   25.4899998         1.38884234E-16
   25.6049995         1.80342301E-16
   25.7199993         2.13753013E-16
   25.8349991         2.37176875E-16
   25.9500008         2.49194076E-16
   26.0650005         2.48997670E-16
   26.1800003         2.36451259E-16
   26.2950001         2.12107995E-16
   26.4099998         1.77188837E-16
   26.5249996         1.33521192E-16
   26.6399994         8.34417781E-17
   26.7549992         2.96693903E-17
   26.8700008        -2.48447519E-17
   26.9850006        -7.70797269E-17
   27.1000004        -1.24111225E-16
   27.2150002        -1.63271411E-16
   27.3299999        -1.92293195E-16
   27.4449997        -2.09430736E-16
   27.5599995        -2.13550029E-16
   27.6749992        -2.04185127E-16
   27.7900009        -1.81558098E-16
   27.9050007        -1.46562773E-16
   28.0200005        -1.00714931E-16
   28.1350002        -4.60730271E-17
   28.2500000         1.48649898E-17
   28.3649998         7.92818074E-17
   28.4799995         1.44171162E-16
   28.5949993         2.06471388E-16
   28.7099991         2.63196033E-16
   28.8250008         3.11555659E-16
   28.9400005         3.49067360E-16
   29.0550003         3.73648600E-16
   29.1700001         3.83693855E-16
   29.2849998         3.78133534E-16
   29.3999996         3.56475722E-16
   29.5149994         3.18831328E-16
   29.6299992         2.65923479E-16
   29.7450008         1.99082018E-16
   29.8600006         1.20223740E-16
   29.9750004         3.18172144E-17
   30.0900002        -6.31680975E-17
   30.2049999        -1.61330130E-16
   30.3199997        -2.58921772E-16
   30.4349995        -3.51958971E-16
   30.5499992        -4.36350664E-16
   30.6650009        -5.08049885E-16
   30.7800007        -5.63224712E-16
   30.8950005        -5.98444394E-16
   31.0100002        -6.10875450E-16
   31.1250000        -5.98478329E-16
   31.2399998        -5.60194451E-16
   31.3549995        -4.96111274E-16
   31.4699993        -4.07591857E-16
   31.5849991        -2.97355628E-16
   31.7000008        -1.69497818E-16
   31.8150005        -2.94375018E-17
   31.9300003         1.16213331E-16
   32.0449982         2.59862006E-16
   32.1599998         3.93226522E-16
   32.2750015         5.07698261E-16
   32.3899994         5.94762289E-16
   32.5050011         6.46456234E-16
   32.6199989         6.55843900E-16
   32.7350006         6.17477119E-16
   32.8499985         5.27815452E-16
   32.9650002         3.85576544E-16
   33.0800018         1.91987866E-16
   33.1949997        -4.90813274E-17
   33.3100014        -3.31126858E-16
   33.4249992        -6.45163344E-16
   33.5400009        -9.80027284E-16
   33.6549988        -1.32282004E-15
   33.7700005        -1.65947370E-15
   33.8849983        -1.97541318E-15
   34.0000000        -2.25628020E-15
   34.1150017        -2.48868148E-15
   34.2299995        -2.66091589E-15
   34.3450012        -2.76363896E-15
   34.4599991        -2.79042384E-15
   34.5750008        -2.73818393E-15
   34.6899986        -2.60742660E-15
   34.8050003        -2.40232054E-15
   34.9199982        -2.13057141E-15
   35.0349998        -1.80310678E-15
   35.1500015        -1.43358685E-15
   35.2649994        -1.03777121E-15
   35.3800011        -6.32771252E-16
   35.4949989        -2.36236113E-16
   35.6100006         1.34486108E-16
   35.7249985         4.63161904E-16
   35.8400002         7.35417669E-16
   35.9550018         9.39377961E-16
   36.0699997         1.06616376E-15
   36.1850014         1.11023065E-15
   36.2999992         1.06953537E-15
   36.4150009         9.45531338E-16
   36.5299988         7.43004702E-16
   36.6450005         4.69770243E-16
   36.7599983         1.36256168E-16
   36.8750000        -2.44990066E-16
   36.9900017        -6.59840836E-16
   37.1049995        -1.09313932E-15
   37.2200012        -1.52923138E-15
   37.3349991        -1.95245499E-15
   37.4500008        -2.34757087E-15
   37.5649986        -2.70012695E-15
   37.6800003        -2.99675513E-15
   37.7949982        -3.22540977E-15
   37.9099998        -3.37555928E-15
   38.0250015        -3.43835153E-15
   38.1399994        -3.40676630E-15
   38.2550011        -3.27577456E-15
   38.3699989        -3.04251630E-15
   38.4850006        -2.70649833E-15
   38.5999985        -2.26981452E-15
   38.7150002        -1.73737130E-15
   38.8300018        -1.11709945E-15
   38.9449997        -4.20123816E-16
   39.0600014         3.39143522E-16
   39.1749992         1.14302247E-15
   39.2900009         1.97073269E-15
   39.4049988         2.79873831E-15
   39.5200005         3.60129144E-15
   39.6349983         4.35118242E-15
   39.7500000         5.02069166E-15
   39.8650017         5.58271708E-15
   39.9799995         6.01203657E-15
   40.0950012         6.28665143E-15
   40.2099991         6.38913776E-15
   40.3250008         6.30791958E-15
   40.4399986         6.03839073E-15
   40.5550003         5.58378603E-15
   40.6699982         4.95572931E-15
   40.7849998         4.17439563E-15
   40.9000015         3.26823322E-15
   41.0149994         2.27322743E-15
   41.1300011         1.23170544E-15
   41.2449989         1.90719103E-16
   41.3600006        -7.99939557E-16
   41.4749985        -1.69000257E-15
   41.5900002        -2.43115651E-15
   41.7050018        -2.97952373E-15
   41.8199997        -3.29804920E-15
   41.9350014        -3.35866584E-15
   42.0499992        -3.14410371E-15
   42.1650009        -2.64923213E-15
   42.2799988        -1.88184632E-15
   42.3950005        -8.62829318E-16
   42.5099983         3.74332050E-16
   42.6250000         1.78467386E-15
   42.7400017         3.31348066E-15
   42.8549995         4.89853299E-15
   42.9700012         6.47277464E-15
   43.0849991         7.96726051E-15
   43.2000008         9.31424534E-15
   43.3149986         1.04502631E-14
   43.4300003         1.13190410E-14
   43.5449982         1.18740873E-14
   43.6599998         1.20808692E-14
   43.7750015         1.19184329E-14
   43.8899994         1.13804255E-14
   44.0050011         1.04754581E-14
   44.1199989         9.22681883E-15
   44.2350006         7.67153929E-15
   44.3499985         5.85889259E-15
   44.4650002         3.84837900E-15
   44.5800018         1.70731243E-15
   44.6949997        -4.91891355E-16
   44.8100014        -2.67459060E-15
   44.9249992        -4.76685240E-15
   45.0400009        -6.69832003E-15
   45.1549988        -8.40490549E-15
   45.2700005        -9.83121580E-15
   45.3849983        -1.09326297E-14
   45.5000000        -1.16769599E-14
   45.6150017        -1.20456505E-14
   45.7299995        -1.20344950E-14
   45.8450012        -1.16538384E-14
   45.9599991        -1.09282725E-14
   46.0750008        -9.89585035E-15
   46.1899986        -8.60681613E-15
   46.3050003        -7.12192163E-15
   46.4199982        -5.51034954E-15
   46.5349998        -3.84731555E-15
   46.6500015        -2.21141562E-15
   46.7649994        -6.81790425E-16
   46.8800011         6.64793650E-16
   46.9949989         1.75686873E-15
   47.1100006         2.53107738E-15
   47.2249985         2.93478049E-15
   47.3400002         2.92835193E-15
   47.4550018         2.48705835E-15
   47.5699997         1.60244298E-15
   47.6850014         2.83123648E-16
   47.7999992        -1.44503154E-15
   47.9150009        -3.53939684E-15
   48.0299988        -5.94174724E-15
   48.1450005        -8.58005836E-15
   48.2599983        -1.13708642E-14
   48.3750000        -1.42221372E-14
   48.4900017        -1.70365126E-14
   48.6049995        -1.97147647E-14
   48.7200012        -2.21593695E-14
   48.8349991        -2.42780039E-14
   48.9500008        -2.59868184E-14
   49.0649986        -2.72133559E-14
   49.1800003        -2.78990156E-14
   49.2949982        -2.80009373E-14
   49.4099998        -2.74932698E-14
   49.5250015        -2.63678324E-14
   49.6399994        -2.46341254E-14
   49.7550011        -2.23188082E-14
   49.8699989        -1.94646697E-14
   49.9850006        -1.61292082E-14
   50.0999985        -1.23829178E-14
   50.2150002        -8.30738659E-15
   50.3300018        -3.99329702E-15
   50.4449997         4.61610245E-16
   50.5600014         4.95455702E-15
   50.6749992         9.37971929E-15
   50.7900009         1.36302153E-14
   50.9049988         1.76001283E-14
   51.0200005         2.11866047E-14
   51.1349983         2.42921341E-14
   51.2500000         2.68270429E-14
   51.3650017         2.87122621E-14
   51.4799995         2.98823839E-14
   51.5950012         3.02889461E-14
   51.7099991         2.99039154E-14
   51.8250008         2.87231786E-14
   51.9399986         2.67698715E-14
   52.0550003         2.40972878E-14
   52.1699982         2.07910996E-14
   52.2849998         1.69705643E-14
   52.4000015         1.27884602E-14
   52.5149994         8.42942286E-15
   52.6300011         4.10655761E-15
   52.7449989         5.61278905E-17
   52.8600006        -3.46966125E-15
   52.9749985        -6.21169706E-15
   53.0900002        -7.91454457E-15
   53.2050018        -8.33824654E-15
   53.3199997        -7.27081732E-15
   53.4350014        -4.54082970E-15
   53.5499992        -2.94080707E-17
   53.6650009         6.31911397E-15
   53.7799988         1.44885392E-14
   53.8950005         2.43849046E-14
   54.0099983         3.58338915E-14
   54.1250000         4.85819203E-14
   54.2400017         6.23012926E-14
   54.3549995         7.65993307E-14
   54.4700012         9.10314372E-14
   54.5849991         1.05117521E-13
   54.7000008         1.18361253E-13
   54.8149986         1.30271363E-13
   54.9300003         1.40383798E-13
   55.0449982         1.48283810E-13
   55.1599998         1.53626759E-13
   55.2750015         1.56156528E-13
   55.3899994         1.55720434E-13
   55.5050011         1.52279841E-13
   55.6199989         1.45915669E-13
   55.7350006         1.36828483E-13
   55.8499985         1.25332877E-13
   55.9650002         1.11846418E-13
   56.0800018         9.68735454E-14
   56.1949997         8.09850573E-14
   56.3100014         6.47942190E-14
   56.4249992         4.89306844E-14
   56.5400009         3.40133636E-14
   56.6549988         2.06235582E-14
   56.7700005         9.27979312E-15
   56.8849983         4.15300439E-16
   57.0000000        -5.64050420E-15
   57.1150017        -8.67608648E-15
   57.2299995        -8.60642141E-15
   57.3450012        -5.47628230E-15
   57.4599991         5.42164984E-16
   57.5750008         9.15695132E-15
   57.6899986         1.99687543E-14
   57.8050003         3.24873727E-14
   57.9199982         4.61514982E-14
   58.0349998         6.03506096E-14
   58.1500015         7.44482736E-14
   58.2649994         8.78054479E-14
   58.3800011         9.98033104E-14
   58.4949989         1.09864368E-13
   58.6100006         1.17471394E-13
   58.7249985         1.22183635E-13
   58.8400002         1.23649815E-13
   58.9550018         1.21617709E-13
   59.0699997         1.15940433E-13
   59.1850014         1.06579201E-13
   59.2999992         9.36029073E-14
   59.4150009         7.71846169E-14
   59.5299988         5.75952927E-14
   59.6450005         3.51950931E-14
   59.7599983         1.04222415E-14
   59.8750000        -1.62199000E-14
   59.9900017        -4.41775217E-14
   60.1049995        -7.28625060E-14
   60.2200012        -1.01669690E-13
   60.3349991        -1.29994960E-13
   60.4500008        -1.57253740E-13
   60.5649986        -1.82899662E-13
   60.6800003        -2.06442610E-13
   60.7949982        -2.27465751E-13
   60.9099998        -2.45641018E-13
   61.0250015        -2.60742057E-13
   61.1399994        -2.72654349E-13
   61.2550011        -2.81381635E-13
   61.3699989        -2.87048000E-13
   61.4850006        -2.89895549E-13
   61.5999985        -2.90276944E-13
   61.7150002        -2.88643187E-13
   61.8300018        -2.85526729E-13
   61.9449997        -2.81520169E-13
   62.0600014        -2.77251746E-13
   62.1749992        -2.73358295E-13
   62.2900009        -2.70456888E-13
   62.4049988        -2.69117004E-13
   62.5200005        -2.69833906E-13
   62.6349983        -2.73005360E-13
   62.7500000        -2.78912852E-13
   62.8650017        -2.87708171E-13
   62.9799995        -2.99406523E-13
   63.0950012        -3.13886693E-13
   63.2099991        -3.30898069E-13
   63.3250008        -3.50074706E-13
   63.4399986        -3.70955220E-13
   63.5550003        -3.93007567E-13
   63.6699982        -4.15657200E-13
   63.7849998        -4.38317026E-13
   63.9000015        -4.60417240E-13
   64.0149994        -4.81433036E-13
   64.1299973        -5.00908668E-13
   64.2450027        -5.18476212E-13
   64.3600006        -5.33868143E-13
   64.4749985        -5.46922750E-13
   64.5899963        -5.57581921E-13
   64.7050018        -5.65882465E-13
   64.8199997        -5.71940824E-13
   64.9349976        -5.75933236E-13
   65.0500031        -5.78071879E-13
   65.1650009        -5.78580315E-13
   65.2799988        -5.77669043E-13
   65.3949966        -5.75513270E-13
   65.5100021        -5.72235672E-13
   65.6250000        -5.67893822E-13
   65.7399979        -5.62475197E-13
   65.8550034        -5.55898914E-13
   65.9700012        -5.48024354E-13
   66.0849991        -5.38666822E-13
   66.1999969        -5.27617934E-13
   66.3150024        -5.14670229E-13
   66.4300003        -4.99642862E-13
   66.5449982        -4.82407408E-13
   66.6600037        -4.62910526E-13
   66.7750015        -4.41192710E-13
   66.8899994        -4.17399730E-13
   67.0049973        -3.91786890E-13
   67.1200027        -3.64714931E-13
   67.2350006        -3.36636724E-13
   67.3499985        -3.08076617E-13
   67.4649963        -2.79602134E-13
   67.5800018        -2.51790749E-13
   67.6949997        -2.25193467E-13
   67.8099976        -2.00297718E-13
   67.9250031        -1.77491715E-13
   68.0400009        -1.57033579E-13
   68.1549988        -1.39026716E-13
   68.2699966        -1.23403796E-13
   68.3850021        -1.09920563E-13
   68.5000000        -9.81597141E-14
   68.6149979        -8.75461067E-14
   68.7300034        -7.73705034E-14
   68.8450012        -6.68228900E-14
   68.9599991        -5.50315375E-14
   69.0749969        -4.11068139E-14
   69.1900024        -2.41862584E-14
   69.3050003        -3.47852291E-15
   69.4199982         2.16963305E-14
   69.5350037         5.18724637E-14
   69.6500015         8.74119435E-14
   69.7649994         1.28487824E-13
   69.8799973         1.75077414E-13
   69.9950027         2.26965256E-13
   70.1100006         2.83756254E-13
   70.2249985         3.44897206E-13
   70.3399963         4.09704849E-13
   70.4550018         4.77399099E-13
   70.5699997         5.47138940E-13
   70.6849976         6.18058610E-13
   70.8000031         6.89302131E-13
   70.9150009         7.60054454E-13
   71.0299988         8.29567534E-13
   71.1449966         8.97179900E-13
   71.2600021         9.62330693E-13
   71.3750000         1.02456585E-12
   71.4899979         1.08353962E-12
   71.6050034         1.13900957E-12
   71.7200012         1.19082890E-12
   71.8349991         1.23893484E-12
   71.9499969         1.28333769E-12
   72.0650024         1.32410836E-12
   72.1800003         1.36136870E-12
   72.2949982         1.39528319E-12
   72.4100037         1.42605404E-12
   72.5250015         1.45391934E-12
   72.6399994         1.47915361E-12
   72.7549973         1.50207093E-12
   72.8700027         1.52302791E-12
   72.9850006         1.54242884E-12
   73.0999985         1.56072746E-12
   73.2149963         1.57842771E-12
   73.3300018         1.59607993E-12
   73.4449997         1.61427404E-12
   73.5599976         1.63362629E-12
   73.6750031         1.65476172E-12
   73.7900009         1.67829260E-12
   73.9049988         1.70479191E-12
   74.0199966         1.73476457E-12
   74.1350021         1.76861737E-12