  -18.8999996        -0.00000000    
  -18.7849998        -0.00000000    
  -18.6700001        -0.00000000    
  -18.5550003        -0.00000000    
  -18.4400005        -0.00000000    
  -18.3250008        -0.00000000    
  -18.2099991        -0.00000000    
  -18.0949993        -0.00000000    
  -17.9799995        -0.00000000    
  -17.8649998        -0.00000000    
  -17.7500000        -0.00000000    
  -17.6350002        -0.00000000    
  -17.5200005        -0.00000000    
  -17.4050007        -0.00000000    
  -17.2900009        -0.00000000    
  -17.1749992        -0.00000000    
  -17.0599995        -0.00000000    
  -16.9449997        -0.00000000    
  -16.8299999        -0.00000000    
  -16.7150002        -0.00000000    
  -16.6000004        -0.00000000    
  -16.4850006        -0.00000000    
  -16.3700008        -0.00000000    
  -16.2549992        -0.00000000    
  -16.1399994        -0.00000000    
  -16.0249996        -0.00000000    
  -15.9099998        -0.00000000    
  -15.7950001        -0.00000000    
  -15.6800003        -0.00000000    
  -15.5649996        -0.00000000    
  -15.4499998        -0.00000000    
  -15.3350000        -0.00000000    
  -15.2200003        -0.00000000    
  -15.1049995        -0.00000000    
  -14.9899998        -0.00000000    
  -14.8750000        -0.00000000    
  -14.7600002        -0.00000000    
  -14.6450005        -0.00000000    
  -14.5299997        -0.00000000    
  -14.4150000        -0.00000000    
  -14.3000002        -0.00000000    
  -14.1850004        -0.00000000    
  -14.0699997        -0.00000000    
  -13.9549999        -0.00000000    
  -13.8400002        -0.00000000    
  -13.7250004        -0.00000000    
  -13.6099997        -0.00000000    
  -13.4949999        -0.00000000    
  -13.3800001        -0.00000000    
  -13.2650003        -0.00000000    
  -13.1499996        -0.00000000    
  -13.0349998        -0.00000000    
  -12.9200001        -0.00000000    
  -12.8050003        -0.00000000    
  -12.6899996        -0.00000000    
  -12.5749998        -0.00000000    
  -12.4600000        -0.00000000    
  -12.3450003        -0.00000000    
  -12.2299995        -0.00000000    
  -12.1149998        -0.00000000    
  -12.0000000        -0.00000000    
  -11.8850002        -0.00000000    
  -11.7700005        -0.00000000    
  -11.6549997        -0.00000000    
  -11.5400000        -0.00000000    
  -11.4250002        -0.00000000    
  -11.3100004        -0.00000000    
  -11.1949997        -0.00000000    
  -11.0799999        -0.00000000    
  -10.9650002        -0.00000000    
  -10.8500004        -0.00000000    
  -10.7349997        -0.00000000    
  -10.6199999        -0.00000000    
  -10.5050001        -0.00000000    
  -10.3900003        -0.00000000    
  -10.2749996        -0.00000000    
  -10.1599998        -0.00000000    
  -10.0450001        -0.00000000    
  -9.93000031        -0.00000000    
  -9.81499958        -0.00000000    
  -9.69999981        -0.00000000    
  -9.58500004        -0.00000000    
  -9.47000027        -0.00000000    
  -9.35499954        -0.00000000    
  -9.23999977        -0.00000000    
  -9.12500000        -0.00000000    
  -9.01000023        -0.00000000    
  -8.89500046        -0.00000000    
  -8.77999973        -0.00000000    
  -8.66499996        -0.00000000    
  -8.55000019        -0.00000000    
  -8.43500042         1.20135273E-32
  -8.31999969         1.66600722E-31
  -8.20499992         4.66454214E-31
  -8.09000015         9.26216386E-31
  -7.97499990         1.41599316E-30
  -7.86000013         1.73897631E-30
  -7.74499989         1.90329199E-30
  -7.63000011         1.45255404E-30
  -7.51499987         2.25336413E-31
  -7.40000010        -2.01670406E-30
  -7.28499985        -5.38276279E-30
  -7.17000008        -9.77642665E-30
  -7.05499983        -1.50798178E-29
  -6.94000006        -2.07426552E-29
  -6.82499981        -2.60149140E-29
  -6.71000004        -2.98567530E-29
  -6.59499979        -3.07632401E-29
  -6.48000002        -2.73576663E-29
  -6.36499977        -1.81002387E-29
  -6.25000000        -1.85535119E-30
  -6.13500023         2.21925359E-29
  -6.01999998         5.38918773E-29
  -5.90500021         9.19341816E-29
  -5.78999996         1.33679110E-28
  -5.67500019         1.74776000E-28
  -5.55999994         2.09366304E-28
  -5.44500017         2.30065910E-28
  -5.32999992         2.28546231E-28
  -5.21500015         1.96209241E-28
  -5.09999990         1.25230008E-28
  -4.98500013         9.86661208E-30
  -4.86999989        -1.52165402E-28
  -4.75500011        -3.58093547E-28
  -4.63999987        -5.98691212E-28
  -4.52500010        -8.57368737E-28
  -4.40999985        -1.10977861E-27
  -4.29500008        -1.32383648E-27
  -4.17999983        -1.46102625E-27
  -4.06500006        -1.47896397E-27
  -3.95000005        -1.33514785E-27
  -3.83500004        -9.91931151E-28
  -3.72000003        -4.22246996E-28
  -3.60500002         3.83849827E-28
  -3.49000001         1.41278151E-27
  -3.37500000         2.62185163E-27
  -3.25999999         3.93513209E-27
  -3.14499998         5.24214635E-27
  -3.02999997         6.40007860E-27
  -2.91499996         7.24023318E-27
  -2.79999995         7.57938174E-27
  -2.68499994         7.23631892E-27
  -2.56999993         6.05276178E-27
  -2.45499992         3.91767931E-27
  -2.33999991         7.93478900E-28
  -2.22499990        -3.25841424E-27
  -2.10999990        -8.05590765E-27
  -1.99500000        -1.32816135E-26
  -1.88000000        -1.84791684E-26
  -1.76499999        -2.30636659E-26
  -1.64999998        -2.63490512E-26
  -1.53499997        -2.75941141E-26
  -1.41999996        -2.60672461E-26
  -1.30499995        -2.11280108E-26
  -1.19000006        -1.23214873E-26
  -1.07500005         5.21044939E-28
 -0.959999979         1.71839620E-26
 -0.845000029         3.69821505E-26
 -0.730000019         5.87008533E-26
 -0.615000010         8.05727614E-26
 -0.500000000         1.00303442E-25
 -0.384999990         1.15154562E-25
 -0.270000011         1.22090116E-25
 -0.155000001         1.17986474E-25
  -3.99999991E-02     9.99006733E-26
   7.50000030E-02     6.53846314E-26
  0.189999998         1.28262774E-26
  0.305000007        -5.82087396E-26
  0.419999987        -1.46665155E-25
  0.535000026        -2.49750873E-25
  0.649999976        -3.62789340E-25
  0.764999986        -4.79203418E-25
  0.879999995        -5.90657828E-25
  0.995000005        -6.87374837E-25
   1.11000001        -7.58627466E-25
   1.22500002        -7.93396708E-25
   1.34000003        -7.81161524E-25
   1.45500004        -7.12775863E-25
   1.57000005        -5.81366920E-25
   1.68499994        -3.83181148E-25
   1.79999995        -1.18293588E-25
   1.91499996         2.08898996E-25
   2.02999997         5.89479467E-25
   2.14499998         1.01015956E-24
   2.25999999         1.45381158E-24
   2.37500000         1.90038347E-24
   2.49000001         2.32815691E-24
   2.60500002         2.71527659E-24
   2.72000003         3.04143153E-24
   2.83500004         3.28954209E-24
   2.95000005         3.44728587E-24
   3.06500006         3.50827270E-24
   3.18000007         3.47270849E-24
   3.29500008         3.34738689E-24
   3.41000009         3.14490621E-24
   3.52500010         2.88208912E-24
   3.64000010         2.57760340E-24
   3.75500011         2.24894147E-24
   3.86999989         1.90893926E-24
   3.98499990         1.56214615E-24
   4.09999990         1.20137954E-24
   4.21500015         8.04890559E-25
   4.32999992         3.34533427E-25
   4.44500017        -2.64662045E-25
   4.55999994        -1.06318452E-24
   4.67500019        -2.14379972E-24
   4.78999996        -3.59627290E-24
   4.90500021        -5.51017804E-24
   5.01999998        -7.96603181E-24
   5.13500023        -1.10252478E-23
   5.25000000        -1.47195339E-23
   5.36499977        -1.90405243E-23
   5.48000002        -2.39304837E-23
   5.59499979        -2.92750100E-23
   5.71000004        -3.48985785E-23
   5.82499981        -4.05636001E-23
   5.94000006        -4.59735956E-23
   6.05499983        -5.07806489E-23
   6.17000008        -5.45971453E-23
   6.28499985        -5.70113184E-23
   6.40000010        -5.76059302E-23
   6.51499987        -5.59789267E-23
   6.63000011        -5.17649611E-23
   6.74499989        -4.46560653E-23
   6.86000013        -3.44203489E-23
   6.97499990        -2.09171076E-23
   7.09000015        -4.10732105E-24
   7.20499992         1.59410298E-23
   7.32000017         3.90536509E-23
   7.43499994         6.49554948E-23
   7.55000019         9.32813505E-23
   7.66499996         1.23589487E-22
   7.78000021         1.55376909E-22
   7.89499998         1.88094101E-22
   8.01000023         2.21157420E-22
   8.12500000         2.53956792E-22
   8.23999977         2.85857949E-22
   8.35499954         3.16196958E-22
   8.47000027         3.44267936E-22
   8.58500004         3.69305043E-22
   8.69999981         3.90458784E-22
   8.81499958         4.06771822E-22
   8.93000031         4.17155427E-22
   9.04500008         4.20372844E-22
   9.15999985         4.15032622E-22
   9.27499962         3.99597454E-22
   9.39000034         3.72411262E-22
   9.50500011         3.31748701E-22
   9.61999989         2.75886696E-22
   9.73499966         2.03198957E-22
   9.85000038         1.12272098E-22
   9.96500015         2.03619515E-24
   10.0799999        -1.28095234E-22
   10.1949997        -2.78081623E-22
   10.3100004        -4.47124039E-22
   10.4250002        -6.33548557E-22
   10.5400000        -8.34719750E-22
   10.6549997        -1.04699265E-21
   10.7700005        -1.26571033E-21
   10.8850002        -1.48525106E-21
   11.0000000        -1.69913238E-21
   11.1149998        -1.90016433E-21
   11.2299995        -2.08065085E-21
   11.3450003        -2.23263641E-21
   11.4600000        -2.34817209E-21
   11.5749998        -2.41960487E-21
   11.6899996        -2.43986131E-21
   11.8050003        -2.40271754E-21
   11.9200001        -2.30303784E-21
   12.0349998        -2.13697244E-21
   12.1499996        -1.90209455E-21
   12.2650003        -1.59748408E-21
   12.3800001        -1.22374465E-21
   12.4949999        -7.82965224E-22
   12.6099997        -2.78629812E-22
   12.7250004         2.84517213E-22
   12.8400002         9.00628233E-22
   12.9549999         1.56292748E-21
   13.0699997         2.26387823E-21
   13.1850004         2.99533611E-21
   13.3000002         3.74867429E-21
   13.4150000         4.51488386E-21
   13.5299997         5.28463721E-21
   13.6450005         6.04832404E-21
   13.7600002         6.79608845E-21
   13.8750000         7.51782857E-21
   13.9899998         8.20327534E-21
   14.1049995         8.84205022E-21
   14.2200003         9.42380942E-21
   14.3350000         9.93846762E-21
   14.4499998         1.03764573E-20
   14.5649996         1.07291238E-20
   14.6800003         1.09891720E-20
   14.7950001         1.11511233E-20
   14.9099998         1.12118419E-20
   15.0249996         1.11710289E-20
   15.1400003         1.10316232E-20
   15.2550001         1.08001402E-20
   15.3699999         1.04867858E-20
   15.4849997         1.01054151E-20
   15.6000004         9.67319629E-21
   15.7150002         9.21007532E-21
   15.8299999         8.73789736E-21
   15.9449997         8.27931941E-21
   16.0599995         7.85648391E-21
   16.1749992         7.48952349E-21
   16.2900009         7.19496883E-21
   16.4050007         6.98414198E-21
   16.5200005         6.86163443E-21
   16.6350002         6.82396298E-21
   16.7500000         6.85850181E-21
   16.8649998         6.94275226E-21
   16.9799995         7.04405199E-21
   17.0949993         7.11971478E-21
   17.2099991         7.11766784E-21
   17.3250008         6.97750434E-21
   17.4400005         6.63196903E-21
   17.5550003         6.00877568E-21
   17.6700001         5.03262501E-21
   17.7849998         3.62737439E-21
   17.8999996         1.71823831E-21
   18.0149994        -7.66243897E-22
   18.1299992        -3.89232099E-21
   18.2450008        -7.71956613E-21
   18.3600006        -1.22997557E-20
   18.4750004        -1.76762552E-20
   18.5900002        -2.38836543E-20
   18.7049999        -3.09480547E-20
   18.8199997        -3.88874860E-20
   18.9349995        -4.77127503E-20
   19.0499992        -5.74284422E-20
   19.1650009        -6.80339381E-20
   19.2800007        -7.95244914E-20
   19.3950005        -9.18922439E-20
   19.5100002        -1.05127004E-19
   19.6250000        -1.19216953E-19
   19.7399998        -1.34148972E-19
   19.8549995        -1.49909012E-19
   19.9699993        -1.66482209E-19
   20.0849991        -1.83852859E-19
   20.2000008        -2.02004550E-19
   20.3150005        -2.20920374E-19
   20.4300003        -2.40582948E-19
   20.5450001        -2.60974863E-19
   20.6599998        -2.82079368E-19
   20.7749996        -3.03880980E-19
   20.8899994        -3.26365817E-19
   21.0049992        -3.49522738E-19
   21.1200008        -3.73343368E-19
   21.2350006        -3.97821969E-19
   21.3500004        -4.22955464E-19
   21.4650002        -4.48741450E-19
   21.5799999        -4.75176746E-19
   21.6949997        -5.02254349E-19
   21.8099995        -5.29959729E-19
   21.9249992        -5.58266367E-19
   22.0400009        -5.87130627E-19
   22.1550007        -6.16487061E-19
   22.2700005        -6.46242712E-19
   22.3850002        -6.76272367E-19
   22.5000000        -7.06414208E-19
   22.6149998        -7.36467902E-19
   22.7299995        -7.66191862E-19
   22.8449993        -7.95306190E-19
   22.9599991        -8.23492524E-19
   23.0750008        -8.50401485E-19
   23.1900005        -8.75657532E-19
   23.3050003        -8.98870081E-19
   23.4200001        -9.19642034E-19
   23.5349998        -9.37581100E-19
   23.6499996        -9.52313911E-19
   23.7649994        -9.63495428E-19
   23.8799992        -9.70821767E-19
   23.9950008        -9.74038362E-19
   24.1100006        -9.72947621E-19
   24.2250004        -9.67415230E-19
   24.3400002        -9.57369742E-19
   24.4549999        -9.42804125E-19
   24.5699997        -9.23770286E-19
   24.6849995        -9.00373689E-19
   24.7999992        -8.72761159E-19
   24.9150009        -8.41113436E-19
   25.0300007        -8.05630283E-19
   25.1450005        -7.66520356E-19
   25.2600002        -7.23985488E-19
   25.3750000        -6.78211381E-19
   25.4899998        -6.29354372E-19
   25.6049995        -5.77534609E-19
   25.7199993        -5.22829639E-19
   25.8349991        -4.65267588E-19
   25.9500008        -4.04825087E-19
   26.0650005        -3.41428310E-19
   26.1800003        -2.74950700E-19
   26.2950001        -2.05216893E-19
   26.4099998        -1.32007479E-19
   26.5249996        -5.50596231E-20
   26.6399994         2.59275627E-20
   26.7549992         1.11288259E-19
   26.8700008         2.01385806E-19
   26.9850006         2.96606702E-19
   27.1000004         3.97358334E-19
   27.2150002         5.04058843E-19
   27.3299999         6.17133192E-19
   27.4449997         7.37004898E-19
   27.5599995         8.64084242E-19
   27.6749992         9.98760205E-19
   27.7900009         1.14138827E-18
   27.9050007         1.29227842E-18
   28.0200005         1.45168150E-18
   28.1350002         1.61978156E-18
   28.2500000         1.79668882E-18
   28.3649998         1.98243202E-18
   28.4799995         2.17695822E-18
   28.5949993         2.38014170E-18
   28.7099991         2.59179426E-18
   28.8250008         2.81168327E-18
   28.9400005         3.03956367E-18
   29.0550003         3.27520488E-18
   29.1700001         3.51843259E-18
   29.2849998         3.76917254E-18
   29.3999996         4.02749112E-18
   29.5149994         4.29364392E-18
   29.6299992         4.56811486E-18
   29.7450008         4.85165707E-18
   29.8600006         5.14531074E-18
   29.9750004         5.45043368E-18
   30.0900002         5.76869183E-18
   30.2049999         6.10206506E-18
   30.3199997         6.45281032E-18
   30.4349995         6.82343603E-18
   30.5499992         7.21664544E-18
   30.6650009         7.63528485E-18
   30.7800007         8.08226761E-18
   30.8950005         8.56050870E-18
   31.0100002         9.07284949E-18
   31.1250000         9.62198657E-18
   31.2399998         1.02104065E-17
   31.3549995         1.08403277E-17
   31.4699993         1.15136659E-17
   31.5849991         1.22319862E-17
   31.7000008         1.29965013E-17
   31.8150005         1.38080598E-17
   31.9300003         1.46671580E-17
   32.0449982         1.55739564E-17
   32.1599998         1.65283177E-17
   32.2750015         1.75298332E-17
   32.3899994         1.85778711E-17
   32.5050011         1.96716007E-17
   32.6199989         2.08100461E-17
   32.7350006         2.19920987E-17
   32.8499985         2.32165527E-17
   32.9650002         2.44821093E-17
   33.0800018         2.57873887E-17
   33.1949997         2.71309252E-17
   33.3100014         2.85111422E-17
   33.4249992         2.99263556E-17
   33.5400009         3.13747290E-17
   33.6549988         3.28542673E-17
   33.7700005         3.43627436E-17
   33.8849983         3.58977195E-17
   34.0000000         3.74564785E-17
   34.1150017         3.90359832E-17
   34.2299995         4.06328653E-17
   34.3450012         4.22433860E-17
   34.4599991         4.38633762E-17
   34.5750008         4.54882302E-17
   34.6899986         4.71128526E-17
   34.8050003         4.87315723E-17
   34.9199982         5.03381688E-17
   35.0349998         5.19257468E-17
   35.1500015         5.34867028E-17
   35.2649994         5.50127253E-17
   35.3800011         5.64946756E-17
   35.4949989         5.79225614E-17
   35.6100006         5.92855433E-17
   35.7249985         6.05718621E-17
   35.8400002         6.17689049E-17
   35.9550018         6.28631391E-17
   36.0699997         6.38402777E-17
   36.1850014         6.46852063E-17
   36.2999992         6.53822482E-17
   36.4150009         6.59151510E-17
   36.5299988         6.62672719E-17
   36.6450005         6.64217562E-17
   36.7599983         6.63616764E-17
   36.8750000         6.60701779E-17
   36.9900017         6.55307569E-17
   37.1049995         6.47272734E-17
   37.2200012         6.36442226E-17
   37.3349991         6.22667750E-17
   37.4500008         6.05808221E-17
   37.5649986         5.85731687E-17
   37.6800003         5.62314138E-17
   37.7949982         5.35441290E-17
   37.9099998         5.05005940E-17
   38.0250015         4.70909357E-17
   38.1399994         4.33059359E-17
   38.2550011         3.91370250E-17
   38.3699989         3.45760173E-17
   38.4850006         2.96152629E-17
   38.5999985         2.42472975E-17
   38.7150002         1.84648947E-17
   38.8300018         1.22609343E-17
   38.9449997         5.62833541E-18
   39.0600014        -1.43991631E-18
   39.1749992        -8.95091479E-18
   39.2900009        -1.69117275E-17
   39.4049988        -2.53294813E-17
   39.5200005        -3.42111843E-17
   39.6349983        -4.35638375E-17
   39.7500000        -5.33942703E-17
   39.8650017        -6.37089876E-17
   39.9799995        -7.45142494E-17
   40.0950012        -8.58156740E-17
   40.2099991        -9.76182774E-17
   40.3250008        -1.09926176E-16
   40.4399986        -1.22742327E-16
   40.5550003        -1.36068405E-16
   40.6699982        -1.49904331E-16
   40.7849998        -1.64248093E-16
   40.9000015        -1.79095482E-16
   41.0149994        -1.94439523E-16
   41.1300011        -2.10270265E-16
   41.2449989        -2.26574617E-16
   41.3600006        -2.43335784E-16
   41.4749985        -2.60533253E-16
   41.5900002        -2.78142432E-16
   41.7050018        -2.96134842E-16
   41.8199997        -3.14477658E-16
   41.9350014        -3.33134352E-16
   42.0499992        -3.52064453E-16
   42.1650009        -3.71224153E-16
   42.2799988        -3.90566654E-16
   42.3950005        -4.10042429E-16
   42.5099983        -4.29600261E-16
   42.6250000        -4.49187501E-16
   42.7400017        -4.68750733E-16
   42.8549995        -4.88236567E-16
   42.9700012        -5.07591852E-16
   43.0849991        -5.26764919E-16
   43.2000008        -5.45705106E-16
   43.3149986        -5.64363494E-16
   43.4300003        -5.82693181E-16
   43.5449982        -6.00648851E-16
   43.6599998        -6.18186985E-16
   43.7750015        -6.35265287E-16
   43.8899994        -6.51842410E-16
   44.0050011        -6.67877485E-16
   44.1199989        -6.83329431E-16
   44.2350006        -6.98156266E-16
   44.3499985        -7.12314580E-16
   44.4650002        -7.25759005E-16
   44.5800018        -7.38441629E-16
   44.6949997        -7.50311578E-16
   44.8100014        -7.61314695E-16
   44.9249992        -7.71393752E-16
   45.0400009        -7.80488027E-16
   45.1549988        -7.88533676E-16
   45.2700005        -7.95464417E-16
   45.3849983        -8.01211641E-16
   45.5000000        -8.05705045E-16
   45.6150017        -8.08874219E-16
   45.7299995        -8.10648012E-16
   45.8450012        -8.10956543E-16
   45.9599991        -8.09732210E-16
   46.0750008        -8.06910108E-16
   46.1899986        -8.02428880E-16
   46.3050003        -7.96232570E-16
   46.4199982        -7.88270725E-16
   46.5349998        -7.78498982E-16
   46.6500015        -7.66881078E-16
   46.7649994        -7.53388055E-16
   46.8800011        -7.38000113E-16
   46.9949989        -7.20706242E-16
   47.1100006        -7.01504958E-16
   47.2249985        -6.80404361E-16
   47.3400002        -6.57422134E-16
   47.4550018        -6.32585328E-16
   47.5699997        -6.05930313E-16
   47.6850014        -5.77501981E-16
   47.7999992        -5.47353379E-16
   47.9150009        -5.15544115E-16
   48.0299988        -4.82139200E-16
   48.1450005        -4.47208779E-16
   48.2599983        -4.10824955E-16
   48.3750000        -3.73061580E-16
   48.4900017        -3.33992291E-16
   48.6049995        -2.93688240E-16
   48.7200012        -2.52217666E-16
   48.8349991        -2.09643460E-16
   48.9500008        -1.66022693E-16
   49.0649986        -1.21405762E-16
   49.1800003        -7.58355480E-17
   49.2949982        -2.93479446E-17
   49.4099998         1.80282492E-17
   49.5250015         6.62704814E-17
   49.6399994         1.15361176E-16
   49.7550011         1.65286198E-16
   49.8699989         2.16033133E-16
   49.9850006         2.67588772E-16
   50.0999985         3.19937817E-16
   50.2150002         3.73059621E-16
   50.3300018         4.26926734E-16
   50.4449997         4.81502920E-16
   50.5600014         5.36741326E-16
   50.6749992         5.92583615E-16
   50.7900009         6.48958634E-16
   50.9049988         7.05782898E-16
   51.0200005         7.62960374E-16
   51.1349983         8.20383544E-16
   51.2500000         8.77935091E-16
   51.3650017         9.35489657E-16
   51.4799995         9.92915949E-16
   51.5950012         1.05007945E-15
   51.7099991         1.10684612E-15
   51.8250008         1.16308487E-15
   51.9399986         1.21867014E-15
   52.0550003         1.27348651E-15
   52.1699982         1.32743001E-15
   52.2849998         1.38041235E-15
   52.4000015         1.43236172E-15
   52.5149994         1.48322552E-15
   52.6300011         1.53297230E-15
   52.7449989         1.58159114E-15
   52.8600006         1.62909391E-15
   52.9749985         1.67551376E-15
   53.0900002         1.72090498E-15
   53.2050018         1.76534192E-15
   53.3199997         1.80891721E-15
   53.4350014         1.85173896E-15
   53.5499992         1.89392988E-15
   53.6650009         1.93562148E-15
   53.7799988         1.97695372E-15
   53.8950005         2.01806997E-15
   54.0099983         2.05911232E-15
   54.1250000         2.10022073E-15
   54.2400017         2.14152714E-15
   54.3549995         2.18315225E-15
   54.4700012         2.22520362E-15
   54.5849991         2.26777232E-15
   54.7000008         2.31092971E-15
   54.8149986         2.35472851E-15
   54.9300003         2.39920007E-15
   55.0449982         2.44435540E-15
   55.1599998         2.49018623E-15
   55.2750015         2.53666674E-15
   55.3899994         2.58375669E-15
   55.5050011         2.63140611E-15
   55.6199989         2.67955675E-15
   55.7350006         2.72815082E-15
   55.8499985         2.77713389E-15
   55.9650002         2.82646170E-15
   56.0800018         2.87610524E-15
   56.1949997         2.92605583E-15
   56.3100014         2.97633020E-15
   56.4249992         3.02697515E-15
   56.5400009         3.07806945E-15
   56.6549988         3.12972575E-15
   56.7700005         3.18209272E-15
   56.8849983         3.23535246E-15
   57.0000000         3.28972011E-15
   57.1150017         3.34543709E-15
   57.2299995         3.40277085E-15
   57.3450012         3.46200323E-15
   57.4599991         3.52342709E-15
   57.5750008         3.58733700E-15
   57.6899986         3.65401840E-15
   57.8050003         3.72374149E-15
   57.9199982         3.79675022E-15
   58.0349998         3.87325255E-15
   58.1500015         3.95341363E-15
   58.2649994         4.03734654E-15
   58.3800011         4.12510720E-15
   58.4949989         4.21668756E-15
   58.6100006         4.31201180E-15
   58.7249985         4.41093593E-15
   58.8400002         4.51324396E-15
   58.9550018         4.61865086E-15
   59.0699997         4.72680426E-15
   59.1850014         4.83728912E-15
   59.2999992         4.94963322E-15
   59.4150009         5.06331351E-15
   59.5299988         5.17776418E-15
   59.6450005         5.29238679E-15
   59.7599983         5.40655667E-15
   59.8750000         5.51963557E-15
   59.9900017         5.63097805E-15
   60.1049995         5.73994503E-15
   60.2200012         5.84590631E-15
   60.3349991         5.94825414E-15
   60.4500008         6.04640493E-15
   60.5649986         6.13980641E-15
   60.6800003         6.22794061E-15
   60.7949982         6.31032219E-15
   60.9099998         6.38650264E-15
   61.0250015         6.45606141E-15
   61.1399994         6.51860759E-15
   61.2550011         6.57376680E-15
   61.3699989         6.62117777E-15
   61.4850006         6.66048053E-15
   61.5999985         6.69130660E-15
   61.7150002         6.71326889E-15
   61.8300018         6.72594474E-15
   61.9449997         6.72887124E-15
   62.0600014         6.72153043E-15
   62.1749992         6.70333997E-15
   62.2900009         6.67364723E-15
   62.4049988         6.63172164E-15
   62.5200005         6.57675344E-15
   62.6349983         6.50784731E-15
   62.7500000         6.42403001E-15
   62.8650017         6.32425630E-15
   62.9799995         6.20740896E-15
   63.0950012         6.07231525E-15
   63.2099991         5.91775799E-15
   63.3250008         5.74249671E-15
   63.4399986         5.54527737E-15
   63.5550003         5.32484721E-15
   63.6699982         5.07999413E-15
   63.7849998         4.80954201E-15
   63.9000015         4.51238973E-15
   64.0149994         4.18752040E-15
   64.1299973         3.83402094E-15
   64.2450027         3.45110361E-15
   64.3600006         3.03811321E-15
   64.4749985         2.59454408E-15
   64.5899963         2.12004723E-15
   64.7050018         1.61442786E-15
   64.8199997         1.07766562E-15
   64.9349976         5.09896894E-16
   65.0500031        -8.85801645E-17
   65.1650009        -7.17315781E-16
   65.2799988        -1.37571873E-15
   65.3949966        -2.06306479E-15
   65.5100021        -2.77851709E-15
   65.6250000        -3.52114476E-15
   65.7399979        -4.28993304E-15
   65.8550034        -5.08380366E-15
   65.9700012        -5.90164023E-15
   66.0849991        -6.74230349E-15
   66.1999969        -7.60464486E-15
   66.3150024        -8.48752932E-15
   66.4300003        -9.38984642E-15
   66.5449982        -1.03105204E-14
   66.6600037        -1.12485179E-14
   66.7750015        -1.22028589E-14
   66.8899994        -1.31726109E-14
   67.0049973        -1.41568835E-14
   67.1200027        -1.51548374E-14
   67.2350006        -1.61656577E-14
   67.3499985        -1.71885347E-14
   67.4649963        -1.82226789E-14
   67.5800018        -1.92672569E-14
   67.6949997        -2.03214063E-14
   67.8099976        -2.13841870E-14
   67.9250031        -2.24545758E-14
   68.0400009        -2.35314189E-14
   68.1549988        -2.46134391E-14
   68.2699966        -2.56991880E-14
   68.3850021        -2.67870443E-14
   68.5000000        -2.78751902E-14
   68.6149979        -2.89616082E-14
   68.7300034        -3.00440689E-14
   68.8450012        -3.11201463E-14
   68.9599991        -3.21872046E-14
   69.0749969        -3.32424145E-14
   69.1900024        -3.42827776E-14
   69.3050003        -3.53051532E-14
   69.4199982        -3.63062580E-14
   69.5350037        -3.72827210E-14
   69.6500015        -3.82311133E-14
   69.7649994        -3.91479587E-14
   69.8799973        -4.00298182E-14
   69.9950027        -4.08732564E-14
   70.1100006        -4.16749527E-14
   70.2249985        -4.24316649E-14
   70.3399963        -4.31402926E-14
   70.4550018        -4.37978985E-14
   70.5699997        -4.44017381E-14
   70.6849976        -4.49492433E-14
   70.8000031        -4.54380592E-14
   70.9150009        -4.58660345E-14
   71.0299988        -4.62312412E-14
   71.1449966        -4.65319311E-14
   71.2600021        -4.67665491E-14
   71.3750000        -4.69337229E-14
   71.4899979        -4.70322159E-14
   71.6050034        -4.70609202E-14
   71.7200012        -4.70188463E-14
   71.8349991        -4.69050627E-14
   71.9499969        -4.67186816E-14
   72.0650024        -4.64588525E-14
   72.1800003        -4.61247048E-14
   72.2949982        -4.57153304E-14
   72.4100037        -4.52297908E-14
   72.5250015        -4.46670763E-14
   72.6399994        -4.40260892E-14
   72.7549973        -4.33056436E-14
   72.8700027        -4.25044860E-14
   72.9850006        -4.16212813E-14
   73.0999985        -4.06546033E-14
   73.2149963        -3.96030051E-14
   73.3300018        -3.84650062E-14
   73.4449997        -3.72391259E-14
   73.5599976        -3.59239345E-14
   73.6750031        -3.45180698E-14
   73.7900009        -3.30203157E-14
   73.9049988        -3.14296285E-14
   74.0199966        -2.97451815E-14
   74.1350021        -2.79664496E-14