  -18.8999996         0.00000000    
  -18.7849998         0.00000000    
  -18.6700001         0.00000000    
  -18.5550003         0.00000000    
  -18.4400005         0.00000000    
  -18.3250008         0.00000000    
  -18.2099991         0.00000000    
  -18.0949993         0.00000000    
  -17.9799995         0.00000000    
  -17.8649998         0.00000000    
  -17.7500000         0.00000000    
  -17.6350002         0.00000000    
  -17.5200005         0.00000000    
  -17.4050007         0.00000000    
  -17.2900009         0.00000000    
  -17.1749992         0.00000000    
  -17.0599995         0.00000000    
  -16.9449997         0.00000000    
  -16.8299999         0.00000000    
  -16.7150002         0.00000000    
  -16.6000004         0.00000000    
  -16.4850006         0.00000000    
  -16.3700008         0.00000000    
  -16.2549992         0.00000000    
  -16.1399994         0.00000000    
  -16.0249996         0.00000000    
  -15.9099998         0.00000000    
  -15.7950001         0.00000000    
  -15.6800003         0.00000000    
  -15.5649996         0.00000000    
  -15.4499998         0.00000000    
  -15.3350000         0.00000000    
  -15.2200003         0.00000000    
  -15.1049995         0.00000000    
  -14.9899998         0.00000000    
  -14.8750000         0.00000000    
  -14.7600002         0.00000000    
  -14.6450005         0.00000000    
  -14.5299997         0.00000000    
  -14.4150000         0.00000000    
  -14.3000002         0.00000000    
  -14.1850004         0.00000000    
  -14.0699997         0.00000000    
  -13.9549999         0.00000000    
  -13.8400002         0.00000000    
  -13.7250004         0.00000000    
  -13.6099997         0.00000000    
  -13.4949999         0.00000000    
  -13.3800001         0.00000000    
  -13.2650003         0.00000000    
  -13.1499996         0.00000000    
  -13.0349998         0.00000000    
  -12.9200001         0.00000000    
  -12.8050003         0.00000000    
  -12.6899996         0.00000000    
  -12.5749998         0.00000000    
  -12.4600000         0.00000000    
  -12.3450003         0.00000000    
  -12.2299995         0.00000000    
  -12.1149998         0.00000000    
  -12.0000000         0.00000000    
  -11.8850002         0.00000000    
  -11.7700005         0.00000000    
  -11.6549997         0.00000000    
  -11.5400000         0.00000000    
  -11.4250002         0.00000000    
  -11.3100004         0.00000000    
  -11.1949997         0.00000000    
  -11.0799999         0.00000000    
  -10.9650002         0.00000000    
  -10.8500004         0.00000000    
  -10.7349997         0.00000000    
  -10.6199999         0.00000000    
  -10.5050001         0.00000000    
  -10.3900003         0.00000000    
  -10.2749996         0.00000000    
  -10.1599998         0.00000000    
  -10.0450001         0.00000000    
  -9.93000031         0.00000000    
  -9.81499958         0.00000000    
  -9.69999981         0.00000000    
  -9.58500004         0.00000000    
  -9.47000027         0.00000000    
  -9.35499954         0.00000000    
  -9.23999977         0.00000000    
  -9.12500000         0.00000000    
  -9.01000023         0.00000000    
  -8.89500046         0.00000000    
  -8.77999973         0.00000000    
  -8.66499996         0.00000000    
  -8.55000019         0.00000000    
  -8.43500042        -6.79412989E-32
  -8.31999969        -3.20891526E-31
  -8.20499992        -8.46078986E-31
  -8.09000015        -1.74324251E-30
  -7.97499990        -2.80771904E-30
  -7.86000013        -3.76974644E-30
  -7.74499989        -4.40591420E-30
  -7.63000011        -4.20038437E-30
  -7.51499987        -2.78997810E-30
  -7.40000010         7.48592183E-32
  -7.28499985         4.64273700E-30
  -7.17000008         1.08672696E-29
  -7.05499983         1.85215509E-29
  -6.94000006         2.69399923E-29
  -6.82499981         3.49881075E-29
  -6.71000004         4.12051237E-29
  -6.59499979         4.37346070E-29
  -6.48000002         4.07742902E-29
  -6.36499977         2.99799975E-29
  -6.25000000         9.27044272E-30
  -6.13500023        -2.32407263E-29
  -6.01999998        -6.78872551E-29
  -5.90500021        -1.22988827E-28
  -5.78999996        -1.84510203E-28
  -5.67500019        -2.45755763E-28
  -5.55999994        -2.97387706E-28
  -5.44500017        -3.27791447E-28
  -5.32999992        -3.23773307E-28
  -5.21500015        -2.71981079E-28
  -5.09999990        -1.59895326E-28
  -4.98500013         2.15853684E-29
  -4.86999989         2.75598336E-28
  -4.75500011         5.96610293E-28
  -4.63999987         9.67957946E-28
  -4.52500010         1.35953398E-27
  -4.40999985         1.72697445E-27
  -4.29500008         2.01222355E-27
  -4.17999983         2.14615483E-27
  -4.06500006         2.05389624E-27
  -3.95000005         1.66320440E-27
  -3.83500004         9.15092806E-28
  -3.72000003        -2.23050204E-28
  -3.60500002        -1.74324644E-27
  -3.49000001        -3.58253862E-27
  -3.37500000        -5.61062913E-27
  -3.25999999        -7.62159196E-27
  -3.14499998        -9.33202036E-27
  -3.02999997        -1.03882088E-26
  -2.91499996        -1.03848015E-26
  -2.79999995        -8.89632339E-27
  -2.68499994        -5.52285102E-27
  -2.56999993         5.09390234E-29
  -2.45499992         7.98561737E-27
  -2.33999991         1.82099665E-26
  -2.22499990         3.03437966E-26
  -2.10999990         4.36287813E-26
  -1.99500000         5.68781408E-26
  -1.88000000         6.84565605E-26
  -1.76499999         7.63021273E-26
  -1.64999998         7.80013584E-26
  -1.53499997         7.09260156E-26
  -1.41999996         5.24363178E-26
  -1.30499995         2.01502809E-26
  -1.19000006        -2.77282143E-26
  -1.07500005        -9.20376775E-26
 -0.959999979        -1.72267204E-25
 -0.845000029        -2.66176436E-25
 -0.730000019        -3.69466456E-25
 -0.615000010        -4.75546604E-25
 -0.500000000        -5.75443709E-25
 -0.384999990        -6.57900233E-25
 -0.270000011        -7.09700488E-25
 -0.155000001        -7.16254049E-25
  -3.99999991E-02    -6.62448509E-25
   7.50000030E-02    -5.33762763E-25
  0.189999998        -3.17608219E-25
  0.305000007        -4.83714023E-27
  0.419999987         4.08670674E-25
  0.535000026         9.20454047E-25
  0.649999976         1.52008398E-24
  0.764999986         2.18808834E-24
  0.879999995         2.89534040E-24
  0.995000005         3.60304290E-24
   1.11000001         4.26342677E-24
   1.22500002         4.82124293E-24
   1.34000003         5.21606545E-24
   1.45500004         5.38537867E-24
   1.57000005         5.26833971E-24
   1.68499994         4.81004190E-24
   1.79999995         3.96603449E-24
   1.91499996         2.70679989E-24
   2.02999997         1.02184575E-24
   2.14499998        -1.07694837E-24
   2.25999999        -3.55306620E-24
   2.37500000        -6.34450218E-24
   2.49000001        -9.36451022E-24
   2.60500002        -1.25041309E-23
   2.72000003        -1.56364317E-23
   2.83500004        -1.86223507E-23
   2.95000005        -2.13178048E-23
   3.06500006        -2.35815957E-23
   3.18000007        -2.52835505E-23
   3.29500008        -2.63121825E-23
   3.41000009        -2.65811352E-23
   3.52500010        -2.60337462E-23
   3.64000010        -2.46450418E-23
   3.75500011        -2.24207664E-23
   3.86999989        -1.93931325E-23
   3.98499990        -1.56134017E-23
   4.09999990        -1.11416340E-23
   4.21500015        -6.03431221E-24
   4.32999992        -3.30901191E-25
   4.44500017         5.95933572E-24
   4.55999994         1.28687313E-23
   4.67500019         2.04791162E-23
   4.78999996         2.89246359E-23
   4.90500021         3.83880258E-23
   5.01999998         4.90892175E-23
   5.13500023         6.12655317E-23
   5.25000000         7.51436019E-23
   5.36499977         9.09035723E-23
   5.48000002         1.08637115E-22
   5.59499979         1.28301549E-22
   5.71000004         1.49672978E-22
   5.82499981         1.72302115E-22
   5.94000006         1.95476552E-22
   6.05499983         2.18194004E-22
   6.17000008         2.39150239E-22
   6.28499985         2.56745296E-22
   6.40000010         2.69110798E-22
   6.51499987         2.74160088E-22
   6.63000011         2.69661536E-22
   6.74499989         2.53333882E-22
   6.86000013         2.22961046E-22
   6.97499990         1.76522155E-22
   7.09000015         1.12331016E-22
   7.20499992         2.91784692E-23
   7.32000017        -7.35299900E-23
   7.43499994        -1.95649281E-22
   7.55000019        -3.36190203E-22
   7.66499996        -4.93241832E-22
   7.78000021        -6.63927603E-22
   7.89499998        -8.44397975E-22
   8.01000023        -1.02986329E-21
   8.12500000        -1.21466576E-21
   8.23999977        -1.39239084E-21
   8.35499954        -1.55601014E-21
   8.47000027        -1.69805458E-21
   8.58500004        -1.81080903E-21
   8.69999981        -1.88652089E-21
   8.81499958        -1.91761772E-21
   8.93000031        -1.89692326E-21
   9.04500008        -1.81787359E-21
   9.15999985        -1.67472297E-21
   9.27499962        -1.46274138E-21
   9.39000034        -1.17840421E-21
   9.50500011        -8.19576852E-22
   9.61999989        -3.85694922E-22
   9.73499966         1.22054453E-22
   9.85000038         7.00546450E-22
   9.96500015         1.34452928E-21
   10.0799999         2.04643413E-21
   10.1949997         2.79618591E-21
   10.3100004         3.58103410E-21
   10.4250002         4.38540949E-21
   10.5400000         5.19083461E-21
   10.6549997         5.97590979E-21
   10.7700005         6.71641052E-21
   10.8850002         7.38550956E-21
   11.0000000         7.95417362E-21
   11.1149998         8.39174489E-21
   11.2299995         8.66672590E-21
   11.3450003         8.74778152E-21
   11.4600000         8.60494989E-21
   11.5749998         8.21104066E-21
   11.6899996         7.54319168E-21
   11.8050003         6.58452650E-21
   11.9200001         5.32583872E-21
   12.0349998         3.76723295E-21
   12.1499996         1.91960994E-21
   12.2650003        -1.94087854E-22
   12.3800001        -2.53799126E-21
   12.4949999        -5.06286274E-21
   12.6099997        -7.70619149E-21
   12.7250004        -1.03929113E-20
   12.8400002        -1.30367502E-20
   12.9549999        -1.55422810E-20
   13.0699997        -1.78076056E-20
   13.1850004        -1.97276534E-20
   13.3000002        -2.11979928E-20
   13.4150000        -2.21190762E-20
   13.5299997        -2.24007069E-20
   13.6450005        -2.19666342E-20
   13.7600002        -2.07590200E-20
   13.8750000        -1.87425960E-20
   13.9899998        -1.59084119E-20
   14.1049995        -1.22768563E-20
   14.2200003        -7.89987616E-21
   14.3350000        -2.86220830E-21
   14.4499998         2.71841155E-21
   14.5649996         8.69218674E-21
   14.6800003         1.48793281E-20
   14.7950001         2.10732985E-20
   14.9099998         2.70451193E-20
   15.0249996         3.25486815E-20
   15.1400003         3.73269775E-20
   15.2550001         4.11190675E-20
   15.3699999         4.36676691E-20
   15.4849997         4.47272002E-20
   15.6000004         4.40720603E-20
   15.7150002         4.15050442E-20
   15.8299999         3.68656046E-20
   15.9449997         3.00378781E-20
   16.0599995         2.09581621E-20
   16.1749992         9.62172288E-21
   16.2900009        -3.91133686E-21
   16.4050007        -1.95113893E-20
   16.5200005        -3.69759815E-20
   16.6350002        -5.60282322E-20
   16.7500000        -7.63171438E-20
   16.8649998        -9.74201239E-20
   16.9799995        -1.18847863E-19
   17.0949993        -1.40051927E-19
   17.2099991        -1.60434885E-19
   17.3250008        -1.79363466E-19
   17.4400005        -1.96184274E-19
   17.5550003        -2.10242092E-19
   17.6700001        -2.20900495E-19
   17.7849998        -2.27564211E-19
   17.8999996        -2.29702679E-19
   18.0149994        -2.26874084E-19
   18.1299992        -2.18748844E-19
   18.2450008        -2.05131628E-19
   18.3600006        -1.85981001E-19
   18.4750004        -1.61425240E-19
   18.5900002        -1.31773529E-19
   18.7049999        -9.75213954E-20
   18.8199997        -5.93497178E-20
   18.9349995        -1.81164154E-20
   19.0499992         2.51596192E-20
   19.1650009         6.93218195E-20
   19.2800007         1.13107449E-19
   19.3950005         1.55185222E-19
   19.5100002         1.94199454E-19
   19.6250000         2.28818682E-19
   19.7399998         2.57787193E-19
   19.8549995         2.79977942E-19
   19.9699993         2.94443960E-19
   20.0849991         3.00468007E-19
   20.2000008         2.97605316E-19
   20.3150005         2.85720359E-19
   20.4300003         2.65013650E-19
   20.5450001         2.36037177E-19
   20.6599998         1.99699145E-19
   20.7749996         1.57252760E-19
   20.8899994         1.10273916E-19
   21.0049992         6.06240865E-20
   21.1200008         1.03999431E-20
   21.2350006        -3.81281989E-20
   21.3500004        -8.25875735E-20
   21.4650002        -1.20583430E-19
   21.5799999        -1.49784108E-19
   21.6949997        -1.68009830E-19
   21.8099995        -1.73319322E-19
   21.9249992        -1.64095250E-19
   22.0400009        -1.39119914E-19
   22.1550007        -9.76431654E-20
   22.2700005        -3.94361071E-20
   22.3850002         3.51698908E-20
   22.5000000         1.25264355E-19
   22.6149998         2.29356918E-19
   22.7299995         3.45396218E-19
   22.8449993         4.70816367E-19
   22.9599991         6.02598233E-19
   23.0750008         7.37355777E-19
   23.1900005         8.71442013E-19
   23.3050003         1.00106845E-18
   23.4200001         1.12243973E-18
   23.5349998         1.23189951E-18
   23.6499996         1.32607795E-18
   23.7649994         1.40204043E-18
   23.8799992         1.45743030E-18
   23.9950008         1.49059694E-18
   24.1100006         1.50070943E-18
   24.2250004         1.48784243E-18
   24.3400002         1.45303498E-18
   24.4549999         1.39831388E-18
   24.5699997         1.32668024E-18
   24.6849995         1.24205501E-18
   24.7999992         1.14918569E-18
   24.9150009         1.05350829E-18
   25.0300007         9.60975732E-19
   25.1450005         8.77849458E-19
   25.2600002         8.10465464E-19
   25.3750000         7.64979991E-19
   25.4899998         7.47104876E-19
   25.6049995         7.61840737E-19
   25.7199993         8.13224473E-19
   25.8349991         9.04095588E-19
   25.9500008         1.03589793E-18
   26.0650005         1.20852463E-18
   26.1800003         1.42021721E-18
   26.2950001         1.66752446E-18
   26.4099998         1.94533131E-18
   26.5249996         2.24695528E-18
   26.6399994         2.56431325E-18
   26.7549992         2.88815570E-18
   26.8700008         3.20836456E-18
   26.9850006         3.51429958E-18
   27.1000004         3.79519068E-18
   27.2150002         4.04055519E-18
   27.3299999         4.24062702E-18
   27.4449997         4.38678653E-18
   27.5599995         4.47196049E-18
   27.6749992         4.49098813E-18
   27.7900009         4.44092757E-18
   27.9050007         4.32129037E-18
   28.0200005         4.13418997E-18
   28.1350002         3.88439466E-18
   28.2500000         3.57927586E-18
   28.3649998         3.22865075E-18
   28.4799995         2.84451303E-18
   28.5949993         2.44066940E-18
   28.7099991         2.03227399E-18
   28.8250008         1.63528468E-18
   28.9400005         1.26585558E-18
   29.0550003         9.39682449E-19
   29.1700001         6.71325930E-19
   29.2849998         4.73540583E-19
   29.3999996         3.56631993E-19
   29.5149994         3.27869812E-19
   29.6299992         3.90983900E-19
   29.7450008         5.45773716E-19
   29.8600006         7.87844194E-19
   29.9750004         1.10849223E-18
   30.0900002         1.49475952E-18
   30.2049999         1.92965934E-18
   30.3199997         2.39258311E-18
   30.4349995         2.85987005E-18
   30.5499992         3.30554484E-18
   30.6650009         3.70219572E-18
   30.7800007         4.02197258E-18
   30.8950005         4.23765827E-18
   31.0100002         4.32379094E-18
   31.1250000         4.25779723E-18
   31.2399998         4.02106227E-18
   31.3549995         3.59991567E-18
   31.4699993         2.98646839E-18
   31.5849991         2.17927164E-18
   31.7000008         1.18374540E-18
   31.8150005         1.23298419E-20
   31.9300003        -1.31562456E-18
   32.0449982        -2.77428643E-18
   32.1599998        -4.33207060E-18
   32.2750015        -5.95265225E-18
   32.3899994        -7.59624937E-18
   32.5050011        -9.22113567E-18
   32.6199989        -1.07853292E-17
   32.7350006        -1.22483975E-17
   32.8499985        -1.35733382E-17
   32.9650002        -1.47283594E-17
   33.0800018        -1.56885987E-17
   33.1949997        -1.64376405E-17
   33.3100014        -1.69687384E-17
   33.4249992        -1.72857455E-17
   33.5400009        -1.74035740E-17
   33.6549988        -1.73483448E-17
   33.7700005        -1.71569038E-17
   33.8849983        -1.68759966E-17
   34.0000000        -1.65608987E-17
   34.1150017        -1.62736503E-17
   34.2299995        -1.60809205E-17
   34.3450012        -1.60516085E-17
   34.4599991        -1.62541073E-17
   34.5750008        -1.67536268E-17
   34.6899986        -1.76094030E-17
   34.8050003        -1.88720744E-17
   34.9199982        -2.05813042E-17
   35.0349998        -2.27636779E-17
   35.1500015        -2.54311650E-17
   35.2649994        -2.85799604E-17
   35.3800011        -3.21900776E-17
   35.4949989        -3.62254783E-17
   35.6100006        -4.06349068E-17
   35.7249985        -4.53533700E-17
   35.8400002        -5.03041287E-17
   35.9550018        -5.54014836E-17
   36.0699997        -6.05537303E-17
   36.1850014        -6.56666064E-17
   36.2999992        -7.06469749E-17
   36.4150009        -7.54064464E-17
   36.5299988        -7.98650359E-17
   36.6450005        -8.39546963E-17
   36.7599983        -8.76222431E-17
   36.8750000        -9.08318957E-17
   36.9900017        -9.35670776E-17
   37.1049995        -9.58316599E-17
   37.2200012        -9.76502264E-17
   37.3349991        -9.90674714E-17
   37.4500008        -1.00146876E-16
   37.5649986        -1.00968465E-16
   37.6800003        -1.01625709E-16
   37.7949982        -1.02221762E-16
   37.9099998        -1.02865216E-16
   38.0250015        -1.03665292E-16
   38.1399994        -1.04726896E-16
   38.2550011        -1.06145557E-16
   38.3699989        -1.08002465E-16
   38.4850006        -1.10359976E-16
   38.5999985        -1.13257450E-16
   38.7150002        -1.16708064E-16
   38.8300018        -1.20696332E-16
   38.9449997        -1.25176554E-16
   39.0600014        -1.30072709E-16
   39.1749992        -1.35279156E-16
   39.2900009        -1.40662672E-16
   39.4049988        -1.46065591E-16
   39.5200005        -1.51310101E-16
   39.6349983        -1.56203463E-16
   39.7500000        -1.60543951E-16
   39.8650017        -1.64127337E-16
   39.9799995        -1.66753788E-16
   40.0950012        -1.68234878E-16
   40.2099991        -1.68400486E-16
   40.3250008        -1.67104989E-16
   40.4399986        -1.64233084E-16
   40.5550003        -1.59704423E-16
   40.6699982        -1.53477433E-16
   40.7849998        -1.45551243E-16
   40.9000015        -1.35966523E-16
   41.0149994        -1.24805051E-16
   41.1300011        -1.12187304E-16
   41.2449989        -9.82685538E-17
   41.3600006        -8.32340764E-17
   41.4749985        -6.72922876E-17
   41.5900002        -5.06676481E-17
   41.7050018        -3.35920958E-17
   41.8199997        -1.62964556E-17
   41.9350014         9.98448358E-19
   42.0499992         1.80909926E-17
   42.1650009         3.48064135E-17
   42.2799988         5.10048235E-17
   42.3950005         6.65871658E-17
   42.5099983         8.15008484E-17
   42.6250000         9.57424700E-17
   42.7400017         1.09359259E-16
   42.8549995         1.22449015E-16
   42.9700012         1.35157103E-16
   43.0849991         1.47672267E-16
   43.2000008         1.60220014E-16
   43.3149986         1.73054032E-16
   43.4300003         1.86446973E-16
   43.5449982         2.00678768E-16
   43.6599998         2.16025351E-16
   43.7750015         2.32745040E-16
   43.8899994         2.51067077E-16
   44.0050011         2.71179054E-16
   44.1199989         2.93215913E-16
   44.2350006         3.17249996E-16
   44.3499985         3.43283157E-16
   44.4650002         3.71240327E-16
   44.5800018         4.00966842E-16
   44.6949997         4.32227731E-16
   44.8100014         4.64710280E-16
   44.9249992         4.98029538E-16
   45.0400009         5.31736685E-16
   45.1549988         5.65330859E-16
   45.2700005         5.98272553E-16
   45.3849983         6.30000130E-16
   45.5000000         6.59947086E-16
   45.6150017         6.87561048E-16
   45.7299995         7.12322733E-16
   45.8450012         7.33764631E-16
   45.9599991         7.51488848E-16
   46.0750008         7.65182407E-16
   46.1899986         7.74631165E-16
   46.3050003         7.79729297E-16
   46.4199982         7.80486016E-16
   46.5349998         7.77028004E-16
   46.6500015         7.69596825E-16
   46.7649994         7.58542568E-16
   46.8800011         7.44312997E-16
   46.9949989         7.27438724E-16
   47.1100006         7.08514473E-16
   47.2249985         6.88177159E-16
   47.3400002         6.67082650E-16
   47.4550018         6.45879669E-16
   47.5699997         6.25184430E-16
   47.6850014         6.05555554E-16
   47.7999992         5.87470236E-16
   47.9150009         5.71303553E-16
   48.0299988         5.57310833E-16
   48.1450005         5.45614738E-16
   48.2599983         5.36196896E-16
   48.3750000         5.28894890E-16
   48.4900017         5.23404263E-16
   48.6049995         5.19287683E-16
   48.7200012         5.15988172E-16
   48.8349991         5.12847903E-16
   48.9500008         5.09131758E-16
   49.0649986         5.04053531E-16
   49.1800003         4.96805099E-16
   49.2949982         4.86587870E-16
   49.4099998         4.72644438E-16
   49.5250015         4.54288916E-16
   49.6399994         4.30936323E-16
   49.7550011         4.02128203E-16
   49.8699989         3.67554674E-16
   49.9850006         3.27073064E-16
   50.0999985         2.80718657E-16
   50.2150002         2.28712237E-16
   50.3300018         1.71459003E-16
   50.4449997         1.09543317E-16
   50.5600014         4.37159163E-17
   50.6749992        -2.51231924E-17
   50.7900009        -9.59483916E-17
   50.9049988        -1.67634967E-16
   51.0200005        -2.38990505E-16
   51.1349983        -3.08787555E-16
   51.2500000        -3.75798581E-16
   51.3650017        -4.38829691E-16
   51.4799995        -4.96755495E-16
   51.5950012        -5.48550660E-16
   51.7099991        -5.93318680E-16
   51.8250008        -6.30315915E-16
   51.9399986        -6.58972045E-16
   52.0550003        -6.78904372E-16
   52.1699982        -6.89926229E-16
   52.2849998        -6.92048894E-16
   52.4000015        -6.85477453E-16
   52.5149994        -6.70600590E-16
   52.6300011        -6.47974222E-16
   52.7449989        -6.18300011E-16
   52.8600006        -5.82399102E-16
   52.9749985        -5.41182585E-16
   53.0900002        -4.95618247E-16
   53.2050018        -4.46697648E-16
   53.3199997        -3.95400618E-16
   53.4350014        -3.42662017E-16
   53.5499992        -2.89339917E-16
   53.6650009        -2.36187699E-16
   53.7799988        -1.83828305E-16
   53.8950005        -1.32735886E-16
   54.0099983        -8.32221120E-17
   54.1250000        -3.54281920E-17
   54.2400017         1.06754532E-17
   54.3549995         5.52832200E-17
   54.4700012         9.87423364E-17
   54.5849991         1.41534335E-16
   54.7000008         1.84251768E-16
   54.8149986         2.27569721E-16
   54.9300003         2.72214313E-16
   55.0449982         3.18928445E-16
   55.1599998         3.68436833E-16
   55.2750015         4.21411200E-16
   55.3899994         4.78436078E-16
   55.5050011         5.39978898E-16
   55.6199989         6.06361400E-16
   55.7350006         6.77737954E-16
   55.8499985         7.54077699E-16
   55.9650002         8.35153363E-16
   56.0800018         9.20536349E-16
   56.1949997         1.00959879E-15
   56.3100014         1.10152040E-15
   56.4249992         1.19530261E-15
   56.5400009         1.28978766E-15
   56.6549988         1.38368189E-15
   56.7700005         1.47558275E-15
   56.8849983         1.56400928E-15
   57.0000000         1.64743408E-15
   57.1150017         1.72431535E-15
   57.2299995         1.79312957E-15
   57.3450012         1.85240303E-15
   57.4599991         1.90073960E-15
   57.5750008         1.93684862E-15
   57.6899986         1.95956668E-15
   57.8050003         1.96787671E-15
   57.9199982         1.96092320E-15
   58.0349998         1.93802345E-15
   58.1500015         1.89867390E-15
   58.2649994         1.84255119E-15
   58.3800011         1.76951281E-15
   58.4949989         1.67959158E-15
   58.6100006         1.57298656E-15
   58.7249985         1.45005190E-15
   58.8400002         1.31128154E-15
   58.9550018         1.15729572E-15
   59.0699997         9.88821922E-16
   59.1850014         8.06673627E-16
   59.2999992         6.11732541E-16
   59.4150009         4.04925265E-16
   59.5299988         1.87200065E-16
   59.6450005        -4.04976808E-17
   59.7599983        -2.77242407E-16
   59.8750000        -5.22155207E-16
   59.9900017        -7.74427665E-16
   60.1049995        -1.03333954E-15
   60.2200012        -1.29827863E-15
   60.3349991        -1.56876060E-15
   60.4500008        -1.84444495E-15
   60.5649986        -2.12513875E-15
   60.6800003        -2.41080993E-15
   60.7949982        -2.70159189E-15
   60.9099998        -2.99777729E-15
   61.0250015        -3.29981717E-15
   61.1399994        -3.60829556E-15
   61.2550011        -3.92391359E-15
   61.3699989        -4.24746831E-15
   61.4850006        -4.57980593E-15
   61.5999985        -4.92179209E-15
   61.7150002        -5.27426452E-15
   61.8300018        -5.63798259E-15
   61.9449997        -6.01357521E-15
   62.0600014        -6.40148919E-15
   62.1749992        -6.80193037E-15
   62.2900009        -7.21480896E-15
   62.4049988        -7.63969508E-15
   62.5200005        -8.07576882E-15
   62.6349983        -8.52178672E-15
   62.7500000        -8.97605219E-15
   62.8650017        -9.43640612E-15
   62.9799995        -9.90021680E-15
   63.0950012        -1.03643900E-14
   63.2099991        -1.08254021E-14
   63.3250008        -1.12793313E-14
   63.4399986        -1.17219128E-14
   63.5550003        -1.21486116E-14
   63.6699982        -1.25546961E-14
   63.7849998        -1.29353324E-14
   63.9000015        -1.32856787E-14
   64.0149994        -1.36009944E-14
   64.1299973        -1.38767443E-14
   64.2450027        -1.41087042E-14
   64.3600006        -1.42930660E-14
   64.4749985        -1.44265279E-14
   64.5899963        -1.45063777E-14
   64.7050018        -1.45305554E-14
   64.8199997        -1.44977041E-14
   64.9349976        -1.44071919E-14
   65.0500031        -1.42591322E-14
   65.1650009        -1.40543476E-14
   65.2799988        -1.37943432E-14
   65.3949966        -1.34812265E-14
   65.5100021        -1.31176299E-14
   65.6250000        -1.27065954E-14
   65.7399979        -1.22514524E-14
   65.8550034        -1.17556713E-14
   65.9700012        -1.12227164E-14
   66.0849991        -1.06558845E-14
   66.1999969        -1.00581512E-14
   66.3150024        -9.43202442E-15
   66.4300003        -8.77940332E-15
   66.5449982        -8.10146356E-15
   66.6600037        -7.39857191E-15
   66.7750015        -6.67020319E-15
   66.8899994        -5.91491281E-15
   67.0049973        -5.13034473E-15
   67.1200027        -4.31325059E-15
   67.2350006        -3.45958834E-15
   67.3499985        -2.56462921E-15
   67.4649963        -1.62311429E-15
   67.5800018        -6.29442571E-16
   67.6949997         4.22101293E-16
   67.8099976         1.53711376E-15
   67.9250031         2.72080323E-15
   68.0400009         3.97773279E-15
   68.1549988         5.31154287E-15
   68.2699966         6.72469071E-15
   68.3850021         8.21823468E-15
   68.5000000         9.79161024E-15
   68.6149979         1.14424461E-14
   68.7300034         1.31664648E-14
   68.8450012         1.49573855E-14
   68.9599991         1.68069141E-14
   69.0749969         1.87047948E-14
   69.1900024         2.06389352E-14
   69.3050003         2.25955881E-14
   69.4199982         2.45595899E-14
   69.5350037         2.65146740E-14
   69.6500015         2.84438102E-14
   69.7649994         3.03296105E-14
   69.8799973         3.21547429E-14
   69.9950027         3.39023853E-14
   70.1100006         3.55566339E-14
   70.2249985         3.71029569E-14
   70.3399963         3.85285845E-14
   70.4550018         3.98228779E-14
   70.5699997         4.09776278E-14
   70.6849976         4.19872877E-14
   70.8000031         4.28491064E-14
   70.9150009         4.35631925E-14
   71.0299988         4.41324765E-14
   71.1449966         4.45625592E-14
   71.2600021         4.48615144E-14
   71.3750000         4.50395133E-14
   71.4899979         4.51084550E-14
   71.6050034         4.50814787E-14
   71.7200012         4.49724283E-14
   71.8349991         4.47952764E-14
   71.9499969         4.45635113E-14
   72.0650024         4.42895774E-14
   72.1800003         4.39842492E-14
   72.2949982         4.36561391E-14
   72.4100037         4.33112103E-14
   72.5250015         4.29524072E-14
   72.6399994         4.25793535E-14
   72.7549973         4.21882073E-14
   72.8700027         4.17715890E-14
   72.9850006         4.13186704E-14
   73.0999985         4.08153803E-14
   73.2149963         4.02447173E-14
   73.3300018         3.95872368E-14
   73.4449997         3.88215698E-14
   73.5599976         3.79250600E-14
   73.6750031         3.68744952E-14
   73.7900009         3.56468564E-14
   73.9049988         3.42200769E-14
   74.0199966         3.25738412E-14
   74.1350021         3.06902771E-14