  -18.8999996         0.00000000    
  -18.7849998         0.00000000    
  -18.6700001         0.00000000    
  -18.5550003         0.00000000    
  -18.4400005         0.00000000    
  -18.3250008         0.00000000    
  -18.2099991         0.00000000    
  -18.0949993         0.00000000    
  -17.9799995         0.00000000    
  -17.8649998         0.00000000    
  -17.7500000         0.00000000    
  -17.6350002         0.00000000    
  -17.5200005         0.00000000    
  -17.4050007         0.00000000    
  -17.2900009         0.00000000    
  -17.1749992         0.00000000    
  -17.0599995         0.00000000    
  -16.9449997         0.00000000    
  -16.8299999         0.00000000    
  -16.7150002         0.00000000    
  -16.6000004        -1.51826185E-34
  -16.4850006        -1.34865330E-33
  -16.3700008        -4.57556988E-33
  -16.2549992        -2.34250090E-33
  -16.1399994         8.53277905E-33
  -16.0249996         3.36810311E-32
  -15.9099998         8.53975840E-32
  -15.7950001         1.70441391E-31
  -15.6800003         1.58706149E-31
  -15.5649996         5.45971282E-32
  -15.4499998        -1.20553928E-31
  -15.3350000        -3.07232705E-31
  -15.2200003        -4.86661526E-31
  -15.1049995        -6.03436169E-31
  -14.9899998        -7.70860231E-31
  -14.8750000        -1.18135941E-30
  -14.7600002        -2.60694253E-30
  -14.6450005        -6.98134408E-30
  -14.5299997        -1.74739233E-29
  -14.4150000        -3.88338917E-29
  -14.3000002        -7.70060639E-29
  -14.1850004        -1.37786409E-28
  -14.0699997        -2.24116688E-28
  -13.9549999        -3.31701325E-28
  -13.8400002        -4.43614322E-28
  -13.7250004        -5.24671321E-28
  -13.6099997        -5.17783762E-28
  -13.4949999        -3.45284548E-28
  -13.3800001         8.12811529E-29
  -13.2650003         8.39562263E-28
  -13.1499996         1.96136417E-27
  -13.0349998         3.38564887E-27
  -12.9200001         4.90604846E-27
  -12.8050003         6.12563743E-27
  -12.6899996         6.43847972E-27
  -12.5749998         5.06309495E-27
  -12.4600000         1.15544665E-27
  -12.3450003        -5.97415534E-27
  -12.2299995        -1.65272523E-26
  -12.1149998        -2.97751913E-26
  -12.0000000        -4.35503913E-26
  -11.8850002        -5.37558725E-26
  -11.7700005        -5.40283808E-26
  -11.6549997        -3.57412569E-26
  -11.5400000         1.14264869E-26
  -11.4250002         9.81133487E-26
  -11.3100004         2.32877286E-25
  -11.1949997         4.18654744E-25
  -11.0799999         6.48128169E-25
  -10.9650002         8.98319399E-25
  -10.8500004         1.12508624E-24
  -10.7349997         1.25862708E-24
  -10.6199999         1.20155240E-24
  -10.5050001         8.31475270E-25
  -10.3900003         1.02945555E-26
  -10.2749996        -1.39773994E-24
  -10.1599998        -3.49764478E-24
  -10.0450001        -6.32461737E-24
  -9.93000031        -9.79571894E-24
  -9.81499958        -1.36563482E-23
  -9.69999981        -1.74287047E-23
  -9.58500004        -2.03728472E-23
  -9.47000027        -2.14742864E-23
  -9.35499954        -1.94744546E-23
  -9.23999977        -1.29610202E-23
  -9.12500000        -5.33201489E-25
  -9.01000023         1.89485904E-23
  -8.89500046         4.60292039E-23
  -8.77999973         8.02567206E-23
  -8.66499996         1.19746460E-22
  -8.55000019         1.60768022E-22
  -8.43500042         1.97436322E-22
  -8.31999969         2.21608244E-22
  -8.20499992         2.23101325E-22
  -8.09000015         1.90350622E-22
  -7.97499990         1.11604974E-22
  -7.86000013        -2.32811975E-23
  -7.74499989        -2.20472411E-22
  -7.63000011        -4.79305676E-22
  -7.51499987        -7.89211488E-22
  -7.40000010        -1.12678357E-21
  -7.28499985        -1.45352214E-21
  -7.17000008        -1.71489566E-21
  -7.05499983        -1.84144016E-21
  -6.94000006        -1.75259700E-21
  -6.82499981        -1.36387169E-21
  -6.71000004        -5.97614819E-22
  -6.59499979         6.02682815E-22
  -6.48000002         2.25527240E-21
  -6.36499977         4.32158734E-21
  -6.25000000         6.68836231E-21
  -6.13500023         9.15328339E-21
  -6.01999998         1.14175611E-20
  -5.90500021         1.30890823E-20
  -5.78999996         1.36996603E-20
  -5.67500019         1.27390960E-20
  -5.55999994         9.70745886E-21
  -5.44500017         4.18489978E-21
  -5.32999992        -4.08429838E-21
  -5.21500015        -1.50997636E-20
  -5.09999990        -2.85146347E-20
  -4.98500013        -4.35590144E-20
  -4.86999989        -5.89915809E-20
  -4.75500011        -7.30944675E-20
  -4.63999987        -8.37254251E-20
  -4.52500010        -8.84381509E-20
  -4.40999985        -8.46761335E-20
  -4.29500008        -7.00376862E-20
  -4.17999983        -4.26003767E-20
  -4.06500006        -1.28257939E-21
  -3.95000005         5.37907636E-20
  -3.83500004         1.20959732E-19
  -3.72000003         1.96786061E-19
  -3.60500002         2.75944376E-19
  -3.49000001         3.51293060E-19
  -3.37500000         4.14160001E-19
  -3.25999999         4.54860984E-19
  -3.14499998         4.63445826E-19
  -3.02999997         4.30641575E-19
  -2.91499996         3.48931226E-19
  -2.79999995         2.13681328E-19
  -2.68499994         2.42087913E-20
  -2.56999993        -2.15337150E-19
  -2.45499992        -4.95402605E-19
  -2.33999991        -8.00879733E-19
  -2.22499990        -1.11146594E-18
  -2.10999990        -1.40257727E-18
  -1.99500000        -1.64680452E-18
  -1.88000000        -1.81584921E-18
  -1.76499999        -1.88280494E-18
  -1.64999998        -1.82460678E-18
  -1.53499997        -1.62442266E-18
  -1.41999996        -1.27374596E-18
  -1.30499995        -7.73954901E-19
  -1.19000006        -1.37134345E-19
  -1.07500005         6.13973569E-19
 -0.959999979         1.44694827E-18
 -0.845000029         2.32154960E-18
 -0.730000019         3.19230381E-18
 -0.615000010         4.01156706E-18
 -0.500000000         4.73274324E-18
 -0.384999990         5.31329582E-18
 -0.270000011         5.71718164E-18
 -0.155000001         5.91640809E-18
  -3.99999991E-02     5.89150251E-18
   7.50000030E-02     5.63080951E-18
  0.189999998         5.12873404E-18
  0.305000007         4.38316927E-18
  0.419999987         3.39256610E-18
  0.535000026         2.15316747E-18
  0.649999976         6.57024649E-19
  0.764999986        -1.10861579E-18
  0.879999995        -3.16006362E-18
  0.995000005        -5.51377255E-18
   1.11000001        -8.18071286E-18
   1.22500002        -1.11587864E-17
   1.34000003        -1.44238842E-17
   1.45500004        -1.79204428E-17
   1.57000005        -2.15526359E-17
   1.68499994        -2.51775001E-17
   1.79999995        -2.86012222E-17
   1.91499996        -3.15798169E-17
   2.02999997        -3.38249571E-17
   2.14499998        -3.50155116E-17
   2.25999999        -3.48146456E-17
   2.37500000        -3.28918279E-17
   2.49000001        -2.89485421E-17
   2.60500002        -2.27459167E-17
   2.72000003        -1.41321558E-17
   2.83500004        -3.06735756E-18
   2.95000005         1.03565089E-17
   3.06500006         2.59026662E-17
   3.18000007         4.31852370E-17
   3.29500008         6.16745203E-17
   3.41000009         8.07120358E-17
   3.52500010         9.95347093E-17
   3.64000010         1.17306546E-16
   3.75500011         1.33155697E-16
   3.86999989         1.46214086E-16
   3.98499990         1.55656730E-16
   4.09999990         1.60737525E-16
   4.21500015         1.60819224E-16
   4.32999992         1.55395381E-16
   4.44500017         1.44103307E-16
   4.55999994         1.26727802E-16
   4.67500019         1.03196856E-16
   4.78999996         7.35708664E-17
   4.90500021         3.80283713E-17
   5.01999998        -3.14858090E-18
   5.13500023        -4.95861491E-17
   5.25000000        -1.00824363E-16
   5.36499977        -1.56314173E-16
   5.48000002        -2.15404528E-16
   5.59499979        -2.77319275E-16
   5.71000004        -3.41125155E-16
   5.82499981        -4.05692995E-16
   5.94000006        -4.69657429E-16
   6.05499983        -5.31378496E-16
   6.17000008        -5.88912997E-16
   6.28499985        -6.39999831E-16
   6.40000010        -6.82066293E-16
   6.51499987        -7.12259841E-16
   6.63000011        -7.27509769E-16
   6.74499989        -7.24619005E-16
   6.86000013        -7.00387351E-16
   6.97499990        -6.51761730E-16
   7.09000015        -5.76010833E-16
   7.20499992        -4.70913896E-16
   7.32000017        -3.34956056E-16
   7.43499994        -1.67518685E-16
   7.55000019         3.09458855E-17
   7.66499996         2.58768618E-16
   7.78000021         5.12957224E-16
   7.89499998         7.89139251E-16
   8.01000023         1.08156208E-15
   8.12500000         1.38315567E-15
   8.23999977         1.68566110E-15
   8.35499954         1.97982093E-15
   8.47000027         2.25562947E-15
   8.58500004         2.50263296E-15
   8.69999981         2.71027101E-15
   8.81499958         2.86823991E-15
   8.93000031         2.96686927E-15
   9.04500008         2.99749099E-15
   9.15999985         2.95278438E-15
   9.27499962         2.82708173E-15
   9.39000034         2.61662326E-15
   9.50500011         2.31974203E-15
   9.61999989         1.93698478E-15
   9.73499966         1.47114599E-15
   9.85000038         9.27232462E-16
   9.96500015         3.12351446E-16
   10.0799999        -3.64467028E-16
   10.1949997        -1.09249907E-15
   10.3100004        -1.85960048E-15
   10.4250002        -2.65250040E-15
   10.5400000        -3.45710886E-15
   10.6549997        -4.25880966E-15
   10.7700005        -5.04273823E-15
   10.8850002        -5.79401537E-15
   11.0000000        -6.49794422E-15
   11.1149998        -7.14014978E-15
   11.2299995        -7.70667083E-15
   11.3450003        -8.18399168E-15
   11.4600000        -8.55904432E-15
   11.5749998        -8.81915797E-15
   11.6899996        -8.95200323E-15
   11.8050003        -8.94551919E-15
   11.9200001        -8.78785417E-15
   12.0349998        -8.46733521E-15
   12.1499996        -7.97247146E-15
   12.2650003        -7.29202787E-15
   12.3800001        -6.41515310E-15
   12.4949999        -5.33157901E-15
   12.6099997        -4.03190648E-15
   12.7250004        -2.50794131E-15
   12.8400002        -7.53107475E-16
   12.9549999         1.23710761E-15
   13.0699997         3.46467964E-15
   13.1850004         5.92857503E-15
   13.3000002         8.62431244E-15
   13.4150000         1.15435818E-14
   13.5299997         1.46739615E-14
   13.6450005         1.79987522E-14
   13.7600002         2.14969593E-14
   13.8750000         2.51434615E-14
   13.9899998         2.89093429E-14
   14.1049995         3.27624382E-14
   14.2200003         3.66680495E-14
   14.3350000         4.05898663E-14
   14.4499998         4.44909849E-14
   14.5649996         4.83351017E-14
   14.6800003         5.20877320E-14
   14.7950001         5.57174241E-14
   14.9099998         5.91969914E-14
   15.0249996         6.25045331E-14
   15.1400003         6.56243519E-14
   15.2550001         6.85475846E-14
   15.3699999         7.12726048E-14
   15.4849997         7.38049487E-14
   15.6000004         7.61570304E-14
   15.7150002         7.83474305E-14
   15.8299999         8.03997778E-14
   15.9449997         8.23413874E-14
   16.0599995         8.42015937E-14
   16.1749992         8.60099413E-14
   16.2900009         8.77940976E-14
   16.4050007         8.95781591E-14
   16.5200005         9.13806113E-14
   16.6350002         9.32129740E-14
   16.7500000         9.50784454E-14
   16.8649998         9.69714014E-14
   16.9799995         9.88770020E-14
   17.0949993         1.00771815E-13
   17.2099991         1.02624784E-13
   17.3250008         1.04399047E-13
   17.4400005         1.06054115E-13
   17.5550003         1.07548769E-13
   17.6700001         1.08844154E-13
   17.7849998         1.09907255E-13
   17.8999996         1.10714254E-13
   18.0149994         1.11253874E-13
   18.1299992         1.11530373E-13
   18.2450008         1.11565854E-13
   18.3600006         1.11402004E-13
   18.4750004         1.11100948E-13
   18.5900002         1.10744923E-13
   18.7049999         1.10435071E-13
   18.8199997         1.10289002E-13
   18.9349995         1.10437497E-13
   19.0499992         1.11019999E-13
   19.1650009         1.12179634E-13
   19.2800007         1.14057133E-13
   19.3950005         1.16785054E-13
   19.5100002         1.20481316E-13
   19.6250000         1.25243430E-13
   19.7399998         1.31143008E-13
   19.8549995         1.38221303E-13
   19.9699993         1.46485336E-13
   20.0849991         1.55906348E-13
   20.2000008         1.66418447E-13
   20.3150005         1.77920016E-13
   20.4300003         1.90275747E-13
   20.5450001         2.03320867E-13
   20.6599998         2.16866564E-13
   20.7749996         2.30706892E-13
   20.8899994         2.44626070E-13
   21.0049992         2.58406903E-13
   21.1200008         2.71839354E-13
   21.2350006         2.84729055E-13
   21.3500004         2.96905241E-13
   21.4650002         3.08227673E-13
   21.5799999         3.18592863E-13
   21.6949997         3.27938360E-13
   21.8099995         3.36244704E-13
   21.9249992         3.43537427E-13
   22.0400009         3.49884943E-13
   22.1550007         3.55395238E-13
   22.2700005         3.60212348E-13
   22.3850002         3.64507903E-13
   22.5000000         3.68474999E-13
   22.6149998         3.72318495E-13
   22.7299995         3.76246343E-13
   22.8449993         3.80459336E-13
   22.9599991         3.85143415E-13
   23.0750008         3.90460776E-13
   23.1900005         3.96543150E-13
   23.3050003         4.03486489E-13
   23.4200001         4.11348364E-13
   23.5349998         4.20145797E-13
   23.6499996         4.29857647E-13
   23.7649994         4.40427751E-13
   23.8799992         4.51769156E-13
   23.9950008         4.63774743E-13
   24.1100006         4.76323733E-13
   24.2250004         4.89294260E-13
   24.3400002         5.02575303E-13
   24.4549999         5.16077090E-13
   24.5699997         5.29744759E-13
   24.6849995         5.43569530E-13
   24.7999992         5.57598238E-13
   24.9150009         5.71942667E-13
   25.0300007         5.86787563E-13
   25.1450005         6.02392051E-13
   25.2600002         6.19098306E-13
   25.3750000         6.37323527E-13
   25.4899998         6.57563197E-13
   25.6049995         6.80382400E-13
   25.7199993         7.06410408E-13
   25.8349991         7.36330268E-13
   25.9500008         7.70869479E-13
   26.0650005         8.10783732E-13
   26.1800003         8.56848230E-13
   26.2950001         9.09844899E-13
   26.4099998         9.70543741E-13
   26.5249996         1.03969589E-12
   26.6399994         1.11802082E-12
   26.7549992         1.20619660E-12
   26.8700008         1.30485054E-12
   26.9850006         1.41455792E-12
   27.1000004         1.53583526E-12
   27.2150002         1.66914204E-12
   27.3299999         1.81488071E-12
   27.4449997         1.97340711E-12
   27.5599995         2.14503350E-12
   27.6749992         2.33004284E-12
   27.7900009         2.52870164E-12
   27.9050007         2.74127379E-12
   28.0200005         2.96804161E-12
   28.1350002         3.20932126E-12
   28.2500000         3.46548528E-12
   28.3649998         3.73697731E-12
   28.4799995         4.02434336E-12
   28.5949993         4.32823655E-12
   28.7099991         4.64944793E-12
   28.8250008         4.98890772E-12
   28.9400005         5.34771186E-12
   29.0550003         5.72712580E-12
   29.1700001         6.12858679E-12
   29.2849998         6.55371113E-12
   29.3999996         7.00428734E-12
   29.5149994         7.48227175E-12
   29.6299992         7.98978071E-12
   29.7450008         8.52906721E-12
   29.8600006         9.10250694E-12
   29.9750004         9.71257710E-12
   30.0900002         1.03618321E-11
   30.2049999         1.10528730E-11
   30.3199997         1.17883221E-11
   30.4349995         1.25707960E-11
   30.5499992         1.34028899E-11
   30.6650009         1.42871357E-11
   30.7800007         1.52259871E-11
   30.8950005         1.62218190E-11
   31.0100002         1.72768848E-11
   31.1250000         1.83933441E-11
   31.2399998         1.95732250E-11
   31.3549995         2.08184581E-11
   31.4699993         2.21308579E-11
   31.5849991         2.35121558E-11
   31.7000008         2.49640170E-11
   31.8150005         2.64880461E-11
   31.9300003         2.80858219E-11
   32.0449982         2.97589141E-11
   32.1599998         3.15089205E-11
   32.2750015         3.33374717E-11
   32.3899994         3.52462781E-11
   32.5050011         3.72371023E-11
   32.6199989         3.93118177E-11
   32.7350006         4.14723880E-11
   32.8499985         4.37208672E-11
   32.9650002         4.60593994E-11
   33.0800018         4.84901945E-11
   33.1949997         5.10155113E-11
   33.3100014         5.36376221E-11
   33.4249992         5.63588030E-11
   33.5400009         5.91812641E-11
   33.6549988         6.21070972E-11
   33.7700005         6.51382975E-11
   33.8849983         6.82765927E-11
   34.0000000         7.15235510E-11
   34.1150017         7.48804213E-11
   34.2299995         7.83480988E-11
   34.3450012         8.19271109E-11
   34.4599991         8.56176380E-11
   34.5750008         8.94193400E-11
   34.6899986         9.33314814E-11
   34.8050003         9.73527856E-11
   34.9199982         1.01481538E-10
   35.0349998         1.05715464E-10
   35.1500015         1.10051808E-10
   35.2649994         1.14487322E-10
   35.3800011         1.19018226E-10
   35.4949989         1.23640265E-10
   35.6100006         1.28348721E-10
   35.7249985         1.33138375E-10
   35.8400002         1.38003567E-10
   35.9550018         1.42938217E-10
   36.0699997         1.47935775E-10
   36.1850014         1.52989316E-10
   36.2999992         1.58091457E-10
   36.4150009         1.63234454E-10
   36.5299988         1.68410133E-10
   36.6450005         1.73609904E-10
   36.7599983         1.78824761E-10
   36.8750000         1.84045362E-10
   36.9900017         1.89261828E-10
   37.1049995         1.94463889E-10
   37.2200012         1.99640846E-10
   37.3349991         2.04781442E-10
   37.4500008         2.09873965E-10
   37.5649986         2.14906148E-10
   37.6800003         2.19865237E-10
   37.7949982         2.24737812E-10
   37.9099998         2.29509911E-10
   38.0250015         2.34166908E-10
   38.1399994         2.38693565E-10
   38.2550011         2.43073894E-10
   38.3699989         2.47291243E-10
   38.4850006         2.51328236E-10
   38.5999985         2.55166666E-10
   38.7150002         2.58787686E-10
   38.8300018         2.62171507E-10
   38.9449997         2.65297673E-10
   39.0600014         2.68144840E-10
   39.1749992         2.70690859E-10
   39.2900009         2.72912776E-10
   39.4049988         2.74786832E-10
   39.5200005         2.76288492E-10
   39.6349983         2.77392359E-10
   39.7500000         2.78072371E-10
   39.8650017         2.78301659E-10
   39.9799995         2.78052720E-10
   40.0950012         2.77297352E-10
   40.2099991         2.76006773E-10
   40.3250008         2.74151618E-10
   40.4399986         2.71702105E-10
   40.5550003         2.68627953E-10
   40.6699982         2.64898575E-10
   40.7849998         2.60483107E-10
   40.9000015         2.55350463E-10
   41.0149994         2.49469445E-10
   41.1300011         2.42808884E-10
   41.2449989         2.35337694E-10
   41.3600006         2.27024788E-10
   41.4749985         2.17839524E-10
   41.5900002         2.07751497E-10
   41.7050018         1.96730701E-10
   41.8199997         1.84747689E-10
   41.9350014         1.71773595E-10
   42.0499992         1.57780219E-10
   42.1650009         1.42740098E-10
   42.2799988         1.26626543E-10
   42.3950005         1.09413749E-10
   42.5099983         9.10768336E-11
   42.6250000         7.15918783E-11
   42.7400017         5.09358875E-11
   42.8549995         2.90869655E-11
   42.9700012         6.02419850E-12
   43.0849991        -1.82722205E-11
   43.2000008        -4.38210822E-11
   43.3149986        -7.06401049E-11
   43.4300003        -9.87459142E-11
   43.5449982        -1.28154085E-10
   43.6599998        -1.58879077E-10
   43.7750015        -1.90934296E-10
   43.8899994        -2.24332011E-10
   44.0050011        -2.59083310E-10
   44.1199989        -2.95198227E-10
   44.2350006        -3.32685435E-10
   44.3499985        -3.71552344E-10
   44.4650002        -4.11805062E-10
   44.5800018        -4.53448112E-10
   44.6949997        -4.96484465E-10
   44.8100014        -5.40915313E-10
   44.9249992        -5.86740101E-10
   45.0400009        -6.33956054E-10
   45.1549988        -6.82558288E-10
   45.2700005        -7.32539529E-10
   45.3849983        -7.83889786E-10
   45.5000000        -8.36596625E-10
   45.6150017        -8.90644225E-10
   45.7299995        -9.46014045E-10
   45.8450012        -1.00268382E-09
   45.9599991        -1.06062836E-09
   46.0750008        -1.11981835E-09
   46.1899986        -1.18022103E-09
   46.3050003        -1.24180011E-09
   46.4199982        -1.30451472E-09
   46.5349998        -1.36832046E-09
   46.6500015        -1.43316892E-09
   46.7649994        -1.49900747E-09
   46.8800011        -1.56577940E-09
   46.9949989        -1.63342373E-09
   47.1100006        -1.70187620E-09
   47.2249985        -1.77106774E-09
   47.3400002        -1.84092586E-09
   47.4550018        -1.91137373E-09
   47.5699997        -1.98233119E-09
   47.6850014        -2.05371431E-09
   47.7999992        -2.12543472E-09
   47.9150009        -2.19740115E-09
   48.0299988        -2.26951924E-09
   48.1450005        -2.34169040E-09
   48.2599983        -2.41381337E-09
   48.3750000        -2.48578336E-09
   48.4900017        -2.55749288E-09
   48.6049995        -2.62883115E-09
   48.7200012        -2.69968448E-09
   48.8349991        -2.76993717E-09
   48.9500008        -2.83946977E-09
   49.0649986        -2.90816127E-09
   49.1800003        -2.97588776E-09
   49.2949982        -3.04252312E-09
   49.4099998        -3.10793835E-09
   49.5250015        -3.17200333E-09
   49.6399994        -3.23458549E-09
   49.7550011        -3.29555028E-09
   49.8699989        -3.35476114E-09
   49.9850006        -3.41208040E-09
   50.0999985        -3.46736728E-09
   50.2150002        -3.52048191E-09
   50.3300018        -3.57128149E-09
   50.4449997        -3.61962171E-09
   50.5600014        -3.66535846E-09
   50.6749992        -3.70834630E-09
   50.7900009        -3.74843800E-09
   50.9049988        -3.78548748E-09
   51.0200005        -3.81934706E-09
   51.1349983        -3.84986976E-09
   51.2500000        -3.87690813E-09
   51.3650017        -3.90031385E-09
   51.4799995        -3.91994082E-09
   51.5950012        -3.93564159E-09
   51.7099991        -3.94727095E-09
   51.8250008        -3.95468325E-09
   51.9399986        -3.95773503E-09
   52.0550003        -3.95628330E-09
   52.1699982        -3.95018507E-09
   52.2849998        -3.93930177E-09
   52.4000015        -3.92349442E-09
   52.5149994        -3.90262533E-09
   52.6300011        -3.87656041E-09
   52.7449989        -3.84516552E-09
   52.8600006        -3.80831100E-09
   52.9749985        -3.76586717E-09
   53.0900002        -3.71770859E-09
   53.2050018        -3.66371156E-09
   53.3199997        -3.60375574E-09
   53.4350014        -3.53772389E-09
   53.5499992        -3.46550255E-09
   53.6650009        -3.38698158E-09
   53.7799988        -3.30205463E-09
   53.8950005        -3.21062021E-09
   54.0099983        -3.11258197E-09
   54.1250000        -3.00784797E-09
   54.2400017        -2.89633206E-09
   54.3549995        -2.77795409E-09
   54.4700012        -2.65264077E-09
   54.5849991        -2.52032573E-09
   54.7000008        -2.38094899E-09
   54.8149986        -2.23445928E-09
   54.9300003        -2.08081286E-09
   55.0449982        -1.91997485E-09
   55.1599998        -1.75191950E-09
   55.2750015        -1.57663005E-09
   55.3899994        -1.39409928E-09
   55.5050011        -1.20432997E-09
   55.6199989        -1.00733488E-09
   55.7350006        -8.03137223E-10
   55.8499985        -5.91770799E-10
   55.9650002        -3.73279740E-10
   56.0800018        -1.47718962E-10
   56.1949997         8.48457415E-11
   56.3100014         3.24337779E-10
   56.4249992         5.70669456E-10
   56.5400009         8.23742519E-10
   56.6549988         1.08344822E-09
   56.7700005         1.34966638E-09
   56.8849983         1.62226632E-09
   57.0000000         1.90110749E-09
   57.1150017         2.18603802E-09
   57.2299995         2.47689580E-09
   57.3450012         2.77350876E-09
   57.4599991         3.07569481E-09
   57.5750008         3.38326100E-09
   57.6899986         3.69600461E-09
   57.8050003         4.01371469E-09
   57.9199982         4.33616920E-09
   58.0349998         4.66313610E-09
   58.1500015         4.99437647E-09
   58.2649994         5.32963940E-09
   58.3800011         5.66866776E-09
   58.4949989         6.01119510E-09
   58.6100006         6.35694519E-09
   58.7249985         6.70563427E-09
   58.8400002         7.05697101E-09
   58.9550018         7.41065653E-09
   59.0699997         7.76638220E-09
   59.1850014         8.12383316E-09
   59.2999992         8.48268655E-09
   59.4150009         8.84261553E-09
   59.5299988         9.20328169E-09
   59.6450005         9.56434043E-09
   59.7599983         9.92544447E-09
   59.8750000         1.02862350E-08
   59.9900017         1.06463478E-08
   60.1049995         1.10054126E-08
   60.2200012         1.13630509E-08
   60.3349991         1.17188774E-08
   60.4500008         1.20725030E-08
   60.5649986         1.24235298E-08
   60.6800003         1.27715527E-08
   60.7949982         1.31161588E-08
   60.9099998         1.34569280E-08
   61.0250015         1.37934366E-08
   61.1399994         1.41252547E-08
   61.2550011         1.44519419E-08
   61.3699989         1.47730539E-08
   61.4850006         1.50881423E-08
   61.5999985         1.53967523E-08
   61.7150002         1.56984221E-08
   61.8300018         1.59926863E-08
   61.9449997         1.62790776E-08
   62.0600014         1.65571290E-08
   62.1749992         1.68263607E-08
   62.2900009         1.70863004E-08
   62.4049988         1.73364718E-08
   62.5200005         1.75764008E-08
   62.6349983         1.78056148E-08
   62.7500000         1.80236359E-08
   62.8650017         1.82300024E-08
   62.9799995         1.84242488E-08
   63.0950012         1.86059115E-08
   63.2099991         1.87745375E-08
   63.3250008         1.89296809E-08
   63.4399986         1.90709013E-08
   63.5550003         1.91977652E-08
   63.6699982         1.93098515E-08
   63.7849998         1.94067411E-08
   63.9000015         1.94880343E-08
   64.0149994         1.95533296E-08
   64.1299973         1.96022505E-08
   64.2450027         1.96344132E-08
   64.3600006         1.96494625E-08
   64.4749985         1.96470378E-08
   64.5899963         1.96268015E-08
   64.7050018         1.95884216E-08
   64.8199997         1.95315764E-08
   64.9349976         1.94559622E-08
   65.0500031         1.93612806E-08
   65.1650009         1.92472474E-08
   65.2799988         1.91135943E-08
   65.3949966         1.89600602E-08
   65.5100021         1.87864018E-08
   65.6250000         1.85923898E-08
   65.7399979         1.83778113E-08
   65.8550034         1.81424653E-08
   65.9700012         1.78861708E-08
   66.0849991         1.76087571E-08
   66.1999969         1.73100823E-08
   66.3150024         1.69900165E-08
   66.4300003         1.66484480E-08
   66.5449982         1.62852931E-08
   66.6600037         1.59004774E-08
   66.7750015         1.54939599E-08
   66.8899994         1.50657140E-08
   67.0049973         1.46157406E-08
   67.1200027         1.41440619E-08
   67.2350006         1.36507259E-08
   67.3499985         1.31358018E-08
   67.4649963         1.25993846E-08
   67.5800018         1.20415944E-08
   67.6949997         1.14625749E-08
   67.8099976         1.08624976E-08
   67.9250031         1.02415543E-08
   68.0400009         9.59996349E-09
   68.1549988         8.93796859E-09
   68.2699966         8.25583513E-09
   68.3850021         7.55385443E-09
   68.5000000         6.83233914E-09
   68.6149979         6.09162720E-09
   68.7300034         5.33207878E-09
   68.8450012         4.55407578E-09
   68.9599991         3.75802323E-09
   69.0749969         2.94434854E-09
   69.1900024         2.11350093E-09
   69.3050003         1.26595046E-09
   69.4199982         4.02188505E-10
   69.5350037        -4.77271667E-10
   69.6500015        -1.37189538E-09
   69.7649994        -2.28112729E-09
   69.8799973        -3.20438964E-09
   69.9950027        -4.14108570E-09
   70.1100006        -5.09059683E-09
   70.2249985        -6.05228179E-09
   70.3399963        -7.02548020E-09
   70.4550018        -8.00951039E-09
   70.5699997        -9.00366537E-09
   70.6849976        -1.00072235E-08
   70.8000031        -1.10194378E-08
   70.9150009        -1.20395365E-08
   71.0299988        -1.30667352E-08
   71.1449966        -1.41002223E-08
   71.2600021        -1.51391610E-08
   71.3750000        -1.61827067E-08
   71.4899979        -1.72299792E-08
   71.6050034        -1.82800921E-08
   71.7200012        -1.93321270E-08
   71.8349991        -2.03851531E-08
   71.9499969        -2.14382219E-08
   72.0650024        -2.24903705E-08
   72.1800003        -2.35406059E-08
   72.2949982        -2.45879370E-08
   72.4100037        -2.56313424E-08
   72.5250015        -2.66698024E-08
   72.6399994        -2.77022707E-08
   72.7549973        -2.87277011E-08
   72.8700027        -2.97450224E-08
   72.9850006        -3.07531671E-08
   73.0999985        -3.17510676E-08
   73.2149963        -3.27376242E-08
   73.3300018        -3.37117569E-08
   73.4449997        -3.46723716E-08
   73.5599976        -3.56183776E-08
   73.6750031        -3.65486663E-08
   73.7900009        -3.74621649E-08
   73.9049988        -3.83577721E-08
   74.0199966        -3.92344042E-08
   74.1350021        -4.00909919E-08