  -18.8999996         0.00000000    
  -18.7849998         0.00000000    
  -18.6700001         0.00000000    
  -18.5550003         0.00000000    
  -18.4400005         0.00000000    
  -18.3250008         0.00000000    
  -18.2099991         0.00000000    
  -18.0949993         0.00000000    
  -17.9799995         0.00000000    
  -17.8649998         0.00000000    
  -17.7500000         0.00000000    
  -17.6350002         0.00000000    
  -17.5200005         0.00000000    
  -17.4050007         0.00000000    
  -17.2900009         0.00000000    
  -17.1749992         0.00000000    
  -17.0599995         0.00000000    
  -16.9449997         0.00000000    
  -16.8299999         0.00000000    
  -16.7150002         0.00000000    
  -16.6000004         3.69690390E-35
  -16.4850006        -1.71456761E-33
  -16.3700008        -1.10897092E-32
  -16.2549992        -3.33423418E-32
  -16.1399994        -7.61810088E-32
  -16.0249996        -1.46033873E-31
  -15.9099998        -2.42202970E-31
  -15.7950001        -3.52850255E-31
  -15.6800003        -2.69496680E-31
  -15.5649996         2.30299421E-31
  -15.4499998         1.44745654E-30
  -15.3350000         3.39860544E-30
  -15.2200003         6.07722492E-30
  -15.1049995         9.06133112E-30
  -14.9899998         1.17159675E-29
  -14.8750000         1.32656505E-29
  -14.7600002         1.31678493E-29
  -14.6450005         1.11618421E-29
  -14.5299997         7.64549651E-30
  -14.4150000         3.43803999E-30
  -14.3000002        -1.05475434E-30
  -14.1850004        -7.46429057E-30
  -14.0699997        -2.14610722E-29
  -13.9549999        -5.43489486E-29
  -13.8400002        -1.22503432E-28
  -13.7250004        -2.42715321E-28
  -13.6099997        -4.21623332E-28
  -13.4949999        -6.38775014E-28
  -13.3800001        -8.25617952E-28
  -13.2650003        -8.46583048E-28
  -13.1499996        -4.92671369E-28
  -13.0349998         4.98869637E-28
  -12.9200001         2.38516678E-27
  -12.8050003         5.31021872E-27
  -12.6899996         9.15254911E-27
  -12.5749998         1.33496943E-26
  -12.4600000         1.67437484E-26
  -12.3450003         1.75142174E-26
  -12.2299995         1.32785089E-26
  -12.1149998         1.43813465E-27
  -12.0000000        -2.01776969E-26
  -11.8850002        -5.23751872E-26
  -11.7700005        -9.34540157E-26
  -11.6549997        -1.38053986E-25
  -11.5400000        -1.76293809E-25
  -11.4250002        -1.93595772E-25
  -11.3100004        -1.71631370E-25
  -11.1949997        -9.07830313E-26
  -11.0799999         6.56350639E-26
  -10.9650002         3.05436885E-25
  -10.8500004         6.20363766E-25
  -10.7349997         9.78617057E-25
  -10.6199999         1.31871619E-24
  -10.5050001         1.54684185E-24
  -10.3900003         1.54022055E-24
  -10.2749996         1.15916986E-24
  -10.1599998         2.69919655E-25
  -10.0450001        -1.22089310E-24
  -9.93000031        -3.32127362E-24
  -9.81499958        -5.90264778E-24
  -9.69999981        -8.65023375E-24
  -9.58500004        -1.10267798E-23
  -9.47000027        -1.22647266E-23
  -9.35499954        -1.14036896E-23
  -9.23999977        -7.38909602E-24
  -9.12500000         7.57206580E-25
  -9.01000023         1.36934215E-23
  -8.89500046         3.14552953E-23
  -8.77999973         5.31278571E-23
  -8.66499996         7.65459062E-23
  -8.55000019         9.80977503E-23
  -8.43500042         1.12721155E-22
  -8.31999969         1.14182290E-22
  -8.20499992         9.57148160E-23
  -8.09000015         5.10594639E-23
  -7.97499990        -2.41148342E-23
  -7.86000013        -1.30508896E-22
  -7.74499989        -2.63408229E-22
  -7.63000011        -4.11115681E-22
  -7.51499987        -5.53990432E-22
  -7.40000010        -6.64540314E-22
  -7.28499985        -7.09014904E-22
  -7.17000008        -6.50865530E-22
  -7.05499983        -4.56267404E-22
  -6.94000006        -1.01618537E-22
  -6.82499981         4.17445854E-22
  -6.71000004         1.07643754E-21
  -6.59499979         1.81319364E-21
  -6.48000002         2.52168615E-21
  -6.36499977         3.05062453E-21
  -6.25000000         3.20910696E-21
  -6.13500023         2.78133847E-21
  -6.01999998         1.55183869E-21
  -5.90500021        -6.58603334E-22
  -5.78999996        -3.94746421E-21
  -5.67500019        -8.27875638E-21
  -5.55999994        -1.34304542E-20
  -5.44500017        -1.89486221E-20
  -5.32999992        -2.41176528E-20
  -5.21500015        -2.79570245E-20
  -5.09999990        -2.92548289E-20
  -4.98500013        -2.66466912E-20
  -4.86999989        -1.87451147E-20
  -4.75500011        -4.31898624E-21
  -4.63999987         1.74839599E-20
  -4.52500010         4.68872499E-20
  -4.40999985         8.32322380E-20
  -4.29500008         1.24752562E-19
  -4.17999983         1.68413856E-19
  -4.06500006         2.09857621E-19
  -3.95000005         2.43486378E-19
  -3.83500004         2.62718508E-19
  -3.72000003         2.60428174E-19
  -3.60500002         2.29566557E-19
  -3.49000001         1.63938318E-19
  -3.37500000         5.90826225E-20
  -3.25999999        -8.68148477E-20
  -3.14499998        -2.72071465E-19
  -3.02999997        -4.90821782E-19
  -2.91499996        -7.32600575E-19
  -2.79999995        -9.82287524E-19
  -2.68499994        -1.22047997E-18
  -2.56999993        -1.42432695E-18
  -2.45499992        -1.56881038E-18
  -2.33999991        -1.62841288E-18
  -2.22499990        -1.57906029E-18
  -2.10999990        -1.40019220E-18
  -1.99500000        -1.07678495E-18
  -1.88000000        -6.01145497E-19
  -1.76499999         2.56905335E-20
  -1.64999998         7.93089553E-19
  -1.53499997         1.68055586E-18
  -1.41999996         2.65808493E-18
  -1.30499995         3.68707569E-18
  -1.19000006         4.72168342E-18
  -1.07500005         5.71043598E-18
 -0.959999979         6.59793709E-18
 -0.845000029         7.32646276E-18
 -0.730000019         7.83732372E-18
 -0.615000010         8.07192124E-18
 -0.500000000         7.97252474E-18
 -0.384999990         7.48290991E-18
 -0.270000011         6.54906850E-18
 -0.155000001         5.12029514E-18
  -3.99999991E-02     3.15097166E-18
   7.50000030E-02     6.03354379E-19
  0.189999998        -2.54841029E-18
  0.305000007        -6.31296220E-18
  0.419999987        -1.06751893E-17
  0.535000026        -1.55887944E-17
  0.649999976        -2.09685041E-17
  0.764999986        -2.66826430E-17
  0.879999995        -3.25469995E-17
  0.995000005        -3.83209286E-17
   1.11000001        -4.37066321E-17
   1.22500002        -4.83524787E-17
   1.34000003        -5.18610216E-17
   1.45500004        -5.38019314E-17
   1.57000005        -5.37298575E-17
   1.68499994        -5.12067846E-17
   1.79999995        -4.58278970E-17
   1.91499996        -3.72498620E-17
   2.02999997        -2.52199229E-17
   2.14499998        -9.60409713E-18
   2.25999999         9.58724829E-18
   2.37500000         3.21781828E-17
   2.49000001         5.78118912E-17
   2.60500002         8.59424444E-17
   2.72000003         1.15834588E-16
   2.83500004         1.46571944E-16
   2.95000005         1.77073455E-16
   3.06500006         2.06118043E-16
   3.18000007         2.32376130E-16
   3.29500008         2.54447189E-16
   3.41000009         2.70902048E-16
   3.52500010         2.80327910E-16
   3.64000010         2.81375372E-16
   3.75500011         2.72805357E-16
   3.86999989         2.53534934E-16
   3.98499990         2.22681256E-16
   4.09999990         1.79602391E-16
   4.21500015         1.23935082E-16
   4.32999992         5.56289219E-17
   4.44500017        -2.50227694E-17
   4.55999994        -1.17355369E-16
   4.67500019        -2.20308426E-16
   4.78999996        -3.32404422E-16
   4.90500021        -4.51730771E-16
   5.01999998        -5.75926129E-16
   5.13500023        -7.02172367E-16
   5.25000000        -8.27193689E-16
   5.36499977        -9.47266273E-16
   5.48000002        -1.05824030E-15
   5.59499979        -1.15557899E-15
   5.71000004        -1.23441764E-15
   5.82499981        -1.28964546E-15
   5.94000006        -1.31601360E-15
   6.05499983        -1.30827129E-15
   6.17000008        -1.26132947E-15
   6.28499985        -1.17045183E-15
   6.40000010        -1.03146918E-15
   6.51499987        -8.41012714E-16
   6.63000011        -5.96758746E-16
   6.74499989        -2.97676230E-16
   6.86000013         5.57340400E-17
   6.97499990         4.61219128E-16
   7.09000015         9.14585837E-16
   7.20499992         1.40955557E-15
   7.32000017         1.93767575E-15
   7.43499994         2.48829650E-15
   7.55000019         3.04862171E-15
   7.66499996         3.60384271E-15
   7.78000021         4.13735742E-15
   7.89499998         4.63107514E-15
   8.01000023         5.06580421E-15
   8.12500000         5.42172279E-15
   8.23999977         5.67891418E-15
   8.35499954         5.81796354E-15
   8.47000027         5.82059611E-15
   8.58500004         5.67033628E-15
   8.69999981         5.35317750E-15
   8.81499958         4.85822523E-15
   8.93000031         4.17830214E-15
   9.04500008         3.31048957E-15
   9.15999985         2.25657942E-15
   9.27499962         1.02341316E-15
   9.39000034        -3.76898560E-16
   9.50500011        -1.92690339E-15
   9.61999989        -3.60388548E-15
   9.73499966        -5.38009875E-15
   9.85000038        -7.22315647E-15
   9.96500015        -9.09657142E-15
   10.0799999        -1.09604352E-14
   10.1949997        -1.27722108E-14
   10.3100004        -1.44876380E-14
   10.4250002        -1.60616945E-14
   10.5400000        -1.74496326E-14
   10.6549997        -1.86080010E-14
   10.7700005        -1.94956881E-14
   10.8850002        -2.00749028E-14
   11.0000000        -2.03121127E-14
   11.1149998        -2.01788845E-14
   11.2299995        -1.96526297E-14
   11.3450003        -1.87172174E-14
   11.4600000        -1.73634775E-14
   11.5749998        -1.55895448E-14
   11.6899996        -1.34010887E-14
   11.8050003        -1.08113828E-14
   11.9200001        -7.84126013E-15
   12.0349998        -4.51893517E-15
   12.1499996        -8.79712220E-16
   12.2650003         3.03440511E-15
   12.3800001         7.17520170E-15
   12.4949999         1.14888178E-14
   12.6099997         1.59163827E-14
   12.7250004         2.03947170E-14
   12.8400002         2.48570848E-14
   12.9549999         2.92340073E-14
   13.0699997         3.34541016E-14
   13.1850004         3.74450023E-14
   13.3000002         4.11343018E-14
   13.4150000         4.44505408E-14
   13.5299997         4.73242763E-14
   13.6450005         4.96891550E-14
   13.7600002         5.14830217E-14
   13.8750000         5.26490777E-14
   13.9899998         5.31370161E-14
   14.1049995         5.29041261E-14
   14.2200003         5.19163231E-14
   14.3350000         5.01491176E-14
   14.4499998         4.75883811E-14
   14.5649996         4.42309628E-14
   14.6800003         4.00850143E-14
   14.7950001         3.51700650E-14
   14.9099998         2.95167333E-14
   15.0249996         2.31660851E-14
   15.1400003         1.61686545E-14
   15.2550001         8.58301281E-15
   15.3699999         4.74012396E-16
   15.4849997        -8.08924766E-15
   15.6000004        -1.70357977E-14
   15.7150002        -2.62953518E-14
   15.8299999        -3.58009385E-14
   15.9449997        -4.54915545E-14
   16.0599995        -5.53147141E-14
   16.1749992        -6.52286520E-14
   16.2900009        -7.52044165E-14
   16.4050007        -8.52271812E-14
   16.5200005        -9.52972374E-14
   16.6350002        -1.05430320E-13
   16.7500000        -1.15657172E-13
   16.8649998        -1.26022456E-13
   16.9799995        -1.36583033E-13
   17.0949993        -1.47405458E-13
   17.2099991        -1.58563131E-13
   17.3250008        -1.70132896E-13
   17.4400005        -1.82191379E-13
   17.5550003        -1.94811249E-13
   17.6700001        -2.08057828E-13
   17.7849998        -2.21985597E-13
   17.8999996        -2.36635662E-13
   18.0149994        -2.52033718E-13
   18.1299992        -2.68189063E-13
   18.2450008        -2.85094566E-13
   18.3600006        -3.02728139E-13
   18.4750004        -3.21054733E-13
   18.5900002        -3.40030494E-13
   18.7049999        -3.59607445E-13
   18.8199997        -3.79739317E-13
   18.9349995        -4.00388300E-13
   19.0499992        -4.21532302E-13
   19.1650009        -4.43172490E-13
   19.2800007        -4.65340765E-13
   19.3950005        -4.88106788E-13
   19.5100002        -5.11584319E-13
   19.6250000        -5.35936150E-13
   19.7399998        -5.61377388E-13
   19.8549995        -5.88177402E-13
   19.9699993        -6.16659284E-13
   20.0849991        -6.47197194E-13
   20.2000008        -6.80211367E-13
   20.3150005        -7.16161614E-13
   20.4300003        -7.55537180E-13
   20.5450001        -7.98845907E-13
   20.6599998        -8.46601435E-13
   20.7749996        -8.99309110E-13
   20.8899994        -9.57451132E-13
   21.0049992        -1.02147273E-12
   21.1200008        -1.09176600E-12
   21.2350006        -1.16865816E-12
   21.3500004        -1.25239966E-12
   21.4650002        -1.34315432E-12
   21.5799999        -1.44099337E-12
   21.6949997        -1.54589200E-12
   21.8099995        -1.65772973E-12
   21.9249992        -1.77629298E-12
   22.0400009        -1.90128360E-12
   22.1550007        -2.03232917E-12
   22.2700005        -2.16899675E-12
   22.3850002        -2.31081061E-12
   22.5000000        -2.45727137E-12
   22.6149998        -2.60787594E-12
   22.7299995        -2.76213991E-12
   22.8449993        -2.91961811E-12
   22.9599991        -3.07992434E-12
   23.0750008        -3.24275134E-12
   23.1900005        -3.40788552E-12
   23.3050003        -3.57521738E-12
   23.4200001        -3.74475277E-12
   23.5349998        -3.91661139E-12
   23.6499996        -4.09102830E-12
   23.7649994        -4.26834653E-12
   23.8799992        -4.44900367E-12
   23.9950008        -4.63351579E-12
   24.1100006        -4.82245754E-12
   24.2250004        -5.01643692E-12
   24.3400002        -5.21606629E-12
   24.4549999        -5.42193851E-12
   24.5699997        -5.63459262E-12
   24.6849995        -5.85448747E-12
   24.7999992        -6.08197563E-12
   24.9150009        -6.31728003E-12
   25.0300007        -6.56047178E-12
   25.1450005        -6.81145852E-12
   25.2600002        -7.06997351E-12
   25.3750000        -7.33557919E-12
   25.4899998        -7.60766537E-12
   25.6049995        -7.88547179E-12
   25.7199993        -8.16809294E-12
   25.8349991        -8.45451400E-12
   25.9500008        -8.74363342E-12
   26.0650005        -9.03430109E-12
   26.1800003        -9.32535559E-12
   26.2950001        -9.61566070E-12
   26.4099998        -9.90414695E-12
   26.5249996        -1.01898438E-11
   26.6399994        -1.04719219E-11
   26.7549992        -1.07497119E-11
   26.8700008        -1.10227322E-11
   26.9850006        -1.12907001E-11
   27.1000004        -1.15535359E-11
   27.2150002        -1.18113583E-11
   27.3299999        -1.20644649E-11
   27.4449997        -1.23133075E-11
   27.5599995        -1.25584543E-11
   27.6749992        -1.28005436E-11
   27.7900009        -1.30402295E-11
   27.9050007        -1.32781225E-11
   28.0200005        -1.35147197E-11
   28.1350002        -1.37503385E-11
   28.2500000        -1.39850536E-11
   28.3649998        -1.42186185E-11
   28.4799995        -1.44504157E-11
   28.5949993        -1.46793949E-11
   28.7099991        -1.49040415E-11
   28.8250008        -1.51223201E-11
   28.9400005        -1.53316838E-11
   29.0550003        -1.55290451E-11
   29.1700001        -1.57108111E-11
   29.2849998        -1.58728967E-11
   29.3999996        -1.60107674E-11
   29.5149994        -1.61195085E-11
   29.6299992        -1.61938848E-11
   29.7450008        -1.62284301E-11
   29.8600006        -1.62175377E-11
   29.9750004        -1.61555491E-11
   30.0900002        -1.60368680E-11
   30.2049999        -1.58560508E-11
   30.3199997        -1.56079056E-11
   30.4349995        -1.52875837E-11
   30.5499992        -1.48906582E-11
   30.6650009        -1.44131833E-11
   30.7800007        -1.38517539E-11
   30.8950005        -1.32035320E-11
   31.0100002        -1.24662555E-11
   31.1250000        -1.16382407E-11
   31.2399998        -1.07183446E-11
   31.3549995        -9.70592356E-12
   31.4699993        -8.60076940E-12
   31.5849991        -7.40302698E-12
   31.7000008        -6.11310221E-12
   31.8150005        -4.73155326E-12
   31.9300003        -3.25898163E-12
   32.0449982        -1.69591630E-12
   32.1599998        -4.26941977E-14
   32.2750015         1.70064407E-12
   32.3899994         3.53446526E-12
   32.5050011         5.45963491E-12
   32.6199989         7.47758799E-12
   32.7350006         9.59039532E-12
   32.8499985         1.18008077E-11
   32.9650002         1.41122695E-11
   33.0800018         1.65289102E-11
   33.1949997         1.90555367E-11
   33.3100014         2.16975674E-11
   33.4249992         2.44609766E-11
   33.5400009         2.73522212E-11
   33.6549988         3.03781167E-11
   33.7700005         3.35457391E-11
   33.8849983         3.68622979E-11
   34.0000000         4.03350062E-11
   34.1150017         4.39709311E-11
   34.2299995         4.77768623E-11
   34.3450012         5.17591803E-11
   34.4599991         5.59237448E-11
   34.5750008         6.02757497E-11
   34.6899986         6.48196358E-11
   34.8050003         6.95589836E-11
   34.9199982         7.44964646E-11
   35.0349998         7.96337787E-11
   35.1500015         8.49716131E-11
   35.2649994         9.05096206E-11
   35.3800011         9.62464761E-11
   35.4949989         1.02179827E-10
   35.6100006         1.08306419E-10
   35.7249985         1.14622117E-10
   35.8400002         1.21121918E-10
   35.9550018         1.27800201E-10
   36.0699997         1.34650721E-10
   36.1850014         1.41666734E-10
   36.2999992         1.48841189E-10
   36.4150009         1.56166718E-10
   36.5299988         1.63635938E-10
   36.6450005         1.71241382E-10
   36.7599983         1.78975779E-10
   36.8750000         1.86832036E-10
   36.9900017         1.94803451E-10
   37.1049995         2.02883640E-10
   37.2200012         2.11066734E-10
   37.3349991         2.19347276E-10
   37.4500008         2.27720412E-10
   37.5649986         2.36181685E-10
   37.6800003         2.44727155E-10
   37.7949982         2.53353366E-10
   37.9099998         2.62057126E-10
   38.0250015         2.70835576E-10
   38.1399994         2.79685969E-10
   38.2550011         2.88605584E-10
   38.3699989         2.97591618E-10
   38.4850006         3.06640824E-10
   38.5999985         3.15749676E-10
   38.7150002         3.24913985E-10
   38.8300018         3.34128697E-10
   38.9449997         3.43387901E-10
   39.0600014         3.52684520E-10
   39.1749992         3.62010311E-10
   39.2900009         3.71355724E-10
   39.4049988         3.80709630E-10
   39.5200005         3.90059429E-10
   39.6349983         3.99390993E-10
   39.7500000         4.08688611E-10
   39.8650017         4.17934909E-10
   39.9799995         4.27111013E-10
   40.0950012         4.36196523E-10
   40.2099991         4.45169790E-10
   40.3250008         4.54007859E-10
   40.4399986         4.62686722E-10
   40.5550003         4.71181427E-10
   40.6699982         4.79466411E-10
   40.7849998         4.87515361E-10
   40.9000015         4.95301800E-10
   41.0149994         5.02799136E-10
   41.1300011         5.09980891E-10
   41.2449989         5.16820975E-10
   41.3600006         5.23293575E-10
   41.4749985         5.29373878E-10
   41.5900002         5.35037514E-10
   41.7050018         5.40261280E-10
   41.8199997         5.45022971E-10
   41.9350014         5.49301438E-10
   42.0499992         5.53076640E-10
   42.1650009         5.56329705E-10
   42.2799988         5.59042757E-10
   42.3950005         5.61198921E-10
   42.5099983         5.62782321E-10
   42.6250000         5.63777747E-10
   42.7400017         5.64170544E-10
   42.8549995         5.63946556E-10
   42.9700012         5.63091795E-10
   43.0849991         5.61592495E-10
   43.2000008         5.59434499E-10
   43.3149986         5.56603541E-10
   43.4300003         5.53084523E-10
   43.5449982         5.48861845E-10
   43.6599998         5.43919187E-10
   43.7750015         5.38239064E-10
   43.8899994         5.31803157E-10
   44.0050011         5.24592092E-10
   44.1199989         5.16585275E-10
   44.2350006         5.07761388E-10
   44.3499985         4.98098063E-10
   44.4650002         4.87572094E-10
   44.5800018         4.76159723E-10
   44.6949997         4.63836747E-10
   44.8100014         4.50578824E-10
   44.9249992         4.36361530E-10
   45.0400009         4.21160856E-10
   45.1549988         4.04953321E-10
   45.2700005         3.87716165E-10
   45.3849983         3.69427822E-10
   45.5000000         3.50067864E-10
   45.6150017         3.29617389E-10
   45.7299995         3.08059106E-10
   45.8450012         2.85377555E-10
   45.9599991         2.61559219E-10
   46.0750008         2.36592523E-10
   46.1899986         2.10467907E-10
   46.3050003         1.83177806E-10
   46.4199982         1.54716545E-10
   46.5349998         1.25080335E-10
   46.6500015         9.42669900E-11
   46.7649994         6.22758789E-11
   46.8800011         2.91077509E-11
   46.9949989        -5.23542191E-12
   47.1100006        -4.07505280E-11
   47.2249985        -7.74336914E-11
   47.3400002        -1.15280285E-10
   47.4550018        -1.54285043E-10
   47.5699997        -1.94442351E-10
   47.6850014        -2.35745923E-10
   47.7999992        -2.78189277E-10
   47.9150009        -3.21765392E-10
   48.0299988        -3.66466940E-10
   48.1450005        -4.12286233E-10
   48.2599983        -4.59214583E-10
   48.3750000        -5.07242692E-10
   48.4900017        -5.56360291E-10
   48.6049995        -6.06555639E-10
   48.7200012        -6.57816135E-10
   48.8349991        -7.10126680E-10
   48.9500008        -7.63470898E-10
   49.0649986        -8.17830303E-10
   49.1800003        -8.73183748E-10
   49.2949982        -9.29507971E-10
   49.4099998        -9.86776882E-10
   49.5250015        -1.04496201E-09
   49.6399994        -1.10403175E-09
   49.7550011        -1.16395193E-09
   49.8699989        -1.22468558E-09
   49.9850006        -1.28619326E-09
   50.0999985        -1.34843270E-09
   50.2150002        -1.41135970E-09
   50.3300018        -1.47492796E-09
   50.4449997        -1.53908908E-09
   50.5600014        -1.60379343E-09
   50.6749992        -1.66899039E-09
   50.7900009        -1.73462777E-09
   50.9049988        -1.80065285E-09
   51.0200005        -1.86701277E-09
   51.1349983        -1.93365457E-09
   51.2500000        -2.00052463E-09
   51.3650017        -2.06757034E-09
   51.4799995        -2.13473927E-09
   51.5950012        -2.20197882E-09
   51.7099991        -2.26923813E-09
   51.8250008        -2.33646502E-09
   51.9399986        -2.40360865E-09
   52.0550003        -2.47061793E-09
   52.1699982        -2.53744159E-09
   52.2849998        -2.60402833E-09
   52.4000015        -2.67032507E-09
   52.5149994        -2.73627898E-09
   52.6300011        -2.80183499E-09
   52.7449989        -2.86693669E-09
   52.8600006        -2.93152480E-09
   52.9749985        -2.99553760E-09
   53.0900002        -3.05891068E-09
   53.2050018        -3.12157633E-09
   53.3199997        -3.18346283E-09
   53.4350014        -3.24449556E-09
   53.5499992        -3.30459549E-09
   53.6650009        -3.36367956E-09
   53.7799988        -3.42166118E-09
   53.8950005        -3.47844908E-09
   54.0099983        -3.53394758E-09
   54.1250000        -3.58805896E-09
   54.2400017        -3.64068065E-09
   54.3549995        -3.69170827E-09
   54.4700012        -3.74103415E-09
   54.5849991        -3.78854903E-09
   54.7000008        -3.83414189E-09
   54.8149986        -3.87770172E-09
   54.9300003        -3.91911525E-09
   55.0449982        -3.95827104E-09
   55.1599998        -3.99505717E-09
   55.2750015        -4.02936351E-09
   55.3899994        -4.06108125E-09
   55.5050011        -4.09010381E-09
   55.6199989        -4.11632817E-09
   55.7350006        -4.13965440E-09
   55.8499985        -4.15998525E-09
   55.9650002        -4.17722923E-09
   56.0800018        -4.19129709E-09
   56.1949997        -4.20210489E-09
   56.3100014        -4.20957269E-09
   56.4249992        -4.21362500E-09
   56.5400009        -4.21418855E-09
   56.6549988        -4.21119539E-09
   56.7700005        -4.20458157E-09
   56.8849983        -4.19428536E-09
   57.0000000        -4.18024992E-09
   57.1150017        -4.16242019E-09
   57.2299995        -4.14074419E-09
   57.3450012        -4.11517265E-09
   57.4599991        -4.08565715E-09
   57.5750008        -4.05215106E-09
   57.6899986        -4.01460776E-09
   57.8050003        -3.97298150E-09
   57.9199982        -3.92722654E-09
   58.0349998        -3.87729626E-09
   58.1500015        -3.82314491E-09
   58.2649994        -3.76472453E-09
   58.3800011        -3.70198849E-09
   58.4949989        -3.63488750E-09
   58.6100006        -3.56337226E-09
   58.7249985        -3.48739215E-09
   58.8400002        -3.40689632E-09
   58.9550018        -3.32183192E-09
   59.0699997        -3.23214677E-09
   59.1850014        -3.13778692E-09
   59.2999992        -3.03869951E-09
   59.4150009        -2.93483127E-09
   59.5299988        -2.82612977E-09
   59.6450005        -2.71254441E-09
   59.7599983        -2.59402633E-09
   59.8750000        -2.47053022E-09
   59.9900017        -2.34201369E-09
   60.1049995        -2.20843765E-09
   60.2200012        -2.06976836E-09
   60.3349991        -1.92597693E-09
   60.4500008        -1.77704107E-09
   60.5649986        -1.62294378E-09
   60.6800003        -1.46367618E-09
   60.7949982        -1.29923694E-09
   60.9099998        -1.12963294E-09
   61.0250015        -9.54881618E-10
   61.1399994        -7.75009723E-10
   61.2550011        -5.90052562E-10
   61.3699989        -4.00056571E-10
   61.4850006        -2.05078426E-10
   61.5999985        -5.18397695E-12
   61.7150002         1.99550348E-10
   61.8300018         4.09039386E-10
   61.9449997         6.23188445E-10
   62.0600014         8.41893111E-10
   62.1749992         1.06504083E-09
   62.2900009         1.29251010E-09
   62.4049988         1.52417368E-09
   62.5200005         1.75989567E-09
   62.6349983         1.99953654E-09
   62.7500000         2.24295138E-09
   62.8650017         2.48998910E-09
   62.9799995         2.74049716E-09
   63.0950012         2.99432035E-09
   63.2099991         3.25129945E-09
   63.3250008         3.51127438E-09
   63.4399986         3.77408194E-09
   63.5550003         4.03955758E-09
   63.6699982         4.30753744E-09
   63.7849998         4.57785321E-09
   63.9000015         4.85033436E-09
   64.0149994         5.12480636E-09
   64.1299973         5.40109468E-09
   64.2450027         5.67901770E-09
   64.3600006         5.95839023E-09
   64.4749985         6.23902396E-09
   64.5899963         6.52072174E-09
   64.7050018         6.80328016E-09
   64.8199997         7.08648873E-09
   64.9349976         7.37012540E-09
   65.0500031         7.65396013E-09
   65.1650009         7.93775001E-09
   65.2799988         8.22124235E-09
   65.3949966         8.50417514E-09
   65.5100021         8.78627304E-09
   65.6250000         9.06725273E-09
   65.7399979         9.34681577E-09
   65.8550034         9.62465663E-09
   65.9700012         9.90045645E-09
   66.0849991         1.01738866E-08
   66.1999969         1.04446096E-08
   66.3150024         1.07122808E-08
   66.4300003         1.09765468E-08
   66.5449982         1.12370468E-08
   66.6600037         1.14934160E-08
   66.7750015         1.17452821E-08
   66.8899994         1.19922730E-08
   67.0049973         1.22340138E-08
   67.1200027         1.24701289E-08
   67.2350006         1.27002409E-08
   67.3499985         1.29239766E-08
   67.4649963         1.31409577E-08
   67.5800018         1.33508120E-08
   67.6949997         1.35531719E-08
   67.8099976         1.37476679E-08
   67.9250031         1.39339349E-08
   68.0400009         1.41116159E-08
   68.1549988         1.42803547E-08
   68.2699966         1.44398014E-08
   68.3850021         1.45896122E-08
   68.5000000         1.47294461E-08
   68.6149979         1.48589692E-08
   68.7300034         1.49778554E-08
   68.8450012         1.50857815E-08
   68.9599991         1.51824278E-08
   69.0749969         1.52674833E-08
   69.1900024         1.53406461E-08
   69.3050003         1.54016089E-08
   69.4199982         1.54500839E-08
   69.5350037         1.54857815E-08
   69.6500015         1.55084230E-08
   69.7649994         1.55177364E-08
   69.8799973         1.55134554E-08
   69.9950027         1.54953241E-08
   70.1100006         1.54630886E-08
   70.2249985         1.54165054E-08
   70.3399963         1.53553383E-08
   70.4550018         1.52793653E-08
   70.5699997         1.51883643E-08
   70.6849976         1.50821275E-08
   70.8000031         1.49604560E-08
   70.9150009         1.48231596E-08
   71.0299988         1.46700607E-08
   71.1449966         1.45009951E-08
   71.2600021         1.43158072E-08
   71.3750000         1.41143550E-08
   71.4899979         1.38965088E-08
   71.6050034         1.36621576E-08
   71.7200012         1.34112010E-08
   71.8349991         1.31435574E-08
   71.9499969         1.28591626E-08
   72.0650024         1.25579698E-08
   72.1800003         1.22399522E-08
   72.2949982         1.19051071E-08
   72.4100037         1.15534515E-08
   72.5250015         1.11850271E-08
   72.6399994         1.07999005E-08
   72.7549973         1.03981641E-08
   72.8700027         9.97993332E-09
   72.9850006         9.54535384E-09
   73.0999985         9.09459352E-09
   73.2149963         8.62785310E-09
   73.3300018         8.14535639E-09
   73.4449997         7.64735830E-09
   73.5599976         7.13414661E-09
   73.6750031         6.60603305E-09
   73.7900009         6.06336092E-09
   73.9049988         5.50650059E-09
   74.0199966         4.93584995E-09
   74.1350021         4.35183134E-09