  -18.8999996        -0.00000000    
  -18.7849998        -0.00000000    
  -18.6700001        -0.00000000    
  -18.5550003        -0.00000000    
  -18.4400005        -0.00000000    
  -18.3250008        -0.00000000    
  -18.2099991        -0.00000000    
  -18.0949993        -0.00000000    
  -17.9799995        -0.00000000    
  -17.8649998        -0.00000000    
  -17.7500000        -0.00000000    
  -17.6350002        -0.00000000    
  -17.5200005        -0.00000000    
  -17.4050007        -0.00000000    
  -17.2900009        -0.00000000    
  -17.1749992        -0.00000000    
  -17.0599995        -0.00000000    
  -16.9449997        -0.00000000    
  -16.8299999        -0.00000000    
  -16.7150002        -0.00000000    
  -16.6000004        -2.55562373E-35
  -16.4850006         1.15227742E-33
  -16.3700008         3.36247661E-33
  -16.2549992         5.20968958E-33
  -16.1399994         7.39517529E-33
  -16.0249996         5.08605512E-33
  -15.9099998        -1.49408858E-32
  -15.7950001        -6.08318444E-32
  -15.6800003         4.40987058E-32
  -15.5649996         5.79694851E-31
  -15.4499998         1.92225751E-30
  -15.3350000         4.66825482E-30
  -15.2200003         9.44229661E-30
  -15.1049995         1.69800005E-29
  -14.9899998         2.76519394E-29
  -14.8750000         4.13833806E-29
  -14.7600002         5.69781258E-29
  -14.6450005         7.17161663E-29
  -14.5299997         8.06003427E-29
  -14.4150000         7.59163306E-29
  -14.3000002         4.70549283E-29
  -14.1850004        -1.89439751E-29
  -14.0699997        -1.35926225E-28
  -13.9549999        -3.15869772E-28
  -13.8400002        -5.64721467E-28
  -13.7250004        -8.76968926E-28
  -13.6099997        -1.22945802E-27
  -13.4949999        -1.57556284E-27
  -13.3800001        -1.84123525E-27
  -13.2650003        -1.92505153E-27
  -13.1499996        -1.70444396E-27
  -13.0349998        -1.05004435E-27
  -12.9200001         1.50805948E-28
  -12.8050003         1.96201840E-27
  -12.6899996         4.36098794E-27
  -12.5749998         7.20052359E-27
  -12.4600000         1.01783441E-26
  -12.3450003         1.28236820E-26
  -12.2299995         1.45106434E-26
  -12.1149998         1.45059133E-26
  -12.0000000         1.20538332E-26
  -11.8850002         6.49485669E-27
  -11.7700005        -2.59528459E-27
  -11.6549997        -1.52668082E-26
  -11.5400000        -3.10852489E-26
  -11.4250002        -4.90783957E-26
  -11.3100004        -6.77645384E-26
  -11.1949997        -8.52719750E-26
  -11.0799999        -9.95348637E-26
  -10.9650002        -1.08521376E-25
  -10.8500004        -1.10414396E-25
  -10.7349997        -1.03638869E-25
  -10.6199999        -8.66157688E-26
  -10.5050001        -5.71369612E-26
  -10.3900003        -1.13096114E-26
  -10.2749996         5.78798093E-26
  -10.1599998         1.62184625E-25
  -10.0450001         3.19511248E-25
  -9.93000031         5.54539141E-25
  -9.81499958         8.97777155E-25
  -9.69999981         1.38219001E-24
  -9.58500004         2.03659648E-24
  -9.47000027         2.87528953E-24
  -9.35499954         3.88388488E-24
  -9.23999977         5.00225299E-24
  -9.12500000         6.10645236E-24
  -9.01000023         6.99284172E-24
  -8.89500046         7.36878048E-24
  -8.77999973         6.85515946E-24
  -8.66499996         5.00631641E-24
  -8.55000019         1.35216912E-24
  -8.43500042        -4.53469434E-24
  -8.31999969        -1.29475330E-23
  -8.20499992        -2.39350780E-23
  -8.09000015        -3.71835394E-23
  -7.97499990        -5.19083476E-23
  -7.86000013        -6.67788553E-23
  -7.74499989        -7.99027240E-23
  -7.63000011        -8.88963757E-23
  -7.51499987        -9.10651815E-23
  -7.40000010        -8.37048253E-23
  -7.28499985        -6.45225364E-23
  -7.17000008        -3.21529355E-23
  -7.05499983         1.32784097E-23
  -6.94000006         6.96185274E-23
  -6.82499981         1.32273218E-22
  -6.71000004         1.94027648E-22
  -6.59499979         2.45215027E-22
  -6.48000002         2.74336111E-22
  -6.36499977         2.69196348E-22
  -6.25000000         2.18576519E-22
  -6.13500023         1.14382155E-22
  -6.01999998        -4.58721733E-23
  -5.90500021        -2.56483949E-22
  -5.78999996        -5.01205414E-22
  -5.67500019        -7.51519638E-22
  -5.55999994        -9.65979136E-22
  -5.44500017        -1.09105416E-21
  -5.32999992        -1.06386160E-21
  -5.21500015        -8.17053406E-22
  -5.09999990        -2.85911667E-22
  -4.98500013         5.82510442E-22
  -4.86999989         1.81864705E-21
  -4.75500011         3.41887803E-21
  -4.63999987         5.33424705E-21
  -4.52500010         7.46077815E-21
  -4.40999985         9.63294798E-21
  -4.29500008         1.16218222E-20
  -4.17999983         1.31394167E-20
  -4.06500006         1.38504237E-20
  -3.95000005         1.33920202E-20
  -3.83500004         1.14018923E-20
  -3.72000003         7.55376327E-21
  -3.60500002         1.59860731E-21
  -3.49000001        -6.59082002E-21
  -3.37500000        -1.69760274E-20
  -3.25999999        -2.93131936E-20
  -3.14499998        -4.31232001E-20
  -3.02999997        -5.76758468E-20
  -2.91499996        -7.19926629E-20
  -2.79999995        -8.48728538E-20
  -2.68499994        -9.49428795E-20
  -2.56999993        -1.00732517E-19
  -2.45499992        -1.00773191E-19
  -2.33999991        -9.37155050E-20
  -2.22499990        -7.84581199E-20
  -2.10999990        -5.42797727E-20
  -1.99500000        -2.09614288E-20
  -1.88000000         2.11116396E-20
  -1.76499999         7.08817788E-20
  -1.64999998         1.26594823E-19
  -1.53499997         1.85829382E-19
  -1.41999996         2.45582479E-19
  -1.30499995         3.02413148E-19
  -1.19000006         3.52636168E-19
  -1.07500005         3.92557249E-19
 -0.959999979         4.18729941E-19
 -0.845000029         4.28211318E-19
 -0.730000019         4.18798907E-19
 -0.615000010         3.89217714E-19
 -0.500000000         3.39239952E-19
 -0.384999990         2.69715267E-19
 -0.270000011         1.82505150E-19
 -0.155000001         8.03232700E-20
  -3.99999991E-02    -3.35154973E-20
   7.50000030E-02    -1.55407488E-19
  0.189999998        -2.81808130E-19
  0.305000007        -4.09574913E-19
  0.419999987        -5.36261398E-19
  0.535000026        -6.60321636E-19
  0.649999976        -7.81189939E-19
  0.764999986        -8.99197231E-19
  0.879999995        -1.01533091E-18
  0.995000005        -1.13082176E-18
   1.11000001        -1.24659592E-18
   1.22500002        -1.36264513E-18
   1.34000003        -1.47732069E-18
   1.45500004        -1.58671129E-18
   1.57000005        -1.68409775E-18
   1.68499994        -1.75959990E-18
   1.79999995        -1.80009825E-18
   1.91499996        -1.78941149E-18
   2.02999997        -1.70886002E-18
   2.14499998        -1.53812953E-18
   2.25999999        -1.25644847E-18
   2.37500000        -8.44033177E-19
   2.49000001        -2.83706406E-19
   2.60500002         4.37354378E-19
   2.72000003         1.32591903E-18
   2.83500004         2.38102078E-18
   2.95000005         3.59252398E-18
   3.06500006         4.93993172E-18
   3.18000007         6.39146577E-18
   3.29500008         7.90354532E-18
   3.41000009         9.42063261E-18
   3.52500010         1.08755002E-17
   3.64000010         1.21898530E-17
   3.75500011         1.32754622E-17
   3.86999989         1.40355940E-17
   3.98499990         1.43670155E-17
   4.09999990         1.41624240E-17
   4.21500015         1.33133421E-17
   4.32999992         1.17136947E-17
   4.44500017         9.26378097E-18
   4.55999994         5.87484351E-18
   4.67500019         1.47414173E-18
   4.78999996        -3.98965257E-18
   4.90500021        -1.05409710E-17
   5.01999998        -1.81718511E-17
   5.13500023        -2.68367831E-17
   5.25000000        -3.64485854E-17
   5.36499977        -4.68750912E-17
   5.48000002        -5.79377352E-17
   5.59499979        -6.94114516E-17
   5.71000004        -8.10275092E-17
   5.82499981        -9.24779256E-17
   5.94000006        -1.03422961E-16
   6.05499983        -1.13500086E-16
   6.17000008        -1.22335883E-16
   6.28499985        -1.29558361E-16
   6.40000010        -1.34811779E-16
   6.51499987        -1.37770518E-16
   6.63000011        -1.38153218E-16
   6.74499989        -1.35735839E-16
   6.86000013        -1.30362844E-16
   6.97499990        -1.21956029E-16
   7.09000015        -1.10520819E-16
   7.20499992        -9.61492774E-17
   7.32000017        -7.90197698E-17
   7.43499994        -5.93943870E-17
   7.55000019        -3.76126238E-17
   7.66499996        -1.40828922E-17
   7.78000021         1.07270304E-17
   7.89499998         3.63018138E-17
   8.01000023         6.20906517E-17
   8.12500000         8.75193749E-17
   8.23999977         1.12002518E-16
   8.35499954         1.34955126E-16
   8.47000027         1.55802804E-16
   8.58500004         1.73992479E-16
   8.69999981         1.89000129E-16
   8.81499958         2.00342139E-16
   8.93000031         2.07582047E-16
   9.04500008         2.10339960E-16
   9.15999985         2.08302607E-16
   9.27499962         2.01234938E-16
   9.39000034         1.88991765E-16
   9.50500011         1.71531914E-16
   9.61999989         1.48935153E-16
   9.73499966         1.21420135E-16
   9.85000038         8.93660986E-17
   9.96500015         5.33353188E-17
   10.0799999         1.41003259E-17
   10.1949997        -2.73298489E-17
   10.3100004        -6.96755009E-17
   10.4250002        -1.11356007E-16
   10.5400000        -1.50449357E-16
   10.6549997        -1.84657100E-16
   10.7700005        -2.11261981E-16
   10.8850002        -2.27082757E-16
   11.0000000        -2.28429328E-16
   11.1149998        -2.11055411E-16
   11.2299995        -1.70107827E-16
   11.3450003        -1.00077684E-16
   11.4600000         5.25001609E-18
   11.5749998         1.52848895E-16
   11.6899996         3.50495140E-16
   11.8050003         6.06817897E-16
   11.9200001         9.31336337E-16
   12.0349998         1.33450253E-15
   12.1499996         1.82772939E-15
   12.2650003         2.42342013E-15
   12.3800001         3.13498498E-15
   12.4949999         3.97685653E-15
   12.6099997         4.96448551E-15
   12.7250004         6.11434418E-15
   12.8400002         7.44390850E-15
   12.9549999         8.97163745E-15
   13.0699997         1.07169471E-14
   13.1850004         1.27001672E-14
   13.3000002         1.49425048E-14
   13.4150000         1.74659922E-14
   13.5299997         2.02934305E-14
   13.6450005         2.34483470E-14
   13.7600002         2.69549245E-14
   13.8750000         3.08379556E-14
   13.9899998         3.51228005E-14
   14.1049995         3.98353293E-14
   14.2200003         4.50018983E-14
   14.3350000         5.06493447E-14
   14.4499998         5.68049500E-14
   14.5649996         6.34964900E-14
   14.6800003         7.07522758E-14
   14.7950001         7.86011813E-14
   14.9099998         8.70727711E-14
   15.0249996         9.61973692E-14
   15.1400003         1.06006282E-13
   15.2550001         1.16531852E-13
   15.3699999         1.27807704E-13
   15.4849997         1.39868938E-13
   15.6000004         1.52752323E-13
   15.7150002         1.66496523E-13
   15.8299999         1.81142251E-13
   15.9449997         1.96732591E-13
   16.0599995         2.13313091E-13
   16.1749992         2.30931864E-13
   16.2900009         2.49639908E-13
   16.4050007         2.69491027E-13
   16.5200005         2.90541896E-13
   16.6350002         3.12852229E-13
   16.7500000         3.36484638E-13
   16.8649998         3.61504446E-13
   16.9799995         3.87979931E-13
   17.0949993         4.15981756E-13
   17.2099991         4.45583159E-13
   17.3250008         4.76859383E-13
   17.4400005         5.09887922E-13
   17.5550003         5.44748057E-13
   17.6700001         5.81520455E-13
   17.7849998         6.20287567E-13
   17.8999996         6.61132824E-13
   18.0149994         7.04141118E-13
   18.1299992         7.49398156E-13
   18.2450008         7.96991379E-13
   18.3600006         8.47009041E-13
   18.4750004         8.99541130E-13
   18.5900002         9.54679044E-13
   18.7049999         1.01251668E-12
   18.8199997         1.07314982E-12
   18.9349995         1.13667777E-12
   19.0499992         1.20320269E-12
   19.1650009         1.27283123E-12
   19.2800007         1.34567466E-12
   19.3950005         1.42184875E-12
   19.5100002         1.50147624E-12
   19.6250000         1.58468507E-12
   19.7399998         1.67161055E-12
   19.8549995         1.76239470E-12
   19.9699993         1.85718736E-12
   20.0849991         1.95614532E-12
   20.2000008         2.05943205E-12
   20.3150005         2.16721910E-12
   20.4300003         2.27968274E-12
   20.5450001         2.39700642E-12
   20.6599998         2.51937663E-12
   20.7749996         2.64698441E-12
   20.8899994         2.78002166E-12
   21.0049992         2.91868222E-12
   21.1200008         3.06315758E-12
   21.2350006         3.21363704E-12
   21.3500004         3.37030490E-12
   21.4650002         3.53333942E-12
   21.5799999         3.70291037E-12
   21.6949997         3.87917866E-12
   21.8099995         4.06229260E-12
   21.9249992         4.25239011E-12
   22.0400009         4.44959391E-12
   22.1550007         4.65401372E-12
   22.2700005         4.86574409E-12
   22.3850002         5.08486569E-12
   22.5000000         5.31144313E-12
   22.6149998         5.54552801E-12
   22.7299995         5.78715808E-12
   22.8449993         6.03635891E-12
   22.9599991         6.29314439E-12
   23.0750008         6.55751885E-12
   23.1900005         6.82947579E-12
   23.3050003         7.10900262E-12
   23.4200001         7.39607941E-12
   23.5349998         7.69068143E-12
   23.6499996         7.99277658E-12
   23.7649994         8.30232844E-12
   23.8799992         8.61929538E-12
   23.9950008         8.94363316E-12
   24.1100006         9.27528280E-12
   24.2250004         9.61418358E-12
   24.3400002         9.96025658E-12
   24.4549999         1.03134142E-11
   24.5699997         1.06735497E-11
   24.6849995         1.10405322E-11
   24.7999992         1.14142055E-11
   24.9150009         1.17943840E-11
   25.0300007         1.21808483E-11
   25.1450005         1.25733382E-11
   25.2600002         1.29715492E-11
   25.3750000         1.33751300E-11
   25.4899998         1.37836773E-11
   25.6049995         1.41967349E-11
   25.7199993         1.46137859E-11
   25.8349991         1.50342586E-11
   25.9500008         1.54575172E-11
   26.0650005         1.58828714E-11
   26.1800003         1.63095648E-11
   26.2950001         1.67367873E-11
   26.4099998         1.71636767E-11
   26.5249996         1.75893085E-11
   26.6399994         1.80127163E-11
   26.7549992         1.84328802E-11
   26.8700008         1.88487420E-11
   26.9850006         1.92592019E-11
   27.1000004         1.96631218E-11
   27.2150002         2.00593309E-11
   27.3299999         2.04466270E-11
   27.4449997         2.08237802E-11
   27.5599995         2.11895189E-11
   27.6749992         2.15425594E-11
   27.7900009         2.18815695E-11
   27.9050007         2.22051943E-11
   28.0200005         2.25120304E-11
   28.1350002         2.28006433E-11
   28.2500000         2.30695428E-11
   28.3649998         2.33171885E-11
   28.4799995         2.35419791E-11
   28.5949993         2.37422460E-11
   28.7099991         2.39162527E-11
   28.8250008         2.40621828E-11
   28.9400005         2.41781317E-11
   29.0550003         2.42621132E-11
   29.1700001         2.43120437E-11
   29.2849998         2.43257532E-11
   29.3999996         2.43009692E-11
   29.5149994         2.42353342E-11
   29.6299992         2.41263953E-11
   29.7450008         2.39716233E-11
   29.8600006         2.37684004E-11
   29.9750004         2.35140449E-11
   30.0900002         2.32058157E-11
   30.2049999         2.28409184E-11
   30.3199997         2.24165235E-11
   30.4349995         2.19297722E-11
   30.5499992         2.13777936E-11
   30.6650009         2.07577202E-11
   30.7800007         2.00666931E-11
   30.8950005         1.93018743E-11
   31.0100002         1.84604641E-11
   31.1250000         1.75397041E-11
   31.2399998         1.65368830E-11
   31.3549995         1.54493553E-11
   31.4699993         1.42745295E-11
   31.5849991         1.30098866E-11
   31.7000008         1.16529720E-11
   31.8150005         1.02013970E-11
   31.9300003         8.65283973E-12
   32.0449982         7.00504325E-12
   32.1599998         5.25581054E-12
   32.2750015         3.40300401E-12
   32.3899994         1.44454067E-12
   32.5050011        -6.21615173E-13
   32.6199989        -2.79744370E-12
   32.7350006        -5.08488130E-12
   32.8499985        -7.48581839E-12
   32.9650002        -1.00020946E-11
   33.0800018        -1.26354986E-11
   33.1949997        -1.53877657E-11
   33.3100014        -1.82605632E-11
   33.4249992        -2.12554904E-11
   33.5400009        -2.43740635E-11
   33.6549988        -2.76176929E-11
   33.7700005        -3.09876916E-11
   33.8849983        -3.44852411E-11
   34.0000000        -3.81113856E-11
   34.1150017        -4.18669995E-11
   34.2299995        -4.57527835E-11
   34.3450012        -4.97692443E-11
   34.4599991        -5.39166593E-11
   34.5750008        -5.81951015E-11
   34.6899986        -6.26043731E-11
   34.8050003        -6.71440126E-11
   34.9199982        -7.18133053E-11
   35.0349998        -7.66112174E-11
   35.1500015        -8.15364443E-11
   35.2649994        -8.65873415E-11
   35.3800011        -9.17619869E-11
   35.4949989        -9.70581324E-11
   35.6100006        -1.02473197E-10
   35.7249985        -1.08004314E-10
   35.8400002        -1.13648251E-10
   35.9550018        -1.19401503E-10
   36.0699997        -1.25260247E-10
   36.1850014        -1.31220326E-10
   36.2999992        -1.37277328E-10
   36.4150009        -1.43426479E-10
   36.5299988        -1.49662782E-10
   36.6450005        -1.55980923E-10
   36.7599983        -1.62375280E-10
   36.8750000        -1.68839970E-10
   36.9900017        -1.75368858E-10
   37.1049995        -1.81955478E-10
   37.2200012        -1.88593169E-10
   37.3349991        -1.95274907E-10
   37.4500008        -2.01993436E-10
   37.5649986        -2.08741163E-10
   37.6800003        -2.15510304E-10
   37.7949982        -2.22292712E-10
   37.9099998        -2.29079977E-10
   38.0250015        -2.35863384E-10
   38.1399994        -2.42633941E-10
   38.2550011        -2.49382320E-10
   38.3699989        -2.56098948E-10
   38.4850006        -2.62773830E-10
   38.5999985        -2.69396755E-10
   38.7150002        -2.75957285E-10
   38.8300018        -2.82444540E-10
   38.9449997        -2.88847446E-10
   39.0600014        -2.95154567E-10
   39.1749992        -3.01354358E-10
   39.2900009        -3.07434800E-10
   39.4049988        -3.13383930E-10
   39.5200005        -3.19189203E-10
   39.6349983        -3.24838129E-10
   39.7500000        -3.30317995E-10
   39.8650017        -3.35615868E-10
   39.9799995        -3.40718731E-10
   40.0950012        -3.45613371E-10
   40.2099991        -3.50286522E-10
   40.3250008        -3.54724916E-10
   40.4399986        -3.58915092E-10
   40.5550003        -3.62843672E-10
   40.6699982        -3.66497221E-10
   40.7849998        -3.69862252E-10
   40.9000015        -3.72925468E-10
   41.0149994        -3.75673465E-10
   41.1300011        -3.78092918E-10
   41.2449989        -3.80170756E-10
   41.3600006        -3.81893767E-10
   41.4749985        -3.83249044E-10
   41.5900002        -3.84223708E-10
   41.7050018        -3.84805132E-10
   41.8199997        -3.84980742E-10
   41.9350014        -3.84738297E-10
   42.0499992        -3.84065696E-10
   42.1650009        -3.82951032E-10
   42.2799988        -3.81382703E-10
   42.3950005        -3.79349357E-10
   42.5099983        -3.76839976E-10
   42.6250000        -3.73843817E-10
   42.7400017        -3.70350473E-10
   42.8549995        -3.66349978E-10
   42.9700012        -3.61832564E-10
   43.0849991        -3.56789182E-10
   43.2000008        -3.51210866E-10
   43.3149986        -3.45089401E-10
   43.4300003        -3.38416850E-10
   43.5449982        -3.31185857E-10
   43.6599998        -3.23389676E-10
   43.7750015        -3.15021953E-10
   43.8899994        -3.06076997E-10
   44.0050011        -2.96549701E-10
   44.1199989        -2.86435597E-10
   44.2350006        -2.75730772E-10
   44.3499985        -2.64432004E-10
   44.4650002        -2.52536769E-10
   44.5800018        -2.40043180E-10
   44.6949997        -2.26950111E-10
   44.8100014        -2.13257093E-10
   44.9249992        -1.98964428E-10
   45.0400009        -1.84073132E-10
   45.1549988        -1.68585063E-10
   45.2700005        -1.52502760E-10
   45.3849983        -1.35829598E-10
   45.5000000        -1.18569779E-10
   45.6150017        -1.00728231E-10
   45.7299995        -8.23107346E-11
   45.8450012        -6.33239017E-11
   45.9599991        -4.37751502E-11
   46.0750008        -2.36727304E-11
   46.1899986        -3.02569081E-12
   46.3050003         1.81560322E-11
   46.4199982         3.98617805E-11
   46.5349998         6.20800356E-11
   46.6500015         8.47984322E-11
   46.7649994         1.08003856E-10
   46.8800011         1.31682415E-10
   46.9949989         1.55819524E-10
   47.1100006         1.80399584E-10
   47.2249985         2.05406525E-10
   47.3400002         2.30823471E-10
   47.4550018         2.56632743E-10
   47.5699997         2.82816298E-10
   47.6850014         3.09355069E-10
   47.7999992         3.36229544E-10
   47.9150009         3.63419544E-10
   48.0299988         3.90904364E-10
   48.1450005         4.18662743E-10
   48.2599983         4.46672838E-10
   48.3750000         4.74912332E-10
   48.4900017         5.03358577E-10
   48.6049995         5.31988231E-10
   48.7200012         5.60777647E-10
   48.8349991         5.89702731E-10
   48.9500008         6.18739282E-10
   49.0649986         6.47862763E-10
   49.1800003         6.77048029E-10
   49.2949982         7.06270042E-10
   49.4099998         7.35503325E-10
   49.5250015         7.64722674E-10
   49.6399994         7.93902166E-10
   49.7550011         8.23016322E-10
   49.8699989         8.52039106E-10
   49.9850006         8.80945206E-10
   50.0999985         9.09708642E-10
   50.2150002         9.38303990E-10
   50.3300018         9.66706271E-10
   50.4449997         9.94889726E-10
   50.5600014         1.02282960E-09
   50.6749992         1.05050169E-09
   50.7900009         1.07788145E-09
   50.9049988         1.10494480E-09
   51.0200005         1.13166876E-09
   51.1349983         1.15803034E-09
   51.2500000         1.18400689E-09
   51.3650017         1.20957699E-09
   51.4799995         1.23471922E-09
   51.5950012         1.25941280E-09
   51.7099991         1.28363831E-09
   51.8250008         1.30737599E-09
   51.9399986         1.33060762E-09
   52.0550003         1.35331524E-09
   52.1699982         1.37548217E-09
   52.2849998         1.39709122E-09
   52.4000015         1.41812717E-09
   52.5149994         1.43857537E-09
   52.6300011         1.45842116E-09
   52.7449989         1.47765111E-09
   52.8600006         1.49625290E-09
   52.9749985         1.51421320E-09
   53.0900002         1.53152180E-09
   53.2050018         1.54816737E-09
   53.3199997         1.56413937E-09
   53.4350014         1.57942903E-09
   53.5499992         1.59402758E-09
   53.6650009         1.60792679E-09
   53.7799988         1.62111946E-09
   53.8950005         1.63359859E-09
   54.0099983         1.64535829E-09
   54.1250000         1.65639369E-09
   54.2400017         1.66670000E-09
   54.3549995         1.67627445E-09
   54.4700012         1.68511372E-09
   54.5849991         1.69321712E-09
   54.7000008         1.70058301E-09
   54.8149986         1.70721304E-09
   54.9300003         1.71310788E-09
   55.0449982         1.71827064E-09
   55.1599998         1.72270487E-09
   55.2750015         1.72641546E-09
   55.3899994         1.72940884E-09
   55.5050011         1.73169201E-09
   55.6199989         1.73327375E-09
   55.7350006         1.73416281E-09
   55.8499985         1.73437020E-09
   55.9650002         1.73390746E-09
   56.0800018         1.73278636E-09
   56.1949997         1.73102022E-09
   56.3100014         1.72862302E-09
   56.4249992         1.72560888E-09
   56.5400009         1.72199233E-09
   56.6549988         1.71778802E-09
   56.7700005         1.71301151E-09
   56.8849983         1.70767733E-09
   57.0000000         1.70180070E-09
   57.1150017         1.69539582E-09
   57.2299995         1.68847614E-09
   57.3450012         1.68105563E-09
   57.4599991         1.67314651E-09
   57.5750008         1.66476033E-09
   57.6899986         1.65590786E-09
   57.8050003         1.64659841E-09
   57.9199982         1.63684011E-09
   58.0349998         1.62663949E-09
   58.1500015         1.61600244E-09
   58.2649994         1.60493208E-09
   58.3800011         1.59343116E-09
   58.4949989         1.58150038E-09
   58.6100006         1.56913849E-09
   58.7249985         1.55634283E-09
   58.8400002         1.54310886E-09
   58.9550018         1.52943025E-09
   59.0699997         1.51529889E-09
   59.1850014         1.50070467E-09
   59.2999992         1.48563561E-09
   59.4150009         1.47007861E-09
   59.5299988         1.45401735E-09
   59.6450005         1.43743384E-09
   59.7599983         1.42030865E-09
   59.8750000         1.40261958E-09
   59.9900017         1.38434264E-09
   60.1049995         1.36545109E-09
   60.2200012         1.34591605E-09
   60.3349991         1.32570599E-09
   60.4500008         1.30478783E-09
   60.5649986         1.28312527E-09
   60.6800003         1.26067934E-09
   60.7949982         1.23740829E-09
   60.9099998         1.21326760E-09
   61.0250015         1.18821064E-09
   61.1399994         1.16218812E-09
   61.2550011         1.13514720E-09
   61.3699989         1.10703291E-09
   61.4850006         1.07778808E-09
   61.5999985         1.04735287E-09
   61.7150002         1.01566422E-09
   61.8300018         9.82657622E-10
   61.9449997         9.48266132E-10
   62.0600014         9.12421139E-10
   62.1749992         8.75051587E-10
   62.2900009         8.36085201E-10
   62.4049988         7.95447708E-10
   62.5200005         7.53064944E-10
   62.6349983         7.08859638E-10
   62.7500000         6.62755184E-10
   62.8650017         6.14674533E-10
   62.9799995         5.64539304E-10
   63.0950012         5.12270670E-10
   63.2099991         4.57791360E-10
   63.3250008         4.01022771E-10
   63.4399986         3.41887629E-10
   63.5550003         2.80308887E-10
   63.6699982         2.16210383E-10
   63.7849998         1.49515733E-10
   63.9000015         8.01518851E-11
   64.0149994         8.04512013E-12
   64.1299973        -6.68762823E-11
   64.2450027        -1.44682710E-10
   64.3600006        -2.25443442E-10
   64.4749985        -3.09225756E-10
   64.5899963        -3.96094935E-10
   64.7050018        -4.86114038E-10
   64.8199997        -5.79345905E-10
   64.9349976        -6.75849376E-10
   65.0500031        -7.75681963E-10
   65.1650009        -8.78896289E-10
   65.2799988        -9.85545201E-10
   65.3949966        -1.09567821E-09
   65.5100021        -1.20933974E-09
   65.6250000        -1.32657418E-09
   65.7399979        -1.44741974E-09
   65.8550034        -1.57191238E-09
   65.9700012        -1.70008363E-09
   66.0849991        -1.83196125E-09
   66.1999969        -1.96756766E-09
   66.3150024        -2.10692308E-09
   66.4300003        -2.25004149E-09
   66.5449982        -2.39693043E-09
   66.6600037        -2.54759547E-09
   66.7750015        -2.70203260E-09
   66.8899994        -2.86023627E-09
   67.0049973        -3.02219028E-09
   67.1200027        -3.18787530E-09
   67.2350006        -3.35726402E-09
   67.3499985        -3.53032337E-09
   67.4649963        -3.70700981E-09
   67.5800018        -3.88727539E-09
   67.6949997        -4.07106482E-09
   67.8099976        -4.25831281E-09
   67.9250031        -4.44894477E-09
   68.0400009        -4.64288163E-09
   68.1549988        -4.84003060E-09
   68.2699966        -5.04029352E-09
   68.3850021        -5.24356336E-09
   68.5000000        -5.44972067E-09
   68.6149979        -5.65863800E-09
   68.7300034        -5.87017990E-09
   68.8450012        -6.08419803E-09
   68.9599991        -6.30053743E-09
   69.0749969        -6.51903020E-09
   69.1900024        -6.73950140E-09
   69.3050003        -6.96176494E-09
   69.4199982        -7.18562498E-09
   69.5350037        -7.41087547E-09
   69.6500015        -7.63730146E-09
   69.7649994        -7.86467780E-09
   69.8799973        -8.09277356E-09
   69.9950027        -8.32134273E-09
   70.1100006        -8.55013571E-09
   70.2249985        -8.77888962E-09
   70.3399963        -9.00734065E-09
   70.4550018        -9.23520993E-09
   70.5699997        -9.46221412E-09
   70.6849976        -9.68806013E-09
   70.8000031        -9.91245130E-09
   70.9150009        -1.01350812E-08
   71.0299988        -1.03556399E-08
   71.1449966        -1.05738067E-08
   71.2600021        -1.07892593E-08
   71.3750000        -1.10016698E-08
   71.4899979        -1.12107026E-08
   71.6050034        -1.14160184E-08
   71.7200012        -1.16172778E-08
   71.8349991        -1.18141301E-08
   71.9499969        -1.20062289E-08
   72.0650024        -1.21932189E-08
   72.1800003        -1.23747430E-08
   72.2949982        -1.25504469E-08
   72.4100037        -1.27199691E-08
   72.5250015        -1.28829498E-08
   72.6399994        -1.30390294E-08
   72.7549973        -1.31878464E-08
   72.8700027        -1.33290392E-08
   72.9850006        -1.34622518E-08
   73.0999985        -1.35871261E-08
   73.2149963        -1.37033069E-08
   73.3300018        -1.38104452E-08
   73.4449997        -1.39081928E-08
   73.5599976        -1.39962086E-08
   73.6750031        -1.40741516E-08
   73.7900009        -1.41416923E-08
   73.9049988        -1.41985073E-08
   74.0199966        -1.42442751E-08
   74.1350021        -1.42786867E-08