  -18.8999996         0.00000000    
  -18.7849998         0.00000000    
  -18.6700001         0.00000000    
  -18.5550003         0.00000000    
  -18.4400005         0.00000000    
  -18.3250008         0.00000000    
  -18.2099991         0.00000000    
  -18.0949993         0.00000000    
  -17.9799995         0.00000000    
  -17.8649998         0.00000000    
  -17.7500000         0.00000000    
  -17.6350002         0.00000000    
  -17.5200005         0.00000000    
  -17.4050007         0.00000000    
  -17.2900009         0.00000000    
  -17.1749992         0.00000000    
  -17.0599995         0.00000000    
  -16.9449997         0.00000000    
  -16.8299999         0.00000000    
  -16.7150002         0.00000000    
  -16.6000004        -6.91371824E-34
  -16.4850006        -2.10229120E-33
  -16.3700008        -5.56107202E-33
  -16.2549992        -1.28093840E-32
  -16.1399994        -2.61200663E-32
  -16.0249996        -3.81577427E-32
  -15.9099998        -3.93225489E-32
  -15.7950001        -1.25909419E-32
  -15.6800003         4.53646163E-32
  -15.5649996         1.66830484E-31
  -15.4499998         3.23830920E-31
  -15.3350000         4.46014530E-31
  -15.2200003         5.07750271E-31
  -15.1049995         4.71805864E-31
  -14.9899998         7.82593357E-32
  -14.8750000        -5.02548097E-31
  -14.7600002        -1.48507405E-30
  -14.6450005        -2.81568174E-30
  -14.5299997        -4.78858407E-30
  -14.4150000        -7.30709557E-30
  -14.3000002        -1.00229231E-29
  -14.1850004        -1.16587260E-29
  -14.0699997        -1.05182031E-29
  -13.9549999        -4.30976779E-30
  -13.8400002         9.50717261E-30
  -13.7250004         3.31211321E-29
  -13.6099997         6.72572292E-29
  -13.4949999         1.09704292E-28
  -13.3800001         1.53823880E-28
  -13.2650003         1.87248587E-28
  -13.1499996         1.91492133E-28
  -13.0349998         1.43317981E-28
  -12.9200001         1.82726937E-29
  -12.8050003        -2.02537173E-28
  -12.6899996        -5.23113388E-28
  -12.5749998        -9.21600619E-28
  -12.4600000        -1.33996345E-27
  -12.3450003        -1.67821298E-27
  -12.2299995        -1.79801276E-27
  -12.1149998        -1.54088262E-27
  -12.0000000        -7.65276737E-28
  -11.8850002         5.96127703E-28
  -11.7700005         2.46267583E-27
  -11.6549997         4.52671152E-27
  -11.5400000         6.18932485E-27
  -11.4250002         6.53973394E-27
  -11.3100004         4.41402805E-27
  -11.1949997        -1.43059925E-27
  -11.0799999        -1.19970706E-26
  -10.9650002        -2.75773077E-26
  -10.8500004        -4.71548509E-26
  -10.7349997        -6.77560027E-26
  -10.6199999        -8.38829574E-26
  -10.5050001        -8.72226000E-26
  -10.3900003        -6.68712644E-26
  -10.2749996        -1.03359884E-26
  -10.1599998         9.44599058E-26
  -10.0450001         2.56039549E-25
  -9.93000031         4.75160604E-25
  -9.81499958         7.39851541E-25
  -9.69999981         1.02036259E-24
  -9.58500004         1.26505886E-24
  -9.47000027         1.39863520E-24
  -9.35499954         1.32423704E-24
  -9.23999977         9.31095189E-25
  -9.12500000         1.08952045E-25
  -9.01000023        -1.23014861E-24
  -8.89500046        -3.12329991E-24
  -8.77999973        -5.52354056E-24
  -8.66499996        -8.26604113E-24
  -8.55000019        -1.10395443E-23
  -8.43500042        -1.33706117E-23
  -8.31999969        -1.46290973E-23
  -8.20499992        -1.40631575E-23
  -8.09000015        -1.08704070E-23
  -7.97499990        -4.30823840E-24
  -7.86000013         6.15878697E-24
  -7.74499989         2.06837168E-23
  -7.63000011         3.88511535E-23
  -7.51499987         5.95054757E-23
  -7.40000010         8.06251817E-23
  -7.28499985         9.92792493E-23
  -7.17000008         1.11701417E-22
  -7.05499983         1.13513272E-22
  -6.94000006         1.00114647E-22
  -6.82499981         6.72427623E-23
  -6.71000004         1.16784041E-23
  -6.59499979        -6.79506735E-23
  -6.48000002        -1.70344314E-22
  -6.36499977        -2.90785716E-22
  -6.25000000        -4.20596931E-22
  -6.13500023        -5.46921582E-22
  -6.01999998        -6.52956302E-22
  -5.90500021        -7.18728571E-22
  -5.78999996        -7.22476632E-22
  -5.67500019        -6.42634568E-22
  -5.55999994        -4.60354486E-22
  -5.44500017        -1.62421715E-22
  -5.32999992         2.55657223E-22
  -5.21500015         7.86675672E-22
  -5.09999990         1.40920153E-21
  -4.98500013         2.08585304E-21
  -4.86999989         2.76274467E-21
  -4.75500011         3.37040112E-21
  -4.63999987         3.82638565E-21
  -4.52500010         4.03977199E-21
  -4.40999985         3.91743570E-21
  -4.29500008         3.37201146E-21
  -4.17999983         2.33121590E-21
  -4.06500006         7.48026436E-22
  -3.95000005        -1.38885139E-21
  -3.83500004        -4.04499923E-21
  -3.72000003        -7.13153765E-21
  -3.60500002        -1.04985359E-20
  -3.49000001        -1.39314324E-20
  -3.37500000        -1.71513687E-20
  -3.25999999        -1.98203105E-20
  -3.14499998        -2.15517320E-20
  -3.02999997        -2.19276420E-20
  -2.91499996        -2.05223946E-20
  -2.79999995        -1.69337313E-20
  -2.68499994        -1.08209199E-20
  -2.56999993        -1.94949547E-21
  -2.45499992         9.75874325E-21
  -2.33999991         2.41726070E-20
  -2.22499990         4.08986077E-20
  -2.10999990         5.92328398E-20
  -1.99500000         7.81238032E-20
  -1.88000000         9.61531934E-20
  -1.76499999         1.11542798E-19
  -1.64999998         1.22196329E-19
  -1.53499997         1.25784121E-19
  -1.41999996         1.19877250E-19
  -1.30499995         1.02134924E-19
  -1.19000006         7.05435718E-20
  -1.07500005         2.37019977E-20
 -0.959999979        -3.88623120E-20
 -0.845000029        -1.16367794E-19
 -0.730000019        -2.06473121E-19
 -0.615000010        -3.05029830E-19
 -0.500000000        -4.05936042E-19
 -0.384999990        -5.01135018E-19
 -0.270000011        -5.80802747E-19
 -0.155000001        -6.33759471E-19
  -3.99999991E-02    -6.48126874E-19
   7.50000030E-02    -6.12233905E-19
  0.189999998        -5.15749800E-19
  0.305000007        -3.50988450E-19
  0.419999987        -1.14309317E-19
  0.535000026         1.92508968E-19
  0.649999976         5.61054379E-19
  0.764999986         9.75388114E-19
  0.879999995         1.41163500E-18
  0.995000005         1.83821452E-18
   1.11000001         2.21684197E-18
   1.22500002         2.50437843E-18
   1.34000003         2.65555520E-18
   1.45500004         2.62650317E-18
   1.57000005         2.37894601E-18
   1.68499994         1.88480216E-18
   1.79999995         1.13086581E-18
   1.91499996         1.23149926E-19
   2.02999997        -1.10957449E-18
   2.14499998        -2.51351464E-18
   2.25999999        -4.00933905E-18
   2.37500000        -5.49379076E-18
   2.49000001        -6.84368996E-18
   2.60500002        -7.92244309E-18
   2.72000003        -8.58894883E-18
   2.83500004        -8.70856493E-18
   2.95000005        -8.16558042E-18
   3.06500006        -6.87636319E-18
   3.18000007        -4.80222600E-18
   3.29500008        -1.96082895E-18
   3.41000009         1.56504723E-18
   3.52500010         5.62256748E-18
   3.64000010         9.98876507E-18
   3.75500011         1.43761542E-17
   3.86999989         1.84444568E-17
   3.98499990         2.18185149E-17
   4.09999990         2.41118980E-17
   4.21500015         2.49552152E-17
   4.32999992         2.40276314E-17
   4.44500017         2.10895785E-17
   4.55999994         1.60143225E-17
   4.67500019         8.81577664E-18
   4.78999996        -3.30105862E-19
   4.90500021        -1.10729011E-17
   5.01999998        -2.28864679E-17
   5.13500023        -3.50804221E-17
   5.25000000        -4.68254008E-17
   5.36499977        -5.71919955E-17
   5.48000002        -6.52023861E-17
   5.59499979        -6.98926060E-17
   5.71000004        -7.03825087E-17
   5.82499981        -6.59492044E-17
   5.94000006        -5.60995943E-17
   6.05499983        -4.06366174E-17
   6.17000008        -1.97140069E-17
   6.28499985         6.12551728E-18
   6.40000010         3.59331394E-17
   6.51499987         6.83615542E-17
   6.63000011         1.01699514E-16
   6.74499989         1.33933988E-16
   6.86000013         1.62839146E-16
   6.97499990         1.86089075E-16
   7.09000015         2.01389812E-16
   7.20499992         2.06624105E-16
   7.32000017         2.00001922E-16
   7.43499994         1.80206829E-16
   7.55000019         1.46530546E-16
   7.66499996         9.89852562E-17
   7.78000021         3.83855380E-17
   7.89499998        -3.36071472E-17
   8.01000023        -1.14484153E-16
   8.12500000        -2.00936041E-16
   8.23999977        -2.88948190E-16
   8.35499954        -3.73942679E-16
   8.47000027        -4.50963517E-16
   8.58500004        -5.14897882E-16
   8.69999981        -5.60723529E-16
   8.81499958        -5.83772460E-16
   8.93000031        -5.79998558E-16
   9.04500008        -5.46233813E-16
   9.15999985        -4.80422212E-16
   9.27499962        -3.81818021E-16
   9.39000034        -2.51136719E-16
   9.50500011        -9.06490557E-17
   9.61999989         9.57867539E-17
   9.73499966         3.02761974E-16
   9.85000038         5.23421680E-16
   9.96500015         7.49634852E-16
   10.0799999         9.72230028E-16
   10.1949997         1.18128030E-15
   10.3100004         1.36643906E-15
   10.4250002         1.51730494E-15
   10.5400000         1.62381266E-15
   10.6549997         1.67663099E-15
   10.7700005         1.66755503E-15
   10.8850002         1.58988635E-15
   11.0000000         1.43878086E-15
   11.1149998         1.21155929E-15
   11.2299995         9.07966909E-16
   11.3450003         5.30377991E-16
   11.4600000         8.39301191E-17
   11.5749998        -4.23409827E-16
   11.6899996        -9.80861824E-16
   11.8050003        -1.57492870E-15
   11.9200001        -2.18958483E-15
   12.0349998        -2.80655283E-15
   12.1499996        -3.40567511E-15
   12.2650003        -3.96537924E-15
   12.3800001        -4.46323386E-15
   12.4949999        -4.87659272E-15
   12.6099997        -5.18331859E-15
   12.7250004        -5.36256644E-15
   12.8400002        -5.39562274E-15
   12.9549999        -5.26675981E-15
   13.0699997        -4.96409334E-15
   13.1850004        -4.48039814E-15
   13.3000002        -3.81384843E-15
   13.4150000        -2.96863957E-15
   13.5299997        -1.95544819E-15
   13.6450005        -7.91691679E-16
   13.7600002         4.98456443E-16
   13.8750000         1.88433025E-15
   13.9899998         3.32932653E-15
   14.1049995         4.79178524E-15
   14.2200003         6.22617667E-15
   14.3350000         7.58458034E-15
   14.4499998         8.81843121E-15
   14.5649996         9.88046145E-15
   14.6800003         1.07268015E-14
   14.7950001         1.13190851E-14
   14.9099998         1.16265657E-14
   15.0249996         1.16280149E-14
   15.1400003         1.13133862E-14
   15.2550001         1.06850750E-14
   15.3699999         9.75871487E-15
   15.4849997         8.56336842E-15
   15.6000004         7.14112471E-15
   15.7150002         5.54598210E-15
   15.8299999         3.84206564E-15
   15.9449997         2.10119927E-15
   16.0599995         3.99878749E-16
   16.1749992        -1.18422406E-15
   16.2900009        -2.57609782E-15
   16.4050007        -3.70739884E-15
   16.5200005        -4.52043188E-15
   16.6350002        -4.97189324E-15
   16.7500000        -5.03617923E-15
   16.8649998        -4.70802257E-15
   16.9799995        -4.00429744E-15
   17.0949993        -2.96482411E-15
   17.2099991        -1.65203707E-15
   17.3250008        -1.49506609E-16
   17.4400005         1.44076757E-15
   17.5550003         3.00218440E-15
   17.6700001         4.40840119E-15
   17.7849998         5.52902577E-15
   17.8999996         6.23591966E-15
   18.0149994         6.40984856E-15
   18.1299992         5.94710641E-15
   18.2450008         4.76585078E-15
   18.3600006         2.81174789E-15
   18.4750004         6.26393570E-17
   18.5900002        -3.46806629E-15
   18.7049999        -7.72954326E-15
   18.8199997        -1.26333854E-14
   18.9349995        -1.80552493E-14
   19.0499992        -2.38382956E-14
   19.1650009        -2.97983684E-14
   19.2800007        -3.57307635E-14
   19.3950005        -4.14182272E-14
   19.5100002        -4.66400193E-14
   19.6250000        -5.11814305E-14
   19.7399998        -5.48435334E-14
   19.8549995        -5.74525236E-14
   19.9699993        -5.88682884E-14
   20.0849991        -5.89916842E-14
   20.2000008        -5.77702491E-14
   20.3150005        -5.52019266E-14
   20.4300003        -5.13364782E-14
   20.5450001        -4.62747821E-14
   20.6599998        -4.01655705E-14
   20.7749996        -3.32000188E-14
   20.8899994        -2.56043372E-14
   21.0049992        -1.76304894E-14
   21.1200008        -9.54572928E-15
   21.2350006        -1.62125494E-15
   21.3500004         5.87946321E-15
   21.4650002         1.27120613E-14
   21.5799999         1.86618909E-14
   21.6949997         2.35533164E-14
   21.8099995         2.72572458E-14
   21.9249992         2.96964771E-14
   22.0400009         3.08487129E-14
   22.1550007         3.07469335E-14
   22.2700005         2.94772311E-14
   22.3850002         2.71741434E-14
   22.5000000         2.40137534E-14
   22.6149998         2.02047834E-14
   22.7299995         1.59782923E-14
   22.8449993         1.15762909E-14
   22.9599991         7.23996329E-15
   23.0750008         3.19793901E-15
   23.1900005        -3.44708528E-16
   23.3050003        -3.21635351E-15
   23.4200001        -5.28706446E-15
   23.5349998        -6.47481133E-15
   23.6499996        -6.74948378E-15
   23.7649994        -6.13445655E-15
   23.8799992        -4.70581012E-15
   23.9950008        -2.58907479E-15
   24.1100006         4.62208939E-17
   24.2250004         2.99355674E-15
   24.3400002         6.01831817E-15
   24.4549999         8.86764213E-15
   24.5699997         1.12808254E-14
   24.6849995         1.29999838E-14
   24.7999992         1.37805078E-14
   24.9150009         1.34006846E-14
   25.0300007         1.16704403E-14
   25.1450005         8.43864366E-15
   25.2600002         3.59896845E-15
   25.3750000        -2.90608195E-15
   25.4899998        -1.10824300E-14
   25.6049995        -2.08839158E-14
   25.7199993        -3.22130560E-14
   25.8349991        -4.49230497E-14
   25.9500008        -5.88216677E-14
   26.0650005        -7.36753052E-14
   26.1800003        -8.92147142E-14
   26.2950001        -1.05140655E-13
   26.4099998        -1.21130550E-13
   26.5249996        -1.36844691E-13
   26.6399994        -1.51933370E-13
   26.7549992        -1.66043164E-13
   26.8700008        -1.78823793E-13
   26.9850006        -1.89934711E-13
   27.1000004        -1.99051387E-13
   27.2150002        -2.05871263E-13
   27.3299999        -2.10119899E-13
   27.4449997        -2.11557009E-13
   27.5599995        -2.09981284E-13
   27.6749992        -2.05235839E-13
   27.7900009        -1.97212635E-13
   27.9050007        -1.85856240E-13
   28.0200005        -1.71166439E-13
   28.1350002        -1.53200667E-13
   28.2500000        -1.32073931E-13
   28.3649998        -1.07958157E-13
   28.4799995        -8.10792676E-14
   28.5949993        -5.17128658E-14
   28.7099991        -2.01777072E-14
   28.8250008         1.31728667E-14
   28.9400005         4.79607944E-14
   29.0550003         8.37953974E-14
   29.1700001         1.20286390E-13
   29.2849998         1.57058259E-13
   29.3999996         1.93764533E-13
   29.5149994         2.30102341E-13
   29.6299992         2.65826179E-13
   29.7450008         3.00759770E-13
   29.8600006         3.34806564E-13
   29.9750004         3.67956750E-13
   30.0900002         4.00291399E-13
   30.2049999         4.31982249E-13
   30.3199997         4.63287991E-13
   30.4349995         4.94545973E-13
   30.5499992         5.26159140E-13
   30.6650009         5.58579875E-13
   30.7800007         5.92289293E-13
   30.8950005         6.27774308E-13
   31.0100002         6.65502104E-13
   31.1250000         7.05893731E-13
   31.2399998         7.49297922E-13
   31.3549995         7.95965778E-13
   31.4699993         8.46028597E-13
   31.5849991         8.99479276E-13
   31.7000008         9.56157787E-13
   31.8150005         1.01574413E-12
   31.9300003         1.07775713E-12
   32.0449982         1.14155950E-12
   32.1599998         1.20637278E-12
   32.2750015         1.27129676E-12
   32.3899994         1.33533744E-12
   32.5050011         1.39744065E-12
   32.6199989         1.45653053E-12
   32.7350006         1.51155108E-12
   32.8499985         1.56150895E-12
   32.9650002         1.60551824E-12
   33.0800018         1.64284027E-12
   33.1949997         1.67292168E-12
   33.3100014         1.69542505E-12
   33.4249992         1.71025303E-12
   33.5400009         1.71756359E-12
   33.6549988         1.71777284E-12
   33.7700005         1.71154887E-12
   33.8849983         1.69979710E-12
   34.0000000         1.68362850E-12
   34.1150017         1.66432449E-12
   34.2299995         1.64328859E-12
   34.3450012         1.62199366E-12
   34.4599991         1.60192291E-12
   34.5750008         1.58450889E-12
   34.6899986         1.57107151E-12
   34.8050003         1.56276077E-12
   34.9199982         1.56050292E-12
   35.0349998         1.56495303E-12
   35.1500015         1.57646162E-12
   35.2649994         1.59504907E-12
   35.3800011         1.62039208E-12
   35.4949989         1.65182798E-12
   35.6100006         1.68836700E-12
   35.7249985         1.72872231E-12
   35.8400002         1.77134891E-12
   35.9550018         1.81449387E-12
   36.0699997         1.85625690E-12
   36.1850014         1.89465154E-12
   36.2999992         1.92767221E-12
   36.4150009         1.95336477E-12
   36.5299988         1.96988563E-12
   36.6450005         1.97556381E-12
   36.7599983         1.96894801E-12
   36.8750000         1.94884820E-12
   36.9900017         1.91436081E-12
   37.1049995         1.86488737E-12
   37.2200012         1.80012819E-12
   37.3349991         1.72007742E-12
   37.4500008         1.62499398E-12
   37.5649986         1.51536748E-12
   37.6800003         1.39187208E-12
   37.7949982         1.25531226E-12
   37.9099998         1.10657143E-12
   38.0250015         9.46554467E-13
   38.1399994         7.76125908E-13
   38.2550011         5.96062696E-13
   38.3699989         4.07005376E-13
   38.4850006         2.09424058E-13
   38.5999985         3.58675763E-15
   38.7150002        -2.10456435E-13
   38.8300018        -4.32879210E-13
   38.9449997        -6.64074047E-13
   39.0600014        -9.04636609E-13
   39.1749992        -1.15534275E-12
   39.2900009        -1.41711361E-12
   39.4049988        -1.69098134E-12
   39.5200005        -1.97804750E-12
   39.6349983        -2.27943662E-12
   39.7500000        -2.59625871E-12
   39.8650017        -2.92956609E-12
   39.9799995        -3.28031916E-12
   40.0950012        -3.64935339E-12
   40.2099991        -4.03735769E-12
   40.3250008        -4.44485204E-12
   40.4399986        -4.87217601E-12
   40.5550003        -5.31948357E-12
   40.6699982        -5.78673654E-12
   40.7849998        -6.27370985E-12
   40.9000015        -6.77999497E-12
   41.0149994        -7.30500729E-12
   41.1300011        -7.84798875E-12
   41.2449989        -8.40802167E-12
   41.3600006        -8.98402967E-12
   41.4749985        -9.57478367E-12
   41.5900002        -1.01789055E-11
   41.7050018        -1.07948719E-11
   41.8199997        -1.14210195E-11
   41.9350014        -1.20555467E-11
   42.0499992        -1.26965192E-11
   42.1650009        -1.33418814E-11
   42.2799988        -1.39894788E-11
   42.3950005        -1.46370589E-11
   42.5099983        -1.52823101E-11
   42.6250000        -1.59228949E-11
   42.7400017        -1.65564801E-11
   42.8549995        -1.71807828E-11
   42.9700012        -1.77936121E-11
   43.0849991        -1.83929226E-11
   43.2000008        -1.89768635E-11
   43.3149986        -1.95438110E-11
   43.4300003        -2.00924277E-11
   43.5449982        -2.06216710E-11
   43.6599998        -2.11308297E-11
   43.7750015        -2.16195169E-11
   43.8899994        -2.20876702E-11
   44.0050011        -2.25355169E-11
   44.1199989        -2.29635373E-11
   44.2350006        -2.33723995E-11
   44.3499985        -2.37628892E-11
   44.4650002        -2.41358166E-11
   44.5800018        -2.44919258E-11
   44.6949997        -2.48317894E-11
   44.8100014        -2.51557074E-11
   44.9249992        -2.54636052E-11
   45.0400009        -2.57549416E-11
   45.1549988        -2.60286497E-11
   45.2700005        -2.62830660E-11
   45.3849983        -2.65158815E-11
   45.5000000        -2.67241732E-11
   45.6150017        -2.69043902E-11
   45.7299995        -2.70524176E-11
   45.8450012        -2.71636411E-11
   45.9599991        -2.72330613E-11
   46.0750008        -2.72554045E-11
   46.1899986        -2.72252637E-11
   46.3050003        -2.71372490E-11
   46.4199982        -2.69861702E-11
   46.5349998        -2.67671441E-11
   46.6500015        -2.64757730E-11
   46.7649994        -2.61082753E-11
   46.8800011        -2.56615649E-11
   46.9949989        -2.51333503E-11
   47.1100006        -2.45221829E-11
   47.2249985        -2.38274331E-11
   47.3400002        -2.30492882E-11
   47.4550018        -2.21886606E-11
   47.5699997        -2.12470892E-11
   47.6850014        -2.02266034E-11
   47.7999992        -1.91295400E-11
   47.9150009        -1.79583605E-11
   48.0299988        -1.67154623E-11
   48.1450005        -1.54029411E-11
   48.2599983        -1.40224204E-11
   48.3750000        -1.25748353E-11
   48.4900017        -1.10602794E-11
   48.6049995        -9.47788983E-12
   48.7200012        -7.82571490E-12
   48.8349991        -6.10069504E-12
   48.9500008        -4.29865085E-12
   49.0649986        -2.41433219E-12
   49.1800003        -4.41519000E-13
   49.2949982         1.62683658E-12
   49.4099998         3.79840864E-12
   49.5250015         6.08126483E-12
   49.6399994         8.48362092E-12
   49.7550011         1.10135321E-11
   49.8699989         1.36786294E-11
   49.9850006         1.64858179E-11
   50.0999985         1.94409870E-11
   50.2150002         2.25487684E-11
   50.3300018         2.58122846E-11
   50.4449997         2.92329980E-11
   50.5600014         3.28105598E-11
   50.6749992         3.65427515E-11
   50.7900009         4.04254338E-11
   50.9049988         4.44526360E-11
   51.0200005         4.86166246E-11
   51.1349983         5.29080529E-11
   51.2500000         5.73162282E-11
   51.3650017         6.18293264E-11
   51.4799995         6.64346703E-11
   51.5950012         7.11190690E-11
   51.7099991         7.58691443E-11
   51.8250008         8.06716222E-11
   51.9399986         8.55136795E-11
   52.0550003         9.03832217E-11
   52.1699982         9.52691051E-11
   52.2849998         1.00161358E-10
   52.4000015         1.05051336E-10
   52.5149994         1.09931821E-10
   52.6300011         1.14796971E-10
   52.7449989         1.19642365E-10
   52.8600006         1.24464911E-10
   52.9749985         1.29262573E-10
   53.0900002         1.34034298E-10
   53.2050018         1.38779627E-10
   53.3199997         1.43498533E-10
   53.4350014         1.48190987E-10
   53.5499992         1.52856755E-10
   53.6650009         1.57494989E-10
   53.7799988         1.62103941E-10
   53.8950005         1.66680753E-10
   54.0099983         1.71221148E-10
   54.1250000         1.75719314E-10
   54.2400017         1.80167686E-10
   54.3549995         1.84556939E-10
   54.4700012         1.88875998E-10
   54.5849991         1.93112026E-10
   54.7000008         1.97250577E-10
   54.8149986         2.01275746E-10
   54.9300003         2.05170422E-10
   55.0449982         2.08916454E-10
   55.1599998         2.12495022E-10
   55.2750015         2.15886864E-10
   55.3899994         2.19072607E-10
   55.5050011         2.22032948E-10
   55.6199989         2.24749191E-10
   55.7350006         2.27203173E-10
   55.8499985         2.29377503E-10
   55.9650002         2.31256014E-10
   56.0800018         2.32823455E-10
   56.1949997         2.34065739E-10
   56.3100014         2.34969932E-10
   56.4249992         2.35524072E-10
   56.5400009         2.35717085E-10
   56.6549988         2.35538644E-10
   56.7700005         2.34978814E-10
   56.8849983         2.34028019E-10
   57.0000000         2.32676406E-10
   57.1150017         2.30913857E-10
   57.2299995         2.28729535E-10
   57.3450012         2.26111602E-10
   57.4599991         2.23046928E-10
   57.5750008         2.19520846E-10
   57.6899986         2.15516993E-10
   57.8050003         2.11016968E-10
   57.9199982         2.06000370E-10
   58.0349998         2.00444647E-10
   58.1500015         1.94325153E-10
   58.2649994         1.87615160E-10
   58.3800011         1.80286022E-10
   58.4949989         1.72307349E-10
   58.6100006         1.63647290E-10
   58.7249985         1.54272831E-10
   58.8400002         1.44150247E-10
   58.9550018         1.33245387E-10
   59.0699997         1.21524263E-10
   59.1850014         1.08953471E-10
   59.2999992         9.55006907E-11
   59.4150009         8.11352374E-11
   59.5299988         6.58285024E-11
   59.6450005         4.95544751E-11
   59.7599983         3.22902122E-11
   59.8750000         1.40161598E-11
   59.9900017        -5.28340566E-12
   60.1049995        -2.56201588E-11
   60.2200012        -4.70014791E-11
   60.3349991        -6.94303157E-11
   60.4500008        -9.29051419E-11
   60.5649986        -1.17419990E-10
   60.6800003        -1.42964557E-10
   60.7949982        -1.69524381E-10
   60.9099998        -1.97081101E-10
   61.0250015        -2.25612806E-10
   61.1399994        -2.55094224E-10
   61.2550011        -2.85497515E-10
   61.3699989        -3.16792148E-10
   61.4850006        -3.48945733E-10
   61.5999985        -3.81924437E-10
   61.7150002        -4.15693036E-10
   61.8300018        -4.50215476E-10
   61.9449997        -4.85455176E-10
   62.0600014        -5.21375276E-10
   62.1749992        -5.57938529E-10
   62.2900009        -5.95107630E-10
   62.4049988        -6.32845110E-10
   62.5200005        -6.71112943E-10
   62.6349983        -7.09872661E-10
   62.7500000        -7.49085016E-10
   62.8650017        -7.88709487E-10
   62.9799995        -8.28704161E-10
   63.0950012        -8.69024797E-10
   63.2099991        -9.09625097E-10
   63.3250008        -9.50455270E-10
   63.4399986        -9.91462468E-10
   63.5550003        -1.03259012E-09
   63.6699982        -1.07377707E-09
   63.7849998        -1.11495779E-09
   63.9000015        -1.15606236E-09
   64.0149994        -1.19701515E-09
   64.1299973        -1.23773636E-09
   64.2450027        -1.27814059E-09
   64.3600006        -1.31813793E-09
   64.4749985        -1.35763323E-09
   64.5899963        -1.39652745E-09
   64.7050018        -1.43471690E-09
   64.8199997        -1.47209445E-09
   64.9349976        -1.50854906E-09
   65.0500031        -1.54396729E-09
   65.1650009        -1.57823277E-09
   65.2799988        -1.61122660E-09
   65.3949966        -1.64282854E-09
   65.5100021        -1.67291658E-09
   65.6250000        -1.70136749E-09
   65.7399979        -1.72805670E-09
   65.8550034        -1.75285952E-09
   65.9700012        -1.77564963E-09
   66.0849991        -1.79630000E-09
   66.1999969        -1.81468340E-09
   66.3150024        -1.83067073E-09
   66.4300003        -1.84413262E-09
   66.5449982        -1.85493809E-09
   66.6600037        -1.86295468E-09
   66.7750015        -1.86804860E-09
   66.8899994        -1.87008387E-09
   67.0049973        -1.86892324E-09
   67.1200027        -1.86442706E-09
   67.2350006        -1.85645377E-09
   67.3499985        -1.84486004E-09
   67.4649963        -1.82950088E-09
   67.5800018        -1.81022908E-09
   67.6949997        -1.78689707E-09
   67.8099976        -1.75935533E-09
   67.9250031        -1.72745529E-09
   68.0400009        -1.69104797E-09
   68.1549988        -1.64998515E-09
   68.2699966        -1.60412095E-09
   68.3850021        -1.55331170E-09
   68.5000000        -1.49741752E-09
   68.6149979        -1.43630285E-09
   68.7300034        -1.36983802E-09
   68.8450012        -1.29789990E-09
   68.9599991        -1.22037269E-09
   69.0749969        -1.13714993E-09
   69.1900024        -1.04813480E-09
   69.3050003        -9.53241486E-10
   69.4199982        -8.52396209E-10
   69.5350037        -7.45538020E-10
   69.6500015        -6.32620067E-10
   69.7649994        -5.13610265E-10
   69.8799973        -3.88491905E-10
   69.9950027        -2.57264876E-10
   70.1100006        -1.19945553E-10
   70.2249985         2.34319092E-11
   70.3399963         1.72816095E-10
   70.4550018         3.28137240E-10
   70.5699997         4.89307428E-10
   70.6849976         6.56220744E-10
   70.8000031         8.28753011E-10
   70.9150009         1.00676223E-09
   71.0299988         1.19008881E-09
   71.1449966         1.37855560E-09
   71.2600021         1.57196889E-09
   71.3750000         1.77011872E-09
   71.4899979         1.97277950E-09
   71.6050034         2.17970975E-09
   71.7200012         2.39065434E-09
   71.8349991         2.60534350E-09
   71.9499969         2.82349366E-09
   72.0650024         3.04480974E-09
   72.1800003         3.26898175E-09
   72.2949982         3.49568952E-09
   72.4100037         3.72459996E-09
   72.5250015         3.95536803E-09
   72.6399994         4.18763779E-09
   72.7549973         4.42103998E-09
   72.8700027         4.65519534E-09
   72.9850006         4.88971130E-09
   73.0999985         5.12418463E-09
   73.2149963         5.35819789E-09
   73.3300018         5.59132340E-09
   73.4449997         5.82311976E-09
   73.5599976         6.05313355E-09
   73.6750031         6.28089847E-09
   73.7900009         6.50593757E-09
   73.9049988         6.72776057E-09
   74.0199966         6.94586610E-09
   74.1350021         7.15974391E-09