  -18.8999996         0.00000000    
  -18.7849998         0.00000000    
  -18.6700001         0.00000000    
  -18.5550003         0.00000000    
  -18.4400005         0.00000000    
  -18.3250008         0.00000000    
  -18.2099991         0.00000000    
  -18.0949993         0.00000000    
  -17.9799995         0.00000000    
  -17.8649998         0.00000000    
  -17.7500000         0.00000000    
  -17.6350002         0.00000000    
  -17.5200005         0.00000000    
  -17.4050007         0.00000000    
  -17.2900009         0.00000000    
  -17.1749992         0.00000000    
  -17.0599995         0.00000000    
  -16.9449997         0.00000000    
  -16.8299999         0.00000000    
  -16.7150002         0.00000000    
  -16.6000004         3.22893467E-34
  -16.4850006         2.84631410E-33
  -16.3700008         1.20801161E-32
  -16.2549992         3.32372615E-32
  -16.1399994         7.15945120E-32
  -16.0249996         1.40311355E-31
  -15.9099998         2.39080034E-31
  -15.7950001         3.67033770E-31
  -15.6800003         5.25171661E-31
  -15.5649996         7.00279083E-31
  -15.4499998         1.13155710E-30
  -15.3350000         2.44981731E-30
  -15.2200003         5.47033882E-30
  -15.1049995         1.09442594E-29
  -14.9899998         1.93781895E-29
  -14.8750000         3.06617075E-29
  -14.7600002         4.31911577E-29
  -14.6450005         5.30813075E-29
  -14.5299997         5.33259367E-29
  -14.4150000         3.23786108E-29
  -14.3000002        -2.60631736E-29
  -14.1850004        -1.41984996E-28
  -14.0699997        -3.35885047E-28
  -13.9549999        -6.22118898E-28
  -13.8400002        -9.98871817E-28
  -13.7250004        -1.43455896E-27
  -13.6099997        -1.85212850E-27
  -13.4949999        -2.11373643E-27
  -13.3800001        -2.01093279E-27
  -13.2650003        -1.26619860E-27
  -13.1499996         4.45836123E-28
  -13.0349998         3.45006507E-27
  -12.9200001         7.98887913E-27
  -12.8050003         1.41038284E-26
  -12.6899996         2.14859133E-26
  -12.5749998         2.93087772E-26
  -12.4600000         3.60725508E-26
  -12.3450003         3.94999696E-26
  -12.2299995         3.65406349E-26
  -12.1149998         2.35493022E-26
  -12.0000000        -3.29374927E-27
  -11.8850002        -4.72632114E-26
  -11.7700005        -1.10042448E-25
  -11.6549997        -1.90375432E-25
  -11.5400000        -2.82519662E-25
  -11.4250002        -3.74705208E-25
  -11.3100004        -4.47923259E-25
  -11.1949997        -4.75487686E-25
  -11.0799999        -4.23910037E-25
  -10.9650002        -2.55671816E-25
  -10.8500004         6.55756466E-26
  -10.7349997         5.67042636E-25
  -10.6199999         1.25607807E-24
  -10.5050001         2.10725830E-24
  -10.3900003         3.04858807E-24
  -10.2749996         3.94897537E-24
  -10.1599998         4.61005462E-24
  -10.0450001         4.76622146E-24
  -9.93000031         4.09720944E-24
  -9.81499958         2.25748384E-24
  -9.69999981        -1.07420136E-24
  -9.58500004        -6.12360811E-24
  -9.47000027        -1.29298318E-23
  -9.35499954        -2.12400389E-23
  -9.23999977        -3.04012352E-23
  -9.12500000        -3.92660375E-23
  -9.01000023        -4.61349744E-23
  -8.89500046        -4.87622346E-23
  -8.77999973        -4.44539055E-23
  -8.66499996        -3.02860110E-23
  -8.55000019        -3.46280395E-24
  -8.43500042         3.81770213E-23
  -8.31999969         9.55182193E-23
  -8.20499992         1.67429101E-22
  -8.09000015         2.49993075E-22
  -7.97499990         3.35814629E-22
  -7.86000013         4.13535629E-22
  -7.74499989         4.67721664E-22
  -7.63000011         4.79292499E-22
  -7.51499987         4.26660356E-22
  -7.40000010         2.87706155E-22
  -7.28499985         4.26553847E-23
  -7.17000008        -3.22186192E-22
  -7.05499983        -8.10012576E-22
  -6.94000006        -1.40875008E-21
  -6.82499981        -2.08645445E-21
  -6.71000004        -2.78755363E-21
  -6.59499979        -3.43075138E-21
  -6.48000002        -3.90948741E-21
  -6.36499977        -4.09582600E-21
  -6.25000000        -3.84851192E-21
  -6.13500023        -3.02564331E-21
  -6.01999998        -1.50198076E-21
  -5.90500021         8.09670273E-22
  -5.78999996         3.93426648E-21
  -5.67500019         7.80953899E-21
  -5.55999994         1.22629760E-20
  -5.44500017         1.69941688E-20
  -5.32999992         2.15663256E-20
  -5.21500015         2.54108220E-20
  -5.09999990         2.78483116E-20
  -4.98500013         2.81289811E-20
  -4.86999989         2.54931394E-20
  -4.75500011         1.92513234E-20
  -4.63999987         8.88067245E-21
  -4.52500010        -5.86838358E-21
  -4.40999985        -2.48638521E-20
  -4.29500008        -4.74935507E-20
  -4.17999983        -7.25892928E-20
  -4.06500006        -9.83880738E-20
  -3.95000005        -1.22544055E-19
  -3.83500004        -1.42203437E-19
  -3.72000003        -1.54150691E-19
  -3.60500002        -1.55029234E-19
  -3.49000001        -1.41633057E-19
  -3.37500000        -1.11257356E-19
  -3.25999999        -6.20879894E-20
  -3.14499998         6.39961004E-21
  -3.02999997         9.30683202E-20
  -2.91499996         1.94816634E-19
  -2.79999995         3.06390103E-19
  -2.68499994         4.20350543E-19
  -2.56999993         5.27241355E-19
  -2.45499992         6.15976070E-19
  -2.33999991         6.74462495E-19
  -2.22499990         6.90454947E-19
  -2.10999990         6.52604351E-19
  -1.99500000         5.51652231E-19
  -1.88000000         3.81689000E-19
  -1.76499999         1.41378246E-19
  -1.64999998        -1.64969231E-19
  -1.53499997        -5.26595637E-19
  -1.41999996        -9.25892728E-19
  -1.30499995        -1.33850489E-18
  -1.19000006        -1.73402523E-18
  -1.07500005        -2.07733217E-18
 -0.959999979        -2.33057104E-18
 -0.845000029        -2.45572925E-18
 -0.730000019        -2.41769301E-18
 -0.615000010        -2.18761954E-18
 -0.500000000        -1.74640058E-18
 -0.384999990        -1.08795199E-18
 -0.270000011        -2.22037688E-19
 -0.155000001         8.23677037E-19
  -3.99999991E-02     2.00262701E-18
   7.50000030E-02     3.24965390E-18
  0.189999998         4.48280152E-18
  0.305000007         5.60669926E-18
  0.419999987         6.51751941E-18
  0.535000026         7.10939237E-18
  0.649999976         7.28201835E-18
  0.764999986         6.94909883E-18
  0.879999995         6.04710594E-18
  0.995000005         4.54380485E-18
   1.11000001         2.44587443E-18
   1.22500002        -1.95037414E-19
   1.34000003        -3.27850637E-18
   1.45500004        -6.65436528E-18
   1.57000005        -1.01250993E-17
   1.68499994        -1.34519478E-17
   1.79999995        -1.63648883E-17
   1.91499996        -1.85764185E-17
   2.02999997        -1.97988459E-17
   2.14499998        -1.97644451E-17
   2.25999999        -1.82476341E-17
   2.37500000        -1.50880225E-17
   2.49000001        -1.02129203E-17
   2.60500002        -3.65777985E-18
   2.72000003         4.41717756E-18
   2.83500004         1.37158416E-17
   2.95000005         2.38022859E-17
   3.06500006         3.41055235E-17
   3.18000007         4.39341067E-17
   3.29500008         5.25013024E-17
   3.41000009         5.89610238E-17
   3.52500010         6.24540355E-17
   3.64000010         6.21631193E-17
   3.75500011         5.73751597E-17
   3.86999989         4.75473011E-17
   3.98499990         3.23734702E-17
   4.09999990         1.18470520E-17
   4.21500015        -1.36850415E-17
   4.32999992        -4.34819467E-17
   4.44500017        -7.63869400E-17
   4.55999994        -1.10828564E-16
   4.67500019        -1.44848510E-16
   4.78999996        -1.76159070E-16
   4.90500021        -2.02230890E-16
   5.01999998        -2.20410943E-16
   5.13500023        -2.28067565E-16
   5.25000000        -2.22758098E-16
   5.36499977        -2.02412155E-16
   5.48000002        -1.65521620E-16
   5.59499979        -1.11326692E-16
   5.71000004        -3.99862384E-17
   5.82499981         4.72800854E-17
   5.94000006         1.48090648E-16
   6.05499983         2.58853560E-16
   6.17000008         3.74781215E-16
   6.28499985         4.89976320E-16
   6.40000010         5.97593550E-16
   6.51499987         6.90078960E-16
   6.63000011         7.59483145E-16
   6.74499989         7.97841932E-16
   6.86000013         7.97611328E-16
   6.97499990         7.52141434E-16
   7.09000015         6.56168155E-16
   7.20499992         5.06299756E-16
   7.32000017         3.01471837E-16
   7.43499994         4.33441020E-17
   7.55000019        -2.63388574E-16
   7.66499996        -6.10796676E-16
   7.78000021        -9.87650475E-16
   7.89499998        -1.37950835E-15
   8.01000023        -1.76897092E-15
   8.12500000        -2.13611037E-15
   8.23999977        -2.45907175E-15
   8.35499954        -2.71484245E-15
   8.47000027        -2.88016740E-15
   8.58500004        -2.93259345E-15
   8.69999981        -2.85160227E-15
   8.81499958        -2.61979964E-15
   8.93000031        -2.22411158E-15
   9.04500008        -1.65693991E-15
   9.15999985        -9.17220638E-16
   9.27499962        -1.13355218E-17
   9.39000034         1.04618109E-15
   9.50500011         2.23218974E-15
   9.61999989         3.51479286E-15
   9.73499966         4.85352166E-15
   9.85000038         6.19989408E-15
   9.96500015         7.49835747E-15
   10.0799999         8.68763069E-15
   10.1949997         9.70243122E-15
   10.3100004         1.04755648E-14
   10.4250002         1.09403351E-14
   10.5400000         1.10332318E-14
   10.6549997         1.06968013E-14
   10.7700005         9.88263579E-15
   10.8850002         8.55435345E-15
   11.0000000         6.69048921E-15
   11.1149998         4.28714080E-15
   11.2299995         1.36026588E-15
   11.3450003        -2.05250949E-15
   11.4600000        -5.89069148E-15
   11.5749998        -1.00704425E-14
   11.6899996        -1.44849292E-14
   11.8050003        -1.90055779E-14
   11.9200001        -2.34842815E-14
   12.0349998        -2.77565836E-14
   12.1499996        -3.16458387E-14
   12.2650003        -3.49682644E-14
   12.3800001        -3.75387960E-14
   12.4949999        -3.91776455E-14
   12.6099997        -3.97172970E-14
   12.7250004        -3.90098008E-14
   12.8400002        -3.69340348E-14
   12.9549999        -3.34027070E-14
   13.0699997        -2.83687529E-14
   13.1850004        -2.18308495E-14
   13.3000002        -1.38376901E-14
   13.4150000        -4.49078784E-15
   13.5299997         6.05446953E-15
   13.6450005         1.75897183E-14
   13.7600002         2.98566070E-14
   13.8750000         4.25519435E-14
   13.9899998         5.53349514E-14
   14.1049995         6.78365919E-14
   14.2200003         7.96706451E-14
   14.3350000         9.04463136E-14
   14.4499998         9.97819245E-14
   14.5649996         1.07319271E-13
   14.6800003         1.12737964E-13
   14.7950001         1.15769360E-13
   14.9099998         1.16209221E-13
   15.0249996         1.13928764E-13
   15.1400003         1.08883199E-13
   15.2550001         1.01117540E-13
   15.3699999         9.07689925E-14
   15.4849997         7.80657209E-14
   15.6000004         6.33218182E-14
   15.7150002         4.69284273E-14
   15.8299999         2.93410688E-14
   15.9449997         1.10636902E-14
   16.0599995        -7.37026322E-15
   16.1749992        -2.54189776E-14
   16.2900009        -4.25548438E-14
   16.4050007        -5.82875558E-14
   16.5200005        -7.21867431E-14
   16.6350002        -8.39030587E-14
   16.7500000        -9.31867701E-14
   16.8649998        -9.99028266E-14
   16.9799995        -1.04041470E-13
   17.0949993        -1.05723854E-13
   17.2099991        -1.05201966E-13
   17.3250008        -1.02852602E-13
   17.4400005        -9.91653726E-14
   17.5550003        -9.47249481E-14
   17.6700001        -9.01880296E-14
   17.7849998        -8.62558248E-14
   17.8999996        -8.36429992E-14
   18.0149994        -8.30443705E-14
   18.1299992        -8.51006480E-14
   18.2450008        -9.03647952E-14
   18.3600006        -9.92704996E-14
   18.4750004        -1.12104255E-13
   18.5900002        -1.28982491E-13
   18.7049999        -1.49835033E-13
   18.8199997        -1.74395939E-13
   18.9349995        -2.02202431E-13
   19.0499992        -2.32602403E-13
   19.1650009        -2.64770682E-13
   19.2800007        -2.97733328E-13
   19.3950005        -3.30400150E-13
   19.5100002        -3.61603407E-13
   19.6250000        -3.90142020E-13
   19.7399998        -4.14829656E-13
   19.8549995        -4.34544273E-13
   19.9699993        -4.48277808E-13
   20.0849991        -4.55183471E-13
   20.2000008        -4.54618819E-13
   20.3150005        -4.46182723E-13
   20.4300003        -4.29744212E-13
   20.5450001        -4.05462095E-13
   20.6599998        -3.73794040E-13
   20.7749996        -3.35494301E-13
   20.8899994        -2.91600077E-13
   21.0049992        -2.43406478E-13
   21.1200008        -1.92430747E-13
   21.2350006        -1.40367129E-13
   21.3500004        -8.90332458E-14
   21.4650002        -4.03106029E-14
   21.5799999         3.91915411E-15
   21.6949997         4.18396159E-14
   21.8099995         7.17642905E-14
   21.9249992         9.21978897E-14
   22.0400009         1.01891958E-13
   22.1550007         9.98925335E-14
   22.2700005         8.55778190E-14
   22.3850002         5.86843603E-14
   22.5000000         1.93203336E-14
   22.6149998        -3.20346743E-14
   22.7299995        -9.45436356E-14
   22.8449993        -1.67039492E-13
   22.9599991        -2.48065267E-13
   23.0750008        -3.35925488E-13
   23.1900005        -4.28747153E-13
   23.3050003        -5.24547961E-13
   23.4200001        -6.21309861E-13
   23.5349998        -7.17053858E-13
   23.6499996        -8.09915449E-13
   23.7649994        -8.98215204E-13
   23.8799992        -9.80524039E-13
   23.9950008        -1.05571866E-12
   24.1100006        -1.12302658E-12
   24.2250004        -1.18205684E-12
   24.3400002        -1.23281756E-12
   24.4549999        -1.27571629E-12
   24.5699997        -1.31154560E-12
   24.6849995        -1.34145158E-12
   24.7999992        -1.36688848E-12
   24.9150009        -1.38955947E-12
   25.0300007        -1.41134478E-12
   25.1450005        -1.43422188E-12
   25.2600002        -1.46017855E-12
   25.3750000        -1.49112255E-12
   25.4899998        -1.52879196E-12
   25.6049995        -1.57466900E-12
   25.7199993        -1.62990042E-12
   25.8349991        -1.69522859E-12
   25.9500008        -1.77093583E-12
   26.0650005        -1.85680464E-12
   26.1800003        -1.95209582E-12
   26.2950001        -2.05554627E-12
   26.4099998        -2.16538636E-12
   26.5249996        -2.27937829E-12
   26.6399994        -2.39487249E-12
   26.7549992        -2.50888416E-12
   26.8700008        -2.61818301E-12
   26.9850006        -2.71939871E-12
   27.1000004        -2.80913227E-12
   27.2150002        -2.88407557E-12
   27.3299999        -2.94112976E-12
   27.4449997        -2.97752253E-12
   27.5599995        -2.99091437E-12
   27.6749992        -2.97949447E-12
   27.7900009        -2.94205957E-12
   27.9050007        -2.87807278E-12
   28.0200005        -2.78769889E-12
   28.1350002        -2.67181438E-12
   28.2500000        -2.53199284E-12
   28.3649998        -2.37046125E-12
   28.4799995        -2.19003179E-12
   28.5949993        -1.99400869E-12
   28.7099991        -1.78607509E-12
   28.8250008        -1.57015980E-12
   28.9400005        -1.35029184E-12
   29.0550003        -1.13044752E-12
   29.1700001        -9.14392802E-13
   29.2849998        -7.05529819E-13
   29.3999996        -5.06752518E-13
   29.5149994        -3.20316527E-13
   29.6299992        -1.47728482E-13
   29.7450008         1.03389570E-14
   29.8600006         1.54104011E-13
   29.9750004         2.84700974E-13
   30.0900002         4.04171732E-13
   30.2049999         5.15422937E-13
   30.3199997         6.22149576E-13
   30.4349995         7.28726704E-13
   30.5499992         8.40071827E-13
   30.6650009         9.61482738E-13
   30.7800007         1.09845618E-12
   30.8950005         1.25649198E-12
   31.0100002         1.44089146E-12
   31.1250000         1.65655521E-12
   31.2399998         1.90778860E-12
   31.3549995         2.19812233E-12
   31.4699993         2.53015447E-12
   31.5849991         2.90542005E-12
   31.7000008         3.32429353E-12
   31.8150005         3.78593077E-12
   31.9300003         4.28824944E-12
   32.0449982         4.82795271E-12
   32.1599998         5.40059707E-12
   32.2750015         6.00070037E-12
   32.3899994         6.62188967E-12
   32.5050011         7.25708339E-12
   32.6199989         7.89870253E-12
   32.7350006         8.53890656E-12
   32.8499985         9.16983937E-12
   32.9650002         9.78388637E-12
   33.0800018         1.03739274E-11
   33.1949997         1.09335787E-11
   33.3100014         1.14574114E-11
   33.4249992         1.19411460E-11
   33.5400009         1.23818065E-11
   33.6549988         1.27778317E-11
   33.7700005         1.31291401E-11
   33.8849983         1.34371420E-11
   34.0000000         1.37046945E-11
   34.1150017         1.39360025E-11
   34.2299995         1.41364732E-11
   34.3450012         1.43125130E-11
   34.4599991         1.44712879E-11
   34.5750008         1.46204403E-11
   34.6899986         1.47677825E-11
   34.8050003         1.49209811E-11
   34.9199982         1.50872093E-11
   35.0349998         1.52728385E-11
   35.1500015         1.54831235E-11
   35.2649994         1.57219186E-11
   35.3800011         1.59914356E-11
   35.4949989         1.62920632E-11
   35.6100006         1.66222158E-11
   35.7249985         1.69782851E-11
   35.8400002         1.73546160E-11
   35.9550018         1.77436035E-11
   36.0699997         1.81358227E-11
   36.1850014         1.85202461E-11
   36.2999992         1.88845311E-11
   36.4150009         1.92153515E-11
   36.5299988         1.94987845E-11
   36.6450005         1.97207355E-11
   36.7599983         1.98673803E-11
   36.8750000         1.99256219E-11
   36.9900017         1.98835341E-11
   37.1049995         1.97307812E-11
   37.2200012         1.94590125E-11
   37.3349991         1.90621859E-11
   37.4500008         1.85368335E-11
   37.5649986         1.78822547E-11
   37.6800003         1.71006143E-11
   37.7949982         1.61969396E-11
   37.9099998         1.51790525E-11
   38.0250015         1.40573646E-11
   38.1399994         1.28446082E-11
   38.2550011         1.15554701E-11
   38.3699989         1.02061450E-11
   38.4850006         8.81384115E-12
   38.5999985         7.39621992E-12
   38.7150002         5.97081802E-12
   38.8300018         4.55445490E-12
   38.9449997         3.16265438E-12
   39.0600014         1.80909335E-12
   39.1749992         5.05104097E-13
   39.2900009        -7.40748446E-13
   39.4049988        -1.92301101E-12
   39.5200005        -3.03957445E-12
   39.6349983        -4.09179114E-12
   39.7500000        -5.08447798E-12
   39.8650017        -6.02578664E-12
   39.9799995        -6.92695033E-12
   40.0950012        -7.80190669E-12
   40.2099991        -8.66681640E-12
   40.3250008        -9.53948032E-12
   40.4399986        -1.04386708E-11
   40.5550003        -1.13834202E-11
   40.6699982        -1.23922530E-11
   40.7849998        -1.34824270E-11
   40.9000015        -1.46691843E-11
   41.0149994        -1.59650470E-11
   41.1300011        -1.73791866E-11
   41.2449989        -1.89168872E-11
   41.3600006        -2.05791304E-11
   41.4749985        -2.23623186E-11
   41.5900002        -2.42581268E-11
   41.7050018        -2.62535566E-11
   41.8199997        -2.83311152E-11
   41.9350014        -3.04691689E-11
   42.0499992        -3.26424582E-11
   42.1650009        -3.48227315E-11
   42.2799988        -3.69795271E-11
   42.3950005        -3.90810127E-11
   42.5099983        -4.10949295E-11
   42.6250000        -4.29895355E-11
   42.7400017        -4.47345876E-11
   42.8549995        -4.63022502E-11
   42.9700012        -4.76679460E-11
   43.0849991        -4.88111322E-11
   43.2000008        -4.97158842E-11
   43.3149986        -5.03714015E-11
   43.4300003        -5.07722649E-11
   43.5449982        -5.09185229E-11
   43.6599998        -5.08156052E-11
   43.7750015        -5.04739826E-11
   43.8899994        -4.99086952E-11
   44.0050011        -4.91386480E-11
   44.1199989        -4.81858130E-11
   44.2350006        -4.70742403E-11
   44.3499985        -4.58290350E-11
   44.4650002        -4.44752429E-11
   44.5800018        -4.30367651E-11
   44.6949997        -4.15352752E-11
   44.8100014        -3.99892237E-11
   44.9249992        -3.84129534E-11
   45.0400009        -3.68159739E-11
   45.1549988        -3.52024278E-11
   45.2700005        -3.35707538E-11
   45.3849983        -3.19135725E-11
   45.5000000        -3.02178213E-11
   45.6150017        -2.84651296E-11
   45.7299995        -2.66324081E-11
   45.8450012        -2.46926490E-11
   45.9599991        -2.26159213E-11
   46.0750008        -2.03704935E-11
   46.1899986        -1.79240893E-11
   46.3050003        -1.52451905E-11
   46.4199982        -1.23043650E-11
   46.5349998        -9.07554500E-12
   46.6500015        -5.53723473E-12
   46.7649994        -1.67358878E-12
   46.8800011         2.52470245E-12
   46.9949989         7.05971306E-12
   47.1100006         1.19258388E-11
   47.2249985         1.71096262E-11
   47.3400002         2.25898310E-11
   47.4550018         2.83378165E-11
   47.5699997         3.43181629E-11
   47.6850014         4.04895423E-11
   47.7999992         4.68058196E-11
   47.9150009         5.32173298E-11
   48.0299988         5.96722671E-11
   48.1450005         6.61182151E-11
   48.2599983         7.25036350E-11
   48.3750000         7.87794274E-11
   48.4900017         8.49003229E-11
   48.6049995         9.08261799E-11
   48.7200012         9.65231159E-11
   48.8349991         1.01964395E-10
   48.9500008         1.07131026E-10
   49.0649986         1.12012129E-10
   49.1800003         1.16604976E-10
   49.2949982         1.20914681E-10
   49.4099998         1.24953686E-10
   49.5250015         1.28740782E-10
   49.6399994         1.32300115E-10
   49.7550011         1.35659747E-10
   49.8699989         1.38850181E-10
   49.9850006         1.41902740E-10
   50.0999985         1.44847828E-10
   50.2150002         1.47713272E-10
   50.3300018         1.50522650E-10
   50.4449997         1.53293808E-10
   50.5600014         1.56037558E-10
   50.6749992         1.58756605E-10
   50.7900009         1.61444663E-10
   50.9049988         1.64086120E-10
   51.0200005         1.66655773E-10
   51.1349983         1.69119080E-10
   51.2500000         1.71432799E-10
   51.3650017         1.73545872E-10
   51.4799995         1.75400611E-10
   51.5950012         1.76934259E-10
   51.7099991         1.78080758E-10
   51.8250008         1.78772622E-10
   51.9399986         1.78943013E-10
   52.0550003         1.78527790E-10
   52.1699982         1.77467582E-10
   52.2849998         1.75709669E-10
   52.4000015         1.73209835E-10
   52.5149994         1.69933845E-10
   52.6300011         1.65858688E-10
   52.7449989         1.60973485E-10
   52.8600006         1.55279983E-10
   52.9749985         1.48792687E-10
   53.0900002         1.41538586E-10
   53.2050018         1.33556305E-10
   53.3199997         1.24895247E-10
   53.4350014         1.15613900E-10
   53.5499992         1.05778282E-10
   53.6650009         9.54598137E-11
   53.7799988         8.47331996E-11
   53.8950005         7.36741432E-11
   54.0099983         6.23570570E-11
   54.1250000         5.08527560E-11
   54.2400017         3.92264242E-11
   54.3549995         2.75356977E-11
   54.4700012         1.58290672E-11
   54.5849991         4.14463906E-12
   54.7000008        -7.49071031E-12
   54.8149986        -1.90617314E-11
   54.9300003        -3.05647452E-11
   55.0449982        -4.20071686E-11
   55.1599998        -5.34065119E-11
   55.2750015        -6.47889936E-11
   55.3899994        -7.61877852E-11
   55.5050011        -8.76409154E-11
   55.6199989        -9.91888932E-11
   55.7350006        -1.10872173E-10
   55.8499985        -1.22728605E-10
   55.9650002        -1.34790706E-10
   56.0800018        -1.47083221E-10
   56.1949997        -1.59620733E-10
   56.3100014        -1.72405659E-10
   56.4249992        -1.85426494E-10
   56.5400009        -1.98656563E-10
   56.6549988        -2.12053167E-10
   56.7700005        -2.25557378E-10
   56.8849983        -2.39094244E-10
   57.0000000        -2.52573573E-10
   57.1150017        -2.65891364E-10
   57.2299995        -2.78931628E-10
   57.3450012        -2.91568630E-10
   57.4599991        -3.03669728E-10
   57.5750008        -3.15098336E-10
   57.6899986        -3.25717231E-10
   57.8050003        -3.35391881E-10
   57.9199982        -3.43993972E-10
   58.0349998        -3.51404600E-10
   58.1500015        -3.57517488E-10
   58.2649994        -3.62241875E-10
   58.3800011        -3.65504765E-10
   58.4949989        -3.67253034E-10
   58.6100006        -3.67454733E-10
   58.7249985        -3.66099789E-10
   58.8400002        -3.63200248E-10
   58.9550018        -3.58789609E-10
   59.0699997        -3.52921553E-10
   59.1850014        -3.45668216E-10
   59.2999992        -3.37117639E-10
   59.4150009        -3.27370853E-10
   59.5299988        -3.16538379E-10
   59.6450005        -3.04736764E-10
   59.7599983        -2.92084468E-10
   59.8750000        -2.78698065E-10
   59.9900017        -2.64688271E-10
   60.1049995        -2.50156451E-10
   60.2200012        -2.35191172E-10
   60.3349991        -2.19865501E-10
   60.4500008        -2.04234782E-10
   60.5649986        -1.88334986E-10
   60.6800003        -1.72181991E-10
   60.7949982        -1.55771673E-10
   60.9099998        -1.39080567E-10
   61.0250015        -1.22067675E-10
   61.1399994        -1.04676649E-10
   61.2550011        -8.68391747E-11
   61.3699989        -6.84785700E-11
   61.4850006        -4.95140873E-11
   61.5999985        -2.98654435E-11
   61.7150002        -9.45776096E-12
   61.8300018         1.17737903E-11
   61.9449997         3.38791911E-11
   62.0600014         5.68890456E-11
   62.1749992         8.08108580E-11
   62.2900009         1.05625585E-10
   62.4049988         1.31285247E-10
   62.5200005         1.57711011E-10
   62.6349983         1.84792737E-10
   62.7500000         2.12389009E-10
   62.8650017         2.40328507E-10
   62.9799995         2.68412292E-10
   63.0950012         2.96417141E-10
   63.2099991         3.24099442E-10
   63.3250008         3.51200014E-10
   63.4399986         3.77449544E-10
   63.5550003         4.02574529E-10
   63.6699982         4.26303021E-10
   63.7849998         4.48370868E-10
   63.9000015         4.68527606E-10
   64.0149994         4.86541862E-10
   64.1299973         5.02206443E-10
   64.2450027         5.15342491E-10
   64.3600006         5.25802846E-10
   64.4749985         5.33474487E-10
   64.5899963         5.38279699E-10
   64.7050018         5.40176626E-10
   64.8199997         5.39157663E-10
   64.9349976         5.35248068E-10
   65.0500031         5.28502631E-10
   65.1650009         5.19001675E-10
   65.2799988         5.06846454E-10
   65.3949966         4.92153651E-10
   65.5100021         4.75049888E-10
   65.6250000         4.55665894E-10
   65.7399979         4.34130232E-10
   65.8550034         4.10564110E-10
   65.9700012         3.85075916E-10
   66.0849991         3.57756713E-10
   66.1999969         3.28676669E-10
   66.3150024         2.97882052E-10
   66.4300003         2.65393596E-10
   66.5449982         2.31205874E-10
   66.6600037         1.95287994E-10
   66.7750015         1.57585209E-10
   66.8899994         1.18021690E-10
   67.0049973         7.65045943E-11
   67.1200027         3.29284724E-11
   67.2350006        -1.28189456E-11
   67.3499985        -6.08511366E-11
   67.4649963        -1.11276197E-10
   67.5800018        -1.64190675E-10
   67.6949997        -2.19672835E-10
   67.8099976        -2.77777190E-10
   67.9250031        -3.38528566E-10
   68.0400009        -4.01917721E-10
   68.1549988        -4.67897221E-10
   68.2699966        -5.36378664E-10
   68.3850021        -6.07230988E-10
   68.5000000        -6.80279943E-10
   68.6149979        -7.55308427E-10
   68.7300034        -8.32059033E-10
   68.8450012        -9.10236220E-10
   68.9599991        -9.89510585E-10
   69.0749969        -1.06952402E-09
   69.1900024        -1.14989485E-09
   69.3050003        -1.23022426E-09
   69.4199982        -1.31010280E-09
   69.5350037        -1.38911727E-09
   69.6500015        -1.46685697E-09
   69.7649994        -1.54292024E-09
   69.8799973        -1.61692071E-09
   69.9950027        -1.68849223E-09
   70.1100006        -1.75729387E-09
   70.2249985        -1.82301330E-09
   70.3399963        -1.88536942E-09
   70.4550018        -1.94411398E-09
   70.5699997        -1.99903316E-09
   70.6849976        -2.04994555E-09
   70.8000031        -2.09670170E-09
   70.9150009        -2.13918194E-09
   71.0299988        -2.17729279E-09
   71.1449966        -2.21096275E-09
   71.2600021        -2.24013919E-09
   71.3750000        -2.26478281E-09
   71.4899979        -2.28486319E-09
   71.6050034        -2.30035324E-09
   71.7200012        -2.31122610E-09
   71.8349991        -2.31744890E-09
   71.9499969        -2.31898012E-09
   72.0650024        -2.31576647E-09
   72.1800003        -2.30773911E-09
   72.2949982        -2.29481323E-09
   72.4100037        -2.27688624E-09
   72.5250015        -2.25383823E-09
   72.6399994        -2.22553176E-09
   72.7549973        -2.19181495E-09
   72.8700027        -2.15252149E-09
   72.9850006        -2.10747575E-09
   73.0999985        -2.05649431E-09
   73.2149963        -1.99939176E-09
   73.3300018        -1.93598404E-09
   73.4449997        -1.86609173E-09
   73.5599976        -1.78954673E-09
   73.6750031        -1.70619607E-09
   73.7900009        -1.61590563E-09
   73.9049988        -1.51856461E-09
   74.0199966        -1.41408907E-09
   74.1350021        -1.30242628E-09