  -18.8999996        -0.00000000    
  -18.7849998        -0.00000000    
  -18.6700001        -0.00000000    
  -18.5550003        -0.00000000    
  -18.4400005        -0.00000000    
  -18.3250008        -0.00000000    
  -18.2099991        -0.00000000    
  -18.0949993        -0.00000000    
  -17.9799995        -0.00000000    
  -17.8649998        -0.00000000    
  -17.7500000        -0.00000000    
  -17.6350002        -0.00000000    
  -17.5200005        -0.00000000    
  -17.4050007        -0.00000000    
  -17.2900009        -0.00000000    
  -17.1749992        -0.00000000    
  -17.0599995        -0.00000000    
  -16.9449997        -0.00000000    
  -16.8299999        -0.00000000    
  -16.7150002        -0.00000000    
  -16.6000004        -9.54709133E-35
  -16.4850006        -6.56442698E-34
  -16.3700008        -2.61393136E-33
  -16.2549992        -6.15489283E-33
  -16.1399994        -1.04571037E-32
  -16.0249996        -1.98023176E-32
  -15.9099998        -2.24778764E-32
  -15.7950001        -1.70165958E-32
  -15.6800003         2.61761315E-32
  -15.5649996         1.24194869E-31
  -15.4499998        -7.18809917E-32
  -15.3350000        -8.85341626E-31
  -15.2200003        -2.98699603E-30
  -15.1049995        -7.37672396E-30
  -14.9899998        -1.53149723E-29
  -14.8750000        -2.81747301E-29
  -14.7600002        -4.70280044E-29
  -14.6450005        -7.17755211E-29
  -14.5299997        -9.96389065E-29
  -14.4150000        -1.23168588E-28
  -14.3000002        -1.27755443E-28
  -14.1850004        -8.88349511E-29
  -14.0699997         2.99681711E-29
  -13.9549999         2.76602973E-28
  -13.8400002         7.06409581E-28
  -13.7250004         1.37159916E-27
  -13.6099997         2.30222334E-27
  -13.4949999         3.47705389E-27
  -13.3800001         4.78418447E-27
  -13.2650003         5.97428129E-27
  -13.1499996         6.61335531E-27
  -13.0349998         6.04682453E-27
  -12.9200001         3.39283298E-27
  -12.8050003        -2.41246530E-27
  -12.6899996        -1.24923551E-26
  -12.5749998        -2.78053748E-26
  -12.4600000        -4.88038290E-26
  -12.3450003        -7.49752386E-26
  -12.2299995        -1.04293797E-25
  -12.1149998        -1.32645248E-25
  -12.0000000        -1.53331991E-25
  -11.8850002        -1.56811706E-25
  -11.7700005        -1.30861991E-25
  -11.6549997        -6.13868322E-26
  -11.5400000         6.59295494E-26
  -11.4250002         2.62970826E-25
  -11.3100004         5.35502498E-25
  -11.1949997         8.78597284E-25
  -11.0799999         1.27156105E-24
  -10.9650002         1.67304737E-24
  -10.8500004         2.01735281E-24
  -10.7349997         2.21316623E-24
  -10.6199999         2.14621265E-24
  -10.5050001         1.68721925E-24
  -10.3900003         7.06350295E-25
  -10.2749996        -9.05361659E-25
  -10.1599998        -3.20804191E-24
  -10.0450001        -6.18025740E-24
  -9.93000031        -9.68494552E-24
  -9.81499958        -1.34390707E-23
  -9.69999981        -1.69935501E-23
  -9.58500004        -1.97310047E-23
  -9.47000027        -2.08889342E-23
  -9.35499954        -1.96147077E-23
  -9.23999977        -1.50560967E-23
  -9.12500000        -6.48674051E-24
  -9.01000023         6.53991328E-24
  -8.89500046         2.40213431E-23
  -8.77999973         4.53415949E-23
  -8.66499996         6.91380921E-23
  -8.55000019         9.32297780E-23
  -8.43500042         1.14637317E-22
  -8.31999969         1.29721385E-22
  -8.20499992         1.34455687E-22
  -8.09000015         1.24836342E-22
  -7.97499990         9.74088223E-23
  -7.86000013         4.98720042E-23
  -7.74499989        -1.83042472E-23
  -7.63000011        -1.05329901E-22
  -7.51499987        -2.06707470E-22
  -7.40000010        -3.15100202E-22
  -7.28499985        -4.20535034E-22
  -7.17000008        -5.10991480E-22
  -7.05499983        -5.73380911E-22
  -6.94000006        -5.94869987E-22
  -6.82499981        -5.64438030E-22
  -6.71000004        -4.74500869E-22
  -6.59499979        -3.22392003E-22
  -6.48000002        -1.11464733E-22
  -6.36499977         1.48410687E-22
  -6.25000000         4.41135915E-22
  -6.13500023         7.45559535E-22
  -6.01999998         1.03752046E-21
  -5.90500021         1.29260279E-21
  -5.78999996         1.48929840E-21
  -5.67500019         1.61214109E-21
  -5.55999994         1.65428388E-21
  -5.44500017         1.61895129E-21
  -5.32999992         1.51926371E-21
  -5.21500015         1.37605049E-21
  -5.09999990         1.21354646E-21
  -4.98500013         1.05313784E-21
  -4.86999989         9.05762569E-22
  -4.75500011         7.63909121E-22
  -4.63999987         5.94552474E-22
  -4.52500010         3.34586278E-22
  -4.40999985        -1.09590425E-22
  -4.29500008        -8.56813712E-22
  -4.17999983        -2.03910522E-21
  -4.06500006        -3.78240169E-21
  -3.95000005        -6.18051946E-21
  -3.83500004        -9.26400119E-21
  -3.72000003        -1.29666313E-20
  -3.60500002        -1.70936615E-20
  -3.49000001        -2.12967552E-20
  -3.37500000        -2.50612154E-20
  -3.25999999        -2.77112226E-20
  -3.14499998        -2.84380203E-20
  -3.02999997        -2.63547078E-20
  -2.91499996        -2.05788174E-20
  -2.79999995        -1.03410243E-20
  -2.68499994         4.88538484E-21
  -2.56999993         2.52435974E-20
  -2.45499992         5.03539089E-20
  -2.33999991         7.91924559E-20
  -2.22499990         1.10006556E-19
  -2.10999990         1.40285967E-19
  -1.99500000         1.66808286E-19
  -1.88000000         1.85772875E-19
  -1.76499999         1.93031682E-19
  -1.64999998         1.84417501E-19
  -1.53499997         1.56159344E-19
  -1.41999996         1.05363940E-19
  -1.30499995         3.05300990E-20
  -1.19000006        -6.79483184E-20
  -1.07500005        -1.87342915E-19
 -0.959999979        -3.22273186E-19
 -0.845000029        -4.64569292E-19
 -0.730000019        -6.03368493E-19
 -0.615000010        -7.25486770E-19
 -0.500000000        -8.16090757E-19
 -0.384999990        -8.59670716E-19
 -0.270000011        -8.41286627E-19
 -0.155000001        -7.48031008E-19
  -3.99999991E-02    -5.70617724E-19
   7.50000030E-02    -3.04979941E-19
  0.189999998         4.62628352E-20
  0.305000007         4.72626652E-19
  0.419999987         9.55027994E-19
  0.535000026         1.46564824E-18
  0.649999976         1.96851263E-18
  0.764999986         2.42087620E-18
  0.879999995         2.77544242E-18
  0.995000005         2.98338818E-18
   1.11000001         2.99808304E-18
   1.22500002         2.77932706E-18
   1.34000003         2.29784963E-18
   1.45500004         1.53975556E-18
   1.57000005         5.10549574E-19
   1.68499994        -7.61655862E-19
   1.79999995        -2.22413977E-18
   1.91499996        -3.79915287E-18
   2.02999997        -5.38538088E-18
   2.14499998        -6.86150082E-18
   2.25999999        -8.09191171E-18
   2.37500000        -8.93459204E-18
   2.49000001        -9.25082484E-18
   2.60500002        -8.91640151E-18
   2.72000003        -7.83368661E-18
   2.83500004        -5.94380928E-18
   2.95000005        -3.23810211E-18
   3.06500006         2.32227028E-19
   3.18000007         4.34915560E-18
   3.29500008         8.92463774E-18
   3.41000009         1.37020012E-17
   3.52500010         1.83626006E-17
   3.64000010         2.25381538E-17
   3.75500011         2.58288023E-17
   3.86999989         2.78265841E-17
   3.98499990         2.81434605E-17
   4.09999990         2.64427523E-17
   4.21500015         2.24722076E-17
   4.32999992         1.60966436E-17
   4.44500017         7.32774986E-18
   4.55999994        -3.65148459E-18
   4.67500019        -1.64703522E-17
   4.78999996        -3.05644758E-17
   4.90500021        -4.51823620E-17
   5.01999998        -5.94060668E-17
   5.13500023        -7.21866690E-17
   5.25000000        -8.23944285E-17
   5.36499977        -8.88824626E-17
   5.48000002        -9.05615334E-17
   5.59499979        -8.64826330E-17
   5.71000004        -7.59227593E-17
   5.82499981        -5.84686726E-17
   5.94000006        -3.40927254E-17
   6.05499983        -3.21438705E-18
   6.17000008         3.32583814E-17
   6.28499985         7.39137096E-17
   6.40000010         1.16850591E-16
   6.51499987         1.59727120E-16
   6.63000011         1.99843660E-16
   6.74499989         2.34259641E-16
   6.86000013         2.59941494E-16
   6.97499990         2.73935484E-16
   7.09000015         2.73558872E-16
   7.20499992         2.56598308E-16
   7.32000017         2.21505204E-16
   7.43499994         1.67575807E-16
   7.55000019         9.51027616E-17
   7.66499996         5.48665095E-18
   7.78000021        -9.87034656E-17
   7.89499998        -2.13729177E-16
   8.01000023        -3.34748374E-16
   8.12500000        -4.55948624E-16
   8.23999977        -5.70749011E-16
   8.35499954        -6.72064316E-16
   8.47000027        -7.52622443E-16
   8.58500004        -8.05324357E-16
   8.69999981        -8.23626780E-16
   8.81499958        -8.01933843E-16
   8.93000031        -7.35975652E-16
   9.04500008        -6.23152716E-16
   9.15999985        -4.62827908E-16
   9.27499962        -2.56546824E-16
   9.39000034        -8.17283066E-18
   9.50500011         2.76078319E-16
   9.61999989         5.87707511E-16
   9.73499966         9.16110390E-16
   9.85000038         1.24886188E-15
   9.96500015         1.57209611E-15
   10.0799999         1.87097465E-15
   10.1949997         2.13022243E-15
   10.3100004         2.33471418E-15
   10.4250002         2.47008466E-15
   10.5400000         2.52334694E-15
   10.6549997         2.48349065E-15
   10.7700005         2.34203085E-15
   10.8850002         2.09349995E-15
   11.0000000         1.73585215E-15
   11.1149998         1.27076923E-15
   11.2299995         7.03856533E-16
   11.3450003         4.47187239E-17
   11.4600000        -6.93090638E-16
   11.5749998        -1.49224325E-15
   11.6899996        -2.33193930E-15
   11.8050003        -3.18831989E-15
   11.9200001        -4.03500535E-15
   12.0349998        -4.84372191E-15
   12.1499996        -5.58503540E-15
   12.2650003        -6.22914255E-15
   12.3800001        -6.74674194E-15
   12.4949999        -7.10993442E-15
   12.6099997        -7.29315950E-15
   12.7250004        -7.27412922E-15
   12.8400002        -7.03472848E-15
   12.9549999        -6.56188166E-15
   13.0699997        -5.84832628E-15
   13.1850004        -4.89327376E-15
   13.3000002        -3.70292608E-15
   13.4150000        -2.29080018E-15
   13.5299997        -6.77848492E-16
   13.6450005         1.10767801E-15
   13.7600002         3.03063328E-15
   13.8750000         5.04967797E-15
   13.9899998         7.11825991E-15
   14.1049995         9.18592408E-15
   14.2200003         1.11998601E-14
   14.3350000         1.31067066E-14
   14.4499998         1.48545439E-14
   14.5649996         1.63950274E-14
   14.6800003         1.76854940E-14
   14.7950001         1.86910678E-14
   14.9099998         1.93865750E-14
   15.0249996         1.97581531E-14
   15.1400003         1.98044807E-14
   15.2550001         1.95375010E-14
   15.3699999         1.89825166E-14
   15.4849997         1.81776184E-14
   15.6000004         1.71724258E-14
   15.7150002         1.60260565E-14
   15.8299999         1.48043859E-14
   15.9449997         1.35766939E-14
   16.0599995         1.24117830E-14
   16.1749992         1.13737136E-14
   16.2900009         1.05173701E-14
   16.4050007         9.88410031E-15
   16.5200005         9.49757969E-15
   16.6350002         9.36030276E-15
   16.7500000         9.45084634E-15
   16.8649998         9.72215184E-15
   16.9799995         1.01010585E-14
   17.0949993         1.04892325E-14
   17.2099991         1.07655694E-14
   17.3250008         1.07900495E-14
   17.4400005         1.04090896E-14
   17.5550003         9.46209748E-15
   17.6700001         7.78909645E-15
   17.7849998         5.23908004E-15
   17.8999996         1.67867065E-15
   18.0149994        -2.99930619E-15
   18.1299992        -8.86780477E-15
   18.2450008        -1.59586089E-14
   18.3600006        -2.42568654E-14
   18.4750004        -3.36975355E-14
   18.5900002        -4.41641081E-14
   18.7049999        -5.54897992E-14
   18.8199997        -6.74613767E-14
   18.9349995        -7.98256250E-14
   19.0499992        -9.22982190E-14
   19.1650009        -1.04574844E-13
   19.2800007        -1.16344014E-13
   19.3950005        -1.27301083E-13
   19.5100002        -1.37162796E-13
   19.6250000        -1.45681684E-13
   19.7399998        -1.52659583E-13
   19.8549995        -1.57959271E-13
   19.9699993        -1.61514113E-13
   20.0849991        -1.63334244E-13
   20.2000008        -1.63509722E-13
   20.3150005        -1.62209750E-13
   20.4300003        -1.59677921E-13
   20.5450001        -1.56223748E-13
   20.6599998        -1.52210696E-13
   20.7749996        -1.48040990E-13
   20.8899994        -1.44138201E-13
   21.0049992        -1.40928285E-13
   21.1200008        -1.38819918E-13
   21.2350006        -1.38185321E-13
   21.3500004        -1.39342558E-13
   21.4650002        -1.42540222E-13
   21.5799999        -1.47945336E-13
   21.6949997        -1.55635609E-13
   21.8099995        -1.65596025E-13
   21.9249992        -1.77720414E-13
   22.0400009        -1.91818092E-13
   22.1550007        -2.07625014E-13
   22.2700005        -2.24819336E-13
   22.3850002        -2.43040424E-13
   22.5000000        -2.61910366E-13
   22.6149998        -2.81056862E-13
   22.7299995        -3.00136381E-13
   22.8449993        -3.18856242E-13
   22.9599991        -3.36994159E-13
   23.0750008        -3.54414550E-13
   23.1900005        -3.71080391E-13
   23.3050003        -3.87059471E-13
   23.4200001        -4.02525642E-13
   23.5349998        -4.17753478E-13
   23.6499996        -4.33107814E-13
   23.7649994        -4.49027697E-13
   23.8799992        -4.66006140E-13
   23.9950008        -4.84566055E-13
   24.1100006        -5.05234255E-13
   24.2250004        -5.28514786E-13
   24.3400002        -5.54862200E-13
   24.4549999        -5.84657810E-13
   24.5699997        -6.18188443E-13
   24.6849995        -6.55630335E-13
   24.7999992        -6.97037534E-13
   24.9150009        -7.42337723E-13
   25.0300007        -7.91332765E-13
   25.1450005        -8.43706507E-13
   25.2600002        -8.99037789E-13
   25.3750000        -9.56819151E-13
   25.4899998        -1.01647835E-12
   25.6049995        -1.07740368E-12
   25.7199993        -1.13897032E-12
   25.8349991        -1.20056601E-12
   25.9500008        -1.26161549E-12
   26.0650005        -1.32160266E-12
   26.1800003        -1.38008734E-12
   26.2950001        -1.43671782E-12
   26.4099998        -1.49123801E-12
   26.5249996        -1.54348832E-12
   26.6399994        -1.59340119E-12
   26.7549992        -1.64099127E-12
   26.8700008        -1.68634139E-12
   26.9850006        -1.72958490E-12
   27.1000004        -1.77088574E-12
   27.2150002        -1.81041824E-12
   27.3299999        -1.84834743E-12
   27.4449997        -1.88481002E-12
   27.5599995        -1.91990065E-12
   27.6749992        -1.95365881E-12
   27.7900009        -1.98606518E-12
   27.9050007        -2.01703628E-12
   28.0200005        -2.04643160E-12
   28.1350002        -2.07405707E-12
   28.2500000        -2.09967959E-12
   28.3649998        -2.12304003E-12
   28.4799995        -2.14386820E-12
   28.5949993        -2.16189892E-12
   28.7099991        -2.17688779E-12
   28.8250008        -2.18862385E-12
   28.9400005        -2.19693621E-12
   29.0550003        -2.20170280E-12
   29.1700001        -2.20284728E-12
   29.2849998        -2.20033518E-12
   29.3999996        -2.19416434E-12
   29.5149994        -2.18434797E-12
   29.6299992        -2.17089931E-12
   29.7450008        -2.15381033E-12
   29.8600006        -2.13302748E-12
   29.9750004        -2.10843409E-12
   30.0900002        -2.07982915E-12
   30.2049999        -2.04691125E-12
   30.3199997        -2.00926754E-12
   30.4349995        -1.96637021E-12
   30.5499992        -1.91757547E-12
   30.6650009        -1.86213393E-12
   30.7800007        -1.79920369E-12
   30.8950005        -1.72787435E-12
   31.0100002        -1.64719193E-12
   31.1250000        -1.55619029E-12
   31.2399998        -1.45392465E-12
   31.3549995        -1.33950490E-12
   31.4699993        -1.21212816E-12
   31.5849991        -1.07110805E-12
   31.7000008        -9.15898542E-13
   31.8150005        -7.46110801E-13
   31.9300003        -5.61523159E-13
   32.0449982        -3.62081242E-13
   32.1599998        -1.47889947E-13
   32.2750015         8.08033517E-14
   32.3899994         3.23633698E-13
   32.5050011         5.80151812E-13
   32.6199989         8.49858053E-13
   32.7350006         1.13224415E-12
   32.8499985         1.42683391E-12
   32.9650002         1.73322088E-12
   33.0800018         2.05110386E-12
   33.1949997         2.38031686E-12
   33.3100014         2.72084915E-12
   33.4249992         3.07285664E-12
   33.5400009         3.43666328E-12
   33.6549988         3.81275306E-12
   33.7700005         4.20174659E-12
   33.8849983         4.60437287E-12
   34.0000000         5.02142989E-12
   34.1150017         5.45373685E-12
   34.2299995         5.90208611E-12
   34.3450012         6.36719106E-12
   34.4599991         6.84963197E-12
   34.5750008         7.34980739E-12
   34.6899986         7.86788950E-12
   34.8050003         8.40379155E-12
   34.9199982         8.95713972E-12
   35.0349998         9.52725485E-12
   35.1500015         1.01131542E-11
   35.2649994         1.07135550E-11
   35.3800011         1.13268995E-11
   35.4949989         1.19513748E-11
   35.6100006         1.25849556E-11
   35.7249985         1.32254563E-11
   35.8400002         1.38705627E-11
   35.9550018         1.45179042E-11
   36.0699997         1.51650793E-11
   36.1850014         1.58097303E-11
   36.2999992         1.64495639E-11
   36.4150009         1.70823980E-11
   36.5299988         1.77061837E-11
   36.6450005         1.83190303E-11
   36.7599983         1.89192117E-11
   36.8750000         1.95051631E-11
   36.9900017         2.00754829E-11
   37.1049995         2.06289083E-11
   37.2200012         2.11642960E-11
   37.3349991         2.16806035E-11
   37.4500008         2.21768610E-11
   37.5649986         2.26521284E-11
   37.6800003         2.31054880E-11
   37.7949982         2.35360082E-11
   37.9099998         2.39427228E-11
   38.0250015         2.43246118E-11
   38.1399994         2.46806013E-11
   38.2550011         2.50095378E-11
   38.3699989         2.53101949E-11
   38.4850006         2.55812749E-11
   38.5999985         2.58214127E-11
   38.7150002         2.60291771E-11
   38.8300018         2.62030831E-11
   38.9449997         2.63416077E-11
   39.0600014         2.64431862E-11
   39.1749992         2.65062330E-11
   39.2900009         2.65291400E-11
   39.4049988         2.65102888E-11
   39.5200005         2.64480590E-11
   39.6349983         2.63408306E-11
   39.7500000         2.61869814E-11
   39.8650017         2.59849104E-11
   39.9799995         2.57330251E-11
   40.0950012         2.54297659E-11
   40.2099991         2.50736151E-11
   40.3250008         2.46631066E-11
   40.4399986         2.41968477E-11
   40.5550003         2.36735440E-11
   40.6699982         2.30920214E-11
   40.7849998         2.24512527E-11
   40.9000015         2.17503862E-11
   41.0149994         2.09887750E-11
   41.1300011         2.01659956E-11
   41.2449989         1.92818955E-11
   41.3600006         1.83365788E-11
   41.4749985         1.73304444E-11
   41.5900002         1.62641758E-11
   41.7050018         1.51387427E-11
   41.8199997         1.39553985E-11
   41.9350014         1.27156410E-11
   42.0499992         1.14211965E-11
   42.1650009         1.00739781E-11
   42.2799988         8.67604166E-12
   42.3950005         7.22954075E-12
   42.5099983         5.73667936E-12
   42.6250000         4.19967793E-12
   42.7400017         2.62071029E-12
   42.8549995         1.00189019E-12
   42.9700012        -6.54748499E-13
   43.0849991        -2.34726995E-12
   43.2000008        -4.07382114E-12
   43.3149986        -5.83260176E-12
   43.4300003        -7.62183459E-12
   43.5449982        -9.43969729E-12
   43.6599998        -1.12842461E-11
   43.7750015        -1.31533395E-11
   43.8899994        -1.50445368E-11
   44.0050011        -1.69549999E-11
   44.1199989        -1.88813982E-11
   44.2350006        -2.08198233E-11
   44.3499985        -2.27656886E-11
   44.4650002        -2.47136894E-11
   44.5800018        -2.66577541E-11
   44.6949997        -2.85910289E-11
   44.8100014        -3.05058999E-11
   44.9249992        -3.23940284E-11
   45.0400009        -3.42464460E-11
   45.1549988        -3.60536427E-11
   45.2700005        -3.78057308E-11
   45.3849983        -3.94925689E-11
   45.5000000        -4.11039466E-11
   45.6150017        -4.26297990E-11
   45.7299995        -4.40603456E-11
   45.8450012        -4.53862850E-11
   45.9599991        -4.65989677E-11
   46.0750008        -4.76905251E-11
   46.1899986        -4.86539732E-11
   46.3050003        -4.94832925E-11
   46.4199982        -5.01734557E-11
   46.5349998        -5.07204313E-11
   46.6500015        -5.11211247E-11
   46.7649994        -5.13732841E-11
   46.8800011        -5.14754003E-11
   46.9949989        -5.14265332E-11
   47.1100006        -5.12261657E-11
   47.2249985        -5.08740029E-11
   47.3400002        -5.03698194E-11
   47.4550018        -4.97132682E-11
   47.5699997        -4.89037560E-11
   47.6850014        -4.79403010E-11
   47.7999992        -4.68214911E-11
   47.9150009        -4.55454008E-11
   48.0299988        -4.41096187E-11
   48.1450005        -4.25113104E-11
   48.2599983        -4.07473048E-11
   48.3750000        -3.88142331E-11
   48.4900017        -3.67087055E-11
   48.6049995        -3.44274748E-11
   48.7200012        -3.19677097E-11
   48.8349991        -2.93271345E-11
   48.9500008        -2.65042936E-11
   49.0649986        -2.34986839E-11
   49.1800003        -2.03109526E-11
   49.2949982        -1.69429939E-11
   49.4099998        -1.33980067E-11
   49.5250015        -9.68053415E-12
   49.6399994        -5.79642064E-12
   49.7550011        -1.75273869E-12
   49.8699989         2.44233865E-12
   49.9850006         6.77973129E-12
   50.0999985         1.12496028E-11
   50.2150002         1.58416197E-11
   50.3300018         2.05451507E-11
   50.4449997         2.53494621E-11
   50.5600014         3.02439775E-11
   50.6749992         3.52183872E-11
   50.7900009         4.02628000E-11
   50.9049988         4.53678276E-11
   51.0200005         5.05245706E-11
   51.1349983         5.57246402E-11
   51.2500000         6.09600287E-11
   51.3650017         6.62229993E-11
   51.4799995         7.15058707E-11
   51.5950012         7.68008296E-11
   51.7099991         8.20996396E-11
   51.8250008         8.73934605E-11
   51.9399986         9.26725363E-11
   52.0550003         9.79259937E-11
   52.1699982         1.03141676E-10
   52.2849998         1.08305920E-10
   52.4000015         1.13403502E-10
   52.5149994         1.18417609E-10
   52.6300011         1.23329819E-10
   52.7449989         1.28120237E-10
   52.8600006         1.32767616E-10
   52.9749985         1.37249503E-10
   53.0900002         1.41542583E-10
   53.2050018         1.45622805E-10
   53.3199997         1.49465773E-10
   53.4350014         1.53046950E-10
   53.5499992         1.56341898E-10
   53.6650009         1.59326538E-10
   53.7799988         1.61977334E-10
   53.8950005         1.64271388E-10
   54.0099983         1.66186509E-10
   54.1250000         1.67701242E-10
   54.2400017         1.68794839E-10
   54.3549995         1.69447109E-10
   54.4700012         1.69638401E-10
   54.5849991         1.69349382E-10
   54.7000008         1.68560804E-10
   54.8149986         1.67253586E-10
   54.9300003         1.65408437E-10
   55.0449982         1.63006011E-10
   55.1599998         1.60026714E-10
   55.2750015         1.56450894E-10
   55.3899994         1.52258858E-10
   55.5050011         1.47431178E-10
   55.6199989         1.41948980E-10
   55.7350006         1.35794168E-10
   55.8499985         1.28949976E-10
   55.9650002         1.21401389E-10
   56.0800018         1.13135577E-10
   56.1949997         1.04142361E-10
   56.3100014         9.44146983E-11
   56.4249992         8.39490283E-11
   56.5400009         7.27456637E-11
   56.6549988         6.08089690E-11
   56.7700005         4.81475693E-11
   56.8849983         3.47742772E-11
   57.0000000         2.07061226E-11
   57.1150017         5.96408166E-12
   57.2299995        -9.42714656E-12
   57.3450012        -2.54395602E-11
   57.4599991        -4.20423037E-11
   57.5750008        -5.92021224E-11
   57.6899986        -7.68839159E-11
   57.8050003        -9.50512377E-11
   57.9199982        -1.13666750E-10
   58.0349998        -1.32692676E-10
   58.1500015        -1.52091090E-10
   58.2649994        -1.71824235E-10
   58.3800011        -1.91854657E-10
   58.4949989        -2.12145176E-10
   58.6100006        -2.32658878E-10
   58.7249985        -2.53358889E-10
   58.8400002        -2.74208239E-10
   58.9550018        -2.95169250E-10
   59.0699997        -3.16203397E-10
   59.1850014        -3.37270878E-10
   59.2999992        -3.58329977E-10
   59.4150009        -3.79337006E-10
   59.5299988        -4.00245642E-10
   59.6450005        -4.21007035E-10
   59.7599983        -4.41569337E-10
   59.8750000        -4.61877897E-10
   59.9900017        -4.81875206E-10
   60.1049995        -5.01501285E-10
   60.2200012        -5.20693655E-10
   60.3349991        -5.39388256E-10
   60.4500008        -5.57519642E-10
   60.5649986        -5.75021641E-10
   60.6800003        -5.91828087E-10
   60.7949982        -6.07873474E-10
   60.9099998        -6.23093410E-10
   61.0250015        -6.37425446E-10
   61.1399994        -6.50809351E-10
   61.2550011        -6.63187893E-10
   61.3699989        -6.74506728E-10
   61.4850006        -6.84714896E-10
   61.5999985        -6.93764823E-10
   61.7150002        -7.01612157E-10
   61.8300018        -7.08215486E-10
   61.9449997        -7.13536286E-10
   62.0600014        -7.17538362E-10
   62.1749992        -7.20187188E-10
   62.2900009        -7.21449900E-10
   62.4049988        -7.21294247E-10
   62.5200005        -7.19688420E-10
   62.6349983        -7.16600557E-10
   62.7500000        -7.11998571E-10
   62.8650017        -7.05849490E-10
   62.9799995        -6.98119951E-10
   63.0950012        -6.88775925E-10
   63.2099991        -6.77783052E-10
   63.3250008        -6.65106692E-10
   63.4399986        -6.50712928E-10
   63.5550003        -6.34568897E-10
   63.6699982        -6.16643514E-10
   63.7849998        -5.96908134E-10
   63.9000015        -5.75337833E-10
   64.0149994        -5.51911739E-10
   64.1299973        -5.26614086E-10
   64.2450027        -4.99435049E-10
   64.3600006        -4.70371186E-10
   64.4749985        -4.39426190E-10
   64.5899963        -4.06611356E-10
   64.7050018        -3.71945780E-10
   64.8199997        -3.35456524E-10
   64.9349976        -2.97178782E-10
   65.0500031        -2.57155797E-10
   65.1650009        -2.15438431E-10
   65.2799988        -1.72085124E-10
   65.3949966        -1.27161462E-10
   65.5100021        -8.07396511E-11
   65.6250000        -3.28982258E-11
   65.7399979         1.62784508E-11
   65.8550034         6.67005895E-11
   65.9700012         1.18273280E-10
   66.0849991         1.70896991E-10
   66.1999969         2.24467361E-10
   66.3150024         2.78875811E-10
   66.4300003         3.34009098E-10
   66.5449982         3.89749871E-10
   66.6600037         4.45976089E-10
   66.7750015         5.02560882E-10
   66.8899994         5.59372715E-10
   67.0049973         6.16274809E-10
   67.1200027         6.73125111E-10
   67.2350006         7.29776017E-10
   67.3499985         7.86074039E-10
   67.4649963         8.41860359E-10
   67.5800018         8.96970054E-10
   67.6949997         9.51232537E-10
   67.8099976         1.00447173E-09
   67.9250031         1.05650644E-09
   68.0400009         1.10715082E-09
   68.1549988         1.15621523E-09
   68.2699966         1.20350607E-09
   68.3850021         1.24882815E-09
   68.5000000         1.29198363E-09
   68.6149979         1.33277533E-09
   68.7300034         1.37100620E-09
   68.8450012         1.40648071E-09
   68.9599991         1.43900680E-09
   69.0749969         1.46839696E-09
   69.1900024         1.49446844E-09
   69.3050003         1.51704549E-09
   69.4199982         1.53596003E-09
   69.5350037         1.55105251E-09
   69.6500015         1.56217306E-09
   69.7649994         1.56918190E-09
   69.8799973         1.57195024E-09
   69.9950027         1.57036084E-09
   70.1100006         1.56430835E-09
   70.2249985         1.55369861E-09
   70.3399963         1.53845059E-09
   70.4550018         1.51849444E-09
   70.5699997         1.49377277E-09
   70.6849976         1.46424006E-09
   70.8000031         1.42986178E-09
   70.9150009         1.39061485E-09
   71.0299988         1.34648759E-09
   71.1449966         1.29747868E-09
   71.2600021         1.24359711E-09
   71.3750000         1.18486265E-09
   71.4899979         1.12130505E-09
   71.6050034         1.05296405E-09
   71.7200012         9.79889392E-10
   71.8349991         9.02141251E-10
   71.9499969         8.19789625E-10
   72.0650024         7.32915340E-10
   72.1800003         6.41609599E-10
   72.2949982         5.45974654E-10
   72.4100037         4.46123749E-10
   72.5250015         3.42181505E-10
   72.6399994         2.34284314E-10
   72.7549973         1.22580224E-10
   72.8700027         7.22943927E-12
   72.9850006        -1.11595733E-10
   73.0999985        -2.33710773E-10
   73.2149963        -3.58918895E-10
   73.3300018        -4.87010654E-10
   73.4449997        -6.17765505E-10
   73.5599976        -7.50949858E-10
   73.6750031        -8.86319795E-10
   73.7900009        -1.02361886E-09
   73.9049988        -1.16258025E-09
   74.0199966        -1.30292643E-09
   74.1350021        -1.44436951E-09