  -18.8999996         0.00000000    
  -18.7849998         0.00000000    
  -18.6700001         0.00000000    
  -18.5550003         0.00000000    
  -18.4400005         0.00000000    
  -18.3250008         0.00000000    
  -18.2099991         0.00000000    
  -18.0949993         0.00000000    
  -17.9799995         0.00000000    
  -17.8649998         0.00000000    
  -17.7500000         0.00000000    
  -17.6350002         0.00000000    
  -17.5200005         0.00000000    
  -17.4050007         0.00000000    
  -17.2900009         0.00000000    
  -17.1749992         0.00000000    
  -17.0599995         0.00000000    
  -16.9449997         0.00000000    
  -16.8299999         0.00000000    
  -16.7150002         0.00000000    
  -16.6000004         0.00000000    
  -16.4850006         0.00000000    
  -16.3700008         0.00000000    
  -16.2549992         0.00000000    
  -16.1399994         0.00000000    
  -16.0249996         0.00000000    
  -15.9099998         0.00000000    
  -15.7950001         0.00000000    
  -15.6800003         0.00000000    
  -15.5649996         0.00000000    
  -15.4499998         0.00000000    
  -15.3350000         0.00000000    
  -15.2200003         0.00000000    
  -15.1049995         0.00000000    
  -14.9899998         0.00000000    
  -14.8750000         0.00000000    
  -14.7600002         0.00000000    
  -14.6450005         0.00000000    
  -14.5299997         0.00000000    
  -14.4150000         0.00000000    
  -14.3000002         0.00000000    
  -14.1850004         0.00000000    
  -14.0699997         0.00000000    
  -13.9549999         0.00000000    
  -13.8400002         0.00000000    
  -13.7250004         0.00000000    
  -13.6099997         0.00000000    
  -13.4949999         0.00000000    
  -13.3800001         0.00000000    
  -13.2650003         0.00000000    
  -13.1499996         0.00000000    
  -13.0349998         0.00000000    
  -12.9200001         0.00000000    
  -12.8050003         0.00000000    
  -12.6899996         0.00000000    
  -12.5749998         0.00000000    
  -12.4600000         0.00000000    
  -12.3450003         0.00000000    
  -12.2299995         0.00000000    
  -12.1149998         0.00000000    
  -12.0000000         0.00000000    
  -11.8850002         1.06009947E-33
  -11.7700005        -9.64698826E-33
  -11.6549997        -4.84205019E-32
  -11.5400000        -8.96939041E-32
  -11.4250002        -1.02354501E-31
  -11.3100004        -5.98695436E-32
  -11.1949997         2.92862075E-31
  -11.0799999         1.21058389E-30
  -10.9650002         2.88151601E-30
  -10.8500004         5.21761392E-30
  -10.7349997         7.95210456E-30
  -10.6199999         1.06067703E-29
  -10.5050001         1.26062098E-29
  -10.3900003         1.21497200E-29
  -10.2749996         7.40119305E-30
  -10.1599998        -3.43034379E-30
  -10.0450001        -2.20322338E-29
  -9.93000031        -4.96022023E-29
  -9.81499958        -8.66821526E-29
  -9.69999981        -1.33008526E-28
  -9.58500004        -1.86762831E-28
  -9.47000027        -2.44760683E-28
  -9.35499954        -3.01028821E-28
  -9.23999977        -3.45936451E-28
  -9.12500000        -3.65639389E-28
  -9.01000023        -3.40606537E-28
  -8.89500046        -2.45682794E-28
  -8.77999973        -5.09112238E-29
  -8.66499996         2.76029720E-28
  -8.55000019         7.65956206E-28
  -8.43500042         1.44232643E-27
  -8.31999969         2.31343071E-27
  -8.20499992         3.36208897E-27
  -8.09000015         4.53370496E-27
  -7.97499990         5.72289428E-27
  -7.86000013         6.76131064E-27
  -7.74499989         7.40831833E-27
  -7.63000011         7.34904745E-27
  -7.51499987         6.19989705E-27
  -7.40000010         3.53082701E-27
  -7.28499985        -1.09510341E-27
  -7.17000008        -8.06178097E-27
  -7.05499983        -1.76188724E-26
  -6.94000006        -2.97827471E-26
  -6.82499981        -4.42273203E-26
  -6.71000004        -6.01761711E-26
  -6.59499979        -7.63131714E-26
  -6.48000002        -9.07316813E-26
  -6.36499977        -1.00944977E-25
  -6.25000000        -1.03979928E-25
  -6.13500023        -9.65715693E-26
  -6.01999998        -7.54676173E-26
  -5.90500021        -3.78399382E-26
  -5.78999996         1.82170432E-26
  -5.67500019         9.31396053E-26
  -5.55999994         1.85357316E-25
  -5.44500017         2.90839926E-25
  -5.32999992         4.02814269E-25
  -5.21500015         5.11738112E-25
  -5.09999990         6.05609947E-25
  -4.98500013         6.70665826E-25
  -4.86999989         6.92478422E-25
  -4.75500011         6.57419225E-25
  -4.63999987         5.54385609E-25
  -4.52500010         3.76628894E-25
  -4.40999985         1.23465693E-25
  -4.29500008        -1.98388780E-25
  -4.17999983        -5.74139426E-25
  -4.06500006        -9.81136285E-25
  -3.95000005        -1.39019034E-24
  -3.83500004        -1.76806882E-24
  -3.72000003        -2.08109829E-24
  -3.60500002        -2.29963663E-24
  -3.49000001        -2.40298214E-24
  -3.37500000        -2.38410825E-24
  -3.25999999        -2.25347683E-24
  -3.14499998        -2.04109654E-24
  -3.02999997        -1.79601737E-24
  -2.91499996        -1.58257400E-24
  -2.79999995        -1.47292263E-24
  -2.68499994        -1.53579119E-24
  -2.56999993        -1.82179676E-24
  -2.45499992        -2.34624845E-24
  -2.33999991        -3.07079825E-24
  -2.22499990        -3.88593119E-24
  -2.10999990        -4.59654143E-24
  -1.99500000        -4.91321662E-24
  -1.88000000        -4.45176810E-24
  -1.76499999        -2.74342473E-24
  -1.64999998         7.42381714E-25
  -1.53499997         6.56145786E-24
  -1.41999996         1.52442463E-23
  -1.30499995         2.72320338E-23
  -1.19000006         4.28021759E-23
  -1.07500005         6.19856859E-23
 -0.959999979         8.44821499E-23
 -0.845000029         1.09577929E-22
 -0.730000019         1.36075073E-22
 -0.615000010         1.62238838E-22
 -0.500000000         1.85773095E-22
 -0.384999990         2.03832444E-22
 -0.270000011         2.13080241E-22
 -0.155000001         2.09800436E-22
  -3.99999991E-02     1.90069497E-22
   7.50000030E-02     1.49991842E-22
  0.189999998         8.59984731E-23
  0.305000007        -4.79767453E-24
  0.419999987        -1.24201946E-22
  0.535000026        -2.72513880E-22
  0.649999976        -4.48107830E-22
  0.764999986        -6.47054764E-22
  0.879999995        -8.62828846E-22
  0.995000005        -1.08614863E-21
   1.11000001        -1.30500091E-21
   1.22500002        -1.50489639E-21
   1.34000003        -1.66939134E-21
   1.45500004        -1.78089704E-21
   1.57000005        -1.82177402E-21
   1.68499994        -1.77568152E-21
   1.79999995        -1.62911384E-21
   1.91499996        -1.37302520E-21
   2.02999997        -1.00441133E-21
   2.14499998        -5.27683928E-22
   2.25999999         4.43350052E-23
   2.37500000         6.89981116E-22
   2.49000001         1.37903579E-21
   2.60500002         2.07386095E-21
   2.72000003         2.73143944E-21
   2.83500004         3.30631583E-21
   2.95000005         3.75431713E-21
   3.06500006         4.03685788E-21
   3.18000007         4.12551686E-21
   3.29500008         4.00649332E-21
   3.41000009         3.68448782E-21
   3.52500010         3.18553232E-21
   3.64000010         2.55829374E-21
   3.75500011         1.87346937E-21
   3.86999989         1.22098230E-21
   3.98499990         7.04867691E-22
   4.09999990         4.35934482E-22
   4.21500015         5.22518997E-22
   4.32999992         1.05986858E-21
   4.44500017         2.11890392E-21
   4.55999994         3.73528188E-21
   4.67500019         5.89977121E-21
   4.78999996         8.55098362E-21
   4.90500021         1.15714078E-20
   5.01999998         1.47875337E-20
   5.13500023         1.79745491E-20
   5.25000000         2.08657860E-20
   5.36499977         2.31666115E-20
   5.48000002         2.45721126E-20
   5.59499979         2.47874429E-20
   5.71000004         2.35494071E-20
   5.82499981         2.06475848E-20
   5.94000006         1.59432132E-20
   6.05499983         9.38411929E-21
   6.17000008         1.01417372E-21
   6.28499985        -9.02378358E-21
   6.40000010        -2.04921007E-20
   6.51499987        -3.30694434E-20
   6.63000011        -4.63681068E-20
   6.74499989        -5.99560541E-20
   6.86000013        -7.33816155E-20
   6.97499990        -8.61984237E-20
   7.09000015        -9.79879963E-20
   7.20499992        -1.08377378E-19
   7.32000017        -1.17049740E-19
   7.43499994        -1.23746414E-19
   7.55000019        -1.28259653E-19
   7.66499996        -1.30416863E-19
   7.78000021        -1.30057336E-19
   7.89499998        -1.27004691E-19
   8.01000023        -1.21038250E-19
   8.12500000        -1.11867764E-19
   8.23999977        -9.91158054E-20
   8.35499954        -8.23124519E-20
   8.47000027        -6.09055024E-20
   8.58500004        -3.42892730E-20
   8.69999981        -1.85253803E-21
   8.81499958         3.69548658E-20
   8.93000031         8.25396746E-20
   9.04500008         1.35071847E-19
   9.15999985         1.94386384E-19
   9.27499962         2.59888516E-19
   9.39000034         3.30470442E-19
   9.50500011         4.04448280E-19
   9.61999989         4.79527510E-19
   9.73499966         5.52803252E-19
   9.85000038         6.20800239E-19
   9.96500015         6.79554516E-19
   10.0799999         7.24736000E-19
   10.1949997         7.51808329E-19
   10.3100004         7.56219528E-19
   10.4250002         7.33614853E-19
   10.5400000         6.80059510E-19
   10.6549997         5.92261887E-19
   10.7700005         4.67782165E-19
   10.8850002         3.05217497E-19
   11.0000000         1.04350947E-19
   11.1149998        -1.33742116E-19
   11.2299995        -4.06636716E-19
   11.3450003        -7.10552644E-19
   11.4600000        -1.04040017E-18
   11.5749998        -1.38987498E-18
   11.6899996        -1.75159610E-18
   11.8050003        -2.11728045E-18
   11.9200001        -2.47794608E-18
   12.0349998        -2.82413358E-18
   12.1499996        -3.14613907E-18
   12.2650003        -3.43424959E-18
   12.3800001        -3.67897263E-18
   12.4949999        -3.87125779E-18
   12.6099997        -4.00269845E-18
   12.7250004        -4.06572299E-18
   12.8400002        -4.05375989E-18
   12.9549999        -3.96138657E-18
   13.0699997        -3.78445801E-18
   13.1850004        -3.52021764E-18
   13.3000002        -3.16738727E-18
   13.4150000        -2.72624172E-18
   13.5299997        -2.19866323E-18
   13.6450005        -1.58817871E-18
   13.7600002        -8.99972817E-19
   13.8750000        -1.40877854E-19
   13.9899998         6.80666764E-19
   14.1049995         1.55468958E-18
   14.2200003         2.46980580E-18
   14.3350000         3.41338065E-18
   14.4499998         4.37175128E-18
   14.5649996         5.33051069E-18
   14.6800003         6.27484944E-18
   14.7950001         7.18996969E-18
   14.9099998         8.06156163E-18
   15.0249996         8.87633619E-18
   15.1400003         9.62260447E-18
   15.2550001         1.02908771E-17
   15.3699999         1.08744770E-17
   15.4849997         1.13701120E-17
   15.6000004         1.17784026E-17
   15.7150002         1.21043010E-17
   15.8299999         1.23573670E-17
   15.9449997         1.25518719E-17
   16.0599995         1.27066961E-17
   16.1749992         1.28449792E-17
   16.2900009         1.29935301E-17
   16.4050007         1.31819717E-17
   16.5200005         1.34416510E-17
   16.6350002         1.38043325E-17
   16.7500000         1.43007302E-17
   16.8649998         1.49589426E-17
   16.9799995         1.58028654E-17
   17.0949993         1.68506815E-17
   17.2099991         1.81135034E-17
   17.3250008         1.95942924E-17
   17.4400005         2.12871225E-17
   17.5550003         2.31768629E-17
   17.6700001         2.52393567E-17
   17.7849998         2.74421139E-17
   17.8999996         2.97455108E-17
   18.0149994         3.21045042E-17
   18.1299992         3.44707469E-17
   18.2450008         3.67950848E-17
   18.3600006         3.90302360E-17
   18.4750004         4.11336107E-17
   18.5900002         4.30700239E-17
   18.7049999         4.48142236E-17
   18.8199997         4.63530409E-17
   18.9349995         4.76870814E-17
   19.0499992         4.88317406E-17
   19.1650009         4.98175744E-17
   19.2800007         5.06899323E-17
   19.3950005         5.15078055E-17
   19.5100002         5.23420072E-17
   19.6250000         5.32726450E-17
   19.7399998         5.43861260E-17
   19.8549995         5.57716867E-17
   19.9699993         5.75177127E-17
   20.0849991         5.97079811E-17
   20.2000008         6.24179902E-17
   20.3150005         6.57115058E-17
   20.4300003         6.96376292E-17
   20.5450001         7.42283030E-17
   20.6599998         7.94965898E-17
   20.7749996         8.54356275E-17
   20.8899994         9.20184102E-17
   21.0049992         9.91983710E-17
   21.1200008         1.06910765E-16
   21.2350006         1.15074760E-16
   21.3500004         1.23596215E-16
   21.4650002         1.32370987E-16
   21.5799999         1.41288682E-16
   21.6949997         1.50236646E-16
   21.8099995         1.59104181E-16
   21.9249992         1.67786652E-16
   22.0400009         1.76189444E-16
   22.1550007         1.84231545E-16
   22.2700005         1.91848701E-16
   22.3850002         1.98995978E-16
   22.5000000         2.05649488E-16
   22.6149998         2.11807457E-16
   22.7299995         2.17490228E-16
   22.8449993         2.22739490E-16
   22.9599991         2.27616361E-16
   23.0750008         2.32198783E-16
   23.1900005         2.36577837E-16
   23.3050003         2.40853369E-16
   23.4200001         2.45128847E-16
   23.5349998         2.49505757E-16
   23.6499996         2.54077618E-16
   23.7649994         2.58923864E-16
   23.8799992         2.64103655E-16
   23.9950008         2.69650212E-16
   24.1100006         2.75565335E-16
   24.2250004         2.81815167E-16
   24.3400002         2.88326548E-16
   24.4549999         2.94984783E-16
   24.5699997         3.01632879E-16
   24.6849995         3.08072447E-16
   24.7999992         3.14066211E-16
   24.9150009         3.19342485E-16
   25.0300007         3.23601552E-16
   25.1450005         3.26523578E-16
   25.2600002         3.27778510E-16
   25.3750000         3.27037224E-16
   25.4899998         3.23983829E-16
   25.6049995         3.18328799E-16
   25.7199993         3.09822073E-16
   25.8349991         2.98266241E-16
   25.9500008         2.83528238E-16
   26.0650005         2.65550044E-16
   26.1800003         2.44356697E-16
   26.2950001         2.20061516E-16
   26.4099998         1.92867721E-16
   26.5249996         1.63066138E-16
   26.6399994         1.31028546E-16
   26.7549992         9.71960844E-17
   26.8700008         6.20634937E-17
   26.9850006         2.61584900E-17
   27.1000004        -9.98221959E-18
   27.2150002        -4.58401790E-17
   27.3299999        -8.09450956E-17
   27.4449997        -1.14904890E-16
   27.5599995        -1.47436355E-16
   27.6749992        -1.78392550E-16
   27.7900009        -2.07787889E-16
   27.9050007        -2.35817572E-16
   28.0200005        -2.62870164E-16
   28.1350002        -2.89533093E-16
   28.2500000        -3.16588305E-16
   28.3649998        -3.44999087E-16
   28.4799995        -3.75886435E-16
   28.5949993        -4.10496915E-16
   28.7099991        -4.50160318E-16
   28.8250008        -4.96240711E-16
   28.9400005        -5.50081831E-16
   29.0550003        -6.12948245E-16
   29.1700001        -6.85966032E-16
   29.2849998        -7.70064757E-16
   29.3999996        -8.65925170E-16
   29.5149994        -9.73933200E-16
   29.6299992        -1.09414528E-15
   29.7450008        -1.22626633E-15
   29.8600006        -1.36964169E-15
   29.9750004        -1.52326657E-15
   30.0900002        -1.68580976E-15
   30.2049999        -1.85565691E-15
   30.3199997        -2.03096541E-15
   30.4349995        -2.20973616E-15
   30.5499992        -2.38989541E-15
   30.6650009        -2.56938360E-15
   30.7800007        -2.74624895E-15
   30.8950005        -2.91874001E-15
   31.0100002        -3.08539565E-15
   31.1250000        -3.24512468E-15
   31.2399998        -3.39727297E-15
   31.3549995        -3.54167557E-15
   31.4699993        -3.67868696E-15
   31.5849991        -3.80919102E-15
   31.7000008        -3.93458959E-15
   31.8150005        -4.05676562E-15
   31.9300003        -4.17802262E-15
   32.0449982        -4.30100630E-15
   32.1599998        -4.42860631E-15
   32.2750015        -4.56384190E-15
   32.3899994        -4.70973993E-15
   32.5050011        -4.86920701E-15
   32.6199989        -5.04489943E-15
   32.7350006        -5.23909910E-15
   32.8499985        -5.45360130E-15
   32.9650002        -5.68961560E-15
   33.0800018        -5.94768578E-15
   33.1949997        -6.22763653E-15
   33.3100014        -6.52854286E-15
   33.4249992        -6.84872640E-15
   33.5400009        -7.18578368E-15
   33.6549988        -7.53664082E-15
   33.7700005        -7.89763525E-15
   33.8849983        -8.26461820E-15
   34.0000000        -8.63308177E-15
   34.1150017        -8.99830205E-15
   34.2299995        -9.35548991E-15
   34.3450012        -9.69994603E-15
   34.4599991        -1.00272269E-14
   34.5750008        -1.03332878E-14
   34.6899986        -1.06146264E-14
   34.8050003        -1.08684060E-14
   34.9199982        -1.10925520E-14
   35.0349998        -1.12858356E-14
   35.1500015        -1.14479146E-14
   35.2649994        -1.15793461E-14
   35.3800011        -1.16815771E-14
   35.4949989        -1.17568893E-14
   35.6100006        -1.18083203E-14
   35.7249985        -1.18395529E-14
   35.8400002        -1.18547724E-14
   35.9550018        -1.18585112E-14
   36.0699997        -1.18554628E-14
   36.1850014        -1.18502908E-14
   36.2999992        -1.18474295E-14
   36.4150009        -1.18508769E-14
   36.5299988        -1.18640026E-14
   36.6450005        -1.18893585E-14
   36.7599983        -1.19285160E-14
   36.8750000        -1.19819231E-14
   36.9900017        -1.20487938E-14
   37.1049995        -1.21270342E-14
   37.2200012        -1.22132173E-14
   37.3349991        -1.23025911E-14
   37.4500008        -1.23891443E-14
   37.5649986        -1.24657136E-14
   37.6800003        -1.25241470E-14
   37.7949982        -1.25554999E-14
   37.9099998        -1.25502864E-14
   38.0250015        -1.24987504E-14
   38.1399994        -1.23911730E-14
   38.2550011        -1.22181995E-14
   38.3699989        -1.19711590E-14
   38.4850006        -1.16423874E-14
   38.5999985        -1.12255294E-14
   38.7150002        -1.07158070E-14
   38.8300018        -1.01102462E-14
   38.9449997        -9.40783994E-15
   39.0600014        -8.60965369E-15
   39.1749992        -7.71884438E-15
   39.2900009        -6.74060984E-15
   39.4049988        -5.68205286E-15
   39.5200005        -4.55195464E-15
   39.6349983        -3.36048612E-15
   39.7500000        -2.11883449E-15
   39.8650017        -8.38783376E-16
   39.9799995         4.67759651E-16
   40.0950012         1.78925292E-15
   40.2099991         3.11502465E-15
   40.3250008         4.43576501E-15
   40.4399986         5.74397394E-15
   40.5550003         7.03436002E-15
   40.6699982         8.30415685E-15
   40.7849998         9.55335766E-15
   40.9000015         1.07848326E-14
   41.0149994         1.20043313E-14
   41.1300011         1.32203539E-14
   41.2449989         1.44439243E-14
   41.3600006         1.56881988E-14
   41.4749985         1.69680130E-14
   41.5900002         1.82992829E-14
   41.7050018         1.96983729E-14
   41.8199997         2.11813887E-14
   41.9350014         2.27634514E-14
   42.0499992         2.44579798E-14
   42.1650009         2.62760174E-14
   42.2799988         2.82255942E-14
   42.3950005         3.03112434E-14
   42.5099983         3.25335834E-14
   42.6250000         3.48890872E-14
   42.7400017         3.73699857E-14
   42.8549995         3.99643562E-14
   42.9700012         4.26563929E-14
   43.0849991         4.54268140E-14
   43.2000008         4.82534612E-14
   43.3149986         5.11120043E-14
   43.4300003         5.39767477E-14
   43.5449982         5.68215722E-14
   43.6599998         5.96208128E-14
   43.7750015         6.23502172E-14
   43.8899994         6.49878101E-14
   44.0050011         6.75146584E-14
   44.1199989         6.99155767E-14
   44.2350006         7.21795670E-14
   44.3499985         7.43001580E-14
   44.4650002         7.62754795E-14
   44.5800018         7.81081742E-14
   44.6949997         7.98050252E-14
   44.8100014         8.13764136E-14
   44.9249992         8.28356277E-14
   45.0400009         8.41979142E-14
   45.1549988         8.54794683E-14
   45.2700005         8.66963768E-14
   45.3849983         8.78634324E-14
   45.5000000         8.89930558E-14
   45.6150017         9.00942461E-14
   45.7299995         9.11716923E-14
   45.8450012         9.22249812E-14
   45.9599991         9.32481021E-14
   46.0750008         9.42291221E-14
   46.1899986         9.51501654E-14
   46.3050003         9.59876303E-14
   46.4199982         9.67127244E-14
   46.5349998         9.72922033E-14
   46.6500015         9.76893466E-14
   46.7649994         9.78652313E-14
   46.8800011         9.77800198E-14
   46.9949989         9.73944165E-14
   47.1100006         9.66711994E-14
   47.2249985         9.55766567E-14
   47.3400002         9.40819891E-14
   47.4550018         9.21645572E-14
   47.5699997         8.98089247E-14
   47.6850014         8.70075767E-14
   47.7999992         8.37614347E-14
   47.9150009         8.00799585E-14
   48.0299988         7.59809086E-14
   48.1450005         7.14897637E-14
   48.2599983         6.66387721E-14
   48.3750000         6.14657183E-14
   48.4900017         5.60123000E-14
   48.6049995         5.03224239E-14
   48.7200012         4.44401968E-14
   48.8349991         3.84079196E-14
   48.9500008         3.22640406E-14
   49.0649986         2.60412013E-14
   49.1800003         1.97644228E-14
   49.2949982         1.34495974E-14
   49.4099998         7.10231875E-15
   49.5250015         7.17023660E-16
   49.6399994        -5.72329024E-15
   49.7550011        -1.22469326E-14
   49.8699989        -1.88928412E-14
   49.9850006        -2.57094185E-14
   50.0999985        -3.27527922E-14
   50.2150002        -4.00848483E-14
   50.3300018        -4.77706220E-14
   50.4449997        -5.58755956E-14
   50.5600014        -6.44626971E-14
   50.6749992        -7.35892602E-14
   50.7900009        -8.33039760E-14
   50.9049988        -9.36440595E-14
   51.0200005        -1.04632713E-13
   51.1349983        -1.16276861E-13
   51.2500000        -1.28565588E-13
   51.3650017        -1.41469003E-13
   51.4799995        -1.54937952E-13
   51.5950012        -1.68904197E-13
   51.7099991        -1.83281653E-13
   51.8250008        -1.97968039E-13
   51.9399986        -2.12847508E-13
   52.0550003        -2.27793695E-13
   52.1699982        -2.42673503E-13
   52.2849998        -2.57351025E-13
   52.4000015        -2.71692066E-13
   52.5149994        -2.85568607E-13
   52.6300011        -2.98863229E-13
   52.7449989        -3.11473449E-13
   52.8600006        -3.23315593E-13
   52.9749985        -3.34327943E-13
   53.0900002        -3.44473365E-13
   53.2050018        -3.53740989E-13
   53.3199997        -3.62146944E-13
   53.4350014        -3.69733974E-13
   53.5499992        -3.76570032E-13
   53.6650009        -3.82745701E-13
   53.7799988        -3.88370624E-13
   53.8950005        -3.93568966E-13
   54.0099983        -3.98474087E-13
   54.1250000        -4.03222377E-13
   54.2400017        -4.07946897E-13
   54.3549995        -4.12770621E-13
   54.4700012        -4.17799801E-13
   54.5849991        -4.23117569E-13
   54.7000008        -4.28778215E-13
   54.8149986        -4.34802314E-13
   54.9300003        -4.41172977E-13
   55.0449982        -4.47833258E-13
   55.1599998        -4.54685362E-13
   55.2750015        -4.61591106E-13
   55.3899994        -4.68374417E-13
   55.5050011        -4.74825095E-13
   55.6199989        -4.80704615E-13
   55.7350006        -4.85753039E-13
   55.8499985        -4.89697421E-13
   55.9650002        -4.92260800E-13
   56.0800018        -4.93172397E-13
   56.1949997        -4.92177371E-13
   56.3100014        -4.89047225E-13
   56.4249992        -4.83589405E-13
   56.5400009        -4.75655431E-13
   56.6549988        -4.65148753E-13
   56.7700005        -4.52030259E-13
   56.8849983        -4.36321958E-13
   57.0000000        -4.18108555E-13
   57.1150017        -3.97536740E-13
   57.2299995        -3.74811944E-13
   57.3450012        -3.50192884E-13
   57.4599991        -3.23983814E-13
   57.5750008        -2.96524741E-13
   57.6899986        -2.68179955E-13
   57.8050003        -2.39325324E-13
   57.9199982        -2.10334490E-13
   58.0349998        -1.81565063E-13
   58.1500015        -1.53344487E-13
   58.2649994        -1.25956971E-13
   58.3800011        -9.96314305E-14
   58.4949989        -7.45313167E-14
   58.6100006        -5.07464554E-14
   58.7249985        -2.82876021E-14
   58.8400002        -7.08373866E-15
   58.9550018         1.30173175E-14
   59.0699997         3.22453957E-14
   59.1850014         5.09012117E-14
   59.2999992         6.93466890E-14
   59.4150009         8.79924727E-14
   59.5299988         1.07283140E-13
   59.6450005         1.27680513E-13
   59.7599983         1.49645812E-13
   59.8750000         1.73620816E-13
   59.9900017         2.00009375E-13
   60.1049995         2.29159384E-13
   60.2200012         2.61346066E-13
   60.3349991         2.96757654E-13
   60.4500008         3.35483350E-13
   60.5649986         3.77504560E-13
   60.6800003         4.22690041E-13
   60.7949982         4.70794736E-13
   60.9099998         5.21462322E-13
   61.0250015         5.74232556E-13
   61.1399994         6.28552061E-13
   61.2550011         6.83789180E-13
   61.3699989         7.39251705E-13
   61.4850006         7.94207419E-13
   61.5999985         8.47906706E-13
   61.7150002         8.99606615E-13
   61.8300018         9.48594610E-13
   61.9449997         9.94212850E-13
   62.0600014         1.03588037E-12
   62.1749992         1.07311328E-12
   62.2900009         1.10554209E-12
   62.4049988         1.13292568E-12
   62.5200005         1.15515974E-12
   62.6349983         1.17228221E-12
   62.7500000         1.18447223E-12
   62.8650017         1.19204527E-12
   62.9799995         1.19544207E-12
   63.0950012         1.19521374E-12
   63.2099991         1.19200255E-12
   63.3250008         1.18651833E-12
   63.4399986         1.17951308E-12
   63.5550003         1.17175215E-12
   63.6699982         1.16398557E-12
   63.7849998         1.15691896E-12
   63.9000015         1.15118516E-12
   64.0149994         1.14731900E-12
   64.1299973         1.14573379E-12
   64.2450027         1.14670263E-12
   64.3600006         1.15034447E-12
   64.4749985         1.15661560E-12
   64.5899963         1.16530667E-12
   64.7050018         1.17604613E-12
   64.8199997         1.18830922E-12
   64.9349976         1.20143348E-12
   65.0500031         1.21463896E-12
   65.1650009         1.22705383E-12
   65.2799988         1.23774352E-12
   65.3949966         1.24574298E-12
   65.5100021         1.25009074E-12
   65.6250000         1.24986339E-12
   65.7399979         1.24420938E-12
   65.8550034         1.23238052E-12
   65.9700012         1.21376130E-12
   66.0849991         1.18789277E-12
   66.1999969         1.15449100E-12
   66.3150024         1.11346078E-12
   66.4300003         1.06490121E-12
   66.5449982         1.00910491E-12
   66.6600037         9.46549913E-13
   66.7750015         8.77885004E-13
   66.8899994         8.03908535E-13
   67.0049973         7.25541209E-13
   67.1200027         6.43795022E-13
   67.2350006         5.59737640E-13
   67.3499985         4.74455327E-13
   67.4649963         3.89014938E-13
   67.5800018         3.04426216E-13
   67.6949997         2.21606533E-13
   67.8099976         1.41348833E-13
   67.9250031         6.42943815E-14
   68.0400009        -9.08878211E-15
   68.1549988        -7.85208419E-14
   68.2699966        -1.43917877E-13
   68.3850021        -2.05392384E-13
   68.5000000        -2.63246185E-13
   68.6149979        -3.17956002E-13
   68.7300034        -3.70152395E-13
   68.8450012        -4.20593004E-13
   68.9599991        -4.70130770E-13
   69.0749969        -5.19678647E-13
   69.1900024        -5.70172490E-13
   69.3050003        -6.22532082E-13
   69.4199982        -6.77623485E-13
   69.5350037        -7.36223311E-13
   69.6500015        -7.98986691E-13
   69.7649994        -8.66418265E-13
   69.8799973        -9.38850885E-13
   69.9950027        -1.01642945E-12
   70.1100006        -1.09910139E-12
   70.2249985        -1.18661558E-12
   70.3399963        -1.27852698E-12
   70.4550018        -1.37420999E-12
   70.5699997        -1.47287683E-12
   70.6849976        -1.57360247E-12
   70.8000031        -1.67535441E-12
   70.9150009        -1.77702623E-12
   71.0299988        -1.87747322E-12
   71.1449966        -1.97554906E-12
   71.2600021        -2.07014440E-12
   71.3750000        -2.16022057E-12
   71.4899979        -2.24484320E-12
   71.6050034        -2.32321042E-12
   71.7200012        -2.39467821E-12
   71.8349991        -2.45877667E-12
   71.9499969        -2.51522284E-12
   72.0650024        -2.56392477E-12
   72.1800003        -2.60498155E-12
   72.2949982        -2.63867248E-12
   72.4100037        -2.66544252E-12
   72.5250015        -2.68588277E-12
   72.6399994        -2.70070316E-12
   72.7549973        -2.71070254E-12
   72.8700027        -2.71673721E-12
   72.9850006        -2.71968494E-12
   73.0999985        -2.72041114E-12
   73.2149963        -2.71973394E-12
   73.3300018        -2.71839344E-12
   73.4449997        -2.71702105E-12
   73.5599976        -2.71611618E-12
   73.6750031        -2.71602424E-12
   73.7900009        -2.71692478E-12
   73.9049988        -2.71882213E-12
   74.0199966        -2.72154283E-12
   74.1350021        -2.72474014E-12