  -18.8999996         0.00000000    
  -18.7849998         0.00000000    
  -18.6700001         0.00000000    
  -18.5550003         0.00000000    
  -18.4400005         0.00000000    
  -18.3250008         0.00000000    
  -18.2099991         0.00000000    
  -18.0949993         0.00000000    
  -17.9799995         0.00000000    
  -17.8649998         0.00000000    
  -17.7500000         0.00000000    
  -17.6350002         0.00000000    
  -17.5200005         0.00000000    
  -17.4050007         0.00000000    
  -17.2900009         0.00000000    
  -17.1749992         0.00000000    
  -17.0599995         0.00000000    
  -16.9449997         0.00000000    
  -16.8299999         0.00000000    
  -16.7150002         0.00000000    
  -16.6000004         0.00000000    
  -16.4850006         0.00000000    
  -16.3700008         0.00000000    
  -16.2549992         0.00000000    
  -16.1399994         0.00000000    
  -16.0249996         0.00000000    
  -15.9099998         0.00000000    
  -15.7950001         0.00000000    
  -15.6800003         0.00000000    
  -15.5649996         0.00000000    
  -15.4499998         0.00000000    
  -15.3350000         0.00000000    
  -15.2200003         0.00000000    
  -15.1049995         0.00000000    
  -14.9899998         0.00000000    
  -14.8750000         0.00000000    
  -14.7600002         0.00000000    
  -14.6450005         0.00000000    
  -14.5299997         0.00000000    
  -14.4150000         0.00000000    
  -14.3000002         0.00000000    
  -14.1850004         0.00000000    
  -14.0699997         0.00000000    
  -13.9549999         0.00000000    
  -13.8400002         0.00000000    
  -13.7250004         0.00000000    
  -13.6099997         0.00000000    
  -13.4949999         0.00000000    
  -13.3800001         0.00000000    
  -13.2650003         0.00000000    
  -13.1499996         0.00000000    
  -13.0349998         0.00000000    
  -12.9200001         0.00000000    
  -12.8050003         0.00000000    
  -12.6899996         0.00000000    
  -12.5749998         0.00000000    
  -12.4600000         0.00000000    
  -12.3450003         0.00000000    
  -12.2299995         0.00000000    
  -12.1149998         0.00000000    
  -12.0000000         0.00000000    
  -11.8850002        -5.13144932E-34
  -11.7700005         4.06420971E-32
  -11.6549997         1.72555424E-31
  -11.5400000         4.08612604E-31
  -11.4250002         7.17145876E-31
  -11.3100004         1.10756940E-30
  -11.1949997         1.42619156E-30
  -11.0799999         1.67259549E-30
  -10.9650002         1.76623255E-30
  -10.8500004         1.51737306E-30
  -10.7349997         7.38184874E-31
  -10.6199999        -8.36519114E-31
  -10.5050001        -3.74104143E-30
  -10.3900003        -8.66055337E-30
  -10.2749996        -1.63288691E-29
  -10.1599998        -2.71815972E-29
  -10.0450001        -4.10357984E-29
  -9.93000031        -5.69129090E-29
  -9.81499958        -7.31117734E-29
  -9.69999981        -8.69672203E-29
  -9.58500004        -9.48438826E-29
  -9.47000027        -9.24669360E-29
  -9.35499954        -7.46789206E-29
  -9.23999977        -3.60356027E-29
  -9.12500000         2.87113062E-29
  -9.01000023         1.24057851E-28
  -8.89500046         2.51697112E-28
  -8.77999973         4.11053010E-28
  -8.66499996         5.97393809E-28
  -8.55000019         8.00561122E-28
  -8.43500042         1.00491510E-27
  -8.31999969         1.18891671E-27
  -8.20499992         1.32464893E-27
  -8.09000015         1.37921072E-27
  -7.97499990         1.31610483E-27
  -7.86000013         1.09856084E-27
  -7.74499989         6.90061036E-28
  -7.63000011         5.89843610E-29
  -7.51499987        -8.18749123E-28
  -7.40000010        -1.95520446E-27
  -7.28499985        -3.34697042E-27
  -7.17000008        -4.96968157E-27
  -7.05499983        -6.77413348E-27
  -6.94000006        -8.68182102E-27
  -6.82499981        -1.05804998E-26
  -6.71000004        -1.23204050E-26
  -6.59499979        -1.37120496E-26
  -6.48000002        -1.45268566E-26
  -6.36499977        -1.45016855E-26
  -6.25000000        -1.33495803E-26
  -6.13500023        -1.07783067E-26
  -6.01999998        -6.51830682E-27
  -5.90500021        -3.60471878E-28
  -5.78999996         7.79623221E-27
  -5.67500019         1.78903777E-26
  -5.55999994         2.96416149E-26
  -5.44500017         4.24992280E-26
  -5.32999992         5.56058438E-26
  -5.21500015         6.77872490E-26
  -5.09999990         7.75809633E-26
  -4.98500013         8.33141085E-26
  -4.86999989         8.32383101E-26
  -4.75500011         7.57237444E-26
  -4.63999987         5.95061077E-26
  -4.52500010         3.39704460E-26
  -4.40999985        -5.55341899E-28
  -4.29500008        -4.25344371E-26
  -4.17999983        -8.90298680E-26
  -4.06500006        -1.35638790E-25
  -3.95000005        -1.76601058E-25
  -3.83500004        -2.05126219E-25
  -3.72000003        -2.13959341E-25
  -3.60500002        -1.96188080E-25
  -3.49000001        -1.46254763E-25
  -3.37500000        -6.11021582E-26
  -3.25999999         5.86563936E-26
  -3.14499998         2.07688637E-25
  -3.02999997         3.75187399E-25
  -2.91499996         5.44585886E-25
  -2.79999995         6.93916023E-25
  -2.68499994         7.96952252E-25
  -2.56999993         8.25216497E-25
  -2.45499992         7.50841409E-25
  -2.33999991         5.50213126E-25
  -2.22499990         2.08154755E-25
  -2.10999990        -2.77637525E-25
  -1.99500000        -8.92347229E-25
  -1.88000000        -1.60045580E-24
  -1.76499999        -2.34337522E-24
  -1.64999998        -3.03883894E-24
  -1.53499997        -3.58252345E-24
  -1.41999996        -3.85231191E-24
  -1.30499995        -3.71543586E-24
  -1.19000006        -3.03856224E-24
  -1.07500005        -1.70067091E-24
 -0.959999979         3.91705530E-25
 -0.845000029         3.28742399E-24
 -0.730000019         6.97291036E-24
 -0.615000010         1.13545065E-23
 -0.500000000         1.62425340E-23
 -0.384999990         2.13384729E-23
 -0.270000011         2.62270124E-23
 -0.155000001         3.03748115E-23
  -3.99999991E-02     3.31377558E-23
   7.50000030E-02     3.37785349E-23
  0.189999998         3.14960605E-23
  0.305000007         2.54678505E-23
  0.419999987         1.49059118E-23
  0.535000026        -8.74292964E-25
  0.649999976        -2.23734111E-23
  0.764999986        -4.98194155E-23
  0.879999995        -8.30748094E-23
  0.995000005        -1.21547070E-22
   1.11000001        -1.64109246E-22
   1.22500002        -2.09041602E-22
   1.34000003        -2.54003366E-22
   1.45500004        -2.96045614E-22
   1.57000005        -3.31673904E-22
   1.68499994        -3.56968950E-22
   1.79999995        -3.67766651E-22
   1.91499996        -3.59897530E-22
   2.02999997        -3.29477110E-22
   2.14499998        -2.73232640E-22
   2.25999999        -1.88846132E-22
   2.37500000        -7.52848774E-23
   2.49000001         6.69111694E-23
   2.60500002         2.35420454E-22
   2.72000003         4.26041687E-22
   2.83500004         6.32738542E-22
   2.95000005         8.47844174E-22
   3.06500006         1.06243837E-21
   3.18000007         1.26688840E-21
   3.29500008         1.45153062E-21
   3.41000009         1.60744962E-21
   3.52500010         1.72729630E-21
   3.64000010         1.80606587E-21
   3.75500011         1.84176004E-21
   3.86999989         1.83583831E-21
   3.98499990         1.79338290E-21
   4.09999990         1.72290958E-21
   4.21500015         1.63578460E-21
   4.32999992         1.54523528E-21
   4.44500017         1.46498311E-21
   4.55999994         1.40756979E-21
   4.67500019         1.38248295E-21
   4.78999996         1.39423191E-21
   4.90500021         1.44053797E-21
   5.01999998         1.51083246E-21
   5.13500023         1.58524600E-21
   5.25000000         1.63425332E-21
   5.36499977         1.61911093E-21
   5.48000002         1.49315410E-21
   5.59499979         1.20397814E-21
   5.71000004         6.96442455E-22
   5.82499981        -8.36534357E-23
   5.94000006        -1.18540485E-21
   6.05499983        -2.64842330E-21
   6.17000008        -4.49854502E-21
   6.28499985        -6.74394457E-21
   6.40000010        -9.37193453E-21
   6.51499987        -1.23467604E-20
   6.63000011        -1.56085250E-20
   6.74499989        -1.90734052E-20
   6.86000013        -2.26351577E-20
   6.97499990        -2.61678005E-20
   7.09000015        -2.95293074E-20
   7.20499992        -3.25660458E-20
   7.32000017        -3.51176524E-20
   7.43499994        -3.70220096E-20
   7.55000019        -3.81199981E-20
   7.66499996        -3.82598401E-20
   7.78000021        -3.73007565E-20
   7.89499998        -3.51160013E-20
   8.01000023        -3.15953041E-20
   8.12500000        -2.66468480E-20
   8.23999977        -2.01991576E-20
   8.35499954        -1.22031759E-20
   8.47000027        -2.63489498E-21
   8.58500004         8.50110156E-21
   8.69999981         2.11670284E-20
   8.81499958         3.52860677E-20
   8.93000031         5.07354201E-20
   9.04500008         6.73386411E-20
   9.15999985         8.48575510E-20
   9.27499962         1.02984581E-19
   9.39000034         1.21336474E-19
   9.50500011         1.39449830E-19
   9.61999989         1.56779988E-19
   9.73499966         1.72703654E-19
   9.85000038         1.86526113E-19
   9.96500015         1.97493766E-19
   10.0799999         2.04811535E-19
   10.1949997         2.07665864E-19
   10.3100004         2.05252177E-19
   10.4250002         1.96806715E-19
   10.5400000         1.81641069E-19
   10.6549997         1.59179225E-19
   10.7700005         1.28994874E-19
   10.8850002         9.08487168E-20
   11.0000000         4.47238560E-20
   11.1149998        -9.14152192E-21
   11.2299995        -7.02250620E-20
   11.3450003        -1.37695651E-19
   11.4600000        -2.10393945E-19
   11.5749998        -2.86818880E-19
   11.6899996        -3.65119849E-19
   11.8050003        -4.43096407E-19
   11.9200001        -5.18204717E-19
   12.0349998        -5.87572755E-19
   12.1499996        -6.48023890E-19
   12.2650003        -6.96110536E-19
   12.3800001        -7.28158821E-19
   12.4949999        -7.40323805E-19
   12.6099997        -7.28657560E-19
   12.7250004        -6.89188533E-19
   12.8400002        -6.18012175E-19
   12.9549999        -5.11392316E-19
   13.0699997        -3.65869585E-19
   13.1850004        -1.78376278E-19
   13.3000002         5.36496421E-20
   13.4150000         3.32151816E-19
   13.5299997         6.58352222E-19
   13.6450005         1.03266065E-18
   13.7600002         1.45460466E-18
   13.8750000         1.92278071E-18
   13.9899998         2.43483529E-18
   14.1049995         2.98747528E-18
   14.2200003         3.57650977E-18
   14.3350000         4.19692666E-18
   14.4499998         4.84299359E-18
   14.5649996         5.50839505E-18
   14.6800003         6.18637958E-18
   14.7950001         6.86992937E-18
   14.9099998         7.55194062E-18
   15.0249996         8.22539716E-18
   15.1400003         8.88354258E-18
   15.2550001         9.52004400E-18
   15.3699999         1.01291202E-17
   15.4849997         1.07056701E-17
   15.6000004         1.12453500E-17
   15.7150002         1.17446412E-17
   15.8299999         1.22008735E-17
   15.9449997         1.26122387E-17
   16.0599995         1.29777549E-17
   16.1749992         1.32972327E-17
   16.2900009         1.35711991E-17
   16.4050007         1.38008302E-17
   16.5200005         1.39878409E-17
   16.6350002         1.41344024E-17
   16.7500000         1.42430129E-17
   16.8649998         1.43163970E-17
   16.9799995         1.43573739E-17
   17.0949993         1.43687427E-17
   17.2099991         1.43531635E-17
   17.3250008         1.43130320E-17
   17.4400005         1.42503648E-17
   17.5550003         1.41667021E-17
   17.6700001         1.40629935E-17
   17.7849998         1.39395418E-17
   17.8999996         1.37959251E-17
   18.0149994         1.36309803E-17
   18.1299992         1.34427834E-17
   18.2450008         1.32286876E-17
   18.3600006         1.29853757E-17
   18.4750004         1.27089527E-17
   18.5900002         1.23950475E-17
   18.7049999         1.20389587E-17
   18.8199997         1.16357785E-17
   18.9349995         1.11805437E-17
   19.0499992         1.06683543E-17
   19.1650009         1.00944581E-17
   19.2800007         9.45431292E-18
   19.3950005         8.74357535E-18
   19.5100002         7.95803998E-18
   19.6250000         7.09348569E-18
   19.7399998         6.14547012E-18
   19.8549995         5.10903266E-18
   19.9699993         3.97832888E-18
   20.0849991         2.74622288E-18
   20.2000008         1.40380160E-18
   20.3150005        -6.01120423E-20
   20.4300003        -1.65945335E-18
   20.5450001        -3.41141610E-18
   20.6599998        -5.33687832E-18
   20.7749996        -7.46079276E-18
   20.8899994        -9.81245318E-18
   21.0049992        -1.24256540E-17
   21.1200008        -1.53387459E-17
   21.2350006        -1.85944726E-17
   21.3500004        -2.22396971E-17
   21.4650002        -2.63249452E-17
   21.5799999        -3.09037456E-17
   21.6949997        -3.60318783E-17
   21.8099995        -4.17664038E-17
   21.9249992        -4.81646360E-17
   22.0400009        -5.52829751E-17
   22.1550007        -6.31757472E-17
   22.2700005        -7.18940787E-17
   22.3850002        -8.14847019E-17
   22.5000000        -9.19890486E-17
   22.6149998        -1.03442397E-16
   22.7299995        -1.15873287E-16
   22.8449993        -1.29303272E-16
   22.9599991        -1.43746904E-16
   23.0750008        -1.59212151E-16
   23.1900005        -1.75701037E-16
   23.3050003        -1.93210889E-16
   23.4200001        -2.11735513E-16
   23.5349998        -2.31267232E-16
   23.6499996        -2.51798384E-16
   23.7649994        -2.73323609E-16
   23.8799992        -2.95841821E-16
   23.9950008        -3.19358261E-16
   24.1100006        -3.43886086E-16
   24.2250004        -3.69447978E-16
   24.3400002        -3.96077291E-16
   24.4549999        -4.23818467E-16
   24.5699997        -4.52727146E-16
   24.6849995        -4.82869713E-16
   24.7999992        -5.14322164E-16
   24.9150009        -5.47168196E-16
   25.0300007        -5.81497277E-16
   25.1450005        -6.17401468E-16
   25.2600002        -6.54972938E-16
   25.3750000        -6.94300625E-16
   25.4899998        -7.35466479E-16
   25.6049995        -7.78542975E-16
   25.7199993        -8.23589616E-16
   25.8349991        -8.70650661E-16
   25.9500008        -9.19752632E-16
   26.0650005        -9.70903681E-16
   26.1800003        -1.02409206E-15
   26.2950001        -1.07928642E-15
   26.4099998        -1.13643711E-15
   26.5249996        -1.19547742E-15
   26.6399994        -1.25632615E-15
   26.7549992        -1.31889086E-15
   26.8700008        -1.38307118E-15
   26.9850006        -1.44876335E-15
   27.1000004        -1.51586488E-15
   27.2150002        -1.58427793E-15
   27.3299999        -1.65391494E-15
   27.4449997        -1.72470255E-15
   27.5599995        -1.79658441E-15
   27.6749992        -1.86952475E-15
   27.7900009        -1.94351053E-15
   27.9050007        -2.01855193E-15
   28.0200005        -2.09468241E-15
   28.1350002        -2.17195850E-15
   28.2500000        -2.25045410E-15
   28.3649998        -2.33026091E-15
   28.4799995        -2.41147951E-15
   28.5949993        -2.49421514E-15
   28.7099991        -2.57857031E-15
   28.8250008        -2.66463817E-15
   28.9400005        -2.75249243E-15
   29.0550003        -2.84218115E-15
   29.1700001        -2.93371831E-15
   29.2849998        -3.02707743E-15
   29.3999996        -3.12218377E-15
   29.5149994        -3.21891155E-15
   29.6299992        -3.31707864E-15
   29.7450008        -3.41644556E-15
   29.8600006        -3.51671774E-15
   29.9750004        -3.61754346E-15
   30.0900002        -3.71852123E-15
   30.2049999        -3.81920337E-15
   30.3199997        -3.91910540E-15
   30.4349995        -4.01771190E-15
   30.5499992        -4.11448880E-15
   30.6650009        -4.20889147E-15
   30.7800007        -4.30037526E-15
   30.8950005        -4.38840570E-15
   31.0100002        -4.47246906E-15
   31.1250000        -4.55207788E-15
   31.2399998        -4.62677983E-15
   31.3549995        -4.69616326E-15
   31.4699993        -4.75985718E-15
   31.5849991        -4.81753504E-15
   31.7000008        -4.86891352E-15
   31.8150005        -4.91374528E-15
   31.9300003        -4.95181729E-15
   32.0449982        -4.98294109E-15
   32.1599998        -5.00694135E-15
   32.2750015        -5.02364399E-15
   32.3899994        -5.03286733E-15
   32.5050011        -5.03440343E-15
   32.6199989        -5.02800579E-15
   32.7350006        -5.01337329E-15
   32.8499985        -4.99013960E-15
   32.9650002        -4.95785494E-15
   33.0800018        -4.91597763E-15
   33.1949997        -4.86386435E-15
   33.3100014        -4.80076252E-15
   33.4249992        -4.72580688E-15
   33.5400009        -4.63801784E-15
   33.6549988        -4.53630528E-15
   33.7700005        -4.41947487E-15
   33.8849983        -4.28624209E-15
   34.0000000        -4.13524111E-15
   34.1150017        -3.96504720E-15
   34.2299995        -3.77419882E-15
   34.3450012        -3.56121831E-15
   34.4599991        -3.32463989E-15
   34.5750008        -3.06303631E-15
   34.6899986        -2.77504511E-15
   34.8050003        -2.45939489E-15
   34.9199982        -2.11492988E-15
   35.0349998        -1.74063111E-15
   35.1500015        -1.33563459E-15
   35.2649994        -8.99241941E-16
   35.3800011        -4.30932274E-16
   35.4949989         6.96378079E-17
   35.6100006         6.02636202E-16
   35.7249985         1.16806225E-15
   35.8400002         1.76576321E-15
   35.9550018         2.39544983E-15
   36.0699997         3.05671787E-15
   36.1850014         3.74907540E-15
   36.2999992         4.47196804E-15
   36.4150009         5.22481008E-15
   36.5299988         6.00700308E-15
   36.6450005         6.81797106E-15
   36.7599983         7.65717700E-15
   36.8750000         8.52414148E-15
   36.9900017         9.41845834E-15
   37.1049995         1.03398049E-14
   37.2200012         1.12879388E-14
   37.3349991         1.22626908E-14
   37.4500008         1.32639617E-14
   37.5649986         1.42916938E-14
   37.6800003         1.53458484E-14
   37.7949982         1.64263795E-14
   37.9099998         1.75331890E-14
   38.0250015         1.86660922E-14
   38.1399994         1.98247706E-14
   38.2550011         2.10087380E-14
   38.3699989         2.22172795E-14
   38.4850006         2.34494210E-14
   38.5999985         2.47038904E-14
   38.7150002         2.59790748E-14
   38.8300018         2.72730074E-14
   38.9449997         2.85833335E-14
   39.0600014         2.99073137E-14
   39.1749992         3.12418141E-14
   39.2900009         3.25833110E-14
   39.4049988         3.39279352E-14
   39.5200005         3.52714718E-14
   39.6349983         3.66094077E-14
   39.7500000         3.79369862E-14
   39.8650017         3.92492503E-14
   39.9799995         4.05411077E-14
   40.0950012         4.18073575E-14
   40.2099991         4.30427890E-14
   40.3250008         4.42422113E-14
   40.4399986         4.54004713E-14
   40.5550003         4.65125714E-14
   40.6699982         4.75735987E-14
   40.7849998         4.85788337E-14
   40.9000015         4.95236989E-14
   41.0149994         5.04037730E-14
   41.1300011         5.12147731E-14
   41.2449989         5.19525049E-14
   41.3600006         5.26128586E-14
   41.4749985         5.31917243E-14
   41.5900002         5.36849651E-14
   41.7050018         5.40883392E-14
   41.8199997         5.43974655E-14
   41.9350014         5.46077601E-14
   42.0499992         5.47143914E-14
   42.1650009         5.47122433E-14
   42.2799988         5.45959016E-14
   42.3950005         5.43596472E-14
   42.5099983         5.39974424E-14
   42.6250000         5.35029987E-14
   42.7400017         5.28697942E-14
   42.8549995         5.20911371E-14
   42.9700012         5.11602581E-14
   43.0849991         5.00704045E-14
   43.2000008         4.88149289E-14
   43.3149986         4.73874310E-14
   43.4300003         4.57818394E-14
   43.5449982         4.39925670E-14
   43.6599998         4.20146096E-14
   43.7750015         3.98436336E-14
   43.8899994         3.74761020E-14
   44.0050011         3.49093177E-14
   44.1199989         3.21414851E-14
   44.2350006         2.91717537E-14
   44.3499985         2.60002150E-14
   44.4650002         2.26278719E-14
   44.5800018         1.90566099E-14
   44.6949997         1.52891175E-14
   44.8100014         1.13288056E-14
   44.9249992         7.17969267E-15
   45.0400009         2.84630387E-15
   45.1549988        -1.66647973E-15
   45.2700005        -6.35351536E-15
   45.3849983        -1.12095527E-14
   45.5000000        -1.62293275E-14
   45.6150017        -2.14076464E-14
   45.7299995        -2.67394783E-14
   45.8450012        -3.22200051E-14
   45.9599991        -3.78446189E-14
   46.0750008        -4.36089289E-14
   46.1899986        -4.95087200E-14
   46.3050003        -5.55398656E-14
   46.4199982        -6.16982187E-14
   46.5349998        -6.79795236E-14
   46.6500015        -7.43791964E-14
   46.7649994        -8.08922021E-14
   46.8800011        -8.75129098E-14
   46.9949989        -9.42348345E-14
   47.1100006        -1.01050502E-13
   47.2249985        -1.07951273E-13
   47.3400002        -1.14927165E-13
   47.4550018        -1.21966795E-13
   47.5699997        -1.29057233E-13
   47.6850014        -1.36183911E-13
   47.7999992        -1.43330687E-13
   47.9150009        -1.50479767E-13
   48.0299988        -1.57611852E-13
   48.1450005        -1.64706139E-13
   48.2599983        -1.71740565E-13
   48.3750000        -1.78691968E-13
   48.4900017        -1.85536225E-13
   48.6049995        -1.92248669E-13
   48.7200012        -1.98804176E-13
   48.8349991        -2.05177509E-13
   48.9500008        -2.11343665E-13
   49.0649986        -2.17278100E-13
   49.1800003        -2.22957015E-13
   49.2949982        -2.28357562E-13
   49.4099998        -2.33458245E-13
   49.5250015        -2.38238709E-13
   49.6399994        -2.42680388E-13
   49.7550011        -2.46766095E-13
   49.8699989        -2.50480463E-13
   49.9850006        -2.53809587E-13
   50.0999985        -2.56741134E-13
   50.2150002        -2.59264236E-13
   50.3300018        -2.61369106E-13
   50.4449997        -2.63047044E-13
   50.5600014        -2.64290000E-13
   50.6749992        -2.65090331E-13
   50.7900009        -2.65440610E-13
   50.9049988        -2.65333220E-13
   51.0200005        -2.64760002E-13
   51.1349983        -2.63712202E-13
   51.2500000        -2.62180035E-13
   51.3650017        -2.60152549E-13
   51.4799995        -2.57617631E-13
   51.5950012        -2.54561698E-13
   51.7099991        -2.50969899E-13
   51.8250008        -2.46826160E-13
   51.9399986        -2.42113350E-13
   52.0550003        -2.36813444E-13
   52.1699982        -2.30907903E-13
   52.2849998        -2.24378160E-13
   52.4000015        -2.17205905E-13
   52.5149994        -2.09373670E-13
   52.6300011        -2.00865461E-13
   52.7449989        -1.91667239E-13
   52.8600006        -1.81767606E-13
   52.9749985        -1.71158281E-13
   53.0900002        -1.59834778E-13
   53.2050018        -1.47796909E-13
   53.3199997        -1.35049198E-13
   53.4350014        -1.21601351E-13
   53.5499992        -1.07468464E-13
   53.6650009        -9.26712320E-14
   53.7799988        -7.72360488E-14
   53.8950005        -6.11948372E-14
   54.0099983        -4.45849006E-14
   54.1250000        -2.74485465E-14
   54.2400017        -9.83254819E-15
   54.3549995         8.21240116E-15
   54.4700012         2.66324675E-14
   54.5849991         4.53715265E-14
   54.7000008         6.43719629E-14
   54.8149986         8.35758532E-14
   54.9300003         1.02925792E-13
   55.0449982         1.22365890E-13
   55.1599998         1.41842701E-13
   55.2750015         1.61306176E-13
   55.3899994         1.80710454E-13
   55.5050011         2.00014403E-13
   55.6199989         2.19182284E-13
   55.7350006         2.38184038E-13
   55.8499985         2.56995488E-13
   55.9650002         2.75598338E-13
   56.0800018         2.93979874E-13
   56.1949997         3.12132725E-13
   56.3100014         3.30054099E-13
   56.4249992         3.47745351E-13
   56.5400009         3.65210574E-13
   56.6549988         3.82456003E-13
   56.7700005         3.99488737E-13
   56.8849983         4.16315582E-13
   57.0000000         4.32941633E-13
   57.1150017         4.49369329E-13
   57.2299995         4.65596908E-13
   57.3450012         4.81617730E-13
   57.4599991         4.97418838E-13
   57.5750008         5.12980392E-13
   57.6899986         5.28275015E-13
   57.8050003         5.43267471E-13
   57.9199982         5.57913958E-13
   58.0349998         5.72163031E-13
   58.1500015         5.85955438E-13
   58.2649994         5.99224826E-13
   58.3800011         6.11898878E-13
   58.4949989         6.23900345E-13
   58.6100006         6.35148780E-13
   58.7249985         6.45561783E-13
   58.8400002         6.55057172E-13
   58.9550018         6.63554986E-13
   59.0699997         6.70979331E-13
   59.1850014         6.77260331E-13
   59.2999992         6.82336620E-13
   59.4150009         6.86156264E-13
   59.5299988         6.88679419E-13
   59.6450005         6.89879035E-13
   59.7599983         6.89742154E-13
   59.8750000         6.88270675E-13
   59.9900017         6.85481674E-13
   60.1049995         6.81407296E-13
   60.2200012         6.76094218E-13
   60.3349991         6.69602991E-13
   60.4500008         6.62006203E-13
   60.5649986         6.53387229E-13
   60.6800003         6.43838119E-13
   60.7949982         6.33457100E-13
   60.9099998         6.22346033E-13
   61.0250015         6.10608189E-13
   61.1399994         5.98345050E-13
   61.2550011         5.85653759E-13
   61.3699989         5.72624793E-13
   61.4850006         5.59339196E-13
   61.5999985         5.45866575E-13
   61.7150002         5.32263578E-13
   61.8300018         5.18572056E-13
   61.9449997         5.04818355E-13
   62.0600014         4.91013155E-13
   62.1749992         4.77150871E-13
   62.2900009         4.63210958E-13
   62.4049988         4.49158506E-13
   62.5200005         4.34946296E-13
   62.6349983         4.20516540E-13
   62.7500000         4.05803537E-13
   62.8650017         3.90736705E-13
   62.9799995         3.75243212E-13
   63.0950012         3.59251745E-13
   63.2099991         3.42695544E-13
   63.3250008         3.25515737E-13
   63.4399986         3.07664267E-13
   63.5550003         2.89106900E-13
   63.6699982         2.69825612E-13
   63.7849998         2.49820347E-13
   63.9000015         2.29110350E-13
   64.0149994         2.07735074E-13
   64.1299973         1.85753743E-13
   64.2450027         1.63244919E-13
   64.3600006         1.40304814E-13
   64.4749985         1.17045046E-13
   64.5899963         9.35899443E-14
   64.7050018         7.00730842E-14
   64.8199997         4.66329720E-14
   64.9349976         2.34093750E-14
   65.0500031         5.38387694E-16
   65.1650009        -2.18520948E-14
   65.2799988        -4.36465371E-14
   65.3949966        -6.47463718E-14
   65.5100021        -8.50739157E-14
   65.6250000        -1.04575067E-13
   65.7399979        -1.23222667E-13
   65.8550034        -1.41018179E-13
   65.9700012        -1.57992610E-13
   66.0849991        -1.74207030E-13
   66.1999969        -1.89751440E-13
   66.3150024        -2.04743801E-13
   66.4300003        -2.19326835E-13
   66.5449982        -2.33665355E-13
   66.6600037        -2.47941912E-13
   66.7750015        -2.62352233E-13
   66.8899994        -2.77100717E-13
   67.0049973        -2.92393930E-13
   67.1200027        -3.08436273E-13
   67.2350006        -3.25423553E-13
   67.3499985        -3.43538024E-13
   67.4649963        -3.62943291E-13
   67.5800018        -3.83779705E-13
   67.6949997        -4.06160403E-13
   67.8099976        -4.30168217E-13
   67.9250031        -4.55853562E-13
   68.0400009        -4.83232920E-13
   68.1549988        -5.12288671E-13
   68.2699966        -5.42969912E-13
   68.3850021        -5.75194081E-13
   68.5000000        -6.08850318E-13
   68.6149979        -6.43802448E-13
   68.7300034        -6.79894292E-13
   68.8450012        -7.16954328E-13
   68.9599991        -7.54802091E-13
   69.0749969        -7.93253917E-13
   69.1900024        -8.32129071E-13
   69.3050003        -8.71256355E-13
   69.4199982        -9.10479483E-13
   69.5350037        -9.49663200E-13
   69.6500015        -9.88696972E-13
   69.7649994        -1.02749959E-12
   69.8799973        -1.06602108E-12
   69.9950027        -1.10424549E-12
   70.1100006        -1.14218986E-12
   70.2249985        -1.17990416E-12
   70.3399963        -1.21746883E-12
   70.4550018        -1.25499090E-12
   70.5699997        -1.29260058E-12
   70.6849976        -1.33044422E-12
   70.8000031        -1.36867861E-12
   70.9150009        -1.40746442E-12
   71.0299988        -1.44695779E-12
   71.1449966        -1.48730312E-12
   71.2600021        -1.52862575E-12
   71.3750000        -1.57102424E-12
   71.4899979        -1.61456373E-12
   71.6050034        -1.65927038E-12
   71.7200012        -1.70512595E-12
   71.8349991        -1.75206453E-12
   71.9499969        -1.79996957E-12
   72.0650024        -1.84867312E-12
   72.1800003        -1.89795640E-12
   72.2949982        -1.94755106E-12
   72.4100037        -1.99714334E-12
   72.5250015        -2.04637847E-12
   72.6399994        -2.09486595E-12
   72.7549973        -2.14218790E-12
   72.8700027        -2.18790611E-12
   72.9850006        -2.23157170E-12
   73.0999985        -2.27273322E-12
   73.2149963        -2.31094506E-12
   73.3300018        -2.34577895E-12
   73.4449997        -2.37683029E-12
   73.5599976        -2.40372761E-12
   73.6750031        -2.42613677E-12
   73.7900009        -2.44376936E-12
   73.9049988        -2.45638514E-12
   74.0199966        -2.46379523E-12
   74.1350021        -2.46586085E-12