  -18.8999996        -0.00000000    
  -18.7849998        -0.00000000    
  -18.6700001        -0.00000000    
  -18.5550003        -0.00000000    
  -18.4400005        -0.00000000    
  -18.3250008        -0.00000000    
  -18.2099991        -0.00000000    
  -18.0949993        -0.00000000    
  -17.9799995        -0.00000000    
  -17.8649998        -0.00000000    
  -17.7500000        -0.00000000    
  -17.6350002        -0.00000000    
  -17.5200005        -0.00000000    
  -17.4050007        -0.00000000    
  -17.2900009        -0.00000000    
  -17.1749992        -0.00000000    
  -17.0599995        -0.00000000    
  -16.9449997        -0.00000000    
  -16.8299999        -0.00000000    
  -16.7150002        -0.00000000    
  -16.6000004        -0.00000000    
  -16.4850006        -0.00000000    
  -16.3700008        -0.00000000    
  -16.2549992        -0.00000000    
  -16.1399994        -0.00000000    
  -16.0249996        -0.00000000    
  -15.9099998        -0.00000000    
  -15.7950001        -0.00000000    
  -15.6800003        -0.00000000    
  -15.5649996        -0.00000000    
  -15.4499998        -0.00000000    
  -15.3350000        -0.00000000    
  -15.2200003        -0.00000000    
  -15.1049995        -0.00000000    
  -14.9899998        -0.00000000    
  -14.8750000        -0.00000000    
  -14.7600002        -0.00000000    
  -14.6450005        -0.00000000    
  -14.5299997        -0.00000000    
  -14.4150000        -0.00000000    
  -14.3000002        -0.00000000    
  -14.1850004        -0.00000000    
  -14.0699997        -0.00000000    
  -13.9549999        -0.00000000    
  -13.8400002        -0.00000000    
  -13.7250004        -0.00000000    
  -13.6099997        -0.00000000    
  -13.4949999        -0.00000000    
  -13.3800001        -0.00000000    
  -13.2650003        -0.00000000    
  -13.1499996        -0.00000000    
  -13.0349998        -0.00000000    
  -12.9200001        -0.00000000    
  -12.8050003        -0.00000000    
  -12.6899996        -0.00000000    
  -12.5749998        -0.00000000    
  -12.4600000        -0.00000000    
  -12.3450003        -0.00000000    
  -12.2299995        -0.00000000    
  -12.1149998        -0.00000000    
  -12.0000000        -0.00000000    
  -11.8850002         4.71643892E-33
  -11.7700005         1.66112398E-32
  -11.6549997         4.46888540E-32
  -11.5400000         8.74122755E-32
  -11.4250002         1.37677730E-31
  -11.3100004         1.36210220E-31
  -11.1949997         2.61085524E-32
  -11.0799999        -2.23513762E-31
  -10.9650002        -5.75388592E-31
  -10.8500004        -7.82087895E-31
  -10.7349997        -1.09636872E-30
  -10.6199999        -1.66939833E-30
  -10.5050001        -2.21709877E-30
  -10.3900003        -2.47652247E-30
  -10.2749996        -2.97202607E-30
  -10.1599998        -3.92302187E-30
  -10.0450001        -5.72661539E-30
  -9.93000031        -8.77523046E-30
  -9.81499958        -1.36073977E-29
  -9.69999981        -2.00775880E-29
  -9.58500004        -2.82095443E-29
  -9.47000027        -3.73848009E-29
  -9.35499954        -4.68858346E-29
  -9.23999977        -5.50446727E-29
  -9.12500000        -5.99164509E-29
  -9.01000023        -5.91034076E-29
  -8.89500046        -4.91897313E-29
  -8.77999973        -2.64534302E-29
  -8.66499996         1.27653526E-29
  -8.55000019         7.20426174E-29
  -8.43500042         1.53949222E-28
  -8.31999969         2.58932662E-28
  -8.20499992         3.84162477E-28
  -8.09000015         5.23011217E-28
  -7.97499990         6.63541703E-28
  -7.86000013         7.86462545E-28
  -7.74499989         8.65296539E-28
  -7.63000011         8.65067835E-28
  -7.51499987         7.43505640E-28
  -7.40000010         4.52199781E-28
  -7.28499985        -6.08464344E-29
  -7.17000008        -8.44902481E-28
  -7.05499983        -1.93992510E-27
  -6.94000006        -3.36559956E-27
  -6.82499981        -5.10831347E-27
  -6.71000004        -7.10567385E-27
  -6.59499979        -9.22941143E-27
  -6.48000002        -1.12688095E-26
  -6.36499977        -1.29168917E-26
  -6.25000000        -1.37628017E-26
  -6.13500023        -1.32946050E-26
  -6.01999998        -1.09174228E-26
  -5.90500021        -5.99140012E-27
  -5.78999996         2.10604291E-27
  -5.67500019         1.38920254E-26
  -5.55999994         2.96626122E-26
  -5.44500017         4.93552551E-26
  -5.32999992         7.23970501E-26
  -5.21500015         9.75530787E-26
  -5.09999990         1.22794015E-25
  -4.98500013         1.45207821E-25
  -4.86999989         1.60983634E-25
  -4.75500011         1.65496744E-25
  -4.63999987         1.53521811E-25
  -4.52500010         1.19595110E-25
  -4.40999985         5.85354513E-26
  -4.29500008        -3.38814834E-26
  -4.17999983        -1.60120423E-25
  -4.06500006        -3.20000613E-25
  -3.95000005        -5.09796380E-25
  -3.83500004        -7.21413347E-25
  -3.72000003        -9.41743233E-25
  -3.60500002        -1.15231486E-24
  -3.49000001        -1.32934935E-24
  -3.37500000        -1.44432533E-24
  -3.25999999        -1.46512543E-24
  -3.14499998        -1.35780642E-24
  -3.02999997        -1.08898718E-24
  -2.91499996        -6.28792646E-25
  -2.79999995         4.57628627E-26
  -2.68499994         9.47118236E-25
  -2.56999993         2.07345798E-24
  -2.45499992         3.40521197E-24
  -2.33999991         4.90203886E-24
  -2.22499990         6.50058778E-24
  -2.10999990         8.11331845E-24
  -1.99500000         9.62864294E-24
  -1.88000000         1.09125945E-23
  -1.76499999         1.18122131E-23
  -1.64999998         1.21607508E-23
  -1.53499997         1.17847142E-23
  -1.41999996         1.05127391E-23
  -1.30499995         8.18610270E-24
  -1.19000006         4.67068804E-24
  -1.07500005        -1.30013177E-25
 -0.959999979        -6.26140279E-24
 -0.845000029        -1.37043062E-23
 -0.730000019        -2.23625374E-23
 -0.615000010        -3.20522926E-23
 -0.500000000        -4.24944634E-23
 -0.384999990        -5.33110622E-23
 -0.270000011        -6.40266458E-23
 -0.155000001        -7.40758439E-23
  -3.99999991E-02    -8.28174262E-23
   7.50000030E-02    -8.95552891E-23
  0.189999998        -9.35658895E-23
  0.305000007        -9.41312630E-23
  0.419999987        -9.05759426E-23
  0.535000026        -8.23055438E-23
  0.649999976        -6.88441752E-23
  0.764999986        -4.98678926E-23
  0.879999995        -2.52308799E-23
  0.995000005         5.01802310E-24
   1.11000001         4.06300443E-23
   1.22500002         8.11635004E-23
   1.34000003         1.26001660E-22
   1.45500004         1.74379470E-22
   1.57000005         2.25414189E-22
   1.68499994         2.78135972E-22
   1.79999995         3.31511386E-22
   1.91499996         3.84454429E-22
   2.02999997         4.35820533E-22
   2.14499998         4.84380134E-22
   2.25999999         5.28774146E-22
   2.37500000         5.67452817E-22
   2.49000001         5.98608960E-22
   2.60500002         6.20116666E-22
   2.72000003         6.29491716E-22
   2.83500004         6.23889870E-22
   2.95000005         6.00161742E-22
   3.06500006         5.54978818E-22
   3.18000007         4.85034498E-22
   3.29500008         3.87326968E-22
   3.41000009         2.59509136E-22
   3.52500010         1.00281311E-22
   3.64000010        -9.02038842E-23
   3.75500011        -3.09975610E-22
   3.86999989        -5.54971144E-22
   3.98499990        -8.18912845E-22
   4.09999990        -1.09338918E-21
   4.21500015        -1.36818955E-21
   4.32999992        -1.63191466E-21
   4.44500017        -1.87286575E-21
   4.55999994        -2.08018254E-21
   4.67500019        -2.24515842E-21
   4.78999996        -2.36263220E-21
   4.90500021        -2.43231470E-21
   5.01999998        -2.45988994E-21
   5.13500023        -2.45770607E-21
   5.25000000        -2.44488942E-21
   5.36499977        -2.44671967E-21
   5.48000002        -2.49316457E-21
   5.59499979        -2.61651324E-21
   5.71000004        -2.84816884E-21
   5.82499981        -3.21469447E-21
   5.94000006        -3.73337630E-21
   6.05499983        -4.40761170E-21
   6.17000008        -5.22253162E-21
   6.28499985        -6.14132814E-21
   6.40000010        -7.10277778E-21
   6.51499987        -8.02042400E-21
   6.63000011        -8.78381235E-21
   6.74499989        -9.26208026E-21
   6.86000013        -9.30998888E-21
   6.97499990        -8.77634025E-21
   7.09000015        -7.51444150E-21
   7.20499992        -5.39413444E-21
   7.32000017        -2.31457131E-21
   7.43499994         1.78313887E-21
   7.55000019         6.90441841E-21
   7.66499996         1.29919960E-20
   7.78000021         1.99198695E-20
   7.89499998         2.74913735E-20
   8.01000023         3.54419654E-20
   8.12500000         4.34468668E-20
   8.23999977         5.11335881E-20
   8.35499954         5.80986911E-20
   8.47000027         6.39278200E-20
   8.58500004         6.82177402E-20
   8.69999981         7.05987150E-20
   8.81499958         7.07556079E-20
   8.93000031         6.84457836E-20
   9.04500008         6.35124978E-20
   9.15999985         5.58924518E-20
   9.27499962         4.56167425E-20
   9.39000034         3.28052981E-20
   9.50500011         1.76552170E-20
   9.61999989         4.24327498E-22
   9.73499966        -1.85882282E-20
   9.85000038        -3.90619921E-20
   9.96500015        -6.06732068E-20
   10.0799999        -8.31083096E-20
   10.1949997        -1.06070462E-19
   10.3100004        -1.29277370E-19
   10.4250002        -1.52449348E-19
   10.5400000        -1.75287753E-19
   10.6549997        -1.97444729E-19
   10.7700005        -2.18486731E-19
   10.8850002        -2.37855449E-19
   11.0000000        -2.54829842E-19
   11.1149998        -2.68494710E-19
   11.2299995        -2.77720798E-19
   11.3450003        -2.81160706E-19
   11.4600000        -2.77265280E-19
   11.5749998        -2.64322437E-19
   11.6899996        -2.40520392E-19
   11.8050003        -2.04033649E-19
   11.9200001        -1.53129562E-19
   12.0349998        -8.62898142E-20
   12.1499996        -2.34026197E-21
   12.2650003         9.94186698E-20
   12.3800001         2.19090469E-19
   12.4949999         3.56080161E-19
   12.6099997         5.09018411E-19
   12.7250004         6.75720689E-19
   12.8400002         8.53186964E-19
   12.9549999         1.03764576E-18
   13.0699997         1.22464183E-18
   13.1850004         1.40916638E-18
   13.3000002         1.58582321E-18
   13.4150000         1.74902274E-18
   13.5299997         1.89319474E-18
   13.6450005         2.01300751E-18
   13.7600002         2.10358296E-18
   13.8750000         2.16069275E-18
   13.9899998         2.18093075E-18
   14.1049995         2.16184790E-18
   14.2200003         2.10204750E-18
   14.3350000         2.00123797E-18
   14.4499998         1.86023945E-18
   14.5649996         1.68095239E-18
   14.6800003         1.46628703E-18
   14.7950001         1.22006493E-18
   14.9099998         9.46896705E-19
   15.0249996         6.52045074E-19
   15.1400003         3.41275799E-19
   15.2550001         2.07089836E-20
   15.3699999        -3.03336643E-19
   15.4849997        -6.24492204E-19
   15.6000004        -9.36493771E-19
   15.7150002        -1.23333291E-18
   15.8299999        -1.50941478E-18
   15.9449997        -1.75971757E-18
   16.0599995        -1.97996392E-18
   16.1749992        -2.16679238E-18
   16.2900009        -2.31793999E-18
   16.4050007        -2.43241972E-18
   16.5200005        -2.51068920E-18
   16.6350002        -2.55480254E-18
   16.7500000        -2.56853001E-18
   16.8649998        -2.55743773E-18
   16.9799995        -2.52890206E-18
   17.0949993        -2.49206482E-18
   17.2099991        -2.45770208E-18
   17.3250008        -2.43800980E-18
   17.4400005        -2.44630684E-18
   17.5550003        -2.49665008E-18
   17.6700001        -2.60337086E-18
   17.7849998        -2.78056246E-18
   17.8999996        -3.04151106E-18
   18.0149994        -3.39811999E-18
   18.1299992        -3.86033115E-18
   18.2450008        -4.43558812E-18
   18.3600006        -5.12836015E-18
   18.4750004        -5.93975237E-18
   18.5900002        -6.86724145E-18
   18.7049999        -7.90454042E-18
   18.8199997        -9.04161184E-18
   18.9349995        -1.02648622E-17
   19.0499992        -1.15574850E-17
   19.1650009        -1.28999884E-17
   19.2800007        -1.42708723E-17
   19.3950005        -1.56474481E-17
   19.5100002        -1.70067937E-17
   19.6250000        -1.83267870E-17
   19.7399998        -1.95872068E-17
   19.8549995        -2.07708625E-17
   19.9699993        -2.18646815E-17
   20.0849991        -2.28607542E-17
   20.2000008        -2.37572377E-17
   20.3150005        -2.45591016E-17
   20.4300003        -2.52786627E-17
   20.5450001        -2.59358560E-17
   20.6599998        -2.65582184E-17
   20.7749996        -2.71805246E-17
   20.8899994        -2.78441236E-17
   21.0049992        -2.85959051E-17
   21.1200008        -2.94869407E-17
   21.2350006        -3.05708385E-17
   21.3500004        -3.19018449E-17
   21.4650002        -3.35327804E-17
   21.5799999        -3.55128456E-17
   21.6949997        -3.78854412E-17
   21.8099995        -4.06861159E-17
   21.9249992        -4.39406481E-17
   22.0400009        -4.76635233E-17
   22.1550007        -5.18567202E-17
   22.2700005        -5.65090685E-17
   22.3850002        -6.15961036E-17
   22.5000000        -6.70804963E-17
   22.6149998        -7.29131123E-17
   22.7299995        -7.90345863E-17
   22.8449993        -8.53774271E-17
   22.9599991        -9.18685251E-17
   23.0750008        -9.84320047E-17
   23.1900005        -1.04992196E-16
   23.3050003        -1.11476722E-16
   23.4200001        -1.17819398E-16
   23.5349998        -1.23962862E-16
   23.6499996        -1.29860924E-16
   23.7649994        -1.35480299E-16
   23.8799992        -1.40801704E-16
   23.9950008        -1.45820534E-16
   24.1100006        -1.50546580E-16
   24.2250004        -1.55003257E-16
   24.3400002        -1.59226233E-16
   24.4549999        -1.63261418E-16
   24.5699997        -1.67162654E-16
   24.6849995        -1.70989006E-16
   24.7999992        -1.74801938E-16
   24.9150009        -1.78662423E-16
   25.0300007        -1.82628165E-16
   25.1450005        -1.86751018E-16
   25.2600002        -1.91074764E-16
   25.3750000        -1.95633218E-16
   25.4899998        -2.00448838E-16
   25.6049995        -2.05531698E-16
   25.7199993        -2.10879109E-16
   25.8349991        -2.16475456E-16
   25.9500008        -2.22292574E-16
   26.0650005        -2.28290494E-16
   26.1800003        -2.34418274E-16
   26.2950001        -2.40615326E-16
   26.4099998        -2.46812484E-16
   26.5249996        -2.52933567E-16
   26.6399994        -2.58896732E-16
   26.7549992        -2.64615740E-16
   26.8700008        -2.70001413E-16
   26.9850006        -2.74962856E-16
   27.1000004        -2.79408720E-16
   27.2150002        -2.83248426E-16
   27.3299999        -2.86393248E-16
   27.4449997        -2.88757793E-16
   27.5599995        -2.90260721E-16
   27.6749992        -2.90826327E-16
   27.7900009        -2.90385764E-16
   27.9050007        -2.88877913E-16
   28.0200005        -2.86250867E-16
   28.1350002        -2.82462830E-16
   28.2500000        -2.77483070E-16
   28.3649998        -2.71292265E-16
   28.4799995        -2.63883030E-16
   28.5949993        -2.55259387E-16
   28.7099991        -2.45436187E-16
   28.8250008        -2.34437967E-16
   28.9400005        -2.22296253E-16
   29.0550003        -2.09047467E-16
   29.1700001        -1.94729619E-16
   29.2849998        -1.79378179E-16
   29.3999996        -1.63021814E-16
   29.5149994        -1.45678020E-16
   29.6299992        -1.27348598E-16
   29.7450008        -1.08014594E-16
   29.8600006        -8.76333405E-17
   29.9750004        -6.61340561E-17
   30.0900002        -4.34164737E-17
   30.2049999        -1.93489854E-17
   30.3199997         6.23045672E-18
   30.4349995         3.35129644E-17
   30.5499992         6.27150076E-17
   30.6650009         9.40736496E-17
   30.7800007         1.27840036E-16
   30.8950005         1.64271135E-16
   31.0100002         2.03621321E-16
   31.1250000         2.46133745E-16
   31.2399998         2.92028955E-16
   31.3549995         3.41497479E-16
   31.4699993         3.94689666E-16
   31.5849991         4.51709436E-16
   31.7000008         5.12607823E-16
   31.8150005         5.77380379E-16
   31.9300003         6.45965272E-16
   32.0449982         7.18245188E-16
   32.1599998         7.94052201E-16
   32.2750015         8.73173284E-16
   32.3899994         9.55361473E-16
   32.5050011         1.04034683E-15
   32.6199989         1.12784999E-15
   32.7350006         1.21759631E-15
   32.8499985         1.30933273E-15
   32.9650002         1.40284061E-15
   33.0800018         1.49795162E-15
   33.1949997         1.59455985E-15
   33.3100014         1.69263039E-15
   33.4249992         1.79220948E-15
   33.5400009         1.89342484E-15
   33.6549988         1.99648694E-15
   33.7700005         2.10168525E-15
   33.8849983         2.20937660E-15
   34.0000000         2.31997411E-15
   34.1150017         2.43393033E-15
   34.2299995         2.55171492E-15
   34.3450012         2.67379375E-15
   34.4599991         2.80060242E-15
   34.5750008         2.93252103E-15
   34.6899986         3.06984730E-15
   34.8050003         3.21277331E-15
   34.9199982         3.36136068E-15
   35.0349998         3.51552576E-15
   35.1500015         3.67502015E-15
   35.2649994         3.83942628E-15
   35.3800011         4.00815059E-15
   35.4949989         4.18042735E-15
   35.6100006         4.35533245E-15
   35.7249985         4.53179525E-15
   35.8400002         4.70862354E-15
   35.9550018         4.88453069E-15
   36.0699997         5.05817159E-15
   36.1850014         5.22817280E-15
   36.2999992         5.39317736E-15
   36.4150009         5.55187745E-15
   36.5299988         5.70305462E-15
   36.6450005         5.84561239E-15
   36.7599983         5.97860588E-15
   36.8750000         6.10126302E-15
   36.9900017         6.21300107E-15
   37.1049995         6.31343546E-15
   37.2200012         6.40237561E-15
   37.3349991         6.47981602E-15
   37.4500008         6.54591551E-15
   37.5649986         6.60096884E-15
   37.6800003         6.64537073E-15
   37.7949982         6.67957350E-15
   37.9099998         6.70404470E-15
   38.0250015         6.71921210E-15
   38.1399994         6.72541407E-15
   38.2550011         6.72285349E-15
   38.3699989         6.71154941E-15
   38.4850006         6.69129347E-15
   38.5999985         6.66161597E-15
   38.7150002         6.62176096E-15
   38.8300018         6.57066285E-15
   38.9449997         6.50694437E-15
   39.0600014         6.42891739E-15
   39.1749992         6.33459561E-15
   39.2900009         6.22172085E-15
   39.4049988         6.08780367E-15
   39.5200005         5.93016321E-15
   39.6349983         5.74598649E-15
   39.7500000         5.53239104E-15
   39.8650017         5.28649102E-15
   39.9799995         5.00547429E-15
   40.0950012         4.68666972E-15
   40.2099991         4.32762855E-15
   40.3250008         3.92618660E-15
   40.4399986         3.48052741E-15
   40.5550003         2.98924365E-15
   40.6699982         2.45137010E-15
   40.7849998         1.86642482E-15
   40.9000015         1.23440907E-15
   41.0149994         5.55815397E-16
   41.1300011        -1.68396926E-16
   41.2449989        -9.36846392E-16
   41.3600006        -1.74777371E-15
   41.4749985        -2.59912399E-15
   41.5900002        -3.48862462E-15
   41.7050018        -4.41388276E-15
   41.8199997        -5.37249451E-15
   41.9350014        -6.36213392E-15
   42.0499992        -7.38067918E-15
   42.1650009        -8.42629646E-15
   42.2799988        -9.49752633E-15
   42.3950005        -1.05933727E-14
   42.5099983        -1.17133366E-14
   42.6250000        -1.28574697E-14
   42.7400017        -1.40263777E-14
   42.8549995        -1.52211990E-14
   42.9700012        -1.64435760E-14
   43.0849991        -1.76955821E-14
   43.2000008        -1.89796468E-14
   43.3149986        -2.02984263E-14
   43.4300003        -2.16547090E-14
   43.5449982        -2.30512427E-14
   43.6599998        -2.44906109E-14
   43.7750015        -2.59750768E-14
   43.8899994        -2.75064277E-14
   44.0050011        -2.90858273E-14
   44.1199989        -3.07136756E-14
   44.2350006        -3.23895031E-14
   44.3499985        -3.41118498E-14
   44.4650002        -3.58782015E-14
   44.5800018        -3.76849160E-14
   44.6949997        -3.95272228E-14
   44.8100014        -4.13991961E-14
   44.9249992        -4.32938224E-14
   45.0400009        -4.52030652E-14
   45.1549988        -4.71179560E-14
   45.2700005        -4.90287335E-14
   45.3849983        -5.09250167E-14
   45.5000000        -5.27959702E-14
   45.6150017        -5.46305385E-14
   45.7299995        -5.64176527E-14
   45.8450012        -5.81464401E-14
   45.9599991        -5.98064824E-14
   46.0750008        -6.13880081E-14
   46.1899986        -6.28820861E-14
   46.3050003        -6.42808018E-14
   46.4199982        -6.55773924E-14
   46.5349998        -6.67663082E-14
   46.6500015        -6.78432869E-14
   46.7649994        -6.88053266E-14
   46.8800011        -6.96505909E-14
   46.9949989        -7.03783413E-14
   47.1100006        -7.09887268E-14
   47.2249985        -7.14825876E-14
   47.3400002        -7.18611843E-14
   47.4550018        -7.21259464E-14
   47.5699997        -7.22781752E-14
   47.6850014        -7.23187515E-14
   47.7999992        -7.22478446E-14
   47.9150009        -7.20646958E-14
   48.0299988        -7.17673398E-14
   48.1450005        -7.13524834E-14
   48.2599983        -7.08153764E-14
   48.3750000        -7.01497305E-14
   48.4900017        -6.93477529E-14
   48.6049995        -6.84002212E-14
   48.7200012        -6.72965779E-14
   48.8349991        -6.60251679E-14
   48.9500008        -6.45734415E-14
   49.0649986        -6.29282461E-14
   49.1800003        -6.10761441E-14
   49.2949982        -5.90037120E-14
   49.4099998        -5.66979460E-14
   49.5250015        -5.41464931E-14
   49.6399994        -5.13380638E-14
   49.7550011        -4.82626465E-14
   49.8699989        -4.49118112E-14
   49.9850006        -4.12788835E-14
   50.0999985        -3.73591403E-14
   50.2150002        -3.31498880E-14
   50.3300018        -2.86505201E-14
   50.4449997        -2.38625038E-14
   50.5600014        -1.87892982E-14
   50.6749992        -1.34362397E-14
   50.7900009        -7.81036206E-15
   50.9049988        -1.92016948E-15
   51.0200005         4.22467169E-15
   51.1349983         1.06135668E-14
   51.2500000         1.72353315E-14
   51.3650017         2.40785548E-14
   51.4799995         3.11318862E-14
   51.5950012         3.83843280E-14
   51.7099991         4.58255294E-14
   51.8250008         5.34460205E-14
   51.9399986         6.12373650E-14
   52.0550003         6.91922783E-14
   52.1699982         7.73046991E-14
   52.2849998         8.55696807E-14
   52.4000015         9.39833606E-14
   52.5149994         1.02542710E-13
   52.6300011         1.11245282E-13
   52.7449989         1.20088862E-13
   52.8600006         1.29071192E-13
   52.9749985         1.38189441E-13
   53.0900002         1.47439786E-13
   53.2050018         1.56817024E-13
   53.3199997         1.66314120E-13
   53.4350014         1.75921791E-13
   53.5499992         1.85628124E-13
   53.6650009         1.95418361E-13
   53.7799988         2.05274694E-13
   53.8950005         2.15175981E-13
   54.0099983         2.25097894E-13
   54.1250000         2.35012801E-13
   54.2400017         2.44890019E-13
   54.3549995         2.54695977E-13
   54.4700012         2.64394572E-13
   54.5849991         2.73947586E-13
   54.7000008         2.83314930E-13
   54.8149986         2.92455513E-13
   54.9300003         3.01327539E-13
   55.0449982         3.09889023E-13
   55.1599998         3.18098765E-13
   55.2750015         3.25916513E-13
   55.3899994         3.33303860E-13
   55.5050011         3.40224512E-13
   55.6199989         3.46645076E-13
   55.7350006         3.52535329E-13
   55.8499985         3.57868628E-13
   55.9650002         3.62621988E-13
   56.0800018         3.66776596E-13
   56.1949997         3.70317600E-13
   56.3100014         3.73233969E-13
   56.4249992         3.75518518E-13
   56.5400009         3.77167346E-13
   56.6549988         3.78179476E-13
   56.7700005         3.78556317E-13
   56.8849983         3.78300960E-13
   57.0000000         3.77417390E-13
   57.1150017         3.75909807E-13
   57.2299995         3.73781762E-13
   57.3450012         3.71035396E-13
   57.4599991         3.67670629E-13
   57.5750008         3.63684587E-13
   57.6899986         3.59070900E-13
   57.8050003         3.53819567E-13
   57.9199982         3.47916195E-13
   58.0349998         3.41342433E-13
   58.1500015         3.34075676E-13
   58.2649994         3.26089443E-13
   58.3800011         3.17353809E-13
   58.4949989         3.07836059E-13
   58.6100006         2.97501254E-13
   58.7249985         2.86313182E-13
   58.8400002         2.74235224E-13
   58.9550018         2.61231575E-13
   59.0699997         2.47267810E-13
   59.1850014         2.32312271E-13
   59.2999992         2.16336904E-13
   59.4150009         1.99318060E-13
   59.5299988         1.81237417E-13
   59.6450005         1.62082641E-13
   59.7599983         1.41847959E-13
   59.8750000         1.20534564E-13
   59.9900017         9.81510880E-14
   60.1049995         7.47135914E-14
   60.2200012         5.02457234E-14
   60.3349991         2.47785868E-14
   60.4500008        -1.64939677E-15
   60.5649986        -2.89929485E-14
   60.6800003        -5.72002162E-14
   60.7949982        -8.62135206E-14
   60.9099998        -1.15969856E-13
   61.0250015        -1.46401730E-13
   61.1399994        -1.77437953E-13
   61.2550011        -2.09004363E-13
   61.3699989        -2.41024946E-13
   61.4850006        -2.73422832E-13
   61.5999985        -3.06120987E-13
   61.7150002        -3.39043301E-13
   61.8300018        -3.72115533E-13
   61.9449997        -4.05265909E-13
   62.0600014        -4.38426151E-13
   62.1749992        -4.71531722E-13
   62.2900009        -5.04522585E-13
   62.4049988        -5.37343336E-13
   62.5200005        -5.69943561E-13
   62.6349983        -6.02277451E-13
   62.7500000        -6.34303916E-13
   62.8650017        -6.65986092E-13
   62.9799995        -6.97290749E-13
   63.0950012        -7.28188018E-13
   63.2099991        -7.58650033E-13
   63.3250008        -7.88650612E-13
   63.4399986        -8.18164004E-13
   63.5550003        -8.47164244E-13
   63.6699982        -8.75624172E-13
   63.7849998        -9.03514243E-13
   63.9000015        -9.30802093E-13
   64.0149994        -9.57451674E-13
   64.1299973        -9.83422220E-13
   64.2450027        -1.00866852E-12
   64.3600006        -1.03313950E-12
   64.4749985        -1.05677858E-12
   64.5899963        -1.07952341E-12
   64.7050018        -1.10130557E-12
   64.8199997        -1.12205145E-12
   64.9349976        -1.14168158E-12
   65.0500031        -1.16011237E-12
   65.1650009        -1.17725512E-12
   65.2799988        -1.19301877E-12
   65.3949966        -1.20730932E-12
   65.5100021        -1.22003167E-12
   65.6250000        -1.23109097E-12
   65.7399979        -1.24039364E-12
   65.8550034        -1.24784861E-12
   65.9700012        -1.25336970E-12
   66.0849991        -1.25687611E-12
   66.1999969        -1.25829414E-12
   66.3150024        -1.25755808E-12
   66.4300003        -1.25461230E-12
   66.5449982        -1.24941127E-12
   66.6600037        -1.24192041E-12
   66.7750015        -1.23211641E-12
   66.8899994        -1.21998700E-12
   67.0049973        -1.20553123E-12
   67.1200027        -1.18875786E-12
   67.2350006        -1.16968544E-12
   67.3499985        -1.14833956E-12
   67.4649963        -1.12475253E-12
   67.5800018        -1.09896077E-12
   67.6949997        -1.07100331E-12
   67.8099976        -1.04091952E-12
   67.9250031        -1.00874712E-12
   68.0400009        -9.74520920E-13
   68.1549988        -9.38269970E-13
   68.2699966        -9.00017582E-13
   68.3850021        -8.59779479E-13
   68.5000000        -8.17563194E-13
   68.6149979        -7.73368132E-13
   68.7300034        -7.27185564E-13
   68.8450012        -6.78999608E-13
   68.9599991        -6.28788037E-13
   69.0749969        -5.76524180E-13
   69.1900024        -5.22178438E-13
   69.3050003        -4.65720995E-13
   69.4199982        -4.07123879E-13
   69.5350037        -3.46363644E-13
   69.6500015        -2.83424353E-13
   69.7649994        -2.18299730E-13
   69.8799973        -1.50996037E-13
   69.9950027        -8.15344157E-14
   70.1100006        -9.95271845E-15
   70.2249985         6.36928661E-14
   70.3399963         1.39326322E-13
   70.4550018         2.16851493E-13
   70.5699997         2.96151748E-13
   70.6849976         3.77090340E-13
   70.8000031         4.59511660E-13
   70.9150009         5.43243076E-13
   71.0299988         6.28096913E-13
   71.1449966         7.13873188E-13
   71.2600021         8.00363139E-13
   71.3750000         8.87352800E-13
   71.4899979         9.74626413E-13
   71.6050034         1.06197126E-12
   71.7200012         1.14918112E-12
   71.8349991         1.23606052E-12
   71.9499969         1.32242795E-12
   72.0650024         1.40811971E-12
   72.1800003         1.49299204E-12
   72.2949982         1.57692338E-12
   72.4100037         1.65981551E-12
   72.5250015         1.74159450E-12
   72.6399994         1.82220775E-12
   72.7549973         1.90162686E-12
   72.8700027         1.97984099E-12
   72.9850006         2.05685620E-12
   73.0999985         2.13269138E-12
   73.2149963         2.20737231E-12
   73.3300018         2.28092848E-12
   73.4449997         2.35338637E-12
   73.5599976         2.42476547E-12
   73.6750031         2.49507056E-12
   73.7900009         2.56429036E-12
   73.9049988         2.63238953E-12
   74.0199966         2.69930454E-12
   74.1350021         2.76494322E-12