  -18.8999996         0.00000000    
  -18.7849998         0.00000000    
  -18.6700001         0.00000000    
  -18.5550003        -5.32514322E-24
  -18.4400005         2.85859842E-23
  -18.3250008         4.05606251E-22
  -18.2099991         2.10257498E-21
  -18.0949993         7.31339541E-21
  -17.9799995         1.98721580E-20
  -17.8649998         4.51356853E-20
  -17.7500000         8.88351782E-20
  -17.6350002         1.54518825E-19
  -17.5200005         2.39547990E-19
  -17.4050007         3.30153761E-19
  -17.2900009         3.96695504E-19
  -17.1749992         3.90810476E-19
  -17.0599995         2.46398183E-19
  -16.9449997        -1.13815322E-19
  -16.8299999        -7.65110789E-19
  -16.7150002        -1.76117464E-18
  -16.6000004        -3.10971789E-18
  -16.4850006        -4.74651332E-18
  -16.3700008        -6.51240537E-18
  -16.2549992        -8.13878804E-18
  -16.1399994        -9.24742595E-18
  -16.0249996        -9.37023498E-18
  -15.9099998        -7.99357979E-18
  -15.7950001        -4.62984983E-18
  -15.6800003         1.08359482E-18
  -15.5649996         9.26154262E-18
  -15.4499998         1.96315437E-17
  -15.3350000         3.13897837E-17
  -15.2200003         4.30677806E-17
  -15.1049995         5.24280042E-17
  -14.9899998         5.64071731E-17
  -14.8750000         5.11236661E-17
  -14.7600002         3.19607931E-17
  -14.6450005        -6.27037977E-18
  -14.5299997        -6.90939929E-17
  -14.4150000        -1.62074143E-16
  -14.3000002        -2.90486376E-16
  -14.1850004        -4.58988308E-16
  -14.0699997        -6.71326127E-16
  -13.9549999        -9.30112162E-16
  -13.8400002        -1.23670643E-15
  -13.7250004        -1.59122297E-15
  -13.6099997        -1.99267275E-15
  -13.4949999        -2.43923974E-15
  -13.3800001        -2.92866745E-15
  -13.2650003        -3.45872542E-15
  -13.1499996        -4.02770434E-15
  -13.0349998        -4.63488594E-15
  -12.9200001        -5.28092855E-15
  -12.8050003        -5.96810733E-15
  -12.6899996        -6.70037239E-15
  -12.5749998        -7.48318881E-15
  -12.4600000        -8.32315750E-15
  -12.3450003        -9.22743971E-15
  -12.2299995        -1.02030412E-14
  -12.1149998        -1.12560175E-14
  -12.0000000        -1.23907224E-14
  -11.8850002        -1.36091716E-14
  -11.7700005        -1.49106361E-14
  -11.6549997        -1.62915454E-14
  -11.5400000        -1.77457434E-14
  -11.4250002        -1.92651003E-14
  -11.3100004        -2.08404325E-14
  -11.1949997        -2.24626531E-14
  -11.0799999        -2.41240218E-14
  -10.9650002        -2.58193074E-14
  -10.8500004        -2.75467413E-14
  -10.7349997        -2.93085157E-14
  -10.6199999        -3.11108053E-14
  -10.5050001        -3.29631138E-14
  -10.3900003        -3.48770322E-14
  -10.2749996        -3.68643884E-14
  -10.1599998        -3.89350519E-14
  -10.0450001        -4.10945082E-14
  -9.93000031        -4.33416222E-14
  -9.81499958        -4.56668293E-14
  -9.69999981        -4.80511660E-14
  -9.58500004        -5.04663585E-14
  -9.47000027        -5.28761673E-14
  -9.35499954        -5.52390334E-14
  -9.23999977        -5.75118566E-14
  -9.12500000        -5.96546263E-14
  -9.01000023        -6.16352875E-14
  -8.89500046        -6.34342906E-14
  -8.77999973        -6.50481730E-14
  -8.66499996        -6.64912664E-14
  -8.55000019        -6.77952499E-14
  -8.43500042        -6.90059582E-14
  -8.31999969        -7.01777164E-14
  -8.20499992        -7.13654057E-14
  -8.09000015        -7.26151723E-14
  -7.97499990        -7.39548261E-14
  -7.86000013        -7.53854851E-14
  -7.74499989        -7.68759785E-14
  -7.63000011        -7.83613354E-14
  -7.51499987        -7.97466341E-14
  -7.40000010        -8.09165967E-14
  -7.28499985        -8.17507954E-14
  -7.17000008        -8.21432359E-14
  -7.05499983        -8.20243938E-14
  -6.94000006        -8.13825529E-14
  -6.82499981        -8.02810983E-14
  -6.71000004        -7.88676850E-14
  -6.59499979        -7.73720145E-14
  -6.48000002        -7.60895931E-14
  -6.36499977        -7.53495912E-14
  -6.25000000        -7.54683317E-14
  -6.13500023        -7.66908238E-14
  -6.01999998        -7.91258267E-14
  -5.90500021        -8.26822064E-14
  -5.78999996        -8.70159589E-14
  -5.67500019        -9.14982743E-14
  -5.55999994        -9.52140588E-14
  -5.44500017        -9.69998550E-14
  -5.32999992        -9.55251367E-14
  -5.21500015        -8.94182054E-14
  -5.09999990        -7.74304394E-14
  -4.98500013        -5.86284154E-14
  -4.86999989        -3.25950611E-14
  -4.75500011         3.82845340E-16
  -4.63999987         3.91668509E-14
  -4.52500010         8.16878642E-14
  -4.40999985         1.24960562E-13
  -4.29500008         1.65212340E-13
  -4.17999983         1.98137933E-13
  -4.06500006         2.19278683E-13
  -3.95000005         2.24510758E-13
  -3.83500004         2.10612100E-13
  -3.72000003         1.75860520E-13
  -3.60500002         1.20603167E-13
  -3.49000001         4.77296256E-14
  -3.37500000        -3.70250095E-14
  -3.25999999        -1.25014325E-13
  -3.14499998        -2.04908369E-13
  -3.02999997        -2.63252527E-13
  -2.91499996        -2.85365319E-13
  -2.79999995        -2.56551182E-13
  -2.68499994        -1.63566318E-13
  -2.56999993         3.75846815E-15
  -2.45499992         2.50867578E-13
  -2.33999991         5.76965559E-13
  -2.22499990         9.73801009E-13
  -2.10999990         1.42492507E-12
  -1.99500000         1.90558116E-12
  -1.88000000         2.38334526E-12
  -1.76499999         2.81959135E-12
  -1.64999998         3.17179095E-12
  -1.53499997         3.39658076E-12
  -1.41999996         3.45345345E-12
  -1.30499995         3.30884777E-12
  -1.19000006         2.94035239E-12
  -1.07500005         2.34066933E-12
 -0.959999979         1.52097909E-12
 -0.845000029         5.13317795E-13
 -0.730000019        -6.28368451E-13
 -0.615000010        -1.82877910E-12
 -0.500000000        -2.99361057E-12
 -0.384999990        -4.01377065E-12
 -0.270000011        -4.77138251E-12
 -0.155000001        -5.14735954E-12
  -3.99999991E-02    -5.03016725E-12
   7.50000030E-02    -4.32527408E-12
  0.189999998        -2.96465890E-12
  0.305000007        -9.15679533E-13
  0.419999987         1.81141430E-12
  0.535000026         5.15806451E-12
  0.649999976         9.01467269E-12
  0.764999986         1.32211022E-11
  0.879999995         1.75707175E-11
  0.995000005         2.18180578E-11
   1.11000001         2.56900820E-11
   1.22500002         2.89005209E-11
   1.34000003         3.11667706E-11
   1.45500004         3.22284317E-11
   1.57000005         3.18665198E-11
   1.68499994         2.99220926E-11
   1.79999995         2.63131392E-11
   1.91499996         2.10485084E-11
   2.02999997         1.42376970E-11
   2.14499998         6.09560926E-12
   2.25999999        -3.05847123E-12
   2.37500000        -1.28081443E-11
   2.49000001        -2.26534191E-11
   2.60500002        -3.20303159E-11
   2.72000003        -4.03358284E-11
   2.83500004        -4.69572783E-11
   2.95000005        -5.13047799E-11
   3.06500006        -5.28452664E-11
   3.18000007        -5.11362307E-11
   3.29500008        -4.58575018E-11
   3.41000009        -3.68390492E-11
   3.52500010        -2.40832493E-11
   3.64000010        -7.77981325E-12
   3.75500011         1.16876127E-11
   3.86999989         3.37442782E-11
   3.98499990         5.76370306E-11
   4.09999990         8.24568261E-11
   4.21500015         1.07170592E-10
   4.32999992         1.30661565E-10
   4.44500017         1.51776397E-10
   4.55999994         1.69377512E-10
   4.67500019         1.82398083E-10
   4.78999996         1.89897556E-10
   4.90500021         1.91114694E-10
   5.01999998         1.85515880E-10
   5.13500023         1.72835732E-10
   5.25000000         1.53107985E-10
   5.36499977         1.26684455E-10
   5.48000002         9.42406986E-11
   5.59499979         5.67672506E-11
   5.71000004         1.55460401E-11
   5.82499981        -2.78875065E-11
   5.94000006        -7.17959234E-11
   6.05499983        -1.14303012E-10
   6.17000008        -1.53466628E-10
   6.28499985        -1.87358365E-10
   6.40000010        -2.14146617E-10
   6.51499987        -2.32179775E-10
   6.63000011        -2.40065606E-10
   6.74499989        -2.36743375E-10
   6.86000013        -2.21544907E-10
   6.97499990        -1.94241734E-10
   7.09000015        -1.55075494E-10
   7.20499992        -1.04769450E-10
   7.32000017        -4.45200335E-11
   7.43499994         2.40322050E-11
   7.55000019         9.88517740E-11
   7.66499996         1.77576065E-10
   7.78000021         2.57600219E-10
   7.89499998         3.36175088E-10
   8.01000023         4.10515344E-10
   8.12500000         4.77913542E-10
   8.23999977         5.35854139E-10
   8.35499954         5.82124460E-10
   8.47000027         6.14916118E-10
   8.58500004         6.32912167E-10
   8.69999981         6.35357211E-10
   8.81499958         6.22104368E-10
   8.93000031         5.93637695E-10
   9.04500008         5.51067914E-10
   9.15999985         4.96100661E-10
   9.27499962         4.30976366E-10
   9.39000034         3.58385960E-10
   9.50500011         2.81362877E-10
   9.61999989         2.03156825E-10
   9.73499966         1.27094155E-10
   9.85000038         5.64307871E-11
   9.96500015        -5.79602338E-12
   10.0799999        -5.69094841E-11
   10.1949997        -9.47224521E-11
   10.3100004        -1.17647114E-10
   10.4250002        -1.24779520E-10
   10.5400000        -1.15954621E-10
   10.6549997        -9.17677045E-11
   10.7700005        -5.35611416E-11
   10.8850002        -3.37568515E-12
   11.0000000         5.61316930E-11
   11.1149998         1.21799529E-10
   11.2299995         1.90099173E-10
   11.3450003         2.57289967E-10
   11.4600000         3.19586885E-10
   11.5749998         3.73329784E-10
   11.6899996         4.15147527E-10
   11.8050003         4.42109654E-10
   11.9200001         4.51855053E-10
   12.0349998         4.42693826E-10
   12.1499996         4.13676760E-10
   12.2650003         3.64628105E-10
   12.3800001         2.96141195E-10
   12.4949999         2.09536027E-10
   12.6099997         1.06783846E-10
   12.7250004        -9.60083402E-12
   12.8400002        -1.36692560E-10
   12.9549999        -2.71304479E-10
   13.0699997        -4.10148748E-10
   13.1850004        -5.50001600E-10
   13.3000002        -6.87860435E-10
   13.4150000        -8.21090695E-10
   13.5299997        -9.47551038E-10
   13.6450005        -1.06569686E-09
   13.7600002        -1.17465238E-09
   13.8750000        -1.27425392E-09
   13.9899998        -1.36505907E-09
   14.1049995        -1.44832346E-09
   14.2200003        -1.52595103E-09
   14.3350000        -1.60040992E-09
   14.4499998        -1.67463332E-09
   14.5649996        -1.75189530E-09
   14.6800003        -1.83567739E-09
   14.7950001        -1.92952698E-09
   14.9099998        -2.03691375E-09
   15.0249996        -2.16108997E-09
   15.1400003        -2.30496378E-09
   15.2550001        -2.47098830E-09
   15.3699999        -2.66106381E-09
   15.4849997        -2.87647595E-09
   15.6000004        -3.11785220E-09
   15.7150002        -3.38515216E-09
   15.8299999        -3.67769148E-09
   15.9449997        -3.99419120E-09
   16.0599995        -4.33286385E-09
   16.1749992        -4.69152450E-09
   16.2900009        -5.06773112E-09
   16.4050007        -5.45893553E-09
   16.5200005        -5.86265347E-09
   16.6350002        -6.27663610E-09
   16.7500000        -6.69905287E-09
   16.8649998        -7.12863546E-09
   16.9799995        -7.56483409E-09
   17.0949993        -8.00792055E-09
   17.2099991        -8.45907522E-09
   17.3250008        -8.92041641E-09
   17.4400005        -9.39499500E-09
   17.5550003        -9.88674032E-09
   17.6700001        -1.04003561E-08
   17.7849998        -1.09411804E-08
   17.8999996        -1.15149881E-08
   18.0149994        -1.21277957E-08
   18.1299992        -1.27856072E-08
   18.2450008        -1.34941827E-08
   18.3600006        -1.42588039E-08
   18.4750004        -1.50840389E-08
   18.5900002        -1.59735585E-08
   18.7049999        -1.69299970E-08
   18.8199997        -1.79548163E-08
   18.9349995        -1.90482972E-08
   19.0499992        -2.02095407E-08
   19.1650009        -2.14365521E-08
   19.2800007        -2.27263630E-08
   19.3950005        -2.40752627E-08
   19.5100002        -2.54789949E-08
   19.6250000        -2.69330460E-08
   19.7399998        -2.84329413E-08
   19.8549995        -2.99745366E-08
   19.9699993        -3.15543005E-08
   20.0849991        -3.31695809E-08
   20.2000008        -3.48188216E-08
   20.3150005        -3.65017350E-08
   20.4300003        -3.82194258E-08
   20.5450001        -3.99744096E-08
   20.6599998        -4.17706012E-08
   20.7749996        -4.36131913E-08
   20.8899994        -4.55084823E-08
   21.0049992        -4.74636508E-08
   21.1200008        -4.94864167E-08
   21.2350006        -5.15847560E-08
   21.3500004        -5.37664775E-08
   21.4650002        -5.60388607E-08
   21.5799999        -5.84082471E-08
   21.6949997        -6.08796782E-08
   21.8099995        -6.34565893E-08
   21.9249992        -6.61404229E-08
   22.0400009        -6.89305324E-08
   22.1550007        -7.18239050E-08
   22.2700005        -7.48151834E-08
   22.3850002        -7.78966438E-08
   22.5000000        -8.10582890E-08
   22.6149998        -8.42881107E-08
   22.7299995        -8.75722890E-08
   22.8449993        -9.08956466E-08
   22.9599991        -9.42420115E-08
   23.0750008        -9.75946932E-08
   23.1900005        -1.00936973E-07
   23.3050003        -1.04252692E-07
   23.4200001        -1.07526702E-07
   23.5349998        -1.10745297E-07
   23.6499996        -1.13896725E-07
   23.7649994        -1.16971499E-07
   23.8799992        -1.19962650E-07
   23.9950008        -1.22865941E-07
   24.1100006        -1.25679932E-07
   24.2250004        -1.28405901E-07
   24.3400002        -1.31047713E-07
   24.4549999        -1.33611593E-07
   24.5699997        -1.36105797E-07
   24.6849995        -1.38540102E-07
   24.7999992        -1.40925437E-07
   24.9150009        -1.43273269E-07
   25.0300007        -1.45595109E-07
   25.1450005        -1.47901901E-07
   25.2600002        -1.50203562E-07
   25.3750000        -1.52508449E-07
   25.4899998        -1.54822956E-07
   25.6049995        -1.57151149E-07
   25.7199993        -1.59494434E-07
   25.8349991        -1.61851460E-07
   25.9500008        -1.64217980E-07
   26.0650005        -1.66586801E-07
   26.1800003        -1.68947949E-07
   26.2950001        -1.71288761E-07
   26.4099998        -1.73594088E-07
   26.5249996        -1.75846694E-07
   26.6399994        -1.78027449E-07
   26.7549992        -1.80115691E-07
   26.8700008        -1.82089664E-07
   26.9850006        -1.83926829E-07
   27.1000004        -1.85604137E-07
   27.2150002        -1.87098451E-07
   27.3299999        -1.88386821E-07
   27.4449997        -1.89446567E-07
   27.5599995        -1.90255648E-07
   27.6749992        -1.90792704E-07
   27.7900009        -1.91037145E-07
   27.9050007        -1.90969146E-07
   28.0200005        -1.90569679E-07
   28.1350002        -1.89820412E-07
   28.2500000        -1.88703609E-07
   28.3649998        -1.87202033E-07
   28.4799995        -1.85298674E-07
   28.5949993        -1.82976763E-07
   28.7099991        -1.80219445E-07
   28.8250008        -1.77009781E-07
   28.9400005        -1.73330449E-07
   29.0550003        -1.69163869E-07
   29.1700001        -1.64491979E-07
   29.2849998        -1.59296249E-07
   29.3999996        -1.53557806E-07
   29.5149994        -1.47257524E-07
   29.6299992        -1.40375960E-07
   29.7450008        -1.32893831E-07
   29.8600006        -1.24791967E-07
   29.9750004        -1.16051787E-07
   30.0900002        -1.06655371E-07
   30.2049999        -9.65858007E-08
   30.3199997        -8.58274305E-08
   30.4349995        -7.43661062E-08
   30.5499992        -6.21893719E-08
   30.6650009        -4.92865979E-08
   30.7800007        -3.56491050E-08
   30.8950005        -2.12702993E-08
   31.0100002        -6.14551965E-09
   31.1250000         9.72798198E-09
   31.2399998         2.63511257E-08
   31.3549995         4.37232508E-08
   31.4699993         6.18423428E-08
   31.5849991         8.07053269E-08
   31.7000008         1.00308355E-07
   31.8150005         1.20647172E-07
   31.9300003         1.41717393E-07
   32.0449982         1.63514741E-07
   32.1599998         1.86035592E-07
   32.2750015         2.09277118E-07
   32.3899994         2.33237373E-07
   32.5050011         2.57915758E-07
   32.6199989         2.83312772E-07
   32.7350006         3.09430391E-07
   32.8499985         3.36271881E-07
   32.9650002         3.63841735E-07
   33.0800018         3.92145637E-07
   33.1949997         4.21189981E-07
   33.3100014         4.50982157E-07
   33.4249992         4.81529469E-07
   33.5400009         5.12839563E-07
   33.6549988         5.44919430E-07
   33.7700005         5.77775324E-07
   33.8849983         6.11412418E-07
   34.0000000         6.45834291E-07
   34.1150017         6.81042593E-07
   34.2299995         7.17036926E-07
   34.3450012         7.53814561E-07
   34.4599991         7.91370098E-07
   34.5750008         8.29695750E-07
   34.6899986         8.68781001E-07
   34.8050003         9.08612947E-07
   34.9199982         9.49176865E-07
   35.0349998         9.90455874E-07
   35.1500015         1.03243144E-06
   35.2649994         1.07508492E-06
   35.3800011         1.11839654E-06
   35.4949989         1.16234662E-06
   35.6100006         1.20691652E-06
   35.7249985         1.25208874E-06
   35.8400002         1.29784678E-06
   35.9550018         1.34417701E-06
   36.0699997         1.39106714E-06
   36.1850014         1.43850798E-06
   36.2999992         1.48649235E-06
   36.4150009         1.53501549E-06
   36.5299988         1.58407397E-06
   36.6450005         1.63366690E-06
   36.7599983         1.68379370E-06
   36.8750000         1.73445437E-06
   36.9900017         1.78564846E-06
   37.1049995         1.83737473E-06
   37.2200012         1.88962963E-06
   37.3349991         1.94240738E-06
   37.4500008         1.99569877E-06
   37.5649986         2.04949106E-06
   37.6800003         2.10376743E-06
   37.7949982         2.15850605E-06
   37.9099998         2.21368168E-06
   38.0250015         2.26926363E-06
   38.1399994         2.32521757E-06
   38.2550011         2.38150506E-06
   38.3699989         2.43808540E-06
   38.4850006         2.49491518E-06
   38.5999985         2.55195005E-06
   38.7150002         2.60914499E-06
   38.8300018         2.66645566E-06
   38.9449997         2.72383863E-06
   39.0600014         2.78125481E-06
   39.1749992         2.83866666E-06
   39.2900009         2.89604168E-06
   39.4049988         2.95335167E-06
   39.5200005         3.01057412E-06
   39.6349983         3.06769061E-06
   39.7500000         3.12468910E-06
   39.8650017         3.18156117E-06
   39.9799995         3.23830432E-06
   40.0950012         3.29491922E-06
   40.2099991         3.35140930E-06
   40.3250008         3.40778138E-06
   40.4399986         3.46404295E-06
   40.5550003         3.52020288E-06
   40.6699982         3.57626845E-06
   40.7849998         3.63224740E-06
   40.9000015         3.68814472E-06
   41.0149994         3.74396336E-06
   41.1300011         3.79970402E-06
   41.2449989         3.85536350E-06
   41.3600006         3.91093772E-06
   41.4749985         3.96641781E-06
   41.5900002         4.02179512E-06
   41.7050018         4.07705693E-06
   41.8199997         4.13219186E-06
   41.9350014         4.18718855E-06
   42.0499992         4.24203517E-06
   42.1650009         4.29672309E-06
   42.2799988         4.35124593E-06
   42.3950005         4.40560098E-06
   42.5099983         4.45979003E-06
   42.6250000         4.51381857E-06
   42.7400017         4.56769794E-06
   42.8549995         4.62144544E-06
   42.9700012         4.67508107E-06
   43.0849991         4.72863258E-06
   43.2000008         4.78212860E-06
   43.3149986         4.83560279E-06
   43.4300003         4.88909245E-06
   43.5449982         4.94263259E-06
   43.6599998         4.99626003E-06
   43.7750015         5.05001117E-06
   43.8899994         5.10391874E-06
   44.0050011         5.15801139E-06
   44.1199989         5.21231232E-06
   44.2350006         5.26683971E-06
   44.3499985         5.32160448E-06
   44.4650002         5.37660799E-06
   44.5800018         5.43184615E-06
   44.6949997         5.48730441E-06
   44.8100014         5.54295957E-06
   44.9249992         5.59878208E-06
   45.0400009         5.65473374E-06
   45.1549988         5.71076907E-06
   45.2700005         5.76683624E-06
   45.3849983         5.82287885E-06
   45.5000000         5.87883551E-06
   45.6150017         5.93464301E-06
   45.7299995         5.99023451E-06
   45.8450012         6.04554134E-06
   45.9599991         6.10049574E-06
   46.0750008         6.15503041E-06
   46.1899986         6.20907667E-06
   46.3050003         6.26256860E-06
   46.4199982         6.31543890E-06
   46.5349998         6.36762297E-06
   46.6500015         6.41905308E-06
   46.7649994         6.46966419E-06
   46.8800011         6.51938808E-06
   46.9949989         6.56815473E-06
   47.1100006         6.61589183E-06
   47.2249985         6.66252436E-06
   47.3400002         6.70797090E-06
   47.4550018         6.75214778E-06
   47.5699997         6.79496497E-06
   47.6850014         6.83632834E-06
   47.7999992         6.87613647E-06
   47.9150009         6.91428704E-06
   48.0299988         6.95067092E-06
   48.1450005         6.98517670E-06
   48.2599983         7.01768931E-06
   48.3750000         7.04809554E-06
   48.4900017         7.07627896E-06
   48.6049995         7.10212453E-06
   48.7200012         7.12551991E-06
   48.8349991         7.14635598E-06
   48.9500008         7.16452769E-06
   49.0649986         7.17993453E-06
   49.1800003         7.19248055E-06
   49.2949982         7.20207663E-06
   49.4099998         7.20864000E-06
   49.5250015         7.21209153E-06
   49.6399994         7.21235938E-06
   49.7550011         7.20937442E-06
   49.8699989         7.20307253E-06
   49.9850006         7.19339459E-06
   50.0999985         7.18028059E-06
   50.2150002         7.16367231E-06
   50.3300018         7.14351290E-06
   50.4449997         7.11974371E-06
   50.5600014         7.09230335E-06
   50.6749992         7.06112951E-06
   50.7900009         7.02615489E-06
   50.9049988         6.98730901E-06
   51.0200005         6.94451637E-06
   51.1349983         6.89769922E-06
   51.2500000         6.84677389E-06
   51.3650017         6.79165259E-06
   51.4799995         6.73224486E-06
   51.5950012         6.66845790E-06
   51.7099991         6.60019668E-06
   51.8250008         6.52736480E-06
   51.9399986         6.44986585E-06
   52.0550003         6.36760615E-06
   52.1699982         6.28049247E-06
   52.2849998         6.18843796E-06
   52.4000015         6.09135714E-06
   52.5149994         5.98917222E-06
   52.6300011         5.88181274E-06
   52.7449989         5.76921320E-06
   52.8600006         5.65131677E-06
   52.9749985         5.52807478E-06
   53.0900002         5.39944631E-06
   53.2050018         5.26539770E-06
   53.3199997         5.12590395E-06
   53.4350014         4.98094596E-06
   53.5499992         4.83051190E-06
   53.6650009         4.67459586E-06
   53.7799988         4.51319556E-06
   53.8950005         4.34631283E-06
   54.0099983         4.17395313E-06
   54.1250000         3.99612327E-06
   54.2400017         3.81283098E-06
   54.3549995         3.62408559E-06
   54.4700012         3.42989688E-06
   54.5849991         3.23027416E-06
   54.7000008         3.02522676E-06
   54.8149986         2.81476377E-06
   54.9300003         2.59889612E-06
   55.0449982         2.37763447E-06
   55.1599998         2.15099135E-06
   55.2750015         1.91898266E-06
   55.3899994         1.68162740E-06
   55.5050011         1.43894931E-06
   55.6199989         1.19097865E-06
   55.7350006         9.37751111E-07
   55.8499985         6.79311086E-07
   55.9650002         4.15710304E-07
   56.0800018         1.47011292E-07
   56.1949997        -1.26714326E-07
   56.3100014        -4.05384924E-07
   56.4249992        -6.88907676E-07
   56.5400009        -9.77180093E-07
   56.6549988        -1.27008821E-06
   56.7700005        -1.56750934E-06
   56.8849983        -1.86931061E-06
   57.0000000        -2.17534921E-06
   57.1150017        -2.48547599E-06
   57.2299995        -2.79953179E-06
   57.3450012        -3.11735266E-06
   57.4599991        -3.43876673E-06
   57.5750008        -3.76359731E-06
   57.6899986        -4.09166387E-06
   57.8050003        -4.42277906E-06
   57.9199982        -4.75675324E-06
   58.0349998        -5.09339134E-06
   58.1500015        -5.43249462E-06
   58.2649994        -5.77386345E-06
   58.3800011        -6.11729047E-06
   58.4949989        -6.46256785E-06
   58.6100006        -6.80948324E-06
   58.7249985        -7.15782153E-06
   58.8400002        -7.50736172E-06
   58.9550018        -7.85788234E-06
   59.0699997        -8.20915739E-06
   59.1850014        -8.56095721E-06
   59.2999992        -8.91305353E-06
   59.4150009        -9.26521079E-06
   59.5299988        -9.61719797E-06
   59.6450005        -9.96877679E-06
   59.7599983        -1.03197153E-05
   59.8750000        -1.06697789E-05
   59.9900017        -1.10187375E-05
   60.1049995        -1.13663609E-05
   60.2200012        -1.17124255E-05
   60.3349991        -1.20567083E-05
   60.4500008        -1.23989921E-05
   60.5649986        -1.27390631E-05
   60.6800003        -1.30767112E-05
   60.7949982        -1.34117327E-05
   60.9099998        -1.37439274E-05
   61.0250015        -1.40730972E-05
   61.1399994        -1.43990455E-05
   61.2550011        -1.47215842E-05
   61.3699989        -1.50405212E-05
   61.4850006        -1.53556703E-05
   61.5999985        -1.56668393E-05
   61.7150002        -1.59738374E-05
   61.8300018        -1.62764754E-05
   61.9449997        -1.65745569E-05
   62.0600014        -1.68678816E-05
   62.1749992        -1.71562442E-05
   62.2900009        -1.74394318E-05
   62.4049988        -1.77172224E-05
   62.5200005        -1.79893868E-05
   62.6349983        -1.82556905E-05
   62.7500000        -1.85158806E-05
   62.8650017        -1.87696969E-05
   62.9799995        -1.90168612E-05
   63.0950012        -1.92570915E-05
   63.2099991        -1.94900804E-05
   63.3250008        -1.97155205E-05
   63.4399986        -1.99330807E-05
   63.5550003        -2.01424264E-05
   63.6699982        -2.03432064E-05
   63.7849998        -2.05350589E-05
   63.9000015        -2.07176145E-05
   64.0149994        -2.08904967E-05
   64.1299973        -2.10533217E-05
   64.2450027        -2.12057039E-05
   64.3600006        -2.13472540E-05
   64.4749985        -2.14775755E-05
   64.5899963        -2.15962900E-05
   64.7050018        -2.17030083E-05
   64.8199997        -2.17973466E-05
   64.9349976        -2.18789319E-05
   65.0500031        -2.19473986E-05
   65.1650009        -2.20023867E-05
   65.2799988        -2.20435431E-05
   65.3949966        -2.20705260E-05
   65.5100021        -2.20830025E-05
   65.6250000        -2.20806505E-05
   65.7399979        -2.20631591E-05
   65.8550034        -2.20302281E-05
   65.9700012        -2.19815629E-05
   66.0849991        -2.19168869E-05
   66.1999969        -2.18359291E-05
   66.3150024        -2.17384386E-05
   66.4300003        -2.16241697E-05
   66.5449982        -2.14929005E-05
   66.6600037        -2.13444182E-05
   66.7750015        -2.11785336E-05
   66.8899994        -2.09950813E-05
   67.0049973        -2.07939120E-05
   67.1200027        -2.05749020E-05
   67.2350006        -2.03379568E-05
   67.3499985        -2.00830182E-05
   67.4649963        -1.98100497E-05
   67.5800018        -1.95190587E-05
   67.6949997        -1.92100815E-05
   67.8099976        -1.88832037E-05
   67.9250031        -1.85385397E-05
   68.0400009        -1.81762589E-05
   68.1549988        -1.77965612E-05
   68.2699966        -1.73997014E-05
   68.3850021        -1.69859759E-05
   68.5000000        -1.65557249E-05
   68.6149979        -1.61093431E-05
   68.7300034        -1.56472615E-05
   68.8450012        -1.51699660E-05
   68.9599991        -1.46779821E-05
   69.0749969        -1.41718847E-05
   69.1900024        -1.36522931E-05
   69.3050003        -1.31198713E-05
   69.4199982        -1.25753249E-05
   69.5350037        -1.20194090E-05
   69.6500015        -1.14529112E-05
   69.7649994        -1.08766708E-05
   69.8799973        -1.02915601E-05
   69.9950027        -9.69849498E-06
   70.1100006        -9.09842947E-06
   70.2249985        -8.49235312E-06
   70.3399963        -7.88129364E-06
   70.4550018        -7.26631333E-06
   70.5699997        -6.64850540E-06
   70.6849976        -6.02899354E-06
   70.8000031        -5.40893416E-06
   70.9150009        -4.78950597E-06
   71.0299988        -4.17191040E-06
   71.1449966        -3.55737347E-06
   71.2600021        -2.94713573E-06
   71.3750000        -2.34244931E-06
   71.4899979        -1.74457591E-06
   71.6050034        -1.15478360E-06
   71.7200012        -5.74340277E-07
   71.8349991        -4.50874893E-09
   71.9499969         5.53456175E-07
   72.0650024         1.09831501E-06
   72.1800003         1.62884567E-06
   72.2949982         2.14385159E-06
   72.4100037         2.64216442E-06
   72.5250015         3.12264797E-06
   72.6399994         3.58420721E-06
   72.7549973         4.02578644E-06
   72.8700027         4.44637953E-06
   72.9850006         4.84503016E-06
   73.0999985         5.22083837E-06
   73.2149963         5.57296607E-06
   73.3300018         5.90063473E-06
   73.4449997         6.20313313E-06
   73.5599976         6.47982188E-06
   73.6750031         6.73013301E-06
   73.7900009         6.95357630E-06
   73.9049988         7.14974021E-06
   74.0199966         7.31829095E-06
   74.1350021         7.45898069E-06