  -18.8999996        -0.00000000    
  -18.7849998        -0.00000000    
  -18.6700001        -0.00000000    
  -18.5550003        -2.24311967E-24
  -18.4400005        -3.13069469E-24
  -18.3250008         4.28462354E-23
  -18.2099991         2.95696369E-22
  -18.0949993         1.12248995E-21
  -17.9799995         3.15728458E-21
  -17.8649998         7.24092744E-21
  -17.7500000         1.41369319E-20
  -17.6350002         2.39397314E-20
  -17.5200005         3.51602619E-20
  -17.4050007         4.35903568E-20
  -17.2900009         4.11947771E-20
  -17.1749992         1.54244046E-20
  -17.0599995        -5.05576926E-20
  -16.9449997        -1.76239812E-19
  -16.8299999        -3.80336870E-19
  -16.7150002        -6.75459351E-19
  -16.6000004        -1.06114544E-18
  -16.4850006        -1.51600141E-18
  -16.3700008        -1.99019821E-18
  -16.2549992        -2.40002546E-18
  -16.1399994        -2.62652468E-18
  -16.0249996        -2.52032358E-18
  -15.9099998        -1.91460052E-18
  -15.7950001        -6.47545263E-19
  -15.6800003         1.40522983E-18
  -15.5649996         4.28921851E-18
  -15.4499998         7.92292037E-18
  -15.3350000         1.20472636E-17
  -15.2200003         1.61782830E-17
  -15.1049995         1.95698856E-17
  -14.9899998         2.11940101E-17
  -14.8750000         1.97448922E-17
  -14.7600002         1.36725064E-17
  -14.6450005         1.24746023E-18
  -14.5299997        -1.93438866E-17
  -14.4150000        -4.98795336E-17
  -14.3000002        -9.19664368E-17
  -14.1850004        -1.46902155E-16
  -14.0699997        -2.15548392E-16
  -13.9549999        -2.98231275E-16
  -13.8400002        -3.94682440E-16
  -13.7250004        -5.04031402E-16
  -13.6099997        -6.24854141E-16
  -13.4949999        -7.55279903E-16
  -13.3800001        -8.93147538E-16
  -13.2650003        -1.03619986E-15
  -13.1499996        -1.18229833E-15
  -13.0349998        -1.32963823E-15
  -12.9200001        -1.47693800E-15
  -12.8050003        -1.62358354E-15
  -12.6899996        -1.76970731E-15
  -12.5749998        -1.91619287E-15
  -12.4600000        -2.06459707E-15
  -12.3450003        -2.21699799E-15
  -12.2299995        -2.37578850E-15
  -12.1149998        -2.54342712E-15
  -12.0000000        -2.72219131E-15
  -11.8850002        -2.91395682E-15
  -11.7700005        -3.12003061E-15
  -11.6549997        -3.34107360E-15
  -11.5400000        -3.57711077E-15
  -11.4250002        -3.82764279E-15
  -11.3100004        -4.09183702E-15
  -11.1949997        -4.36878842E-15
  -11.0799999        -4.65779564E-15
  -10.9650002        -4.95864522E-15
  -10.8500004        -5.27183735E-15
  -10.7349997        -5.59873616E-15
  -10.6199999        -5.94163797E-15
  -10.5050001        -6.30372126E-15
  -10.3900003        -6.68888959E-15
  -10.2749996        -7.10156616E-15
  -10.1599998        -7.54637408E-15
  -10.0450001        -8.02786148E-15
  -9.93000031        -8.55018689E-15
  -9.81499958        -9.11690699E-15
  -9.69999981        -9.73082800E-15
  -9.58500004        -1.03939582E-14
  -9.47000027        -1.11075903E-14
  -9.35499954        -1.18724619E-14
  -9.23999977        -1.26890414E-14
  -9.12500000        -1.35578220E-14
  -9.01000023        -1.44796860E-14
  -8.89500046        -1.54562744E-14
  -8.77999973        -1.64902983E-14
  -8.66499996        -1.75859015E-14
  -8.55000019        -1.87489862E-14
  -8.43500042        -1.99875872E-14
  -8.31999969        -2.13122739E-14
  -8.20499992        -2.27366208E-14
  -8.09000015        -2.42777024E-14
  -7.97499990        -2.59565877E-14
  -7.86000013        -2.77987167E-14
  -7.74499989        -2.98339776E-14
  -7.63000011        -3.20963891E-14
  -7.51499987        -3.46231629E-14
  -7.40000010        -3.74529916E-14
  -7.28499985        -4.06234088E-14
  -7.17000008        -4.41674217E-14
  -7.05499983        -4.81093504E-14
  -6.94000006        -5.24603723E-14
  -6.82499981        -5.72141211E-14
  -6.71000004        -6.23432309E-14
  -6.59499979        -6.77972489E-14
  -6.48000002        -7.35030119E-14
  -6.36499977        -7.93679291E-14
  -6.25000000        -8.52869546E-14
  -6.13500023        -9.11531186E-14
  -6.01999998        -9.68716345E-14
  -5.90500021        -1.02376536E-13
  -5.78999996        -1.07648767E-13
  -5.67500019        -1.12733587E-13
  -5.55999994        -1.17755144E-13
  -5.44500017        -1.22925568E-13
  -5.32999992        -1.28545978E-13
  -5.21500015        -1.34997509E-13
  -5.09999990        -1.42720539E-13
  -4.98500013        -1.52181802E-13
  -4.86999989        -1.63830592E-13
  -4.75500011        -1.78046298E-13
  -4.63999987        -1.95081283E-13
  -4.52500010        -2.15005070E-13
  -4.40999985        -2.37656384E-13
  -4.29500008        -2.62610354E-13
  -4.17999983        -2.89168375E-13
  -4.06500006        -3.16376211E-13
  -3.95000005        -3.43076018E-13
  -3.83500004        -3.67993017E-13
  -3.72000003        -3.89855005E-13
  -3.60500002        -4.07539074E-13
  -3.49000001        -4.20236545E-13
  -3.37500000        -4.27619854E-13
  -3.25999999        -4.29997455E-13
  -3.14499998        -4.28435011E-13
  -3.02999997        -4.24824482E-13
  -2.91499996        -4.21883990E-13
  -2.79999995        -4.23073089E-13
  -2.68499994        -4.32414575E-13
  -2.56999993        -4.54224576E-13
  -2.45499992        -4.92754275E-13
  -2.33999991        -5.51766857E-13
  -2.22499990        -6.34073414E-13
  -2.10999990        -7.41065412E-13
  -1.99500000        -8.72287485E-13
  -1.88000000        -1.02509732E-12
  -1.76499999        -1.19445925E-12
  -1.64999998        -1.37291437E-12
  -1.53499997        -1.55076342E-12
  -1.41999996        -1.71647809E-12
  -1.30499995        -1.85735281E-12
  -1.19000006        -1.96037045E-12
  -1.07500005        -2.01325198E-12
 -0.959999979        -2.00563199E-12
 -0.845000029        -1.93027083E-12
 -0.730000019        -1.78422403E-12
 -0.615000010        -1.56985536E-12
 -0.500000000        -1.29558929E-12
 -0.384999990        -9.76304541E-13
 -0.270000011        -6.33282597E-13
 -0.155000001        -2.93647376E-13
  -3.99999991E-02     1.07339268E-14
   7.50000030E-02     2.44874216E-13
  0.189999998         3.72778956E-13
  0.305000007         3.59938668E-13
  0.419999987         1.76078526E-13
  0.535000026        -2.02022210E-13
  0.649999976        -7.87815776E-13
  0.764999986        -1.58261620E-12
  0.879999995        -2.57377670E-12
  0.995000005        -3.73362539E-12
   1.11000001        -5.01932306E-12
   1.22500002        -6.37377781E-12
   1.34000003        -7.72768308E-12
   1.45500004        -9.00266667E-12
   1.57000005        -1.01154753E-11
   1.68499994        -1.09830053E-11
   1.79999995        -1.15279817E-11
   1.91499996        -1.16849187E-11
   2.02999997        -1.14060037E-11
   2.14499998        -1.06665371E-11
   2.25999999        -9.46944606E-12
   2.37500000        -7.84851698E-12
   2.49000001        -5.86996554E-12
   2.60500002        -3.63205689E-12
   2.72000003        -1.26259680E-12
   2.83500004         1.08579031E-12
   2.95000005         3.24251997E-12
   3.06500006         5.02782711E-12
   3.18000007         6.26310896E-12
   3.29500008         6.78233858E-12
   3.41000009         6.44392525E-12
   3.52500010         5.14233794E-12
   3.64000010         2.81871705E-12
   3.75500011        -5.30281548E-13
   3.86999989        -4.84616167E-12
   3.98499990        -1.00053490E-11
   4.09999990        -1.58196407E-11
   4.21500015        -2.20406315E-11
   4.32999992        -2.83681550E-11
   4.44500017        -3.44627833E-11
   4.55999994        -3.99618151E-11
   4.67500019        -4.44982870E-11
   4.78999996        -4.77220485E-11
   4.90500021        -4.93218556E-11
   5.01999998        -4.90473877E-11
   5.13500023        -4.67297347E-11
   5.25000000        -4.22991399E-11
   5.36499977        -3.57987459E-11
   5.48000002        -2.73931867E-11
   5.59499979        -1.73711878E-11
   5.71000004        -6.14146060E-12
   5.82499981         5.77834829E-12
   5.94000006         1.77795105E-11
   6.05499983         2.91864727E-11
   6.17000008         3.92866885E-11
   6.28499985         4.73646365E-11
   6.40000010         5.27386745E-11
   6.51499987         5.47987385E-11
   6.63000011         5.30431289E-11
   6.74499989         4.71122551E-11
   6.86000013         3.68173894E-11
   6.97499990         2.21627126E-11
   7.09000015         3.35901446E-12
   7.20499992        -1.91720147E-11
   7.32000017        -4.48037510E-11
   7.43499994        -7.27209681E-11
   7.55000019        -1.01946354E-10
   7.66499996        -1.31376229E-10
   7.78000021        -1.59824348E-10
   7.89499998        -1.86071561E-10
   8.01000023        -2.08919798E-10
   8.12500000        -2.27247221E-10
   8.23999977        -2.40062026E-10
   8.35499954        -2.46553056E-10
   8.47000027        -2.46133003E-10
   8.58500004        -2.38473546E-10
   8.69999981        -2.23529278E-10
   8.81499958        -2.01549513E-10
   8.93000031        -1.73076178E-10
   9.04500008        -1.38928827E-10
   9.15999985        -1.00175264E-10
   9.27499962        -5.80903589E-11
   9.39000034        -1.41033435E-11
   9.50500011         3.02634307E-11
   9.61999989         7.34620975E-11
   9.73499966         1.13990123E-10
   9.85000038         1.50461241E-10
   9.96500015         1.81673024E-10
   10.0799999         2.06667752E-10
   10.1949997         2.24783941E-10
   10.3100004         2.35695269E-10
   10.4250002         2.39435138E-10
   10.5400000         2.36405173E-10
   10.6549997         2.27366931E-10
   10.7700005         2.13416146E-10
   10.8850002         1.95941485E-10
   11.0000000         1.76568149E-10
   11.1149998         1.57089466E-10
   11.2299995         1.39388723E-10
   11.3450003         1.25355767E-10
   11.4600000         1.16801346E-10
   11.5749998         1.15373613E-10
   11.6899996         1.22481400E-10
   11.8050003         1.39227727E-10
   11.9200001         1.66357025E-10
   12.0349998         2.04219516E-10
   12.1499996         2.52754928E-10
   12.2650003         3.11496440E-10
   12.3800001         3.79595355E-10
   12.4949999         4.55866289E-10
   12.6099997         5.38850076E-10
   12.7250004         6.26892871E-10
   12.8400002         7.18236415E-10
   12.9549999         8.11116785E-10
   13.0699997         9.03865538E-10
   13.1850004         9.95007188E-10
   13.3000002         1.08335263E-09
   13.4150000         1.16807475E-09
   13.5299997         1.24877308E-09
   13.6450005         1.32551425E-09
   13.7600002         1.39885015E-09
   13.8750000         1.46981349E-09
   13.9899998         1.53988711E-09
   14.1049995         1.61094982E-09
   14.2200003         1.68520198E-09
   14.3350000         1.76507287E-09
   14.4499998         1.85311466E-09
   14.5649996         1.95188843E-09
   14.6800003         2.06384865E-09
   14.7950001         2.19122875E-09
   14.9099998         2.33593922E-09
   15.0249996         2.49947840E-09
   15.1400003         2.68286326E-09
   15.2550001         2.88658253E-09
   15.3699999         3.11057846E-09
   15.4849997         3.35424999E-09
   15.6000004         3.61648800E-09
   15.7150002         3.89573307E-09
   15.8299999         4.19005852E-09
   15.9449997         4.49726922E-09
   16.0599995         4.81501283E-09
   16.1749992         5.14090859E-09
   16.2900009         5.47266765E-09
   16.4050007         5.80821657E-09
   16.5200005         6.14581142E-09
   16.6350002         6.48413589E-09
   16.7500000         6.82238177E-09
   16.8649998         7.16030701E-09
   16.9799995         7.49827400E-09
   17.0949993         7.83725884E-09
   17.2099991         8.17882562E-09
   17.3250008         8.52509618E-09
   17.4400005         8.87868712E-09
   17.5550003         9.24262178E-09
   17.6700001         9.62024149E-09
   17.7849998         1.00150936E-08
   17.8999996         1.04308260E-08
   18.0149994         1.08710729E-08
   18.1299992         1.13393348E-08
   18.2450008         1.18388934E-08
   18.3600006         1.23727109E-08
   18.4750004         1.29433477E-08
   18.5900002         1.35529197E-08
   18.7049999         1.42030432E-08
   18.8199997         1.48948107E-08
   18.9349995         1.56287996E-08
   19.0499992         1.64050675E-08
   19.1650009         1.72232006E-08
   19.2800007         1.80823463E-08
   19.3950005         1.89812823E-08
   19.5100002         1.99184811E-08
   19.6250000         2.08921787E-08
   19.7399998         2.19004761E-08
   19.8549995         2.29414017E-08
   19.9699993         2.40130014E-08
   20.0849991         2.51134118E-08
   20.2000008         2.62409259E-08
   20.3150005         2.73940532E-08
   20.4300003         2.85715522E-08
   20.5450001         2.97724547E-08
   20.6599998         3.09960804E-08
   20.7749996         3.22420135E-08
   20.8899994         3.35100729E-08
   21.0049992         3.48002693E-08
   21.1200008         3.61127164E-08
   21.2350006         3.74475633E-08
   21.3500004         3.88048775E-08
   21.4650002         4.01845490E-08
   21.5799999         4.15861834E-08
   21.6949997         4.30090026E-08
   21.8099995         4.44517241E-08
   21.9249992         4.59124934E-08
   22.0400009         4.73888164E-08
   22.1550007         4.88775243E-08
   22.2700005         5.03747657E-08
   22.3850002         5.18760146E-08
   22.5000000         5.33761337E-08
   22.6149998         5.48694494E-08
   22.7299995         5.63499150E-08
   22.8449993         5.78111887E-08
   22.9599991         5.92468226E-08
   23.0750008         6.06504500E-08
   23.1900005         6.20159355E-08
   23.3050003         6.33375947E-08
   23.4200001         6.46103118E-08
   23.5349998         6.58297097E-08
   23.6499996         6.69922287E-08
   23.7649994         6.80952468E-08
   23.8799992         6.91370801E-08
   23.9950008         7.01169824E-08
   24.1100006         7.10351173E-08
   24.2250004         7.18923872E-08
   24.3400002         7.26903835E-08
   24.4549999         7.34311811E-08
   24.5699997         7.41171107E-08
   24.6849995         7.47505879E-08
   24.7999992         7.53338654E-08
   24.9150009         7.58688401E-08
   25.0300007         7.63567556E-08
   25.1450005         7.67981447E-08
   25.2600002         7.71925244E-08
   25.3750000         7.75383810E-08
   25.4899998         7.78329792E-08
   25.6049995         7.80723468E-08
   25.7199993         7.82513325E-08
   25.8349991         7.83635201E-08
   25.9500008         7.84013849E-08
   26.0650005         7.83563863E-08
   26.1800003         7.82191449E-08
   26.2950001         7.79795215E-08
   26.4099998         7.76269218E-08
   26.5249996         7.71503963E-08
   26.6399994         7.65389174E-08
   26.7549992         7.57815215E-08
   26.8700008         7.48675149E-08
   26.9850006         7.37866515E-08
   27.1000004         7.25292324E-08
   27.2150002         7.10862196E-08
   27.3299999         6.94493067E-08
   27.4449997         6.76109551E-08
   27.5599995         6.55642935E-08
   27.6749992         6.33031476E-08
   27.7900009         6.08218684E-08
   27.9050007         5.81151980E-08
   28.0200005         5.51780843E-08
   28.1350002         5.20054684E-08
   28.2500000         4.85920708E-08
   28.3649998         4.49321007E-08
   28.4799995         4.10190708E-08
   28.5949993         3.68455666E-08
   28.7099991         3.24030509E-08
   28.8250008         2.76816507E-08
   28.9400005         2.26701324E-08
   29.0550003         1.73558092E-08
   29.1700001         1.17245342E-08
   29.2849998         5.76079628E-09
   29.3999996        -5.52137891E-10
   29.5149994        -7.23205495E-09
   29.6299992        -1.42974219E-08
   29.7450008        -2.17672156E-08
   29.8600006        -2.96604306E-08
   29.9750004        -3.79957825E-08
   30.0900002        -4.67912642E-08
   30.2049999        -5.60637829E-08
   30.3199997        -6.58287576E-08
   30.4349995        -7.60998375E-08
   30.5499992        -8.68885337E-08
   30.6650009        -9.82041186E-08
   30.7800007        -1.10053335E-07
   30.8950005        -1.22440440E-07
   31.0100002        -1.35367145E-07
   31.1250000        -1.48832740E-07
   31.2399998        -1.62834183E-07
   31.3549995        -1.77366360E-07
   31.4699993        -1.92422377E-07
   31.5849991        -2.07993892E-07
   31.7000008        -2.24071314E-07
   31.8150005        -2.40644368E-07
   31.9300003        -2.57702254E-07
   32.0449982        -2.75234129E-07
   32.1599998        -2.93229220E-07
   32.2750015        -3.11677439E-07
   32.3899994        -3.30569094E-07
   32.5050011        -3.49895458E-07
   32.6199989        -3.69648603E-07
   32.7350006        -3.89821508E-07
   32.8499985        -4.10408035E-07
   32.9650002        -4.31402725E-07
   33.0800018        -4.52800862E-07
   33.1949997        -4.74597812E-07
   33.3100014        -4.96789482E-07
   33.4249992        -5.19371270E-07
   33.5400009        -5.42338285E-07
   33.6549988        -5.65685525E-07
   33.7700005        -5.89406284E-07
   33.8849983        -6.13493228E-07
   34.0000000        -6.37937887E-07
   34.1150017        -6.62730315E-07
   34.2299995        -6.87858972E-07
   34.3450012        -7.13311181E-07
   34.4599991        -7.39072561E-07
   34.5750008        -7.65127709E-07
   34.6899986        -7.91460081E-07
   34.8050003        -8.18052058E-07
   34.9199982        -8.44885562E-07
   35.0349998        -8.71941666E-07
   35.1500015        -8.99201723E-07
   35.2649994        -9.26646749E-07
   35.3800011        -9.54258098E-07
   35.4949989        -9.82017127E-07
   35.6100006        -1.00990633E-06
   35.7249985        -1.03790808E-06
   35.8400002        -1.06600555E-06
   35.9550018        -1.09418193E-06
   36.0699997        -1.12242117E-06
   36.1850014        -1.15070634E-06
   36.2999992        -1.17902130E-06
   36.4150009        -1.20734842E-06
   36.5299988        -1.23566940E-06
   36.6450005        -1.26396515E-06
   36.7599983        -1.29221439E-06
   36.8750000        -1.32039395E-06
   36.9900017        -1.34847915E-06
   37.1049995        -1.37644258E-06
   37.2200012        -1.40425436E-06
   37.3349991        -1.43188265E-06
   37.4500008        -1.45929300E-06
   37.5649986        -1.48644892E-06
   37.6800003        -1.51331142E-06
   37.7949982        -1.53984070E-06
   37.9099998        -1.56599458E-06
   38.0250015        -1.59173123E-06
   38.1399994        -1.61700768E-06
   38.2550011        -1.64178107E-06
   38.3699989        -1.66600876E-06
   38.4850006        -1.68965050E-06
   38.5999985        -1.71266561E-06
   38.7150002        -1.73501621E-06
   38.8300018        -1.75666730E-06
   38.9449997        -1.77758488E-06
   39.0600014        -1.79773929E-06
   39.1749992        -1.81710243E-06
   39.2900009        -1.83565021E-06
   39.4049988        -1.85336103E-06
   39.5200005        -1.87021647E-06
   39.6349983        -1.88620220E-06
   39.7500000        -1.90130436E-06
   39.8650017        -1.91551385E-06
   39.9799995        -1.92882385E-06
   40.0950012        -1.94122913E-06
   40.2099991        -1.95272742E-06
   40.3250008        -1.96331712E-06
   40.4399986        -1.97300051E-06
   40.5550003        -1.98177941E-06
   40.6699982        -1.98965836E-06
   40.7849998        -1.99664305E-06
   40.9000015        -2.00274076E-06
   41.0149994        -2.00796103E-06
   41.1300011        -2.01231342E-06
   41.2449989        -2.01581065E-06
   41.3600006        -2.01846774E-06
   41.4749985        -2.02030128E-06
   41.5900002        -2.02133106E-06
   41.7050018        -2.02157958E-06
   41.8199997        -2.02107321E-06
   41.9350014        -2.01984176E-06
   42.0499992        -2.01791954E-06
   42.1650009        -2.01534476E-06
   42.2799988        -2.01216108E-06
   42.3950005        -2.00841623E-06
   42.5099983        -2.00416412E-06
   42.6250000        -1.99946271E-06
   42.7400017        -1.99437636E-06
   42.8549995        -1.98897305E-06
   42.9700012        -1.98332600E-06
   43.0849991        -1.97751251E-06
   43.2000008        -1.97161398E-06
   43.3149986        -1.96571546E-06
   43.4300003        -1.95990378E-06
   43.5449982        -1.95426810E-06
   43.6599998        -1.94889981E-06
   43.7750015        -1.94388917E-06
   43.8899994        -1.93932692E-06
   44.0050011        -1.93530332E-06
   44.1199989        -1.93190635E-06
   44.2350006        -1.92922153E-06
   44.3499985        -1.92733251E-06
   44.4650002        -1.92631910E-06
   44.5800018        -1.92625794E-06
   44.6949997        -1.92722246E-06
   44.8100014        -1.92928155E-06
   44.9249992        -1.93250139E-06
   45.0400009        -1.93694291E-06
   45.1549988        -1.94266613E-06
   45.2700005        -1.94972608E-06
   45.3849983        -1.95817665E-06
   45.5000000        -1.96806923E-06
   45.6150017        -1.97945337E-06
   45.7299995        -1.99237775E-06
   45.8450012        -2.00688919E-06
   45.9599991        -2.02303522E-06
   46.0750008        -2.04086155E-06
   46.1899986        -2.06041477E-06
   46.3050003        -2.08174015E-06
   46.4199982        -2.10488315E-06
   46.5349998        -2.12988698E-06
   46.6500015        -2.15679506E-06
   46.7649994        -2.18564878E-06
   46.8800011        -2.21648679E-06
   46.9949989        -2.24934524E-06
   47.1100006        -2.28425597E-06
   47.2249985        -2.32124830E-06
   47.3400002        -2.36034475E-06
   47.4550018        -2.40156396E-06
   47.5699997        -2.44491821E-06
   47.6850014        -2.49041295E-06
   47.7999992        -2.53804774E-06
   47.9150009        -2.58781597E-06
   48.0299988        -2.63970378E-06
   48.1450005        -2.69368911E-06
   48.2599983        -2.74974605E-06
   48.3750000        -2.80784116E-06
   48.4900017        -2.86793374E-06
   48.6049995        -2.92997834E-06
   48.7200012        -2.99392468E-06
   48.8349991        -3.05971798E-06
   48.9500008        -3.12729617E-06
   49.0649986        -3.19659557E-06
   49.1800003        -3.26754571E-06
   49.2949982        -3.34007473E-06
   49.4099998        -3.41410214E-06
   49.5250015        -3.48954700E-06
   49.6399994        -3.56632108E-06
   49.7550011        -3.64433163E-06
   49.8699989        -3.72347949E-06
   49.9850006        -3.80365964E-06
   50.0999985        -3.88476019E-06
   50.2150002        -3.96665928E-06
   50.3300018        -4.04923003E-06
   50.4449997        -4.13233329E-06
   50.5600014        -4.21582217E-06
   50.6749992        -4.29953798E-06
   50.7900009        -4.38331244E-06
   50.9049988        -4.46696549E-06
   51.0200005        -4.55030658E-06
   51.1349983        -4.63313290E-06
   51.2500000        -4.71523344E-06
   51.3650017        -4.79638584E-06
   51.4799995        -4.87635771E-06
   51.5950012        -4.95490758E-06
   51.7099991        -5.03178762E-06
   51.8250008        -5.10674454E-06
   51.9399986        -5.17951730E-06
   52.0550003        -5.24984307E-06
   52.1699982        -5.31745673E-06
   52.2849998        -5.38208997E-06
   52.4000015        -5.44347768E-06
   52.5149994        -5.50135564E-06
   52.6300011        -5.55546103E-06
   52.7449989        -5.60553690E-06
   52.8600006        -5.65132996E-06
   52.9749985        -5.69259146E-06
   53.0900002        -5.72908129E-06
   53.2050018        -5.76056345E-06
   53.3199997        -5.78680829E-06
   53.4350014        -5.80759479E-06
   53.5499992        -5.82270604E-06
   53.6650009        -5.83193241E-06
   53.7799988        -5.83507108E-06
   53.8950005        -5.83192468E-06
   54.0099983        -5.82230086E-06
   54.1250000        -5.80601500E-06
   54.2400017        -5.78288655E-06
   54.3549995        -5.75274271E-06
   54.4700012        -5.71541705E-06
   54.5849991        -5.67074858E-06
   54.7000008        -5.61858633E-06
   54.8149986        -5.55878660E-06
   54.9300003        -5.49121660E-06
   55.0449982        -5.41575309E-06
   55.1599998        -5.33228604E-06
   55.2750015        -5.24071720E-06
   55.3899994        -5.14096428E-06
   55.5050011        -5.03295860E-06
   55.6199989        -4.91664969E-06
   55.7350006        -4.79200253E-06
   55.8499985        -4.65900166E-06
   55.9650002        -4.51764754E-06
   56.0800018        -4.36796245E-06
   56.1949997        -4.20998322E-06
   56.3100014        -4.04376806E-06
   56.4249992        -3.86939155E-06
   56.5400009        -3.68694555E-06
   56.6549988        -3.49653919E-06
   56.7700005        -3.29829481E-06
   56.8849983        -3.09235111E-06
   57.0000000        -2.87886041E-06
   57.1150017        -2.65798531E-06
   57.2299995        -2.42990200E-06
   57.3450012        -2.19479580E-06
   57.4599991        -1.95286202E-06
   57.5750008        -1.70430542E-06
   57.6899986        -1.44933870E-06
   57.8050003        -1.18818298E-06
   57.9199982        -9.21066885E-07
   58.0349998        -6.48227342E-07
   58.1500015        -3.69907980E-07
   58.2649994        -8.63610694E-08
   58.3800011         2.02154069E-07
   58.4949989         4.95370273E-07
   58.6100006         7.93011395E-07
   58.7249985         1.09479572E-06
   58.8400002         1.40043187E-06
   58.9550018         1.70962164E-06
   59.0699997         2.02206024E-06
   59.1850014         2.33743594E-06
   59.2999992         2.65543054E-06
   59.4150009         2.97572387E-06
   59.5299988         3.29798581E-06
   59.6450005         3.62188962E-06
   59.7599983         3.94710150E-06
   59.8750000         4.27329087E-06
   59.9900017         4.60012507E-06
   60.1049995         4.92727440E-06
   60.2200012         5.25441101E-06
   60.3349991         5.58121155E-06
   60.4500008         5.90735681E-06
   60.5649986         6.23253254E-06
   60.6800003         6.55643316E-06
   60.7949982         6.87875672E-06
   60.9099998         7.19920990E-06
   61.0250015         7.51750395E-06
   61.1399994         7.83336145E-06
   61.2550011         8.14650775E-06
   61.3699989         8.45667819E-06
   61.4850006         8.76361082E-06
   61.5999985         9.06705645E-06
   61.7150002         9.36676497E-06
   61.8300018         9.66249354E-06
   61.9449997         9.95400751E-06
   62.0600014         1.02410731E-05
   62.1749992         1.05234612E-05
   62.2900009         1.08009463E-05
   62.4049988         1.10733072E-05
   62.5200005         1.13403221E-05
   62.6349983         1.16017764E-05
   62.7500000         1.18574526E-05
   62.8650017         1.21071353E-05
   62.9799995         1.23506143E-05
   63.0950012         1.25876750E-05
   63.2099991         1.28181055E-05
   63.3250008         1.30416920E-05
   63.4399986         1.32582190E-05
   63.5550003         1.34674774E-05
   63.6699982         1.36692506E-05
   63.7849998         1.38633195E-05
   63.9000015         1.40494685E-05
   64.0149994         1.42274775E-05
   64.1299973         1.43971210E-05
   64.2450027         1.45581789E-05
   64.3600006         1.47104220E-05
   64.4749985         1.48536201E-05
   64.5899963         1.49875423E-05
   64.7050018         1.51119530E-05
   64.8199997         1.52266202E-05
   64.9349976         1.53312976E-05
   65.0500031         1.54257468E-05
   65.1650009         1.55097223E-05
   65.2799988         1.55829784E-05
   65.3949966         1.56452697E-05
   65.5100021         1.56963451E-05
   65.6250000         1.57359573E-05
   65.7399979         1.57638533E-05
   65.8550034         1.57797876E-05
   65.9700012         1.57835020E-05
   66.0849991         1.57747581E-05
   66.1999969         1.57533050E-05
   66.3150024         1.57189061E-05
   66.4300003         1.56713177E-05
   66.5449982         1.56103160E-05
   66.6600037         1.55356774E-05
   66.7750015         1.54471854E-05
   66.8899994         1.53446381E-05
   67.0049973         1.52278535E-05
   67.1200027         1.50966471E-05
   67.2350006         1.49508714E-05
   67.3499985         1.47903875E-05
   67.4649963         1.46150824E-05
   67.5800018         1.44248643E-05
   67.6949997         1.42196732E-05
   67.8099976         1.39994736E-05
   67.9250031         1.37642628E-05
   68.0400009         1.35140726E-05
   68.1549988         1.32489658E-05
   68.2699966         1.29690461E-05
   68.3850021         1.26744526E-05
   68.5000000         1.23653626E-05
   68.6149979         1.20419982E-05
   68.7300034         1.17046202E-05
   68.8450012         1.13535280E-05
   68.9599991         1.09890707E-05
   69.0749969         1.06116340E-05
   69.1900024         1.02216527E-05
   69.3050003         9.81959874E-06
   69.4199982         9.40599602E-06
   69.5350037         8.98140115E-06
   69.6500015         8.54642803E-06
   69.7649994         8.10172241E-06
   69.8799973         7.64798278E-06
   69.9950027         7.18594447E-06
   70.1100006         6.71639327E-06
   70.2249985         6.24015320E-06
   70.3399963         5.75809599E-06
   70.4550018         5.27113070E-06
   70.5699997         4.78021275E-06
   70.6849976         4.28633757E-06
   70.8000031         3.79053836E-06
   70.9150009         3.29388831E-06
   71.0299988         2.79749884E-06
   71.1449966         2.30251112E-06
   71.2600021         1.81009977E-06
   71.3750000         1.32146874E-06
   71.4899979         8.37847381E-07
   71.6050034         3.60484421E-07
   71.7200012        -1.09351916E-07
   71.8349991        -5.70383293E-07
   71.9499969        -1.02132287E-06
   72.0650024        -1.46087939E-06
   72.1800003        -1.88776721E-06
   72.2949982        -2.30070532E-06
   72.4100037        -2.69842940E-06
   72.5250015        -3.07969549E-06
   72.6399994        -3.44328282E-06
   72.7549973        -3.78800587E-06
   72.8700027        -4.11271367E-06
   72.9850006        -4.41630436E-06
   73.0999985        -4.69771976E-06
   73.2149963        -4.95595941E-06
   73.3300018        -5.19008427E-06
   73.4449997        -5.39922030E-06
   73.5599976        -5.58256261E-06
   73.6750031        -5.73938632E-06
   73.7900009        -5.86904207E-06
   73.9049988        -5.97096368E-06
   74.0199966        -6.04467641E-06
   74.1350021        -6.08979508E-06