  -18.8999996         0.00000000    
  -18.7849998         0.00000000    
  -18.6700001         0.00000000    
  -18.5550003        -1.80378548E-24
  -18.4400005         4.74707463E-23
  -18.3250008         4.30762180E-22
  -18.2099991         1.92972614E-21
  -18.0949993         6.02204571E-21
  -17.9799995         1.47362937E-20
  -17.8649998         2.99167058E-20
  -17.7500000         5.18590675E-20
  -17.6350002         7.76435150E-20
  -17.5200005         9.98866602E-20
  -17.4050007         1.06878437E-19
  -17.2900009         8.49808914E-20
  -17.1749992         2.36533072E-20
  -17.0599995        -7.74148642E-20
  -16.9449997        -2.00627785E-19
  -16.8299999        -3.04718061E-19
  -16.7150002        -3.23745128E-19
  -16.6000004        -1.73380107E-19
  -16.4850006         2.34094672E-19
  -16.3700008         9.66323248E-19
  -16.2549992         2.04105948E-18
  -16.1399994         3.39365529E-18
  -16.0249996         4.84630687E-18
  -15.9099998         6.08330212E-18
  -15.7950001         6.63529049E-18
  -15.6800003         5.87378265E-18
  -15.5649996         3.01510642E-18
  -15.4499998        -2.86836809E-18
  -15.3350000        -1.28324251E-17
  -15.2200003        -2.80426205E-17
  -15.1049995        -4.97538120E-17
  -14.9899998        -7.92862609E-17
  -14.8750000        -1.17995567E-16
  -14.7600002        -1.67233579E-16
  -14.6450005        -2.28298779E-16
  -14.5299997        -3.02377527E-16
  -14.4150000        -3.90480918E-16
  -14.3000002        -4.93385574E-16
  -14.1850004        -6.11587963E-16
  -14.0699997        -7.45281473E-16
  -13.9549999        -8.94362290E-16
  -13.8400002        -1.05846349E-15
  -13.7250004        -1.23701221E-15
  -13.6099997        -1.42929557E-15
  -13.4949999        -1.63452265E-15
  -13.3800001        -1.85186220E-15
  -13.2650003        -2.08044633E-15
  -13.1499996        -2.31933312E-15
  -13.0349998        -2.56742568E-15
  -12.9200001        -2.82336135E-15
  -12.8050003        -3.08538506E-15
  -12.6899996        -3.35122254E-15
  -12.5749998        -3.61798434E-15
  -12.4600000        -3.88211039E-15
  -12.3450003        -4.13938140E-15
  -12.2299995        -4.38500783E-15
  -12.1149998        -4.61380456E-15
  -12.0000000        -4.82044968E-15
  -11.8850002        -4.99981653E-15
  -11.7700005        -5.14734849E-15
  -11.6549997        -5.25944187E-15
  -11.5400000        -5.33377028E-15
  -11.4250002        -5.36949051E-15
  -11.3100004        -5.36726747E-15
  -11.1949997        -5.32907518E-15
  -11.0799999        -5.25775839E-15
  -10.9650002        -5.15638168E-15
  -10.8500004        -5.02747046E-15
  -10.7349997        -4.87222626E-15
  -10.6199999        -4.68991682E-15
  -10.5050001        -4.47757455E-15
  -10.3900003        -4.23011134E-15
  -10.2749996        -3.94089278E-15
  -10.1599998        -3.60273267E-15
  -10.0450001        -3.20911328E-15
  -9.93000031        -2.75536451E-15
  -9.81499958        -2.23944627E-15
  -9.69999981        -1.66203704E-15
  -9.58500004        -1.02554345E-15
  -9.47000027        -3.32054359E-16
  -9.35499954         4.19817560E-16
  -9.23999977         1.23872819E-15
  -9.12500000         2.14448943E-15
  -9.01000023         3.17118293E-15
  -8.89500046         4.36853558E-15
  -8.77999973         5.80058115E-15
  -8.66499996         7.54112840E-15
  -8.55000019         9.66538539E-15
  -8.43500042         1.22383826E-14
  -8.31999969         1.53009895E-14
  -8.20499992         1.88552160E-14
  -8.09000015         2.28514090E-14
  -7.97499990         2.71797863E-14
  -7.86000013         3.16693727E-14
  -7.74499989         3.60966580E-14
  -7.63000011         4.02055911E-14
  -7.51499987         4.37389586E-14
  -7.40000010         4.64795405E-14
  -7.28499985         4.82971715E-14
  -7.17000008         4.91963851E-14
  -7.05499983         4.93569249E-14
  -6.94000006         4.91593325E-14
  -6.82499981         4.91875658E-14
  -6.71000004         5.02019386E-14
  -6.59499979         5.30788995E-14
  -6.48000002         5.87174623E-14
  -6.36499977         6.79177580E-14
  -6.25000000         8.12420132E-14
  -6.13500023         9.88735664E-14
  -6.01999998         1.20493635E-13
  -5.90500021         1.45197304E-13
  -5.78999996         1.71470382E-13
  -5.67500019         1.97245039E-13
  -5.55999994         2.20044604E-13
  -5.44500017         2.37219857E-13
  -5.32999992         2.46265004E-13
  -5.21500015         2.45190126E-13
  -5.09999990         2.32913135E-13
  -4.98500013         2.09623714E-13
  -4.86999989         1.77066288E-13
  -4.75500011         1.38686344E-13
  -4.63999987         9.95926093E-14
  -4.52500010         6.62998302E-14
  -4.40999985         4.62372890E-14
  -4.29500008         4.70360140E-14
  -4.17999983         7.56362204E-14
  -4.06500006         1.37286951E-13
  -3.95000005         2.34538897E-13
  -3.83500004         3.66349068E-13
  -3.72000003         5.27426789E-13
  -3.60500002         7.07946993E-13
  -3.49000001         8.93736365E-13
  -3.37500000         1.06700304E-12
  -3.25999999         1.20763208E-12
  -3.14499998         1.29500805E-12
  -3.02999997         1.31026104E-12
  -2.91499996         1.23877037E-12
  -2.79999995         1.07269803E-12
  -2.68499994         8.13287046E-13
  -2.56999993         4.72638638E-13
  -2.45499992         7.46901591E-14
  -2.33999991        -3.44849773E-13
  -2.22499990        -7.39778735E-13
  -2.10999990        -1.05597486E-12
  -1.99500000        -1.23522709E-12
  -1.88000000        -1.22015972E-12
  -1.76499999        -9.59953796E-13
  -1.64999998        -4.16452842E-13
  -1.53499997         4.29854692E-13
  -1.41999996         1.57454735E-12
  -1.30499995         2.98525571E-12
  -1.19000006         4.59947011E-12
  -1.07500005         6.32462832E-12
 -0.959999979         8.04079373E-12
 -0.845000029         9.60606161E-12
 -0.730000019         1.08646070E-11
 -0.615000010         1.16570651E-11
 -0.500000000         1.18326876E-11
 -0.384999990         1.12625534E-11
 -0.270000011         9.85288674E-12
 -0.155000001         7.55749456E-12
  -3.99999991E-02     4.38825322E-12
   7.50000030E-02     4.22633689E-13
  0.189999998        -4.19260633E-12
  0.305000007        -9.24226494E-12
  0.419999987        -1.44484494E-11
  0.535000026        -1.94813748E-11
  0.649999976        -2.39749175E-11
  0.764999986        -2.75463125E-11
  0.879999995        -2.98190847E-11
  0.995000005        -3.04479011E-11
   1.11000001        -2.91439858E-11
   1.22500002        -2.56994148E-11
   1.34000003        -2.00087013E-11
   1.45500004        -1.20860917E-11
   1.57000005        -2.07718456E-12
   1.68499994         9.73628383E-12
   1.79999995         2.29392390E-11
   1.91499996         3.69940432E-11
   2.02999997         5.12591601E-11
   2.14499998         6.50151599E-11
   2.25999999         7.74970366E-11
   2.37500000         8.79315162E-11
   2.49000001         9.55774349E-11
   2.60500002         9.97673472E-11
   2.72000003         9.99480845E-11
   2.83500004         9.57180377E-11
   2.95000005         8.68590477E-11
   3.06500006         7.33609770E-11
   3.18000007         5.54372069E-11
   3.29500008         3.35299705E-11
   3.41000009         8.30456537E-12
   3.52500010        -1.93676446E-11
   3.64000010        -4.84372785E-11
   3.75500011        -7.77149595E-11
   3.86999989        -1.05918038E-10
   3.98499990        -1.31724132E-10
   4.09999990        -1.53829019E-10
   4.21500015        -1.71006390E-10
   4.32999992        -1.82166796E-10
   4.44500017        -1.86412691E-10
   4.55999994        -1.83087073E-10
   4.67500019        -1.71813133E-10
   4.78999996        -1.52522883E-10
   4.90500021        -1.25472910E-10
   5.01999998        -9.12465242E-11
   5.13500023        -5.07415082E-11
   5.25000000        -5.14386190E-12
   5.36499977         4.41113569E-11
   5.48000002         9.53910353E-11
   5.59499979         1.46924320E-10
   5.71000004         1.96869965E-10
   5.82499981         2.43387671E-10
   5.94000006         2.84710505E-10
   6.05499983         3.19215210E-10
   6.17000008         3.45487278E-10
   6.28499985         3.62378183E-10
   6.40000010         3.69052316E-10
   6.51499987         3.65021485E-10
   6.63000011         3.50166063E-10
   6.74499989         3.24741317E-10
   6.86000013         2.89369306E-10
   6.97499990         2.45016618E-10
   7.09000015         1.92958607E-10
   7.20499992         1.34732087E-10
   7.32000017         7.20781421E-11
   7.43499994         6.87751592E-12
   7.55000019        -5.89190016E-11
   7.66499996        -1.23362334E-10
   7.78000021        -1.84576493E-10
   7.89499998        -2.40826359E-10
   8.01000023        -2.90579505E-10
   8.12500000        -3.32559646E-10
   8.23999977        -3.65789704E-10
   8.35499954        -3.89622251E-10
   8.47000027        -4.03756861E-10
   8.58500004        -4.08242912E-10
   8.69999981        -4.03468231E-10
   8.81499958        -3.90133786E-10
   8.93000031        -3.69215825E-10
   9.04500008        -3.41916939E-10
   9.15999985        -3.09608728E-10
   9.27499962        -2.73768425E-10
   9.39000034        -2.35913594E-10
   9.50500011        -1.97537112E-10
   9.61999989        -1.60046795E-10
   9.73499966        -1.24712671E-10
   9.85000038        -9.26248037E-11
   9.96500015        -6.46633233E-11
   10.0799999        -4.14830496E-11
   10.1949997        -2.35127248E-11
   10.3100004        -1.09679982E-11
   10.4250002        -3.87753068E-12
   10.5400000        -2.11900961E-12
   10.6549997        -5.46182587E-12
   10.7700005        -1.36130152E-11
   10.8850002        -2.62622511E-11
   11.0000000        -4.31214474E-11
   11.1149998        -6.39552994E-11
   11.2299995        -8.85999885E-11
   11.3450003        -1.16967852E-10
   11.4600000        -1.49038282E-10
   11.5749998        -1.84832386E-10
   11.6899996        -2.24377600E-10
   11.8050003        -2.67662309E-10
   11.9200001        -3.14585358E-10
   12.0349998        -3.64906466E-10
   12.1499996        -4.18201723E-10
   12.2650003        -4.73830808E-10
   12.3800001        -5.30918531E-10
   12.4949999        -5.88355198E-10
   12.6099997        -6.44818865E-10
   12.7250004        -6.98819613E-10
   12.8400002        -7.48760998E-10
   12.9549999        -7.93024035E-10
   13.0699997        -8.30060187E-10
   13.1850004        -8.58490556E-10
   13.3000002        -8.77208473E-10
   13.4150000        -8.85469809E-10
   13.5299997        -8.82973361E-10
   13.6450005        -8.69915862E-10
   13.7600002        -8.47024950E-10
   13.8750000        -8.15559398E-10
   13.9899998        -7.77279574E-10
   14.1049995        -7.34389771E-10
   14.2200003        -6.89449220E-10
   14.3350000        -6.45266396E-10
   14.4499998        -6.04772343E-10
   14.5649996        -5.70887448E-10
   14.6800003        -5.46390155E-10
   14.7950001        -5.33786848E-10
   14.9099998        -5.35205991E-10
   15.0249996        -5.52307255E-10
   15.1400003        -5.86217241E-10
   15.2550001        -6.37494446E-10
   15.3699999        -7.06129044E-10
   15.4849997        -7.91561816E-10
   15.6000004        -8.92735774E-10
   15.7150002        -1.00816488E-09
   15.8299999        -1.13602194E-09
   15.9449997        -1.27423150E-09
   16.0599995        -1.42056367E-09
   16.1749992        -1.57272906E-09
   16.2900009        -1.72846149E-09
   16.4050007        -1.88558702E-09
   16.5200005        -2.04208073E-09
   16.6350002        -2.19610352E-09
   16.7500000        -2.34601583E-09
   16.8649998        -2.49039345E-09
   16.9799995        -2.62801536E-09
   17.0949993        -2.75784462E-09
   17.2099991        -2.87900703E-09
   17.3250008        -2.99076719E-09
   17.4400005        -3.09250714E-09
   17.5550003        -3.18370552E-09
   17.6700001        -3.26392602E-09
   17.7849998        -3.33280692E-09
   17.8999996        -3.39007666E-09
   18.0149994        -3.43555051E-09
   18.1299992        -3.46914786E-09
   18.2450008        -3.49091644E-09
   18.3600006        -3.50103102E-09
   18.4750004        -3.49981399E-09
   18.5900002        -3.48774853E-09
   18.7049999        -3.46544926E-09
   18.8199997        -3.43368223E-09
   18.9349995        -3.39330963E-09
   19.0499992        -3.34525851E-09
   19.1650009        -3.29045591E-09
   19.2800007        -3.22977378E-09
   19.3950005        -3.16393667E-09
   19.5100002        -3.09345416E-09
   19.6250000        -3.01850500E-09
   19.7399998        -2.93886782E-09
   19.8549995        -2.85382873E-09
   19.9699993        -2.76210388E-09
   20.0849991        -2.66178191E-09
   20.2000008        -2.55027621E-09
   20.3150005        -2.42430787E-09
   20.4300003        -2.27990604E-09
   20.5450001        -2.11245976E-09
   20.6599998        -1.91677252E-09
   20.7749996        -1.68717584E-09
   20.8899994        -1.41767054E-09
   21.0049992        -1.10208576E-09
   21.1200008        -7.34285077E-10
   21.2350006        -3.08385845E-10
   21.3500004         1.81052090E-10
   21.4650002         7.38766770E-10
   21.5799999         1.36857770E-09
   21.6949997         2.07316875E-09
   21.8099995         2.85395352E-09
   21.9249992         3.71086695E-09
   22.0400009         4.64231187E-09
   22.1550007         5.64509772E-09
   22.2700005         6.71445699E-09
   22.3850002         7.84411469E-09
   22.5000000         9.02642316E-09
   22.6149998         1.02525721E-08
   22.7299995         1.15128005E-08
   22.8449993         1.27967112E-08
   22.9599991         1.40935850E-08
   23.0750008         1.53927235E-08
   23.1900005         1.66837886E-08
   23.3050003         1.79571984E-08
   23.4200001         1.92044034E-08
   23.5349998         2.04182165E-08
   23.6499996         2.15930580E-08
   23.7649994         2.27251462E-08
   23.8799992         2.38126621E-08
   23.9950008         2.48558187E-08
   24.1100006         2.58568651E-08
   24.2250004         2.68200555E-08
   24.3400002         2.77515415E-08
   24.4549999         2.86591799E-08
   24.5699997         2.95523357E-08
   24.6849995         3.04415977E-08
   24.7999992         3.13385407E-08
   24.9150009         3.22553397E-08
   25.0300007         3.32044827E-08
   25.1450005         3.41983970E-08
   25.2600002         3.52491369E-08
   25.3750000         3.63681032E-08
   25.4899998         3.75657088E-08
   25.6049995         3.88511765E-08
   25.7199993         4.02322868E-08
   25.8349991         4.17152179E-08
   25.9500008         4.33044463E-08
   26.0650005         4.50026434E-08
   26.1800003         4.68106833E-08
   26.2950001         4.87276992E-08
   26.4099998         5.07511686E-08
   26.5249996         5.28770521E-08
   26.6399994         5.50999921E-08
   26.7549992         5.74135619E-08
   26.8700008         5.98105245E-08
   26.9850006         6.22831067E-08
   27.1000004         6.48232827E-08
   27.2150002         6.74230876E-08
   27.3299999         7.00748615E-08
   27.4449997         7.27715062E-08
   27.5599995         7.55066836E-08
   27.6749992         7.82749296E-08
   27.7900009         8.10718390E-08
   27.9050007         8.38940721E-08
   28.0200005         8.67393695E-08
   28.1350002         8.96065444E-08
   28.2500000         9.24953056E-08
   28.3649998         9.54062145E-08
   28.4799995         9.83404860E-08
   28.5949993         1.01299790E-07
   28.7099991         1.04286130E-07
   28.8250008         1.07301588E-07
   28.9400005         1.10348182E-07
   29.0550003         1.13427717E-07
   29.1700001         1.16541656E-07
   29.2849998         1.19691066E-07
   29.3999996         1.22876486E-07
   29.5149994         1.26098030E-07
   29.6299992         1.29355129E-07
   29.7450008         1.32646818E-07
   29.8600006         1.35971533E-07
   29.9750004         1.39327284E-07
   30.0900002         1.42711585E-07
   30.2049999         1.46121508E-07
   30.3199997         1.49553728E-07
   30.4349995         1.53004422E-07
   30.5499992         1.56469397E-07
   30.6650009         1.59944008E-07
   30.7800007         1.63423138E-07
   30.8950005         1.66901344E-07
   31.0100002         1.70372815E-07
   31.1250000         1.73831253E-07
   31.2399998         1.77270195E-07
   31.3549995         1.80682932E-07
   31.4699993         1.84062642E-07
   31.5849991         1.87402520E-07
   31.7000008         1.90695914E-07
   31.8150005         1.93936515E-07
   31.9300003         1.97118354E-07
   32.0449982         2.00236286E-07
   32.1599998         2.03285651E-07
   32.2750015         2.06262598E-07
   32.3899994         2.09164071E-07
   32.5050011         2.11987697E-07
   32.6199989         2.14731770E-07
   32.7350006         2.17394955E-07
   32.8499985         2.19976272E-07
   32.9650002         2.22474597E-07
   33.0800018         2.24888652E-07
   33.1949997         2.27216574E-07
   33.3100014         2.29455551E-07
   33.4249992         2.31601845E-07
   33.5400009         2.33650297E-07
   33.6549988         2.35594484E-07
   33.7700005         2.37426335E-07
   33.8849983         2.39136114E-07
   34.0000000         2.40712808E-07
   34.1150017         2.42143869E-07
   34.2299995         2.43415542E-07
   34.3450012         2.44513132E-07
   34.4599991         2.45421205E-07
   34.5750008         2.46123989E-07
   34.6899986         2.46605765E-07
   34.8050003         2.46850959E-07
   34.9199982         2.46844138E-07
   35.0349998         2.46570863E-07
   35.1500015         2.46017180E-07
   35.2649994         2.45169701E-07
   35.3800011         2.44015695E-07
   35.4949989         2.42543081E-07
   35.6100006         2.40739951E-07
   35.7249985         2.38594339E-07
   35.8400002         2.36094010E-07
   35.9550018         2.33226118E-07
   36.0699997         2.29977005E-07
   36.1850014         2.26331721E-07
   36.2999992         2.22274252E-07
   36.4150009         2.17787061E-07
   36.5299988         2.12851177E-07
   36.6450005         2.07446305E-07
   36.7599983         2.01551003E-07
   36.8750000         1.95142718E-07
   36.9900017         1.88198598E-07
   37.1049995         1.80696446E-07
   37.2200012         1.72614335E-07
   37.3349991         1.63932128E-07
   37.4500008         1.54632033E-07
   37.5649986         1.44699044E-07
   37.6800003         1.34121663E-07
   37.7949982         1.22892558E-07
   37.9099998         1.11008561E-07
   38.0250015         9.84719790E-08
   38.1399994         8.52895070E-08
   38.2550011         7.14730035E-08
   38.3699989         5.70389957E-08
   38.4850006         4.20085264E-08
   38.5999985         2.64063544E-08
   38.7150002         1.02605044E-08
   38.8300018        -6.39832365E-09
   38.9449997        -2.35375808E-08
   39.0600014        -4.11241992E-08
   39.1749992        -5.91250107E-08
   39.2900009        -7.75072593E-08
   39.4049988        -9.62399085E-08
   39.5200005        -1.15293716E-07
   39.6349983        -1.34641411E-07
   39.7500000        -1.54259098E-07
   39.8650017        -1.74125063E-07
   39.9799995        -1.94220348E-07
   40.0950012        -2.14528541E-07
   40.2099991        -2.35034634E-07
   40.3250008        -2.55725780E-07
   40.4399986        -2.76588992E-07
   40.5550003        -2.97612303E-07
   40.6699982        -3.18782696E-07
   40.7849998        -3.40086643E-07
   40.9000015        -3.61508171E-07
   41.0149994        -3.83030340E-07
   41.1300011        -4.04633482E-07
   41.2449989        -4.26295145E-07
   41.3600006        -4.47990345E-07
   41.4749985        -4.69690860E-07
   41.5900002        -4.91366450E-07
   41.7050018        -5.12983831E-07
   41.8199997        -5.34508445E-07
   41.9350014        -5.55903910E-07
   42.0499992        -5.77132255E-07
   42.1650009        -5.98156419E-07
   42.2799988        -6.18937747E-07
   42.3950005        -6.39438213E-07
   42.5099983        -6.59620582E-07
   42.6250000        -6.79449101E-07
   42.7400017        -6.98888300E-07
   42.8549995        -7.17905891E-07
   42.9700012        -7.36469133E-07
   43.0849991        -7.54547727E-07
   43.2000008        -7.72112060E-07
   43.3149986        -7.89135640E-07
   43.4300003        -8.05591810E-07
   43.5449982        -8.21455728E-07
   43.6599998        -8.36705112E-07
   43.7750015        -8.51319385E-07
   43.8899994        -8.65278935E-07
   44.0050011        -8.78565629E-07
   44.1199989        -8.91163552E-07
   44.2350006        -9.03057696E-07
   44.3499985        -9.14235784E-07
   44.4650002        -9.24685821E-07
   44.5800018        -9.34398656E-07
   44.6949997        -9.43367127E-07
   44.8100014        -9.51585605E-07
   44.9249992        -9.59051476E-07
   45.0400009        -9.65763093E-07
   45.1549988        -9.71721306E-07
   45.2700005        -9.76928391E-07
   45.3849983        -9.81387529E-07
   45.5000000        -9.85104521E-07
   45.6150017        -9.88086072E-07
   45.7299995        -9.90339345E-07
   45.8450012        -9.91873435E-07
   45.9599991        -9.92698460E-07
   46.0750008        -9.92827040E-07
   46.1899986        -9.92272248E-07
   46.3050003        -9.91049660E-07
   46.4199982        -9.89176783E-07
   46.5349998        -9.86673626E-07
   46.6500015        -9.83561677E-07
   46.7649994        -9.79865945E-07
   46.8800011        -9.75616331E-07
   46.9949989        -9.70846372E-07
   47.1100006        -9.65594268E-07
   47.2249985        -9.59904582E-07
   47.3400002        -9.53828817E-07
   47.4550018        -9.47424724E-07
   47.5699997        -9.40756991E-07
   47.6850014        -9.33897866E-07
   47.7999992        -9.26927953E-07
   47.9150009        -9.19933825E-07
   48.0299988        -9.13011263E-07
   48.1450005        -9.06263040E-07
   48.2599983        -8.99796873E-07
   48.3750000        -8.93729350E-07
   48.4900017        -8.88181830E-07
   48.6049995        -8.83281132E-07
   48.7200012        -8.79158620E-07
   48.8349991        -8.75949411E-07
   48.9500008        -8.73791407E-07
   49.0649986        -8.72825353E-07
   49.1800003        -8.73191937E-07
   49.2949982        -8.75033720E-07
   49.4099998        -8.78494404E-07
   49.5250015        -8.83716893E-07
   49.6399994        -8.90844660E-07
   49.7550011        -9.00020552E-07
   49.8699989        -9.11387701E-07
   49.9850006        -9.25090092E-07
   50.0999985        -9.41271878E-07
   50.2150002        -9.60077159E-07
   50.3300018        -9.81650373E-07
   50.4449997        -1.00613863E-06
   50.5600014        -1.03368779E-06
   50.6749992        -1.06444543E-06
   50.7900009        -1.09855966E-06
   50.9049988        -1.13617978E-06
   51.0200005        -1.17745390E-06
   51.1349983        -1.22253050E-06
   51.2500000        -1.27155624E-06
   51.3650017        -1.32467517E-06
   51.4799995        -1.38202802E-06
   51.5950012        -1.44375178E-06
   51.7099991        -1.50997721E-06
   51.8250008        -1.58082617E-06
   51.9399986        -1.65641325E-06
   52.0550003        -1.73684396E-06
   52.1699982        -1.82221095E-06
   52.2849998        -1.91259596E-06
   52.4000015        -2.00806767E-06
   52.5149994        -2.10868075E-06
   52.6300011        -2.21447635E-06
   52.7449989        -2.32547814E-06
   52.8600006        -2.44169632E-06
   52.9749985        -2.56312387E-06
   53.0900002        -2.68973872E-06
   53.2050018        -2.82150268E-06
   53.3199997        -2.95836298E-06
   53.4350014        -3.10025166E-06
   53.5499992        -3.24708571E-06
   53.6650009        -3.39876829E-06
   53.7799988        -3.55518728E-06
   53.8950005        -3.71621741E-06
   54.0099983        -3.88171929E-06
   54.1250000        -4.05154015E-06
   54.2400017        -4.22551329E-06
   54.3549995        -4.40345912E-06
   54.4700012        -4.58518434E-06
   54.5849991        -4.77048388E-06
   54.7000008        -4.95913810E-06
   54.8149986        -5.15091369E-06
   54.9300003        -5.34556557E-06
   55.0449982        -5.54283361E-06
   55.1599998        -5.74244496E-06
   55.2750015        -5.94411449E-06
   55.3899994        -6.14754435E-06
   55.5050011        -6.35242259E-06
   55.6199989        -6.55842769E-06
   55.7350006        -6.76522404E-06
   55.8499985        -6.97246833E-06
   55.9650002        -7.17980538E-06
   56.0800018        -7.38687277E-06
   56.1949997        -7.59329896E-06
   56.3100014        -7.79870606E-06
   56.4249992        -8.00271209E-06
   56.5400009        -8.20493005E-06
   56.6549988        -8.40496978E-06
   56.7700005        -8.60244199E-06
   56.8849983        -8.79695563E-06
   57.0000000        -8.98812505E-06
   57.1150017        -9.17556645E-06
   57.2299995        -9.35890239E-06
   57.3450012        -9.53776089E-06
   57.4599991        -9.71177997E-06
   57.5750008        -9.88060492E-06
   57.6899986        -1.00438911E-05
   57.8050003        -1.02013055E-05
   57.9199982        -1.03525272E-05
   58.0349998        -1.04972469E-05
   58.1500015        -1.06351690E-05
   58.2649994        -1.07660107E-05
   58.3800011        -1.08895010E-05
   58.4949989        -1.10053843E-05
   58.6100006        -1.11134177E-05
   58.7249985        -1.12133703E-05
   58.8400002        -1.13050255E-05
   58.9550018        -1.13881788E-05
   59.0699997        -1.14626382E-05
   59.1850014        -1.15282246E-05
   59.2999992        -1.15847724E-05
   59.4150009        -1.16321307E-05
   59.5299988        -1.16701622E-05
   59.6450005        -1.16987476E-05
   59.7599983        -1.17177851E-05
   59.8750000        -1.17271893E-05
   59.9900017        -1.17268974E-05
   60.1049995        -1.17168656E-05
   60.2200012        -1.16970723E-05
   60.3349991        -1.16675201E-05
   60.4500008        -1.16282326E-05
   60.5649986        -1.15792582E-05
   60.6800003        -1.15206740E-05
   60.7949982        -1.14525783E-05
   60.9099998        -1.13750975E-05
   61.0250015        -1.12883808E-05
   61.1399994        -1.11926020E-05
   61.2550011        -1.10879564E-05
   61.3699989        -1.09746634E-05
   61.4850006        -1.08529584E-05
   61.5999985        -1.07230990E-05
   61.7150002        -1.05853533E-05
   61.8300018        -1.04400042E-05
   61.9449997        -1.02873491E-05
   62.0600014        -1.01276910E-05
   62.1749992        -9.96134168E-06
   62.2900009        -9.78862226E-06
   62.4049988        -9.60985471E-06
   62.5200005        -9.42537372E-06
   62.6349983        -9.23551215E-06
   62.7500000        -9.04061017E-06
   62.8650017        -8.84100882E-06
   62.9799995        -8.63705554E-06
   63.0950012        -8.42910140E-06
   63.2099991        -8.21749836E-06
   63.3250008        -8.00260477E-06
   63.4399986        -7.78478443E-06
   63.5550003        -7.56440568E-06
   63.6699982        -7.34184232E-06
   63.7849998        -7.11747271E-06
   63.9000015        -6.89167882E-06
   64.0149994        -6.66484584E-06
   64.1299973        -6.43736030E-06
   64.2450027        -6.20961055E-06
   64.3600006        -5.98198312E-06
   64.4749985        -5.75485819E-06
   64.5899963        -5.52861093E-06
   64.7050018        -5.30361058E-06
   64.8199997        -5.08021049E-06
   64.9349976        -4.85875125E-06
   65.0500031        -4.63956258E-06
   65.1650009        -4.42295232E-06
   65.2799988        -4.20921060E-06
   65.3949966        -3.99860210E-06
   65.5100021        -3.79137214E-06
   65.6250000        -3.58773787E-06
   65.7399979        -3.38789209E-06
   65.8550034        -3.19200240E-06
   65.9700012        -3.00020974E-06
   66.0849991        -2.81263033E-06
   66.1999969        -2.62935123E-06
   66.3150024        -2.45043702E-06
   66.4300003        -2.27592705E-06
   66.5449982        -2.10583653E-06
   66.6600037        -1.94015570E-06
   66.7750015        -1.77885363E-06
   66.8899994        -1.62187780E-06
   67.0049973        -1.46915181E-06
   67.1200027        -1.32058040E-06
   67.2350006        -1.17604861E-06
   67.3499985        -1.03541981E-06
   67.4649963        -8.98537508E-07
   67.5800018        -7.65226787E-07
   67.6949997        -6.35288870E-07
   67.8099976        -5.08506332E-07
   67.9250031        -3.84643329E-07
   68.0400009        -2.63441279E-07
   68.1549988        -1.44621993E-07
   68.2699966        -2.78860846E-08
   68.3850021         8.70840324E-08
   68.5000000         2.00625877E-07
   68.6149979         3.13098042E-07
   68.7300034         4.24876902E-07
   68.8450012         5.36356254E-07
   68.9599991         6.47950117E-07
   69.0749969         7.60084788E-07
   69.1900024         8.73206886E-07
   69.3050003         9.87778890E-07
   69.4199982         1.10427834E-06
   69.5350037         1.22319534E-06
   69.6500015         1.34503375E-06
   69.7649994         1.47030960E-06
   69.8799973         1.59954993E-06
   69.9950027         1.73329227E-06
   70.1100006         1.87208104E-06
   70.2249985         2.01647026E-06
   70.3399963         2.16702028E-06
   70.4550018         2.32429466E-06
   70.5699997         2.48886226E-06
   70.6849976         2.66129086E-06
   70.8000031         2.84215184E-06
   70.9150009         3.03201000E-06
   71.0299988         3.23142717E-06
   71.1449966         3.44095656E-06
   71.2600021         3.66113954E-06
   71.3750000         3.89250317E-06
   71.4899979         4.13555335E-06
   71.6050034         4.39077758E-06
   71.7200012         4.65863559E-06
   71.8349991         4.93955804E-06
   71.9499969         5.23394647E-06
   72.0650024         5.54216513E-06
   72.1800003         5.86454235E-06
   72.2949982         6.20136643E-06
   72.4100037         6.55288250E-06
   72.5250015         6.91929245E-06
   72.6399994         7.30075180E-06
   72.7549973         7.69737289E-06
   72.8700027         8.10921665E-06
   72.9850006         8.53630172E-06
   73.0999985         8.97859718E-06
   73.2149963         9.43602663E-06
   73.3300018         9.90847184E-06
   73.4449997         1.03957709E-05
   73.5599976         1.08977183E-05
   73.6750031         1.14140712E-05
   73.7900009         1.19445467E-05
   73.9049988         1.24888265E-05
   74.0199966         1.30465542E-05
   74.1350021         1.36173367E-05