  -2.84999990         0.00000000    
  -2.68499994         0.00000000    
  -2.51999998         0.00000000    
  -2.35500002        -5.32634273E-14
  -2.19000006        -2.90053219E-13
  -2.02500010        -8.24547407E-13
  -1.86000001        -1.57325693E-12
  -1.69500005        -2.09959524E-12
  -1.52999997        -1.57107476E-12
  -1.36500001         1.14386658E-12
  -1.20000005         7.21354660E-12
  -1.03499997         1.73741022E-11
 -0.870000005         3.12306916E-11
 -0.704999983         4.62485189E-11
 -0.540000021         5.60697148E-11
 -0.375000000         4.73561398E-11
 -0.209999993        -5.92060428E-12
  -4.50000018E-02    -1.51670843E-10
  0.119999997        -4.72606398E-10
  0.284999996        -1.10177478E-09
  0.449999988        -2.23725194E-09
  0.615000010        -4.14915169E-09
  0.779999971        -7.16847293E-09
  0.944999993        -1.16451542E-08
   1.11000001        -1.78642150E-08
   1.27499998        -2.59156749E-08
   1.44000006        -3.55267069E-08
   1.60500002        -4.58815776E-08
   1.76999998        -5.54730590E-08
   1.93499994        -6.20418348E-08
   2.09999990        -6.26627354E-08
   2.26500010        -5.40234169E-08
   2.43000007        -3.29121299E-08
   2.59500003         3.11161541E-09
   2.75999999         5.49395835E-08
   2.92499995         1.21154798E-07
   3.08999991         1.97447960E-07
   3.25500011         2.76378529E-07
   3.42000008         3.47624621E-07
   3.58500004         3.98804843E-07
   3.75000000         4.16862150E-07
   3.91499996         3.89889891E-07
   4.07999992         3.09173060E-07
   4.24499989         1.71138495E-07
   4.40999985        -2.11229203E-08
   4.57499981        -2.57075641E-07
   4.73999977        -5.18935281E-07
   4.90500021        -7.82957784E-07
   5.07000017        -1.02179104E-06
   5.23500013        -1.20770198E-06
   5.40000010        -1.31633237E-06
   5.56500006        -1.33049582E-06
   5.73000002        -1.24342125E-06
   5.89499998        -1.06081939E-06
   6.05999994        -8.01223223E-07
   6.22499990        -4.94275582E-07
   6.38999987        -1.76980635E-07
   6.55499983         1.11644439E-07
   6.71999979         3.36681694E-07
   6.88500023         4.73095184E-07
   7.05000019         5.10070493E-07
   7.21500015         4.53026814E-07
   7.38000011         3.22886393E-07
   7.54500008         1.52734899E-07
   7.71000004        -1.74770864E-08
   7.87500000        -1.47210102E-07
   8.03999996        -2.01516897E-07
   8.20499992        -1.56189216E-07
   8.36999989        -1.22406130E-09
   8.53499985         2.57697508E-07
   8.69999981         5.99709836E-07
   8.86499977         9.91024422E-07
   9.02999973         1.38858729E-06
   9.19499969         1.74472211E-06
   9.35999966         2.01233343E-06
   9.52499962         2.15028467E-06
   9.68999958         2.12860141E-06
   9.85499954         1.93320329E-06
   10.0200005         1.56986175E-06
   10.1850004         1.06698656E-06
   10.3500004         4.76678281E-07
   10.5150003        -1.26727272E-07
   10.6800003        -6.51490097E-07
   10.8450003        -9.97386451E-07
   11.0100002        -1.06883681E-06
   11.1750002        -7.91378000E-07
   11.3400002        -1.29361695E-07
   11.5050001         8.98403755E-07
   11.6700001         2.20897709E-06
   11.8350000         3.65517553E-06
   12.0000000         5.03728461E-06
   12.1650000         6.12653230E-06
   12.3299999         6.69758174E-06
   12.4949999         6.56487646E-06
   12.6599998         5.61628758E-06
   12.8249998         3.83752877E-06
   12.9899998         1.32241234E-06
   13.1549997        -1.73334365E-06
   13.3199997        -5.05390744E-06
   13.4849997        -8.31711077E-06
   13.6499996        -1.11948057E-05
   13.8149996        -1.33937510E-05
   13.9799995        -1.46915299E-05
   14.1450005        -1.49632060E-05
   14.3100004        -1.41960591E-05
   14.4750004        -1.24912704E-05
   14.6400003        -1.00528950E-05
   14.8050003        -7.16569139E-06
   14.9700003        -4.16441435E-06
   15.1350002        -1.39807264E-06
   15.3000002         8.06928711E-07
   15.4650002         2.18091259E-06
   15.6300001         2.53908252E-06
   15.7950001         1.80154257E-06
   15.9600000         4.13798462E-09
   16.1250000        -2.70010059E-06
   16.2900009        -6.04877414E-06
   16.4549999        -9.68711265E-06
   16.6200008        -1.31941524E-05
   16.7849998        -1.61175940E-05
   16.9500008        -1.80156967E-05
   17.1149998        -1.85025365E-05
   17.2800007        -1.72910986E-05
   17.4449997        -1.42274366E-05
   17.6100006        -9.30972237E-06
   17.7749996        -2.68821668E-06
   17.9400005         5.35385743E-06
   18.1049995         1.44345931E-05
   18.2700005         2.41156959E-05
   18.4349995         3.39446633E-05
   18.6000004         4.34900176E-05
   18.7649994         5.23658346E-05
   18.9300003         6.02454202E-05
   19.0949993         6.68669454E-05
   19.2600002         7.20348180E-05
   19.4249992         7.56200243E-05
   19.5900002         7.75604130E-05
   19.7549992         7.78601388E-05
   19.9200001         7.65858567E-05
   20.0849991         7.38577655E-05
   20.2500000         6.98349686E-05
   20.4150009         6.46965709E-05
   20.5799999         5.86219976E-05
   20.7450008         5.17745539E-05
   20.9099998         4.42918608E-05
   21.0750008         3.62855317E-05
   21.2399998         2.78504322E-05
   21.4050007         1.90822047E-05
   21.5699997         1.01001497E-05
   21.7350006         1.07159792E-06
   21.8999996        -7.76699380E-06
   22.0650005        -1.60973650E-05
   22.2299995        -2.35199022E-05
   22.3950005        -2.95708778E-05
   22.5599995        -3.37571400E-05
   22.7250004        -3.56056153E-05
   22.8899994        -3.47203313E-05
   23.0550003        -3.08373710E-05
   23.2199993        -2.38661978E-05
   23.3850002        -1.39086223E-05
   23.5499992        -1.25044244E-06
   23.7150002         1.36726576E-05
   23.8799992         3.03278848E-05
   24.0450001         4.81457537E-05
   24.2099991         6.65765328E-05
   24.3750000         8.51333389E-05
   24.5400009         1.03416831E-04
   24.7049999         1.21121317E-04
   24.8700008         1.38025585E-04
   25.0349998         1.53973568E-04
   25.2000008         1.68849729E-04
   25.3649998         1.82553034E-04
   25.5300007         1.94971726E-04
   25.6949997         2.05960227E-04
   25.8600006         2.15319829E-04
   26.0249996         2.22784991E-04
   26.1900005         2.28017205E-04
   26.3549995         2.30608028E-04
   26.5200005         2.30092002E-04
   26.6849995         2.25968630E-04
   26.8500004         2.17731344E-04
   27.0149994         2.04901546E-04
   27.1800003         1.87065220E-04
   27.3449993         1.63910241E-04
   27.5100002         1.35263370E-04
   27.6749992         1.01124373E-04
   27.8400002         6.16948601E-05
   28.0049992         1.73979206E-05
   28.1700001        -3.11155964E-05
   28.3349991        -8.29775745E-05
   28.5000000        -1.37131574E-04
   28.6650009        -1.92378982E-04
   28.8299999        -2.47438787E-04
   28.9950008        -3.01014603E-04
   29.1599998        -3.51862953E-04
   29.3250008        -3.98855482E-04
   29.4899998        -4.41030803E-04
   29.6550007        -4.77632537E-04
   29.8199997        -5.08131634E-04
   29.9850006        -5.32233156E-04
   30.1499996        -5.49868215E-04
   30.3150005        -5.61172550E-04
   30.4799995        -5.66455245E-04
   30.6450005        -5.66160772E-04
   30.8099995        -5.60829474E-04
   30.9750004        -5.51060773E-04
   31.1399994        -5.37483196E-04
   31.3050003        -5.20733302E-04
   31.4699993        -5.01443574E-04
   31.6350002        -4.80237039E-04
   31.7999992        -4.57725400E-04
   31.9650002        -4.34507441E-04
   32.1300011        -4.11164772E-04
   32.2949982        -3.88253451E-04
   32.4599991        -3.66291701E-04
   32.6250000        -3.45744222E-04
   32.7900009        -3.27003479E-04
   32.9550018        -3.10368458E-04
   33.1199989        -2.96021317E-04
   33.2849998        -2.84002977E-04
   33.4500008        -2.74190068E-04
   33.6150017        -2.66278686E-04
   33.7799988        -2.59779335E-04
   33.9449997        -2.54030572E-04
   34.1100006        -2.48234195E-04
   34.2750015        -2.41513131E-04
   34.4399986        -2.32988459E-04
   34.6049995        -2.21866590E-04
   34.7700005        -2.07526042E-04
   34.9350014        -1.89589628E-04
   35.0999985        -1.67969847E-04
   35.2649994        -1.42876641E-04
   35.4300003        -1.14781971E-04
   35.5950012        -8.43419912E-05
   35.7599983        -5.22850569E-05
   35.9249992        -1.92814241E-05
   36.0900002         1.41834043E-05
   36.2550011         4.79074370E-05
   36.4199982         8.20206551E-05
   36.5849991         1.16969939E-04
   36.7500000         1.53438101E-04
   36.9150009         1.92208056E-04
   37.0800018         2.33996267E-04
   37.2449989         2.79284577E-04
   37.4099998         3.28180817E-04
   37.5750008         3.80331796E-04
   37.7400017         4.34900692E-04
   37.9049988         4.90609382E-04
   38.0699997         5.45834773E-04
   38.2350006         5.98740298E-04
   38.4000015         6.47422683E-04
   38.5649986         6.90054439E-04
   38.7299995         7.25006976E-04
   38.8950005         7.50946056E-04
   39.0600014         7.66896061E-04
   39.2249985         7.72276020E-04
   39.3899994         7.66911486E-04
   39.5550003         7.51027546E-04
   39.7200012         7.25226186E-04
   39.8849983         6.90447167E-04
   40.0499992         6.47909939E-04
   40.2150002         5.99033025E-04
   40.3800011         5.45330462E-04
   40.5449982         4.88291436E-04
   40.7099991         4.29258012E-04
   40.8750000         3.69319518E-04
   41.0400009         3.09246214E-04
   41.2050018         2.49476900E-04
   41.3699989         1.90166014E-04
   41.5349998         1.31280598E-04
   41.7000008         7.27258666E-05
   41.8650017         1.44710893E-05
   42.0299988        -4.33522873E-05
   42.1949997        -1.00400030E-04
   42.3600006        -1.56119611E-04
   42.5250015        -2.09804552E-04
   42.6899986        -2.60682020E-04
   42.8549995        -3.08012095E-04
   43.0200005        -3.51176743E-04
   43.1850014        -3.89741355E-04
   43.3499985        -4.23479738E-04
   43.5149994        -4.52363776E-04
   43.6800003        -4.76526155E-04
   43.8450012        -4.96211753E-04
   44.0099983        -5.11732767E-04
   44.1749992        -5.23438561E-04
   44.3400002        -5.31704689E-04
   44.5050011        -5.36932086E-04
   44.6699982        -5.39545494E-04
   44.8349991        -5.39974193E-04
   45.0000000        -5.38606662E-04
   45.1650009        -5.35723637E-04
   45.3300018        -5.31422964E-04
   45.4949989        -5.25563199E-04
   45.6599998        -5.17750217E-04
   45.8250008        -5.07383025E-04
   45.9900017        -4.93757892E-04
   46.1549988        -4.76212328E-04
   46.3199997        -4.54275665E-04
   46.4850006        -4.27790161E-04
   46.6500015        -3.96971620E-04
   46.8149986        -3.62394931E-04
   46.9799995        -3.24907713E-04
   47.1450005        -2.85494054E-04
   47.3100014        -2.45120900E-04
   47.4749985        -2.04603683E-04
   47.6399994        -1.64522600E-04
   47.8050003        -1.25207036E-04
   47.9700012        -8.67901254E-05
   48.1349983        -4.93162443E-05
   48.2999992        -1.28706661E-05
   48.4650002         2.23067964E-05
   48.6300011         5.57587118E-05
   48.7949982         8.68199786E-05
   48.9599991         1.14701354E-04
   49.1250000         1.38628558E-04
   49.2900009         1.58001203E-04
   49.4550018         1.72532513E-04
   49.6199989         1.82337651E-04
   49.7849998         1.87954793E-04
   49.9500008         1.90302293E-04
   50.1150017         1.90590697E-04
   50.2799988         1.90214618E-04
   50.4449997         1.90645762E-04
   50.6100006         1.93338827E-04
   50.7750015         1.99650007E-04
   50.9399986         2.10761296E-04
   51.1049995         2.27601151E-04
   51.2700005         2.50758021E-04
   51.4350014         2.80391047E-04
   51.5999985         3.16149992E-04
   51.7649994         3.57121986E-04
   51.9300003         4.01823432E-04
   52.0950012         4.48250707E-04
   52.2599983         4.93996718E-04
   52.4249992         5.36428473E-04
   52.5900002         5.72908612E-04
   52.7550011         6.01032865E-04
   52.9199982         6.18847029E-04
   53.0849991         6.25008717E-04
   53.2500000         6.18866994E-04
   53.4150009         6.00450323E-04
   53.5800018         5.70376927E-04
   53.7449989         5.29714918E-04
   53.9099998         4.79834212E-04
   54.0750008         4.22283105E-04
   54.2400017         3.58711375E-04
   54.4049988         2.90839293E-04
   54.5699997         2.20453920E-04
   54.7350006         1.49406012E-04
   54.9000015         7.95820524E-05
   55.0649986         1.28394440E-05
   55.2299995        -4.90924504E-05
   55.3950005        -1.04728344E-04
   55.5600014        -1.52937500E-04
   55.7249985        -1.93026848E-04
   55.8899994        -2.24782096E-04
   56.0550003        -2.48461030E-04
   56.2200012        -2.64741277E-04
   56.3849983        -2.74629623E-04
   56.5499992        -2.79345259E-04
   56.7150002        -2.80190405E-04
   56.8800011        -2.78424937E-04
   57.0449982        -2.75161554E-04
   57.2099991        -2.71294266E-04
   57.3750000        -2.67466996E-04
   57.5400009        -2.64079717E-04
   57.7050018        -2.61321082E-04
   57.8699989        -2.59212800E-04
   58.0349998        -2.57652457E-04
   58.2000008        -2.56448053E-04
   58.3650017        -2.55344698E-04
   58.5299988        -2.54050479E-04
   58.6949997        -2.52267462E-04
   58.8600006        -2.49727047E-04
   59.0250015        -2.46225158E-04
   59.1899986        -2.41644433E-04
   59.3549995        -2.35954489E-04
   59.5200005        -2.29188139E-04
   59.6850014        -2.21401860E-04
   59.8499985        -2.12636049E-04
   60.0149994        -2.02892275E-04
   60.1800003        -1.92136999E-04
   60.3450012        -1.80329705E-04
   60.5099983        -1.67461854E-04
   60.6749992        -1.53587607E-04
   60.8400002        -1.38830495E-04
   61.0050011        -1.23360645E-04
   61.1699982        -1.07349450E-04
   61.3349991        -9.09186565E-05
   61.5000000        -7.41020704E-05
   61.6650009        -5.68334071E-05
   61.8300018        -3.89637098E-05
   61.9949989        -2.03017335E-05
   62.1599998        -6.65183734E-07
   62.3250008         2.00706309E-05
   62.4900017         4.19366625E-05
   62.6549988         6.48510177E-05
   62.8199997         8.86176422E-05
   62.9850006         1.12940477E-04
   63.1500015         1.37447743E-04
   63.3149986         1.61719843E-04
   63.4799995         1.85311510E-04
   63.6450005         2.07758872E-04
   63.8100014         2.28565637E-04
   63.9749985         2.47170363E-04
   64.1399994         2.62908114E-04
   64.3050003         2.74988182E-04
   64.4700012         2.82514084E-04
   64.6350021         2.84562091E-04
   64.8000031         2.80318956E-04
   64.9649963         2.69256911E-04
   65.1299973         2.51305988E-04
   65.2949982         2.26976234E-04
   65.4599991         1.97391375E-04
   65.6250000         1.64215409E-04
   65.7900009         1.29481501E-04
   65.9550018         9.53555354E-05
   66.1200027         6.38804559E-05
   66.2850037         3.67473367E-05
   66.4499969         1.51285885E-05
   66.6149979        -4.08298490E-07
   66.7799988        -9.90407989E-06
   66.9449997        -1.39387030E-05
   67.1100006        -1.35083601E-05
   67.2750015        -9.87156727E-06
   67.4400024        -4.38894722E-06
   67.6050034         1.61915580E-06
   67.7699966         6.97789847E-06
   67.9349976         1.07152537E-05
   68.0999985         1.20730319E-05
   68.2649994         1.04854707E-05
   68.4300003         5.54678172E-06
   68.5950012        -3.01111595E-06
   68.7600021        -1.53180299E-05
   68.9250031        -3.13426171E-05
   69.0899963        -5.08593221E-05
   69.2549973        -7.34228597E-05
   69.4199982        -9.83634891E-05
   69.5849991        -1.24806989E-04
   69.7500000        -1.51712142E-04
   69.9150009        -1.77913345E-04
   70.0800018        -2.02158815E-04
   70.2450027        -2.23144016E-04
   70.4100037        -2.39550485E-04
   70.5749969        -2.50105193E-04
   70.7399979        -2.53671547E-04
   70.9049988        -2.49370671E-04
   71.0699997        -2.36717344E-04
   71.2350006        -2.15741631E-04
   71.4000015        -1.87065947E-04
   71.5650024        -1.51912347E-04
   71.7300034        -1.12029629E-04
   71.8949966        -6.95448980E-05
   72.0599976        -2.67575033E-05
   72.2249985         1.40978755E-05
   72.3899994         5.10885438E-05
   72.5550003         8.27897456E-05
   72.7200012         1.08429180E-04
   72.8850021         1.27945183E-04
   73.0500031         1.41943689E-04
   73.2149963         1.51556378E-04
   73.3799973         1.58221592E-04
   73.5449982         1.63430130E-04
   73.7099991         1.68487590E-04
   73.8750000         1.74342655E-04
   74.0400009         1.81513082E-04
   74.2050018         1.90113264E-04
   74.3700027         1.99958289E-04
   74.5350037         2.10700251E-04
   74.6999969         2.21947004E-04
   74.8649979         2.33327301E-04
   75.0299988         2.44487659E-04
   75.1949997         2.55033257E-04
   75.3600006         2.64443370E-04
   75.5250015         2.71998055E-04
   75.6900024         2.76748149E-04
   75.8550034         2.77545449E-04
   76.0199966         2.73132755E-04
   76.1849976         2.62280111E-04
   76.3499985         2.43942239E-04
   76.5149994         2.17410794E-04
   76.6800003         1.82434451E-04
   76.8450012         1.39285476E-04
   77.0100021         8.87599017E-05
   77.1750031         3.21095249E-05
   77.3399963        -2.90819971E-05
   77.5049973        -9.30540700E-05
   77.6699982        -1.58021110E-04
   77.8349991        -2.22288465E-04
   78.0000000        -2.84310052E-04
   78.1650009        -3.42683546E-04
   78.3300018        -3.96102550E-04
   78.4950027        -4.43298748E-04
   78.6600037        -4.83012525E-04
   78.8249969        -5.14018233E-04
   78.9899979        -5.35209023E-04
   79.1549988        -5.45719755E-04
   79.3199997        -5.45051298E-04
   79.4850006        -5.33152255E-04
   79.6500015        -5.10431419E-04
   79.8150024        -4.77694644E-04
   79.9800034        -4.36028757E-04
   80.1449966        -3.86670115E-04
   80.3099976        -3.30901181E-04
   80.4749985        -2.70005286E-04
   80.6399994        -2.05287855E-04
   80.8050003        -1.38148433E-04
   80.9700012        -7.01692043E-05
   81.1350021        -3.17832291E-06
   81.3000031         6.07498951E-05
   81.4649963         1.19381104E-04
   81.6299973         1.70497486E-04
   81.7949982         2.12145998E-04
   81.9599991         2.42919719E-04
   82.1250000         2.62218760E-04
   82.2900009         2.70430843E-04
   82.4550018         2.68979580E-04
   82.6200027         2.60209024E-04
   82.7850037         2.47106596E-04
   82.9499969         2.32904727E-04
   83.1149979         2.20633243E-04
   83.2799988         2.12711690E-04
   83.4449997         2.10662954E-04
   83.6100006         2.15000313E-04
   83.7750015         2.25296229E-04
   83.9400024         2.40396883E-04
   84.1050034         2.58714776E-04
   84.2699966         2.78521969E-04
   84.4349976         2.98180385E-04
   84.5999985         3.16273508E-04
   84.7649994         3.31639254E-04
   84.9300003         3.43330350E-04
   85.0950012         3.50543705E-04
   85.2600021         3.52559990E-04
   85.4250031         3.48722038E-04
   85.5899963         3.38463491E-04
   85.7549973         3.21379455E-04
   85.9199982         2.97316292E-04
   86.0849991         2.66449584E-04
   86.2500000         2.29319499E-04
   86.4150009         1.86801873E-04
   86.5800018         1.40010598E-04
   86.7450027         9.01486637E-05
   86.9100037         3.83448314E-05
   87.0749969        -1.44770474E-05
   87.2399979        -6.76527125E-05
   87.4049988        -1.20733188E-04
   87.5699997        -1.73349166E-04
   87.7350006        -2.25023381E-04
   87.9000015        -2.74991849E-04
   88.0650024        -3.22097068E-04
   88.2300034        -3.64798412E-04
   88.3949966        -4.01312980E-04
   88.5599976        -4.29861539E-04
   88.7249985        -4.48966079E-04
   88.8899994        -4.57729591E-04
   89.0550003        -4.56034293E-04
   89.2200012        -4.44612786E-04
   89.3850021        -4.24974773E-04
   89.5500031        -3.99201934E-04
   89.7149963        -3.69647634E-04
   89.8799973        -3.38596030E-04
   90.0449982        -3.07941926E-04
   90.2099991        -2.78948224E-04
   90.3750000        -2.52123136E-04
   90.5400009        -2.27235680E-04
   90.7050018        -2.03458621E-04
   90.8700027        -1.79601382E-04
   91.0350037        -1.54377965E-04
   91.1999969        -1.26651663E-04
   91.3649979        -9.56113799E-05
   91.5299988        -6.08581795E-05
   91.6949997        -2.24080486E-05
   91.8600006         1.93620290E-05
   92.0250015         6.37904450E-05
   92.1900024         1.10000037E-04
   92.3550034         1.56946131E-04
   92.5199966         2.03445597E-04
   92.6849976         2.48201832E-04
   92.8499985         2.89840595E-04
   93.0149994         3.26968264E-04
   93.1800003         3.58252088E-04
   93.3450012         3.82513826E-04
   93.5100021         3.98824573E-04
   93.6750031         4.06586740E-04
   93.8399963         4.05594183E-04
   94.0049973         3.96061339E-04
   94.1699982         3.78616387E-04
   94.3349991         3.54253949E-04
   94.5000000         3.24245833E-04
   94.6650009         2.90016789E-04
   94.8300018         2.53001082E-04
   94.9950027         2.14503845E-04
   95.1600037         1.75595196E-04
   95.3249969         1.37057403E-04
   95.4899979         9.93925569E-05
   95.6549988         6.28790294E-05
   95.8199997         2.76506071E-05
   95.9850006        -6.23251208E-06
   96.1500015        -3.87444161E-05
   96.3150024        -6.98921358E-05
   96.4800034        -9.97396492E-05
   96.6449966        -1.28430838E-04
   96.8099976        -1.56183989E-04
   96.9749985        -1.83241893E-04
   97.1399994        -2.09779406E-04
   97.3050003        -2.35790169E-04
   97.4700012        -2.60983652E-04
   97.6350021        -2.84724898E-04
   97.8000031        -3.06037779E-04
   97.9649963        -3.23677988E-04
   98.1299973        -3.36266385E-04
   98.2949982        -3.42461892E-04
   98.4599991        -3.41148203E-04
   98.6250000        -3.31604300E-04
   98.7900009        -3.13631026E-04
   98.9550018        -2.87606934E-04
   99.1200027        -2.54456041E-04
   99.2850037        -2.15523309E-04
   99.4499969        -1.72375323E-04
   99.6149979        -1.26566316E-04
   99.7799988        -7.94257139E-05
   99.9449997        -3.19255050E-05
   100.110001         1.53321107E-05
   100.275002         6.19998318E-05
   100.440002         1.07776657E-04
   100.605003         1.52171735E-04
   100.769997         1.94318782E-04
   100.934998         2.32906736E-04
   101.099998         2.66256771E-04
   101.264999         2.92531768E-04
   101.430000         3.10025789E-04
   101.595001         3.17459839E-04
   101.760002         3.14212579E-04
   101.925003         3.00436106E-04
   102.089996         2.77038460E-04
   102.254997         2.45546777E-04
   102.419998         2.07889228E-04
   102.584999         1.66145168E-04
   102.750000         1.22314785E-04
   102.915001         7.81501876E-05
   103.080002         3.50741939E-05
   103.245003        -5.80766527E-06
   103.410004        -4.36196351E-05
   103.574997        -7.75908848E-05
   103.739998        -1.06943131E-04
   103.904999        -1.30838758E-04
   104.070000        -1.48418927E-04
   104.235001        -1.58930852E-04
   104.400002        -1.61909877E-04
   104.565002        -1.57358008E-04
   104.730003        -1.45855447E-04
   104.894997        -1.28559113E-04
   105.059998        -1.07076907E-04
   105.224998        -8.32453588E-05
   105.389999        -5.88691109E-05
   105.555000        -3.54910153E-05
   105.720001        -1.42495892E-05
   105.885002         4.14833858E-06
   106.050003         1.93469750E-05
   106.214996         3.11910881E-05
   106.379997         3.95585339E-05
   106.544998         4.42297642E-05
   106.709999         4.48330975E-05
   106.875000         4.08823580E-05
   107.040001         3.18983912E-05
   107.205002         1.75846999E-05
   107.370003        -1.98756698E-06
   107.535004        -2.62338090E-05
   107.699997        -5.39920802E-05
   107.864998        -8.35657920E-05
   108.029999        -1.12872818E-04
   108.195000        -1.39673488E-04
   108.360001        -1.61829361E-04
   108.525002        -1.77536145E-04
   108.690002        -1.85482888E-04
   108.855003        -1.84911958E-04
   109.019997        -1.75584864E-04
   109.184998        -1.57685470E-04
   109.349998        -1.31706824E-04
   109.514999        -9.83662685E-05
   109.680000        -5.85749367E-05
   109.845001        -1.34631973E-05
   110.010002         3.55616212E-05
   110.175003         8.67634735E-05
   110.339996         1.38071744E-04
   110.504997         1.87149679E-04
   110.669998         2.31545244E-04
   110.834999         2.68909993E-04
   111.000000         2.97252875E-04
   111.165001         3.15182959E-04
   111.330002         3.22093139E-04
   111.495003         3.18243256E-04
   111.660004         3.04718415E-04
   111.824997         2.83260277E-04
   111.989998         2.55996536E-04
   112.154999         2.25116251E-04
   112.320000         1.92553242E-04
   112.485001         1.59740201E-04
   112.650002         1.27480191E-04
   112.815002         9.59549288E-05
   112.980003         6.48564965E-05
   113.144997         3.36008889E-05
   113.309998         1.56683325E-06
   113.474998        -3.16954247E-05
   113.639999        -6.63248866E-05
   113.805000        -1.02095299E-04
   113.970001        -1.38437419E-04
   114.135002        -1.74513945E-04
   114.300003        -2.09318561E-04
   114.464996        -2.41775095E-04
   114.629997        -2.70823599E-04
   114.794998        -2.95488629E-04
   114.959999        -3.14933510E-04
   115.125000        -3.28505441E-04
   115.290001        -3.35774646E-04
   115.455002        -3.36570025E-04
   115.620003        -3.31008458E-04
   115.785004        -3.19514598E-04
   115.949997        -3.02822766E-04
   116.114998        -2.81951565E-04
   116.279999        -2.58139189E-04
   116.445000        -2.32731691E-04
   116.610001        -2.07025616E-04
   116.775002        -1.82081771E-04
   116.940002        -1.58542738E-04
   117.105003        -1.36498187E-04
   117.269997        -1.15440693E-04
   117.434998        -9.43401246E-05
   117.599998        -7.18361189E-05
   117.764999        -4.65172343E-05
   117.930000        -1.72289947E-05
   118.095001         1.66569444E-05
   118.260002         5.50721488E-05
   118.425003         9.72141133E-05
   118.589996         1.41645316E-04
   118.754997         1.86500431E-04
   118.919998         2.29754267E-04
   119.084999         2.69495591E-04
   119.250000         3.04158573E-04
   119.415001         3.32676165E-04
   119.580002         3.54537653E-04
   119.745003         3.69749148E-04
   119.910004         3.78712779E-04
   120.074997         3.82052443E-04
   120.239998         3.80425743E-04
   120.404999         3.74363328E-04
   120.570000         3.64171923E-04
   120.735001         3.49920709E-04
   120.900002         3.31508636E-04
   121.065002         3.08786257E-04
   121.230003         2.81691871E-04
   121.394997         2.50358280E-04
   121.559998         2.15160995E-04
   121.724998         1.76699832E-04
   121.889999         1.35730239E-04
   122.055000         9.30757597E-05
   122.220001         4.95549757E-05
   122.385002         5.94558696E-06
   122.550003        -3.70104717E-05
   122.714996        -7.85744342E-05
   122.879997        -1.17974989E-04
   123.044998        -1.54394045E-04
   123.209999        -1.86990292E-04
   123.375000        -2.14963380E-04
   123.540001        -2.37648899E-04
   123.705002        -2.54625193E-04
   123.870003        -2.65808310E-04
   124.035004        -2.71512166E-04
   124.199997        -2.72455276E-04
   124.364998        -2.69704789E-04
   124.529999        -2.64560949E-04
   124.695000        -2.58398853E-04
   124.860001        -2.52496946E-04
   125.025002        -2.47887103E-04
   125.190002        -2.45258474E-04
   125.355003        -2.44931318E-04
   125.519997        -2.46896583E-04
   125.684998        -2.50896002E-04
   125.849998        -2.56503961E-04
   126.014999        -2.63174850E-04
   126.180000        -2.70235760E-04
   126.345001        -2.76829815E-04
   126.510002        -2.81840970E-04
   126.675003        -2.83847272E-04
   126.839996        -2.81148212E-04
   127.004997        -2.71894678E-04
   127.169998        -2.54320476E-04
   127.334999        -2.27042736E-04
   127.500000        -1.89372469E-04
   127.665001        -1.41565630E-04
   127.830002        -8.49499193E-05
   127.995003        -2.18843161E-05
   128.160004         4.44593279E-05
   128.324997         1.10465618E-04
   128.490005         1.72535234E-04
   128.654999         2.27551762E-04
   128.820007         2.73266283E-04
   128.985001         3.08525894E-04
   129.149994         3.33304662E-04
   129.315002         3.48539121E-04
   129.479996         3.55815835E-04
   129.645004         3.56989563E-04
   129.809998         3.53823183E-04
   129.975006         3.47724941E-04
   130.139999         3.39626829E-04
   130.304993         3.30003182E-04
   130.470001         3.18990438E-04
   130.634995         3.06547561E-04