  -2.84999990         0.00000000    
  -2.68499994         0.00000000    
  -2.51999998         0.00000000    
  -2.35500002        -4.31534792E-14
  -2.19000006        -2.52843699E-13
  -2.02500010        -8.07764879E-13
  -1.86000001        -1.85679011E-12
  -1.69500005        -3.41972154E-12
  -1.52999997        -5.34021698E-12
  -1.36500001        -7.38920036E-12
  -1.20000005        -9.61728180E-12
  -1.03499997        -1.29532825E-11
 -0.870000005        -1.99229661E-11
 -0.704999983        -3.54077358E-11
 -0.540000021        -6.76238510E-11
 -0.375000000        -1.29807942E-10
 -0.209999993        -2.43256637E-10
  -4.50000018E-02    -4.42287984E-10
  0.119999997        -7.81204545E-10
  0.284999996        -1.34215072E-09
  0.449999988        -2.24077712E-09
  0.615000010        -3.62419317E-09
  0.779999971        -5.65347680E-09
  0.944999993        -8.46184545E-09
   1.11000001        -1.20804877E-08
   1.27499998        -1.63286202E-08
   1.44000006        -2.06737560E-08
   1.60500002        -2.40825546E-08
   1.76999998        -2.48999523E-08
   1.93499994        -2.08101483E-08
   2.09999990        -8.94182239E-09
   2.26500010         1.38253684E-08
   2.43000007         5.03201960E-08
   2.59500003         1.02318197E-07
   2.75999999         1.69633168E-07
   2.92499995         2.49203168E-07
   3.08999991         3.34368764E-07
   3.25500011         4.14569257E-07
   3.42000008         4.75667150E-07
   3.58500004         5.01043019E-07
   3.75000000         4.73484221E-07
   3.91499996         3.77737109E-07
   4.07999992         2.03432393E-07
   4.24499989        -5.20427079E-08
   4.40999985        -3.81221412E-07
   4.57499981        -7.65265270E-07
   4.73999977        -1.17407023E-06
   4.90500021        -1.56794420E-06
   5.07000017        -1.90078629E-06
   5.23500013        -2.12446344E-06
   5.40000010        -2.19389221E-06
   5.56500006        -2.07224798E-06
   5.73000002        -1.73572653E-06
   5.89499998        -1.17738432E-06
   6.05999994        -4.09719064E-07
   6.22499990         5.34207174E-07
   6.38999987         1.60119941E-06
   6.55499983         2.71996055E-06
   6.71999979         3.80474739E-06
   6.88500023         4.76064997E-06
   7.05000019         5.49041215E-06
   7.21500015         5.90255195E-06
   7.38000011         5.92029028E-06
   7.54500008         5.49051401E-06
   7.71000004         4.59173498E-06
   7.87500000         3.23988615E-06
   8.03999996         1.49084053E-06
   8.20499992        -5.61133959E-07
   8.36999989        -2.78925540E-06
   8.53499985        -5.04403079E-06
   8.69999981        -7.16590148E-06
   8.86499977        -8.99910538E-06
   9.02999973        -1.04049259E-05
   9.19499969        -1.12726111E-05
   9.35999966        -1.15267849E-05
   9.52499962        -1.11308937E-05
   9.68999958        -1.00870529E-05
   9.85499954        -8.43328871E-06
   10.0200005        -6.23943606E-06
   10.1850004        -3.60279637E-06
   10.3500004        -6.44113527E-07
   10.5150003         2.49629829E-06
   10.6800003         5.66308017E-06
   10.8450003         8.69208816E-06
   11.0100002         1.14192044E-05
   11.1750002         1.36917433E-05
   11.3400002         1.53814162E-05
   11.5050001         1.63967543E-05
   11.6700001         1.66923419E-05
   11.8350000         1.62723391E-05
   12.0000000         1.51868026E-05
   12.1650000         1.35209566E-05
   12.3299999         1.13794495E-05
   12.4949999         8.86911675E-06
   12.6599998         6.08442770E-06
   12.8249998         3.09925326E-06
   12.9899998        -3.30341159E-08
   13.1549997        -3.27145631E-06
   13.3199997        -6.57401642E-06
   13.4849997        -9.88334250E-06
   13.6499996        -1.31162260E-05
   13.8149996        -1.61608368E-05
   13.9799995        -1.88832582E-05
   14.1450005        -2.11420920E-05
   14.3100004        -2.28073586E-05
   14.4750004        -2.37783333E-05
   14.6400003        -2.39950350E-05
   14.8050003        -2.34397830E-05
   14.9700003        -2.21282080E-05
   15.1350002        -2.00925497E-05
   15.3000002        -1.73628414E-05
   15.4650002        -1.39529657E-05
   15.6300001        -9.85770475E-06
   15.7950001        -5.06420611E-06
   15.9600000         4.23027188E-07
   16.1250000         6.54893256E-06
   16.2900009         1.31752877E-05
   16.4549999         2.00588329E-05
   16.6200008         2.68488147E-05
   16.7849998         3.31086048E-05
   16.9500008         3.83603729E-05
   17.1149998         4.21458462E-05
   17.2800007         4.40915719E-05
   17.4449997         4.39652431E-05
   17.6100006         4.17110386E-05
   17.7749996         3.74562806E-05
   17.9400005         3.14882163E-05
   18.1049995         2.42063979E-05
   18.2700005         1.60614782E-05
   18.4349995         7.49381252E-06
   18.6000004        -1.11557233E-06
   18.7649994        -9.47294302E-06
   18.9300003        -1.73759217E-05
   19.0949993        -2.46970612E-05
   19.2600002        -3.13551645E-05
   19.4249992        -3.72850263E-05
   19.5900002        -4.24155296E-05
   19.7549992        -4.66627316E-05
   19.9200001        -4.99396010E-05
   20.0849991        -5.21790425E-05
   20.2500000        -5.33630082E-05
   20.4150009        -5.35488834E-05
   20.5799999        -5.28852433E-05
   20.7450008        -5.16118271E-05
   20.9099998        -5.00426540E-05
   21.0750008        -4.85348428E-05
   21.2399998        -4.74486005E-05
   21.4050007        -4.71051098E-05
   21.5699997        -4.77484391E-05
   21.7350006        -4.95164495E-05
   21.8999996        -5.24233328E-05
   22.0650005        -5.63549147E-05
   22.2299995        -6.10764255E-05
   22.3950005        -6.62517632E-05
   22.5599995        -7.14730049E-05
   22.7250004        -7.62982745E-05
   22.8899994        -8.02954091E-05
   23.0550003        -8.30873032E-05
   23.2199993        -8.43937451E-05
   23.3850002        -8.40632565E-05
   23.5499992        -8.20889109E-05
   23.7150002        -7.86040473E-05
   23.8799992        -7.38569870E-05
   24.0450001        -6.81686361E-05
   24.2099991        -6.18811027E-05
   24.3750000        -5.53084865E-05
   24.5400009        -4.87016223E-05
   24.7049999        -4.22357443E-05
   24.8700008        -3.60246777E-05
   25.0349998        -3.01582077E-05
   25.2000008        -2.47523185E-05
   25.3649998        -1.99971964E-05
   25.5300007        -1.61873249E-05
   25.6949997        -1.37206771E-05
   25.8600006        -1.30620019E-05
   26.0249996        -1.46741622E-05
   26.1900005        -1.89306884E-05
   26.3549995        -2.60293928E-05
   26.5200005        -3.59285623E-05
   26.6849995        -4.83234144E-05
   26.8500004        -6.26719702E-05
   27.0149994        -7.82682837E-05
   27.1800003        -9.43489140E-05
   27.3449993        -1.10210531E-04
   27.5100002        -1.25312887E-04
   27.6749992        -1.39344527E-04
   27.8400002        -1.52236884E-04
   28.0049992        -1.64124998E-04
   28.1700001        -1.75264824E-04
   28.3349991        -1.85927725E-04
   28.5000000        -1.96296722E-04
   28.6650009        -2.06387835E-04
   28.8299999        -2.16013126E-04
   28.9950008        -2.24790492E-04
   29.1599998        -2.32195263E-04
   29.3250008        -2.37638669E-04
   29.4899998        -2.40554029E-04
   29.6550007        -2.40472451E-04
   29.8199997        -2.37074360E-04
   29.9850006        -2.30211750E-04
   30.1499996        -2.19903406E-04
   30.3150005        -2.06312354E-04
   30.4799995        -1.89716637E-04
   30.6450005        -1.70483036E-04
   30.8099995        -1.49049243E-04
   30.9750004        -1.25914579E-04
   31.1399994        -1.01634279E-04
   31.3050003        -7.68101891E-05
   31.4699993        -5.20713402E-05
   31.6350002        -2.80420409E-05
   31.7999992        -5.29897761E-06
   31.9650002         1.56758979E-05
   32.1300011         3.45377230E-05
   32.2949982         5.11084254E-05
   32.4599991         6.53885363E-05
   32.6250000         7.75515800E-05
   32.7900009         8.79262952E-05
   32.9550018         9.69750690E-05
   33.1199989         1.05277082E-04
   33.2849998         1.13521222E-04
   33.4500008         1.22507903E-04
   33.6150017         1.33152775E-04
   33.7799988         1.46480335E-04
   33.9449997         1.63594479E-04
   34.1100006         1.85615849E-04
   34.2750015         2.13583859E-04
   34.4399986         2.48330034E-04
   34.6049995         2.90339871E-04
   34.7700005         3.39625636E-04
   34.9350014         3.95636074E-04
   35.0999985         4.57222486E-04
   35.2649994         5.22673829E-04
   35.4300003         5.89819625E-04
   35.5950012         6.56188058E-04
   35.7599983         7.19197094E-04
   35.9249992         7.76352419E-04
   36.0900002         8.25426134E-04
   36.2550011         8.64597503E-04
   36.4199982         8.92544806E-04
   36.5849991         9.08488233E-04
   36.7500000         9.12190182E-04
   36.9150009         9.03923996E-04
   37.0800018         8.84421519E-04
   37.2449989         8.54808837E-04
   37.4099998         8.16533109E-04
   37.5750008         7.71281542E-04
   37.7400017         7.20892102E-04
   37.9049988         6.67255488E-04
   38.0699997         6.12213451E-04
   38.2350006         5.57459891E-04
   38.4000015         5.04456402E-04
   38.5649986         4.54372668E-04
   38.7299995         4.08059452E-04
   38.8950005         3.66056542E-04
   39.0600014         3.28630616E-04
   39.2249985         2.95831502E-04
   39.3899994         2.67552648E-04
   39.5550003         2.43580609E-04
   39.7200012         2.23624782E-04
   39.8849983         2.07323741E-04
   40.0499992         1.94235123E-04
   40.2150002         1.83819808E-04
   40.3800011         1.75435547E-04
   40.5449982         1.68350962E-04
   40.7099991         1.61784745E-04
   40.8750000         1.54965310E-04
   41.0400009         1.47197119E-04
   41.2050018         1.37915369E-04
   41.3699989         1.26710729E-04
   41.5349998         1.13313414E-04
   41.7000008         9.75366711E-05
   41.8650017         7.91933780E-05
   42.0299988         5.80091328E-05
   42.1949997         3.35604091E-05
   42.3600006         5.26287022E-06
   42.5250015        -2.75766906E-05
   42.6899986        -6.56463890E-05
   42.8549995        -1.09472370E-04
   43.0200005        -1.59251344E-04
   43.1850014        -2.14710395E-04
   43.3499985        -2.75028375E-04
   43.5149994        -3.38841812E-04
   43.6800003        -4.04338760E-04
   43.8450012        -4.69426421E-04
   44.0099983        -5.31941128E-04
   44.1749992        -5.89860138E-04
   44.3400002        -6.41478458E-04
   44.5050011        -6.85519481E-04
   44.6699982        -7.21169694E-04
   44.8349991        -7.48042658E-04
   45.0000000        -7.66094658E-04
   45.1650009        -7.75524764E-04
   45.3300018        -7.76689558E-04
   45.4949989        -7.70056620E-04
   45.6599998        -7.56204536E-04
   45.8250008        -7.35861540E-04
   45.9900017        -7.09961401E-04
   46.1549988        -6.79686898E-04
   46.3199997        -6.46473898E-04
   46.4850006        -6.11957570E-04
   46.6500015        -5.77856146E-04
   46.8149986        -5.45805495E-04
   46.9799995        -5.17169188E-04
   47.1450005        -4.92859515E-04
   47.3100014        -4.73202759E-04
   47.4749985        -4.57877293E-04
   47.6399994        -4.45939018E-04
   47.8050003        -4.35932714E-04
   47.9700012        -4.26072394E-04
   48.1349983        -4.14461218E-04
   48.2999992        -3.99314216E-04
   48.4650002        -3.79148085E-04
   48.6300011        -3.52909061E-04
   48.7949982        -3.20022402E-04
   48.9599991        -2.80362990E-04
   49.1250000        -2.34161518E-04
   49.2900009        -1.81873402E-04
   49.4550018        -1.24044527E-04
   49.6199989        -6.12074728E-05
   49.7849998         6.16518219E-06
   49.9500008         7.76369852E-05
   50.1150017         1.52717184E-04
   50.2799988         2.30723468E-04
   50.4449997         3.10631993E-04
   50.6100006         3.90954752E-04
   50.7750015         4.69682593E-04
   50.9399986         5.44322189E-04
   51.1049995         6.12035976E-04
   51.2700005         6.69874542E-04
   51.4350014         7.15070346E-04
   51.5999985         7.45347294E-04
   51.7649994         7.59196002E-04
   51.9300003         7.56069669E-04
   52.0950012         7.36469636E-04
   52.2599983         7.01909303E-04
   52.4249992         6.54767267E-04
   52.5900002         5.98055427E-04
   52.7550011         5.35141386E-04
   52.9199982         4.69462626E-04
   53.0849991         4.04267455E-04
   53.2500000         3.42404150E-04
   53.4150009         2.86168972E-04
   53.5800018         2.37213782E-04
   53.7449989         1.96507259E-04
   53.9099998         1.64343845E-04
   54.0750008         1.40395772E-04
   54.2400017         1.23806589E-04
   54.4049988         1.13324379E-04
   54.5699997         1.07469379E-04
   54.7350006         1.04722785E-04
   54.9000015         1.03714745E-04
   55.0649986         1.03381899E-04
   55.2299995         1.03064238E-04
   55.3950005         1.02517857E-04
   55.5600014         1.01835722E-04
   55.7249985         1.01289726E-04
   55.8899994         1.01128098E-04
   56.0550003         1.01376892E-04
   56.2200012         1.01697966E-04
   56.3849983         1.01344791E-04
   56.5499992         9.92351052E-05
   56.7150002         9.41288745E-05
   56.8800011         8.48709096E-05
   57.0449982         7.06379651E-05
   57.2099991         5.11249418E-05
   57.3750000         2.66184834E-05
   57.5400009        -2.06510163E-06
   57.7050018        -3.37644269E-05
   57.8699989        -6.72323513E-05
   58.0349998        -1.01399681E-04
   58.2000008        -1.35568582E-04
   58.3650017        -1.69478910E-04
   58.5299988        -2.03224074E-04
   58.6949997        -2.37036103E-04
   58.8600006        -2.70997640E-04
   59.0250015        -3.04763118E-04
   59.1899986        -3.37373902E-04
   59.3549995        -3.67229222E-04
   59.5200005        -3.92237096E-04
   59.6850014        -4.10120323E-04
   59.8499985        -4.18810814E-04
   60.0149994        -4.16840223E-04
   60.1800003        -4.03632934E-04
   60.3450012        -3.79629753E-04
   60.5099983        -3.46213230E-04
   60.6749992        -3.05453636E-04
   60.8400002        -2.59738066E-04
   61.0050011        -2.11372157E-04
   61.1699982        -1.62245968E-04
   61.3349991        -1.13636503E-04
   61.5000000        -6.61797094E-05
   61.6650009        -2.00015020E-05
   61.8300018         2.50429584E-05
   61.9949989         6.90959132E-05
   62.1599998         1.12066577E-04
   62.3250008         1.53502886E-04
   62.4900017         1.92591862E-04
   62.6549988         2.28277408E-04
   62.8199997         2.59453052E-04
   62.9850006         2.85169255E-04
   63.1500015         3.04795627E-04
   63.3149986         3.18095612E-04
   63.4799995         3.25199857E-04
   63.6450005         3.26494017E-04
   63.8100014         3.22461128E-04
   63.9749985         3.13528755E-04
   64.1399994         2.99967680E-04
   64.3050003         2.81870802E-04
   64.4700012         2.59217311E-04
   64.6350021         2.32003018E-04
   64.8000031         2.00398834E-04
   64.9649963         1.64893441E-04
   65.1299973         1.26380401E-04
   65.2949982         8.61650406E-05
   65.4599991         4.58859176E-05
   65.6250000         7.36603897E-06
   65.7900009        -2.75762613E-05
   65.9550018        -5.73200596E-05
   66.1200027        -8.06035750E-05
   66.2850037        -9.66300067E-05
   66.4499969        -1.05106657E-04
   66.6149979        -1.06221312E-04
   66.7799988        -1.00571131E-04
   66.9449997        -8.90656083E-05
   67.1100006        -7.28251180E-05
   67.2750015        -5.30915167E-05
   67.4400024        -3.11592376E-05
   67.6050034        -8.32712612E-06
   67.7699966         1.41349774E-05
   67.9349976         3.50139744E-05
   68.0999985         5.31841179E-05
   68.2649994         6.76459458E-05
   68.4300003         7.75745211E-05
   68.5950012         8.23732917E-05
   68.7600021         8.17264954E-05
   68.9250031         7.56410955E-05
   69.0899963         6.44691463E-05
   69.2549973         4.89035519E-05
   69.4199982         2.99433032E-05
   69.5849991         8.82888162E-06
   69.7500000        -1.30469307E-05
   69.9150009        -3.42437306E-05
   70.0800018        -5.33821949E-05
   70.2450027        -6.92454269E-05
   70.4100037        -8.08639088E-05
   70.5749969        -8.75789410E-05
   70.7399979        -8.90835654E-05
   70.9049988        -8.54432947E-05
   71.0699997        -7.70992920E-05
   71.2350006        -6.48551941E-05
   71.4000015        -4.98450754E-05
   71.5650024        -3.34772485E-05
   71.7300034        -1.73469216E-05
   71.8949966        -3.11362010E-06
   72.0599976         7.65420191E-06
   72.2249985         1.36557355E-05
   72.3899994         1.40336442E-05
   72.5550003         8.52015364E-06
   72.7200012        -2.47735738E-06
   72.8850021        -1.78764367E-05
   73.0500031        -3.60171034E-05
   73.2149963        -5.48510761E-05
   73.3799973        -7.21962133E-05
   73.5449982        -8.60148357E-05
   73.7099991        -9.46655055E-05
   73.8750000        -9.70812471E-05
   74.0400009        -9.28415466E-05
   74.2050018        -8.21284339E-05
   74.3700027        -6.55834956E-05
   74.5350037        -4.41068914E-05
   74.6999969        -1.86526540E-05
   74.8649979         9.92420519E-06
   75.0299988         4.09283602E-05
   75.1949997         7.37776791E-05
   75.3600006         1.07866363E-04
   75.5250015         1.42382021E-04
   75.6900024         1.76138186E-04
   75.8550034         2.07484482E-04
   76.0199966         2.34339459E-04
   76.1849976         2.54361628E-04
   76.3499985         2.65237293E-04
   76.5149994         2.65031267E-04
   76.6800003         2.52526748E-04
   76.8450012         2.27478013E-04
   77.0100021         1.90716193E-04
   77.1750031         1.44081132E-04
   77.3399963         9.01903477E-05
   77.5049973         3.20928957E-05
   77.6699982        -2.71193330E-05
   77.8349991        -8.46637995E-05
   78.0000000        -1.38315227E-04
   78.1650009        -1.86508390E-04
   78.3300018        -2.28291596E-04
   78.4950027        -2.63160531E-04
   78.6600037        -2.90828844E-04
   78.8249969        -3.11003154E-04
   78.9899979        -3.23224202E-04
   79.1549988        -3.26815032E-04
   79.3199997        -3.20948166E-04
   79.4850006        -3.04812304E-04
   79.6500015        -2.77833984E-04
   79.8150024        -2.39898509E-04
   79.9800034        -1.91515486E-04
   80.1449966        -1.33890208E-04
   80.3099976        -6.88858563E-05
   80.4749985         1.11362681E-06
   80.6399994         7.34093046E-05
   80.8050003         1.45219776E-04
   80.9700012         2.13898660E-04
   81.1350021         2.77104526E-04
   81.3000031         3.32906115E-04
   81.4649963         3.79821489E-04
   81.6299973         4.16803057E-04
   81.7949982         4.43187717E-04
   81.9599991         4.58632800E-04
   82.1250000         4.63054894E-04
   82.2900009         4.56582377E-04
   82.4550018         4.39525524E-04
   82.6200027         4.12363675E-04
   82.7850037         3.75745090E-04
   82.9499969         3.30494629E-04
   83.1149979         2.77626299E-04
   83.2799988         2.18357294E-04
   83.4449997         1.54122463E-04
   83.6100006         8.65854308E-05
   83.7750015         1.76405556E-05
   83.9400024        -5.06039978E-05
   84.1050034        -1.15874151E-04
   84.2699966        -1.75819747E-04
   84.4349976        -2.28152145E-04
   84.5999985        -2.70824326E-04
   84.7649994        -3.02234810E-04
   84.9300003        -3.21423489E-04
   85.0950012        -3.28218535E-04
   85.2600021        -3.23294313E-04
   85.4250031        -3.08111368E-04
   85.5899963        -2.84730137E-04
   85.7549973        -2.55517429E-04
   85.9199982        -2.22791510E-04
   86.0849991        -1.88470105E-04
   86.2500000        -1.53793502E-04
   86.4150009        -1.19184020E-04
   86.5800018        -8.42798836E-05
   86.7450027        -4.81455500E-05
   86.9100037        -9.62296235E-06
   87.0749969         3.22449559E-05
   87.2399979         7.78065296E-05
   87.4049988         1.26497980E-04
   87.5699997         1.76714457E-04
   87.7350006         2.25889875E-04
   87.9000015         2.70776189E-04
   88.0650024         3.07868933E-04
   88.2300034         3.33894946E-04
   88.3949966         3.46265151E-04
   88.5599976         3.43404507E-04
   88.7249985         3.24901514E-04
   88.8899994         2.91460339E-04
   89.0550003         2.44683702E-04
   89.2200012         1.86749312E-04
   89.3850021         1.20061530E-04
   89.5500031         4.69571423E-05
   89.7149963        -3.04754176E-05
   89.8799973        -1.10438174E-04
   90.0449982        -1.91337807E-04
   90.2099991        -2.71613884E-04
   90.3750000        -3.49540642E-04
   90.5400009        -4.23065387E-04
   90.7050018        -4.89733357E-04
   90.8700027        -5.46726398E-04
   91.0350037        -5.91016607E-04
   91.1999969        -6.19610655E-04
   91.3649979        -6.29844377E-04
   91.5299988        -6.19680097E-04
   91.6949997        -5.87960472E-04
   91.8600006        -5.34584920E-04
   92.0250015        -4.60586685E-04
   92.1900024        -3.68103443E-04
   92.3550034        -2.60247762E-04
   92.5199966        -1.40892793E-04
   92.6849976        -1.43961524E-05
   92.8499985         1.14708593E-04
   93.0149994         2.42020353E-04
   93.1800003         3.63544212E-04
   93.3450012         4.75896028E-04
   93.5100021         5.76412713E-04
   93.6750031         6.63153944E-04
   93.8399963         7.34800880E-04
   94.0049973         7.90478080E-04
   94.1699982         8.29542871E-04
   94.3349991         8.51398567E-04
   94.5000000         8.55384162E-04
   94.6650009         8.40779336E-04
   94.8300018         8.06936645E-04
   94.9950027         7.53517903E-04
   95.1600037         6.80783472E-04
   95.3249969         5.89862757E-04
   95.4899979         4.82932199E-04
   95.6549988         3.63244588E-04
   95.8199997         2.34985593E-04
   95.9850006         1.02974736E-04
   96.1500015        -2.77353429E-05
   96.3150024        -1.52282417E-04
   96.4800034        -2.66359100E-04
   96.6449966        -3.66453751E-04
   96.8099976        -4.49938612E-04
   96.9749985        -5.15018881E-04
   97.1399994        -5.60592278E-04
   97.3050003        -5.86092414E-04
   97.4700012        -5.91384247E-04
   97.6350021        -5.76760562E-04
   97.8000031        -5.43044298E-04
   97.9649963        -4.91760205E-04
   98.1299973        -4.25306294E-04
   98.2949982        -3.47039546E-04
   98.4599991        -2.61206791E-04
   98.6250000        -1.72686865E-04
   98.7900009        -8.65615220E-05
   98.9550018        -7.58347960E-06
   99.1200027         6.03543194E-05
   99.2850037         1.14635222E-04
   99.4499969         1.54128837E-04
   99.6149979         1.79148585E-04
   99.7799988         1.91170504E-04
   99.9449997         1.92384643E-04
   100.110001         1.85188619E-04
   100.275002         1.71742940E-04
   100.440002         1.53685949E-04
   100.605003         1.32058936E-04
   100.769997         1.07432556E-04
   100.934998         8.01712813E-05
   101.099998         5.07365221E-05
   101.264999         1.99238530E-05
   101.430000        -1.10467927E-05
   101.595001        -4.06212930E-05
   101.760002        -6.71595262E-05
   101.925003        -8.92694297E-05
   102.089996        -1.06127234E-04
   102.254997        -1.17684620E-04
   102.419998        -1.24694139E-04
   102.584999        -1.28533793E-04
   102.750000        -1.30868269E-04
   102.915001        -1.33230773E-04
   103.080002        -1.36632530E-04
   103.245003        -1.41301978E-04
   103.410004        -1.46620805E-04
   103.574997        -1.51273169E-04
   103.739998        -1.53567395E-04
   103.904999        -1.51845758E-04
   104.070000        -1.44876802E-04
   104.235001        -1.32132278E-04
   104.400002        -1.13884307E-04
   104.565002        -9.11074894E-05
   104.730003        -6.52223534E-05
   104.894997        -3.77551551E-05
   105.059998        -1.00064326E-05
   105.224998         1.71874781E-05
   105.389999         4.35460643E-05
   105.555000         6.92775793E-05
   105.720001         9.48841916E-05
   105.885002         1.20901583E-04
   106.050003         1.47648403E-04
   106.214996         1.75052701E-04
   106.379997         2.02597977E-04
   106.544998         2.29397003E-04
   106.709999         2.54367740E-04
   106.875000         2.76459497E-04
   107.040001         2.94867787E-04
   107.205002         3.09181924E-04
   107.370003         3.19428917E-04
   107.535004         3.26006295E-04
   107.699997         3.29524511E-04
   107.864998         3.30602314E-04
   108.029999         3.29667964E-04
   108.195000         3.26816167E-04
   108.360001         3.21753061E-04
   108.525002         3.13838857E-04
   108.690002         3.02213535E-04
   108.855003         2.85970571E-04
   109.019997         2.64336937E-04
   109.184998         2.36818116E-04
   109.349998         2.03280448E-04
   109.514999         1.63959892E-04
   109.680000         1.19405799E-04
   109.845001         7.03815749E-05
   110.010002         1.77528509E-05
   110.175003        -3.76063690E-05
   110.339996        -9.48659799E-05
   110.504997        -1.53238288E-04
   110.669998        -2.11924780E-04
   110.834999        -2.70026620E-04
   111.000000        -3.26445093E-04
   111.165001        -3.79803969E-04
   111.330002        -4.28423547E-04
   111.495003        -4.70367697E-04
   111.660004        -5.03568794E-04
   111.824997        -5.26016986E-04
   111.989998        -5.35982719E-04
   112.154999        -5.32228849E-04
   112.320000        -5.14168642E-04
   112.485001        -4.81934956E-04
   112.650002        -4.36345930E-04
   112.815002        -3.78778204E-04
   112.980003        -3.10979405E-04
   113.144997        -2.34868407E-04
   113.309998        -1.52372173E-04
   113.474998        -6.53379757E-05
   113.639999         2.44632847E-05
   113.805000         1.15253686E-04
   113.970001         2.05120086E-04
   114.135002         2.91892327E-04
   114.300003         3.73080373E-04
   114.464996         4.45910555E-04
   114.629997         5.07475168E-04
   114.794998         5.54979430E-04
   114.959999         5.86039678E-04
   115.125000         5.98969578E-04
   115.290001         5.92986878E-04
   115.455002         5.68291463E-04
   115.620003         5.25996089E-04
   115.785004         4.67929611E-04
   115.949997         3.96368356E-04
   116.114998         3.13771627E-04
   116.279999         2.22594681E-04
   116.445000         1.25229781E-04
   116.610001         2.40822137E-05
   116.775002        -7.82571442E-05
   116.940002        -1.78819362E-04
   117.105003        -2.74138001E-04
   117.269997        -3.60282429E-04
   117.434998        -4.33085632E-04
   117.599998        -4.88551799E-04
   117.764999        -5.23373659E-04
   117.930000        -5.35446976E-04
   118.095001        -5.24257892E-04
   118.260002        -4.91038547E-04
   118.425003        -4.38636052E-04
   118.589996        -3.71108792E-04
   118.754997        -2.93128600E-04
   118.919998        -2.09317979E-04
   119.084999        -1.23666614E-04
   119.250000        -3.91534631E-05
   119.415001         4.23538368E-05
   119.580002         1.19920565E-04
   119.745003         1.93158688E-04
   119.910004         2.61756388E-04
   120.074997         3.25065863E-04
   120.239998         3.81871563E-04
   120.404999         4.30407672E-04
   120.570000         4.68618848E-04
   120.735001         4.94586886E-04
   120.900002         5.06995886E-04
   121.065002         5.05494187E-04
   121.230003         4.90839127E-04
   121.394997         4.64771118E-04
   121.559998         4.29640902E-04
   121.724998         3.87885986E-04
   121.889999         3.41498700E-04
   122.055000         2.91634467E-04
   122.220001         2.38473294E-04
   122.385002         1.81380441E-04
   122.550003         1.19329779E-04
   122.714996         5.14803469E-05
   122.879997        -2.22482686E-05
   123.044998        -1.00759331E-04
   123.209999        -1.81640542E-04
   123.375000        -2.61351524E-04
   123.540001        -3.35701625E-04
   123.705002        -4.00507211E-04
   123.870003        -4.52271459E-04
   124.035004        -4.88724152E-04
   124.199997        -5.09095669E-04
   124.364998        -5.14068175E-04
   124.529999        -5.05428412E-04
   124.695000        -4.85521887E-04
   124.860001        -4.56654467E-04
   125.025002        -4.20595636E-04
   125.190002        -3.78306664E-04
   125.355003        -3.29952338E-04
   125.519997        -2.75179656E-04
   125.684998        -2.13575739E-04
   125.849998        -1.45172875E-04
   126.014999        -7.08590378E-05
   126.180000         7.41954227E-06
   126.345001         8.67207928E-05
   126.510002         1.63421340E-04
   126.675003         2.33706625E-04
   126.839996         2.94119178E-04
   127.004997         3.42037238E-04
   127.169998         3.75980395E-04
   127.334999         3.95685958E-04
   127.500000         4.01959871E-04
   127.665001         3.96360963E-04
   127.830002         3.80810961E-04
   127.995003         3.57233279E-04
   128.160004         3.27302783E-04
   128.324997         2.92352110E-04
   128.490005         2.53429549E-04
   128.654999         2.11463659E-04
   128.820007         1.67459963E-04
   128.985001         1.22653277E-04
   129.149994         7.85553784E-05
   129.315002         3.68727633E-05
   129.479996        -6.91033506E-07
   129.645004        -3.26985501E-05
   129.809998        -5.82368702E-05
   129.975006        -7.71001360E-05
   130.139999        -8.98435173E-05
   130.304993        -9.76879019E-05
   130.470001        -1.02291124E-04
   130.634995        -1.05433486E-04