  -2.84999990         0.00000000    
  -2.68499994         0.00000000    
  -2.51999998         0.00000000    
  -2.35500002         0.00000000    
  -2.19000006         0.00000000    
  -2.02500010         0.00000000    
  -1.86000001         0.00000000    
  -1.69500005         0.00000000    
  -1.52999997         0.00000000    
  -1.36500001         0.00000000    
  -1.20000005         0.00000000    
  -1.03499997         0.00000000    
 -0.870000005         0.00000000    
 -0.704999983         0.00000000    
 -0.540000021         0.00000000    
 -0.375000000         0.00000000    
 -0.209999993         0.00000000    
  -4.50000018E-02     0.00000000    
  0.119999997         0.00000000    
  0.284999996         0.00000000    
  0.449999988         0.00000000    
  0.615000010         0.00000000    
  0.779999971         0.00000000    
  0.944999993         0.00000000    
   1.11000001         0.00000000    
   1.27499998         0.00000000    
   1.44000006         0.00000000    
   1.60500002         0.00000000    
   1.76999998         0.00000000    
   1.93499994         0.00000000    
   2.09999990         0.00000000    
   2.26500010         0.00000000    
   2.43000007         0.00000000    
   2.59500003         0.00000000    
   2.75999999         0.00000000    
   2.92499995         0.00000000    
   3.08999991         0.00000000    
   3.25500011         0.00000000    
   3.42000008         0.00000000    
   3.58500004         0.00000000    
   3.75000000         0.00000000    
   3.91499996        -1.14048244E-33
   4.07999992        -2.09855735E-33
   4.24499989        -1.62656955E-33
   4.40999985        -1.28514226E-33
   4.57499981         1.54938127E-33
   4.73999977         1.14562019E-32
   4.90500021         2.53847270E-32
   5.07000017         4.73376953E-32
   5.23500013         8.37524620E-32
   5.40000010         1.57793201E-31
   5.56500006         3.02392654E-31
   5.73000002        -3.79892352E-30
   5.89499998        -1.68490749E-29
   6.05999994        -3.93395566E-29
   6.22499990        -6.60925351E-29
   6.38999987        -8.35788355E-29
   6.55499983        -8.38205096E-29
   6.71999979        -7.63699894E-29
   6.88500023        -8.55038145E-29
   7.05000019        -1.73256513E-28
   7.21500015        -4.00787442E-28
   7.38000011        -7.89714477E-28
   7.54500008        -1.23415969E-27
   7.71000004        -1.46114700E-27
   7.87500000        -1.08499777E-27
   8.03999996         2.08644272E-28
   8.20499992         2.37856161E-27
   8.36999989         4.80267532E-27
   8.53499985         6.30940851E-27
   8.69999981         5.67121542E-27
   8.86499977         2.59100864E-27
   9.02999973        -1.18993765E-27
   9.19499969        -1.39332606E-27
   9.35999966         7.79809497E-27
   9.52499962         3.07273094E-26
   9.68999958         6.57478402E-26
   9.85499954         1.01041040E-25
   10.0200005         1.13687355E-25
   10.1850004         7.47339273E-26
   10.3500004        -3.90388403E-26
   10.5150003        -2.29667978E-25
   10.6800003        -4.65940891E-25
   10.8450003        -6.83753966E-25
   11.0100002        -8.05498080E-25
   11.1750002        -7.77263121E-25
   11.3400002        -6.11353890E-25
   11.5050001        -4.11698248E-25
   11.6700001        -3.57661177E-25
   11.8350000        -6.32528938E-25
   12.0000000        -1.30651439E-24
   12.1650000        -2.21356579E-24
   12.3299999        -2.88363489E-24
   12.4949999        -2.59323586E-24
   12.6599998        -5.68577759E-25
   12.8249998         3.67976949E-24
   12.9899998         9.97773755E-24
   13.1549997         1.72034486E-23
   13.3199997         2.32514748E-23
   13.4849997         2.53626812E-23
   13.6499996         2.08510137E-23
   13.8149996         8.13990937E-24
   13.9799995        -1.21077433E-23
   14.1450005        -3.60978490E-23
   14.3100004        -5.66623074E-23
   14.4750004        -6.40855138E-23
   14.6400003        -4.83121390E-23
   14.8050003        -2.56296826E-24
   14.9700003         7.21145085E-23
   15.1350002         1.62509158E-22
   15.3000002         2.40949296E-22
   15.4650002         2.67231945E-22
   15.6300001         1.96607210E-22
   15.7950001        -5.75236583E-24
   15.9600000        -3.45819632E-22
   16.1250000        -7.82367457E-22
   16.2900009        -1.21683206E-21
   16.4549999        -1.49974186E-21
   16.6200008        -1.45968176E-21
   16.7849998        -9.54694361E-22
   16.9500008         6.29988737E-23
   17.1149998         1.48770271E-21
   17.2800007         3.03178012E-21
   17.4449997         4.25301536E-21
   17.6100006         4.65240667E-21
   17.7749996         3.83620680E-21
   17.9400005         1.70847350E-21
   18.1049995        -1.36623590E-21
   18.2700005        -4.50542985E-21
   18.4349995        -6.42467102E-21
   18.6000004        -5.75907861E-21
   18.7649994        -1.55947880E-21
   18.9300003         6.14487597E-21
   19.0949993         1.58927261E-20
   19.2600002         2.46517739E-20
   19.4249992         2.81659264E-20
   19.5900002         2.18539712E-20
   19.7549992         2.15964903E-21
   19.9200001        -3.19288711E-20
   20.0849991        -7.76104795E-20
   20.2500000        -1.27705132E-19
   20.4150009        -1.71128211E-19
   20.5799999        -1.94487791E-19
   20.7450008        -1.84553843E-19
   20.9099998        -1.31041242E-19
   21.0750008        -2.89928711E-20
   21.2399998         1.19867104E-19
   21.4050007         3.07093181E-19
   21.5699997         5.18554460E-19
   21.7350006         7.35785220E-19
   21.8999996         9.36594067E-19
   22.0650005         1.09400664E-18
   22.2299995         1.17328053E-18
   22.3950005         1.12785332E-18
   22.5599995         8.96406738E-19
   22.7250004         4.04354395E-19
   22.8899994        -4.26548427E-19
   23.0550003        -1.65751196E-18
   23.2199993        -3.30018595E-18
   23.3850002        -5.27515824E-18
   23.5499992        -7.36897075E-18
   23.7150002        -9.20193764E-18
   23.8799992        -1.02226909E-17
   24.0450001        -9.74635814E-18
   24.2099991        -7.04999667E-18
   24.3750000        -1.53015975E-18
   24.5400009         7.08689223E-18
   24.7049999         1.85106659E-17
   24.8700008         3.16760345E-17
   25.0349998         4.46219207E-17
   25.2000008         5.45305749E-17
   25.3649998         5.79894042E-17
   25.5300007         5.15070974E-17
   25.6949997         3.22645371E-17
   25.8600006        -9.86016454E-19
   26.0249996        -4.70309982E-17
   26.1900005        -1.01529631E-16
   26.3549995        -1.56810151E-16
   26.5200005        -2.02337364E-16
   26.6849995        -2.25968935E-16
   26.8500004        -2.15967408E-16
   27.0149994        -1.63544830E-16
   27.1800003        -6.55260387E-17
   27.3449993         7.34273010E-17
   27.5100002         2.39637056E-16
   27.6749992         4.10790201E-16
   27.8400002         5.58165119E-16
   28.0049992         6.50631471E-16
   28.1700001         6.59937663E-16
   28.3349991         5.66423214E-16
   28.5000000         3.64046979E-16
   28.6650009         6.36059473E-17
   28.8299999        -3.06737259E-16
   28.9950008        -7.04011487E-16
   29.1599998        -1.07582893E-15
   29.3250008        -1.36772528E-15
   29.4899998        -1.53108045E-15
   29.6550007        -1.53009493E-15
   29.8199997        -1.34652171E-15
   29.9850006        -9.81434418E-16
   30.1499996        -4.54106592E-16
   30.3150005         2.01144371E-16
   30.4799995         9.38789274E-16
   30.6450005         1.70519125E-15
   30.8099995         2.44007725E-15
   30.9750004         3.07641265E-15
   31.1399994         3.53981104E-15
   31.3050003         3.74949722E-15
   31.4699993         3.62310296E-15
   31.6350002         3.08695779E-15
   31.7999992         2.09201150E-15
   31.9650002         6.33365075E-16
   32.1300011        -1.23082601E-15
   32.2949982        -3.36687634E-15
   32.4599991        -5.56548165E-15
   32.6250000        -7.55832486E-15
   32.7900009        -9.05221400E-15
   32.9550018        -9.77686594E-15
   33.1199989        -9.53759014E-15
   33.2849998        -8.26062021E-15
   33.4500008        -6.01794801E-15
   33.6150017        -3.02135339E-15
   33.7799988         4.18150096E-16
   33.9449997         3.95997559E-15
   34.1100006         7.31733467E-15
   34.2750015         1.03311126E-14
   34.4399986         1.30082899E-14
   34.6049995         1.55032779E-14
   34.7700005         1.80327013E-14
   34.9350014         2.07325036E-14
   35.0999985         2.34871902E-14
   35.2649994         2.57791919E-14
   35.4300003         2.66156150E-14
   35.5950012         2.45852956E-14
   35.7599983         1.80782970E-14
   35.9249992         5.66446253E-15
   36.0900002        -1.34170281E-14
   36.2550011        -3.87494873E-14
   36.4199982        -6.83365514E-14
   36.5849991        -9.84395806E-14
   36.7500000        -1.23766598E-13
   36.9150009        -1.38070233E-13
   37.0800018        -1.35131828E-13
   37.2449989        -1.10016068E-13
   37.4099998        -6.03938422E-14
   37.5750008         1.23266951E-14
   37.7400017         1.02333452E-13
   37.9049988         1.99436049E-13
   38.0699997         2.89912164E-13
   38.2350006         3.58159601E-13
   38.4000015         3.88979512E-13
   38.5649986         3.70169010E-13
   38.7299995         2.95000434E-13
   38.8950005         1.64135049E-13
   39.0600014        -1.34261287E-14
   39.2249985        -2.20615830E-13
   39.3899994        -4.33864018E-13
   39.5550003        -6.25796019E-13
   39.7200012        -7.68705032E-13
   39.8849983        -8.38292760E-13
   40.0499992        -8.17112111E-13
   40.2150002        -6.97189322E-13
   40.3800011        -4.81439649E-13
   40.5449982        -1.83695100E-13
   40.7099991         1.72604552E-13
   40.8750000         5.56795712E-13
   41.0400009         9.34036919E-13
   41.2050018         1.26854300E-12
   41.3699989         1.52657227E-12
   41.5349998         1.67885248E-12
   41.7000008         1.70230930E-12
   41.8650017         1.58114906E-12
   42.0299988         1.30749491E-12
   42.1949997         8.81869339E-13
   42.3600006         3.13791446E-13
   42.5250015        -3.77332578E-13
   42.6899986        -1.16103383E-12
   42.8549995        -1.99454125E-12
   43.0200005        -2.82191219E-12
   43.1850014        -3.57412624E-12
   43.3499985        -4.17079522E-12
   43.5149994        -4.52408423E-12
   43.6800003        -4.54523615E-12
   43.8450012        -4.15374549E-12
   44.0099983        -3.28879198E-12
   44.1749992        -1.92202309E-12
   44.3400002        -7.02623249E-14
   44.5050011         2.19371830E-12
   44.6699982         4.73447540E-12
   44.8349991         7.35336184E-12
   45.0000000         9.79598781E-12
   45.1650009         1.17687943E-11
   45.3300018         1.29648037E-11
   45.4949989         1.30972906E-11
   45.6599998         1.19386384E-11
   45.8250008         9.36022614E-12
   45.9900017         5.36813866E-12
   46.1549988         1.28942606E-13
   46.3199997        -6.01999006E-12
   46.4850006        -1.25799562E-11
   46.6500015        -1.89225389E-11
   46.8149986        -2.43429651E-11
   46.9799995        -2.81316463E-11
   47.1450005        -2.96572038E-11
   47.3100014        -2.84517254E-11
   47.4749985        -2.42873690E-11
   47.6399994        -1.72331836E-11
   47.8050003        -7.68246144E-12
   47.9700012         3.65625152E-12
   48.1349983         1.58071091E-11
   48.2999992         2.76116161E-11
   48.4650002         3.78426110E-11
   48.6300011         4.53358844E-11
   48.7949982         4.91244961E-11
   48.9599991         4.85596563E-11
   49.1250000         4.34027293E-11
   49.2900009         3.38758431E-11
   49.4550018         2.06630702E-11
   49.6199989         4.86001170E-12
   49.7849998        -1.21242842E-11
   49.9500008        -2.87032290E-11
   50.1150017        -4.32720283E-11
   50.2799988        -5.43729436E-11
   50.4449997        -6.08482292E-11
   50.6100006        -6.19637258E-11
   50.7750015        -5.74893917E-11
   50.9399986        -4.77280923E-11
   51.1049995        -3.34895722E-11
   51.2700005        -1.60129202E-11
   51.4350014         3.15366461E-12
   51.5999985         2.23022833E-11
   51.7649994         3.97274678E-11
   51.9300003         5.38836406E-11
   52.0950012         6.35213826E-11
   52.2599983         6.77892881E-11
   52.4249992         6.62924785E-11
   52.5900002         5.91046517E-11
   52.7550011         4.67363336E-11
   52.9199982         3.00672647E-11
   53.0849991         1.02551093E-11
   53.2500000        -1.13656185E-11
   53.4150009        -3.33804651E-11
   53.5800018        -5.43766698E-11
   53.7449989        -7.30027844E-11
   53.9099998        -8.80055681E-11
   54.0750008        -9.82490478E-11
   54.2400017        -1.02725772E-10
   54.4049988        -1.00572994E-10
   54.5699997        -9.11060741E-11
   54.7350006        -7.38781258E-11
   54.9000015        -4.87684511E-11
   55.0649986        -1.60937496E-11
   55.2299995         2.32729686E-11
   55.3950005         6.77981976E-11
   55.5600014         1.15225843E-10
   55.7249985         1.62584279E-10
   55.8899994         2.06284323E-10
   56.0550003         2.42319165E-10
   56.2200012         2.66562994E-10
   56.3849983         2.75147904E-10
   56.5499992         2.64883310E-10
   56.7150002         2.33670222E-10
   56.8800011         1.80856011E-10
   57.0449982         1.07478429E-10
   57.2099991         1.63571882E-11
   57.3750000        -8.79901638E-11
   57.5400009        -1.99609454E-10
   57.7050018        -3.11525278E-10
   57.8699989        -4.16266382E-10
   58.0349998        -5.06441611E-10
   58.2000008        -5.75301140E-10
   58.3650017        -6.17220997E-10
   58.5299988        -6.28063324E-10
   58.6949997        -6.05383577E-10
   58.8600006        -5.48482870E-10
   59.0250015        -4.58323823E-10
   59.1899986        -3.37349843E-10
   59.3549995        -1.89254667E-10
   59.5200005        -1.87529124E-11
   59.6850014         1.68609529E-10
   59.8499985         3.66581210E-10
   60.0149994         5.68263991E-10
   60.1800003         7.66123054E-10
   60.3450012         9.51982049E-10
   60.5099983         1.11704657E-09
   60.6749992         1.25200239E-09
   60.8400002         1.34722666E-09
   61.0050011         1.39313416E-09
   61.1699982         1.38066891E-09
   61.3349991         1.30192312E-09
   61.5000000         1.15085397E-09
   61.6650009         9.24048338E-10
   61.8300018         6.21476648E-10
   61.9949989         2.47167592E-10
   62.1599998        -1.90266303E-10
   62.3250008        -6.77321976E-10
   62.4900017        -1.19558263E-09
   62.6549988        -1.72202974E-09
   62.8199997        -2.22972862E-09
   62.9850006        -2.68890110E-09
   63.1500015        -3.06836778E-09
   63.3149986        -3.33731198E-09
   63.4799995        -3.46727158E-09
   63.6450005        -3.43424067E-09
   63.8100014        -3.22072302E-09
   63.9749985        -2.81757573E-09
   64.1399994        -2.22547203E-09
   64.3050003        -1.45584100E-09
   64.4700012        -5.31176880E-10
   64.6350021         5.15342435E-10
   64.8000031         1.64091973E-09
   64.9649963         2.79483436E-09
   65.1299973         3.92065846E-09
   65.2949982         4.95886221E-09
   65.4599991         5.84966298E-09
   65.6250000         6.53596999E-09
   65.7900009         6.96631419E-09
   65.9550018         7.09765891E-09
   66.1200027         6.89801860E-09
   66.2850037         6.34882413E-09
   66.4499969         5.44695267E-09
   66.6149979         4.20633439E-09
   66.7799988         2.65900768E-09
   66.9449997         8.55454541E-10
   67.1100006        -1.13595433E-09
   67.2750015        -3.23059646E-09
   67.4400024        -5.33044364E-09
   67.6050034        -7.32818339E-09
   67.7699966        -9.11255160E-09
   67.9349976        -1.05746754E-08
   68.0999985        -1.16150822E-08
   68.2649994        -1.21508554E-08
   68.4300003        -1.21223733E-08
   68.5950012        -1.14989689E-08
   68.7600021        -1.02829123E-08
   68.9250031        -8.51120419E-09
   69.0899963        -6.25485752E-09
   69.2549973        -3.61556873E-09
   69.4199982        -7.19937610E-10
   69.5849991         2.28834152E-09
   69.7500000         5.25768362E-09
   69.9150009         8.03841438E-09
   70.0800018         1.04923235E-08
   70.2450027         1.25011237E-08
   70.4100037         1.39731391E-08
   70.5749969         1.48476973E-08
   70.7399979         1.50970081E-08
   70.9049988         1.47255568E-08
   71.0699997         1.37673108E-08
   71.2350006         1.22812258E-08
   71.4000015         1.03457012E-08
   71.5650024         8.05263412E-09
   71.7300034         5.50168666E-09
   71.8949966         2.79524359E-09
   72.0599976         3.43416476E-11
   72.2249985        -2.68434319E-09
   72.3899994        -5.27057065E-09
   72.5550003        -7.64192620E-09
   72.7200012        -9.72485292E-09
   72.8850021        -1.14556578E-08
   73.0500031        -1.27817197E-08
   73.2149963        -1.36630032E-08
   73.3799973        -1.40738212E-08
   73.5449982        -1.40046081E-08
   73.7099991        -1.34633895E-08
   73.8750000        -1.24765709E-08
   74.0400009        -1.10887095E-08
   74.2050018        -9.36107725E-09
   74.3700027        -7.36894501E-09
   74.5350037        -5.19777954E-09
   74.6999969        -2.93866553E-09
   74.8649979        -6.83429258E-10
   75.0299988         1.48002666E-09
   75.1949997         3.47171136E-09
   75.3600006         5.22250643E-09
   75.5250015         6.67594557E-09
   75.6900024         7.78886111E-09
   75.8550034         8.53114024E-09
   76.0199966         8.88498519E-09
   76.1849976         8.84410412E-09
   76.3499985         8.41326120E-09
   76.5149994         7.60848984E-09
   76.6800003         6.45807985E-09
   76.8450012         5.00427655E-09
   77.0100021         3.30539862E-09
   77.1750031         1.43792478E-09
   77.3399963        -5.01999164E-10
   77.5049973        -2.39822806E-09
   77.6699982        -4.11600753E-09
   77.8349991        -5.50550761E-09
   78.0000000        -6.40777520E-09
   78.1650009        -6.66314737E-09
   78.3300018        -6.12192563E-09
   78.4950027        -4.65687489E-09
   78.6600037        -2.17684359E-09
   78.8249969         1.35942857E-09
   78.9899979         5.93041305E-09
   79.1549988         1.14410463E-08
   79.3199997         1.77153971E-08
   79.4850006         2.44939216E-08
   79.6500015         3.14362687E-08
   79.8150024         3.81302740E-08
   79.9800034         4.41073418E-08
   80.1449966         4.88638214E-08
   80.3099976         5.18875787E-08
   80.4749985         5.26882431E-08
   80.6399994         5.08294669E-08
   80.8050003         4.59609915E-08
   80.9700012         3.78484124E-08
   81.1350021         2.63986220E-08
   81.3000031         1.16791279E-08
   81.4649963        -6.07008532E-09
   81.6299973        -2.64329572E-08
   81.7949982        -4.88224536E-08
   81.9599991        -7.24941387E-08
   82.1250000        -9.65677458E-08
   82.2900009        -1.20056029E-07
   82.4550018        -1.41899733E-07
   82.6200027        -1.61007605E-07
   82.7850037        -1.76300205E-07
   82.9499969        -1.86756040E-07
   83.1149979        -1.91458355E-07
   83.2799988        -1.89641099E-07
   83.4449997        -1.80731817E-07
   83.6100006        -1.64389718E-07
   83.7750015        -1.40536613E-07
   83.9400024        -1.09378938E-07
   84.1050034        -7.14190662E-08
   84.2699966        -2.74546785E-08
   84.4349976         2.14346301E-08
   84.5999985         7.39134549E-08
   84.7649994         1.28429008E-07
   84.9300003         1.83260596E-07
   85.0950012         2.36578430E-07
   85.2600021         2.86509561E-07
   85.4250031         3.31208241E-07
   85.5899963         3.68927715E-07
   85.7549973         3.98090350E-07
   85.9199982         4.17352510E-07
   86.0849991         4.25660687E-07
   86.2500000         4.22295329E-07
   86.4150009         4.06899375E-07
   86.5800018         3.79488569E-07
   86.7450027         3.40441858E-07
   86.9100037         2.90471576E-07
   87.0749969         2.30573718E-07
   87.2399979         1.61961339E-07
   87.4049988         8.59848726E-08
   87.5699997         4.04469747E-09
   87.7350006        -8.24979622E-08
   87.9000015        -1.72405237E-07
   88.0650024        -2.64635787E-07
   88.2300034        -3.58402730E-07
   88.3949966        -4.53211982E-07
   88.5599976        -5.48880223E-07
   88.7249985        -6.45532907E-07
   88.8899994        -7.43584451E-07
   89.0550003        -8.43703219E-07
   89.2200012        -9.46767273E-07
   89.3850021        -1.05381275E-06
   89.5500031        -1.16597926E-06
   89.7149963        -1.28445515E-06
   89.8799973        -1.41042369E-06
   90.0449982        -1.54500890E-06
   90.2099991        -1.68922395E-06
   90.3750000        -1.84391888E-06
   90.5400009        -2.00972909E-06
   90.7050018        -2.18702530E-06
   90.8700027        -2.37586687E-06
   91.0350037        -2.57596048E-06
   91.1999969        -2.78662947E-06
   91.3649979        -3.00679994E-06
   91.5299988        -3.23500353E-06
   91.6949997        -3.46940374E-06
   91.8600006        -3.70784642E-06
   92.0250015        -3.94793233E-06
   92.1900024        -4.18711397E-06
   92.3550034        -4.42280680E-06
   92.5199966        -4.65251287E-06
   92.6849976        -4.87394300E-06
   92.8499985        -5.08513540E-06
   93.0149994        -5.28456485E-06
   93.1800003        -5.47122090E-06
   93.3450012        -5.64466745E-06
   93.5100021        -5.80506639E-06
   93.6750031        -5.95317215E-06
   93.8399963        -6.09028984E-06
   94.0049973        -6.21820936E-06
   94.1699982        -6.33911486E-06
   94.3349991        -6.45546834E-06
   94.5000000        -6.56989278E-06
   94.6650009        -6.68504390E-06
   94.8300018        -6.80348739E-06
   94.9950027        -6.92758840E-06
   95.1600037        -7.05941375E-06
   95.3249969        -7.20065100E-06
   95.4899979        -7.35255207E-06
   95.6549988        -7.51589414E-06
   95.8199997        -7.69097005E-06
   95.9850006        -7.87758108E-06
   96.1500015        -8.07506785E-06
   96.3150024        -8.28233806E-06
   96.4800034        -8.49791468E-06
   96.6449966        -8.71999509E-06
   96.8099976        -8.94652021E-06
   96.9749985        -9.17525085E-06
   97.1399994        -9.40384780E-06
   97.3050003        -9.62996819E-06
   97.4700012        -9.85135102E-06
   97.6350021        -1.00659117E-05
   97.8000031        -1.02718313E-05
   97.9649963        -1.04676210E-05
   98.1299973        -1.06521893E-05
   98.2949982        -1.08248760E-05
   98.4599991        -1.09854573E-05
   98.6250000        -1.11341342E-05
   98.7900009        -1.12714897E-05
   98.9550018        -1.13984179E-05
   99.1200027        -1.15160410E-05
   99.2850037        -1.16256169E-05
   99.4499969        -1.17284389E-05
   99.6149979        -1.18257467E-05
   99.7799988        -1.19186461E-05
   99.9449997        -1.20080467E-05
   100.110001        -1.20946188E-05
   100.275002        -1.21787689E-05
   100.440002        -1.22606261E-05
   100.605003        -1.23400541E-05
   100.769997        -1.24166636E-05
   100.934998        -1.24898370E-05
   101.099998        -1.25587540E-05
   101.264999        -1.26224322E-05
   101.430000        -1.26797631E-05
   101.595001        -1.27295689E-05
   101.760002        -1.27706599E-05
   101.925003        -1.28019055E-05
   102.089996        -1.28223137E-05
   102.254997        -1.28311212E-05
   102.419998        -1.28278825E-05
   102.584999        -1.28125512E-05
   102.750000        -1.27855419E-05
   102.915001        -1.27477870E-05
   103.080002        -1.27007515E-05
   103.245003        -1.26464156E-05
   103.410004        -1.25872311E-05
   103.574997        -1.25260267E-05
   103.739998        -1.24659018E-05
   103.904999        -1.24100743E-05
   104.070000        -1.23617228E-05
   104.235001        -1.23238015E-05
   104.400002        -1.22988640E-05
   104.565002        -1.22888796E-05
   104.730003        -1.22950642E-05
   104.894997        -1.23177288E-05
   105.059998        -1.23561595E-05
   105.224998        -1.24085154E-05
   105.389999        -1.24717908E-05
   105.555000        -1.25418119E-05
   105.720001        -1.26132918E-05
   105.885002        -1.26799587E-05
   106.050003        -1.27347284E-05
   106.214996        -1.27699595E-05
   106.379997        -1.27777594E-05
   106.544998        -1.27503172E-05
   106.709999        -1.26802888E-05
   106.875000        -1.25611723E-05
   107.040001        -1.23876816E-05
   107.205002        -1.21560697E-05
   107.370003        -1.18644002E-05
   107.535004        -1.15127386E-05
   107.699997        -1.11032423E-05
   107.864998        -1.06401585E-05
   108.029999        -1.01297073E-05
   108.195000        -9.57986595E-06
   108.360001        -9.00006216E-06
   108.525002        -8.40078701E-06
   108.690002        -7.79314723E-06
   108.855003        -7.18838010E-06
   109.019997        -6.59734133E-06
   109.184998        -6.03000854E-06
   109.349998        -5.49500555E-06
   109.514999        -4.99917951E-06
   109.680000        -4.54724977E-06
   109.845001        -4.14155465E-06
   110.010002        -3.78190907E-06
   110.175003        -3.46559318E-06
   110.339996        -3.18747789E-06
   110.504997        -2.94029792E-06
   110.669998        -2.71506019E-06
   110.834999        -2.50157086E-06
   111.000000        -2.28906219E-06
   111.165001        -2.06687582E-06
   111.330002        -1.82515873E-06
   111.495003        -1.55552550E-06
   111.660004        -1.25163297E-06
   111.824997        -9.09622486E-07
   111.989998        -5.28394708E-07
   112.154999        -1.09684500E-07
   112.320000         3.42063117E-07
   112.485001         8.20017135E-07
   112.650002         1.31545573E-06
   112.815002         1.81839437E-06
   112.980003         2.31830086E-06
   113.144997         2.80484346E-06
   113.309998         3.26861596E-06
   113.474998         3.70179168E-06
   113.639999         4.09866516E-06
   113.805000         4.45604792E-06
   113.970001         4.77350386E-06
   114.135002         5.05340995E-06
   114.300003         5.30085208E-06
   114.464996         5.52335860E-06
   114.629997         5.73050238E-06
   114.794998         5.93337927E-06
   114.959999         6.14400460E-06
   115.125000         6.37464746E-06
   115.290001         6.63713581E-06
   115.455002         6.94216715E-06
   115.620003         7.29865405E-06
   115.785004         7.71313898E-06
   115.949997         8.18930675E-06
   116.114998         8.72761939E-06
   116.279999         9.32510557E-06
   116.445000         9.97531424E-06
   116.610001         1.06684383E-05
   116.775002         1.13916140E-05
   116.940002         1.21293933E-05
   117.105003         1.28643505E-05
   117.269997         1.35778164E-05
   117.434998         1.42506833E-05
   117.599998         1.48642548E-05
   117.764999         1.54010995E-05
   117.930000         1.58458261E-05
   118.095001         1.61857861E-05
   118.260002         1.64116391E-05
   118.425003         1.65177389E-05
   118.589996         1.65023430E-05
   118.754997         1.63676414E-05
   118.919998         1.61195767E-05
   119.084999         1.57675076E-05
   119.250000         1.53237233E-05
   119.415001         1.48028557E-05
   119.580002         1.42212139E-05
   119.745003         1.35960981E-05
   119.910004         1.29451273E-05
   120.074997         1.22856127E-05
   120.239998         1.16340007E-05
   120.404999         1.10053988E-05
   120.570000         1.04132168E-05
   120.735001         9.86887881E-06
   120.900002         9.38165340E-06
   121.065002         8.95854282E-06
   121.230003         8.60426098E-06
   121.394997         8.32126352E-06
   121.559998         8.10983875E-06
   121.724998         7.96823952E-06
   121.889999         7.89285787E-06
   122.055000         7.87843419E-06
   122.220001         7.91829370E-06
   122.385002         8.00459657E-06
   122.550003         8.12859616E-06
   122.714996         8.28089378E-06
   122.879997         8.45166414E-06
   123.044998         8.63085552E-06
   123.209999         8.80833886E-06
   123.375000         8.97401605E-06
   123.540001         9.11788175E-06
   123.705002         9.23004973E-06
   123.870003         9.30076203E-06
   124.035004         9.32039075E-06
   124.199997         9.27946621E-06
   124.364998         9.16873341E-06
   124.529999         8.97926657E-06
   124.695000         8.70263739E-06
   124.860001         8.33114973E-06
   125.025002         7.85813063E-06
   125.190002         7.27826819E-06
   125.355003         6.58798035E-06
   125.519997         5.78579966E-06
   125.684998         4.87274565E-06
   125.849998         3.85267595E-06
   126.014999         2.73258320E-06
   126.180000         1.52282496E-06
   126.345001         2.37261915E-07
   126.510002        -1.10671624E-06
   126.675003        -2.48829838E-06
   126.839996        -3.88351236E-06
   127.004997        -5.26565600E-06
   127.169998        -6.60590877E-06
   127.334999        -7.87412864E-06
   127.500000        -9.03982527E-06
   127.665001        -1.00732950E-05
   127.830002        -1.09468765E-05
   127.995003        -1.16362799E-05
   128.160004        -1.21219318E-05
   128.324997        -1.23902528E-05
   128.490005        -1.24348071E-05
   128.654999        -1.22572155E-05
   128.820007        -1.18677799E-05
   128.985001        -1.12857470E-05
   129.149994        -1.05391518E-05
   129.315002        -9.66423431E-06
   129.479996        -8.70439817E-06
   129.645004        -7.70876159E-06
   129.809998        -6.73032901E-06
   129.975006        -5.82387111E-06
   130.139999        -5.04359332E-06
   130.304993        -4.44071111E-06
   130.470001        -4.06104255E-06
   130.634995        -3.94274184E-06