  -2.84999990         0.00000000    
  -2.68499994         0.00000000    
  -2.51999998         0.00000000    
  -2.35500002         0.00000000    
  -2.19000006         0.00000000    
  -2.02500010         0.00000000    
  -1.86000001         0.00000000    
  -1.69500005         0.00000000    
  -1.52999997         0.00000000    
  -1.36500001         0.00000000    
  -1.20000005         0.00000000    
  -1.03499997         0.00000000    
 -0.870000005         0.00000000    
 -0.704999983         0.00000000    
 -0.540000021         0.00000000    
 -0.375000000         0.00000000    
 -0.209999993         0.00000000    
  -4.50000018E-02     0.00000000    
  0.119999997         0.00000000    
  0.284999996         0.00000000    
  0.449999988         0.00000000    
  0.615000010         0.00000000    
  0.779999971         0.00000000    
  0.944999993         0.00000000    
   1.11000001         0.00000000    
   1.27499998         0.00000000    
   1.44000006         0.00000000    
   1.60500002         0.00000000    
   1.76999998         0.00000000    
   1.93499994         0.00000000    
   2.09999990         0.00000000    
   2.26500010         0.00000000    
   2.43000007         0.00000000    
   2.59500003         0.00000000    
   2.75999999         0.00000000    
   2.92499995         0.00000000    
   3.08999991         0.00000000    
   3.25500011         0.00000000    
   3.42000008         0.00000000    
   3.58500004         0.00000000    
   3.75000000         0.00000000    
   3.91499996         5.39861990E-34
   4.07999992         3.77372074E-33
   4.24499989         5.78699653E-33
   4.40999985         2.36503219E-34
   4.57499981        -1.31664301E-32
   4.73999977        -1.22404381E-32
   4.90500021        -4.04023727E-33
   5.07000017         8.37978772E-33
   5.23500013         4.02728067E-32
   5.40000010         1.02929918E-31
   5.56500006         1.75116297E-31
   5.73000002        -1.15290276E-30
   5.89499998        -4.06107042E-30
   6.05999994        -7.25702365E-30
   6.22499990         6.39382128E-31
   6.38999987         2.82593657E-29
   6.55499983         8.42876198E-29
   6.71999979         1.62757571E-28
   6.88500023         2.22788543E-28
   7.05000019         2.17109384E-28
   7.21500015         1.24735080E-28
   7.38000011        -3.90744494E-29
   7.54500008        -1.42745438E-28
   7.71000004         1.26366809E-29
   7.87500000         6.51653178E-28
   8.03999996         1.85909902E-27
   8.20499992         3.39701995E-27
   8.36999989         4.63912805E-27
   8.53499985         4.73545267E-27
   8.69999981         3.17021204E-27
   8.86499977         5.16945693E-28
   9.02999973        -1.01023471E-27
   9.19499969         2.13206261E-27
   9.35999966         1.30858635E-26
   9.52499962         3.15330877E-26
   9.68999958         5.03397165E-26
   9.85499954         5.39488846E-26
   10.0200005         2.07078422E-26
   10.1850004        -6.97809039E-26
   10.3500004        -2.25739820E-25
   10.5150003        -4.33176194E-25
   10.6800003        -6.52858721E-25
   10.8450003        -8.28963438E-25
   11.0100002        -9.08568871E-25
   11.1750002        -8.63250686E-25
   11.3400002        -6.97621894E-25
   11.5050001        -4.30062264E-25
   11.6700001        -4.17035786E-26
   11.8350000         5.90060118E-25
   12.0000000         1.73514531E-24
   12.1650000         3.78135111E-24
   12.3299999         7.09254032E-24
   12.4949999         1.17526162E-23
   12.6599998         1.72501571E-23
   12.8249998         2.22134979E-23
   12.9899998         2.43336516E-23
   13.1549997         2.05932376E-23
   13.3199997         7.85152943E-24
   13.4849997        -1.62637323E-23
   13.6499996        -5.23070916E-23
   13.8149996        -9.80314544E-23
   13.9799995        -1.47725261E-22
   14.1450005        -1.92121621E-22
   14.3100004        -2.19091993E-22
   14.4750004        -2.15249798E-22
   14.6400003        -1.68422788E-22
   14.8050003        -7.06721489E-23
   14.9700003         7.88334577E-23
   15.1350002         2.72110186E-22
   15.3000002         4.92891451E-22
   15.4650002         7.19986255E-22
   15.6300001         9.32894840E-22
   15.7950001         1.11749637E-21
   15.9600000         1.26816401E-21
   16.1250000         1.38230362E-21
   16.2900009         1.44493842E-21
   16.4549999         1.40496102E-21
   16.6200008         1.15039134E-21
   16.7849998         4.95629871E-22
   16.9500008        -8.03343382E-22
   17.1149998        -2.99222954E-21
   17.2800007        -6.21578692E-21
   17.4449997        -1.03806102E-20
   17.6100006        -1.50135543E-20
   17.7749996        -1.91629734E-20
   17.9400005        -2.13982852E-20
   18.1049995        -1.99571944E-20
   18.2700005        -1.30655730E-20
   18.4349995         5.86346856E-22
   18.6000004         2.12799240E-20
   18.7649994         4.77351747E-20
   18.9300003         7.67613204E-20
   19.0949993         1.03243760E-19
   19.2600002         1.20578002E-19
   19.4249992         1.21576964E-19
   19.5900002         9.97676948E-20
   19.7549992         5.08844645E-20
   19.9200001        -2.57071029E-20
   20.0849991        -1.25931269E-19
   20.2500000        -2.40485237E-19
   20.4150009        -3.54991901E-19
   20.5799999        -4.50814726E-19
   20.7450008        -5.06456374E-19
   20.9099998        -4.99476004E-19
   21.0750008        -4.08946954E-19
   21.2399998        -2.18588500E-19
   21.4050007         7.92501130E-20
   21.5699997         4.78696969E-19
   21.7350006         9.54851701E-19
   21.8999996         1.45852611E-18
   22.0650005         1.91276397E-18
   22.2299995         2.21326566E-18
   22.3950005         2.23511150E-18
   22.5599995         1.84789192E-18
   22.7250004         9.40344090E-19
   22.8899994        -5.46233474E-19
   23.0550003        -2.57907139E-18
   23.2199993        -4.99586360E-18
   23.3850002        -7.47694263E-18
   23.5499992        -9.53940251E-18
   23.7150002        -1.05655052E-17
   23.8799992        -9.87550006E-18
   24.0450001        -6.84913033E-18
   24.2099991        -1.09005603E-18
   24.3750000         7.38592795E-18
   24.5400009         1.79729258E-17
   24.7049999         2.93541551E-17
   24.8700008         3.94917663E-17
   25.0349998         4.57762777E-17
   25.2000008         4.53655130E-17
   25.3649998         3.57090562E-17
   25.5300007         1.52076246E-17
   25.6949997        -1.60937269E-17
   25.8600006        -5.59240202E-17
   26.0249996        -9.94852439E-17
   26.1900005        -1.39591705E-16
   26.3549995        -1.67359867E-16
   26.5200005        -1.73468139E-16
   26.6849995        -1.49884478E-16
   26.8500004        -9.18288800E-17
   27.0149994         3.76754894E-19
   27.1800003         1.19981886E-16
   27.3449993         2.53404359E-16
   27.5100002         3.81049921E-16
   27.6749992         4.79465435E-16
   27.8400002         5.24687995E-16
   28.0049992         4.96383436E-16
   28.1700001         3.82139364E-16
   28.3349991         1.81139796E-16
   28.5000000        -9.35466165E-17
   28.6650009        -4.14678823E-16
   28.8299999        -7.42870553E-16
   28.9950008        -1.03085974E-15
   29.1599998        -1.22954138E-15
   29.3250008        -1.29494873E-15
   29.4899998        -1.19516709E-15
   29.6550007        -9.16146918E-16
   29.8199997        -4.65547995E-16
   29.9850006         1.25947288E-16
   30.1499996         8.06048993E-16
   30.3150005         1.50484593E-15
   30.4799995         2.14094205E-15
   30.6450005         2.62918561E-15
   30.8099995         2.88938312E-15
   30.9750004         2.85540757E-15
   31.1399994         2.48408336E-15
   31.3050003         1.76314630E-15
   31.4699993         7.17389843E-16
   31.6350002        -5.88089417E-16
   31.7999992        -2.04873659E-15
   31.9650002        -3.52652194E-15
   32.1300011        -4.86157652E-15
   32.2949982        -5.88906941E-15
   32.4599991        -6.45965113E-15
   32.6250000        -6.46048588E-15
   32.7900009        -5.83292849E-15
   32.9550018        -4.58266805E-15
   33.1199989        -2.77903442E-15
   33.2849998        -5.42190289E-16
   33.4500008         1.98000876E-15
   33.6150017         4.64033575E-15
   33.7799988         7.31769720E-15
   33.9449997         9.93053889E-15
   34.1100006         1.24301077E-14
   34.2750015         1.47696305E-14
   34.4399986         1.68522355E-14
   34.6049995         1.84685844E-14
   34.7700005         1.92428945E-14
   34.9350014         1.86107606E-14
   35.0999985         1.58516660E-14
   35.2649994         1.01919383E-14
   35.4300003         9.79821455E-16
   35.5950012        -1.20846301E-14
   35.7599983        -2.87026703E-14
   35.9249992        -4.77678742E-14
   36.0900002        -6.72582988E-14
   36.2550011        -8.42884925E-14
   36.4199982        -9.53602296E-14
   36.5849991        -9.68172415E-14
   36.7500000        -8.54662139E-14
   36.9150009        -5.92815049E-14
   37.0800018        -1.80748174E-14
   37.2449989         3.60082481E-14
   37.4099998         9.82964049E-14
   37.5750008         1.61803852E-13
   37.7400017         2.17882583E-13
   37.9049988         2.57277218E-13
   38.0699997         2.71463109E-13
   38.2350006         2.54078605E-13
   38.4000015         2.02219833E-13
   38.5649986         1.17362459E-13
   38.7299995         5.71371030E-15
   38.8950005        -1.22121578E-13
   39.0600014        -2.52170599E-13
   39.2249985        -3.68708319E-13
   39.3899994        -4.56245230E-13
   39.5550003        -5.01599305E-13
   39.7200012        -4.95741848E-13
   39.8849983        -4.35135489E-13
   40.0499992        -3.22366455E-13
   40.2150002        -1.65989022E-13
   40.3800011         2.03713745E-14
   40.5449982         2.19490807E-13
   40.7099991         4.12350899E-13
   40.8750000         5.79999861E-13
   41.0400009         7.05221797E-13
   41.2050018         7.73841820E-13
   41.3699989         7.75596005E-13
   41.5349998         7.04608951E-13
   41.7000008         5.59604555E-13
   41.8650017         3.44023041E-13
   42.0299988         6.62024282E-14
   42.1949997        -2.60283060E-13
   42.3600006        -6.16153775E-13
   42.5250015        -9.75980039E-13
   42.6899986        -1.30805111E-12
   42.8549995        -1.57492335E-12
   43.0200005        -1.73503345E-12
   43.1850014        -1.74567966E-12
   43.3499985        -1.56750405E-12
   43.5149994        -1.17034995E-12
   43.6800003        -5.40052540E-13
   43.8450012         3.14605059E-13
   44.0099983         1.35582420E-12
   44.1749992         2.51284887E-12
   44.3400002         3.68139850E-12
   44.5050011         4.72756773E-12
   44.6699982         5.49686381E-12
   44.8349991         5.82846922E-12
   45.0000000         5.57403299E-12
   45.1650009         4.61946410E-12
   45.3300018         2.90741303E-12
   45.4949989         4.57474390E-13
   45.6599998        -2.61913299E-12
   45.8250008        -6.11358186E-12
   45.9900017        -9.72469848E-12
   46.1549988        -1.30769458E-11
   46.3199997        -1.57511226E-11
   46.4850006        -1.73259688E-11
   46.6500015        -1.74271222E-11
   46.8149986        -1.57782971E-11
   46.9799995        -1.22484436E-11
   47.1450005        -6.88837832E-12
   47.3100014         4.91620227E-14
   47.4749985         8.11062589E-12
   47.6399994         1.66662517E-11
   47.8050003         2.49577217E-11
   47.9700012         3.21653329E-11
   48.1349983         3.74883700E-11
   48.2999992         4.02300866E-11
   48.4650002         3.98774729E-11
   48.6300011         3.61660181E-11
   48.7949982         2.91209522E-11
   48.9599991         1.90690675E-11
   49.1250000         6.61875329E-12
   49.2900009        -7.39025421E-12
   49.4550018        -2.19618213E-11
   49.6199989        -3.60343214E-11
   49.7849998        -4.85765143E-11
   49.9500008        -5.86768967E-11
   50.1150017        -6.56159432E-11
   50.2799988        -6.89133611E-11
   50.4449997        -6.83461482E-11
   50.6100006        -6.39376607E-11
   50.7750015        -5.59223397E-11
   50.9399986        -4.46940956E-11
   51.1049995        -3.07488549E-11
   51.2700005        -1.46318669E-11
   51.4350014         3.10077615E-12
   51.5999985         2.19003652E-11
   51.7649994         4.12216129E-11
   51.9300003         6.04995012E-11
   52.0950012         7.91143193E-11
   52.2599983         9.63555069E-11
   52.4249992         1.11396170E-10
   52.5900002         1.23289379E-10
   52.7550011         1.30994438E-10
   52.9199982         1.33436220E-10
   53.0849991         1.29595321E-10
   53.2500000         1.18620627E-10
   53.4150009         9.99513805E-11
   53.5800018         7.34326697E-11
   53.7449989         3.94081295E-11
   53.9099998        -1.22470241E-12
   54.0750008        -4.70060484E-11
   54.2400017        -9.59565621E-11
   54.4049988        -1.45668380E-10
   54.5699997        -1.93435670E-10
   54.7350006        -2.36412195E-10
   54.9000015        -2.71779932E-10
   55.0649986        -2.96914743E-10
   55.2299995        -3.09536702E-10
   55.3950005        -3.07836950E-10
   55.5600014        -2.90578589E-10
   55.7249985        -2.57172728E-10
   55.8899994        -2.07733136E-10
   56.0550003        -1.43114270E-10
   56.2200012        -6.49349671E-11
   56.3849983         2.44133654E-11
   56.5499992         1.21779198E-10
   56.7150002         2.23294286E-10
   56.8800011         3.24459348E-10
   57.0449982         4.20282614E-10
   57.2099991         5.05478770E-10
   57.3750000         5.74727377E-10
   57.5400009         6.22980556E-10
   57.7050018         6.45801412E-10
   57.8699989         6.39702291E-10
   58.0349998         6.02451145E-10
   58.2000008         5.33309896E-10
   58.3650017         4.33176051E-10
   58.5299988         3.04608117E-10
   58.6949997         1.51729046E-10
   58.8600006        -1.99814523E-11
   59.0250015        -2.03981942E-10
   59.1899986        -3.93015065E-10
   59.3549995        -5.79463866E-10
   59.5200005        -7.55679130E-10
   59.6850014        -9.14248510E-10
   59.8499985        -1.04819042E-09
   60.0149994        -1.15107546E-09
   60.1800003        -1.21709443E-09
   60.3450012        -1.24110255E-09
   60.5099983        -1.21868171E-09
   60.6749992        -1.14625620E-09
   60.8400002        -1.02129116E-09
   61.0050011        -8.42583225E-10
   61.1699982        -6.10634154E-10
   61.3349991        -3.28071598E-10
   61.5000000        -6.51786838E-14
   61.6650009         3.65327490E-10
   61.8300018         7.56954277E-10
   61.9949989         1.16056331E-09
   62.1599998         1.55904367E-09
   62.3250008         1.93293559E-09
   62.4900017         2.26120744E-09
   62.6549988         2.52226529E-09
   62.8199997         2.69514766E-09
   62.9850006         2.76083290E-09
   63.1500015         2.70358291E-09
   63.3149986         2.51224352E-09
   63.4799995         2.18141682E-09
   63.6450005         1.71243852E-09
   63.8100014         1.11408716E-09
   63.9749985         4.02963052E-10
   64.1399994        -3.96518068E-10
   64.3050003        -1.25257127E-09
   64.4700012        -2.12696372E-09
   64.6350021        -2.97644021E-09
   64.8000031        -3.75463971E-09
   64.9649963        -4.41447146E-09
   65.1299973        -4.91084862E-09
   65.2949982        -5.20365262E-09
   65.4599991        -5.26073585E-09
   65.6250000        -5.06072917E-09
   65.7900009        -4.59541294E-09
   65.9550018        -3.87139965E-09
   66.1200027        -2.91090108E-09
   66.2850037        -1.75143677E-09
   66.4499969        -4.44396409E-10
   66.6149979         9.47504408E-10
   66.7799988         2.35374187E-09
   66.9449997         3.70023190E-09
   67.1100006         4.91399543E-09
   67.2750015         5.92785421E-09
   67.4400024         6.68478606E-09
   67.6050034         7.14158421E-09
   67.7699966         7.27152782E-09
   67.9349976         7.06587633E-09
   68.0999985         6.53411236E-09
   68.2649994         5.70297365E-09
   68.4300003         4.61442928E-09
   68.5950012         3.32281980E-09
   68.7600021         1.89145322E-09
   68.9250031         3.88938104E-10
   69.0899963        -1.11446652E-09
   69.2549973        -2.55026888E-09
   69.4199982        -3.85477383E-09
   69.5849991        -4.97164354E-09
   69.7500000        -5.85397908E-09
   69.9150009        -6.46594689E-09
   70.0800018        -6.78401157E-09
   70.2450027        -6.79781520E-09
   70.4100037        -6.51074039E-09
   70.5749969        -5.94012217E-09
   70.7399979        -5.11704856E-09
   70.9049988        -4.08566025E-09
   71.0699997        -2.90182478E-09
   71.2350006        -1.63109815E-09
   71.4000015        -3.45911522E-10
   71.5650024         8.77978357E-10
   71.7300034         1.96567851E-09
   71.8949966         2.84775004E-09
   72.0599976         3.46492945E-09
   72.2249985         3.77258491E-09
   72.3899994         3.74455222E-09
   72.5550003         3.37593775E-09
   72.7200012         2.68461986E-09
   72.8850021         1.71124392E-09
   73.0500031         5.17642429E-10
   73.2149963        -8.16222923E-10
   73.3799973        -2.19659180E-09
   73.5449982        -3.52117779E-09
   73.7099991        -4.68497197E-09
   73.8750000        -5.58618707E-09
   74.0400009        -6.13190210E-09
   74.2050018        -6.24312291E-09
   74.3700027        -5.85898308E-09
   74.5350037        -4.93998398E-09
   74.6999969        -3.47025475E-09
   74.8649979        -1.45889956E-09
   75.0299988         1.05944309E-09
   75.1949997         4.02468636E-09
   75.3600006         7.35192618E-09
   75.5250015         1.09325216E-08
   75.6900024         1.46356731E-08
   75.8550034         1.83105300E-08
   76.0199966         2.17890292E-08
   76.1849976         2.48895802E-08
   76.3499985         2.74217928E-08
   76.5149994         2.91923978E-08
   76.6800003         3.00123020E-08
   76.8450012         2.97047613E-08
   77.0100021         2.81143517E-08
   77.1750031         2.51164227E-08
   77.3399963         2.06265103E-08
   77.5049973         1.46091690E-08
   77.6699982         7.08565562E-09
   77.8349991        -1.86010030E-09
   78.0000000        -1.20776109E-08
   78.1650009        -2.33483561E-08
   78.3300018        -3.53868650E-08
   78.4950027        -4.78443773E-08
   78.6600037        -6.03149246E-08
   78.8249969        -7.23436742E-08
   78.9899979        -8.34373850E-08
   79.1549988        -9.30768493E-08
   79.3199997        -1.00731185E-07
   79.4850006        -1.05874086E-07
   79.6500015        -1.08001899E-07
   79.8150024        -1.06653523E-07
   79.9800034        -1.01432072E-07
   80.1449966        -9.20277259E-08
   80.3099976        -7.82411220E-08
   80.4749985        -6.00061938E-08
   80.6399994        -3.74111835E-08
   80.8050003        -1.07160334E-08
   80.9700012         1.96354293E-08
   81.1350021         5.30101474E-08
   81.3000031         8.85886990E-08
   81.4649963         1.25377284E-07
   81.6299973         1.62228915E-07
   81.7949982         1.97873774E-07
   81.9599991         2.30957482E-07
   82.1250000         2.60085869E-07
   82.2900009         2.83874328E-07
   82.4550018         3.00999801E-07
   82.6200027         3.10253171E-07
   82.7850037         3.10590281E-07
   82.9499969         3.01179966E-07
   83.1149979         2.81447598E-07
   83.2799988         2.51113050E-07
   83.4449997         2.10222140E-07
   83.6100006         1.59170142E-07
   83.7750015         9.87162565E-08
   83.9400024         2.99876248E-08
   84.1050034        -4.55288962E-08
   84.2699966        -1.26008359E-07
   84.4349976        -2.09324369E-07
   84.5999985        -2.93101351E-07
   84.7649994        -3.74782246E-07
   84.9300003        -4.51710662E-07
   85.0950012        -5.21224365E-07
   85.2600021        -5.80756762E-07
   85.4250031        -6.27940551E-07
   85.5899963        -6.60707713E-07
   85.7549973        -6.77379148E-07
   85.9199982        -6.76738637E-07
   86.0849991        -6.58083479E-07
   86.2500000        -6.21250138E-07
   86.4150009        -5.66610368E-07
   86.5800018        -4.95039501E-07
   86.7450027        -4.07857016E-07
   86.9100037        -3.06745591E-07
   87.0749969        -1.93653037E-07
   87.2399979        -7.06843792E-08
   87.4049988         6.00087802E-08
   87.5699997         1.96334369E-07
   87.7350006         3.36355527E-07
   87.9000015         4.78371589E-07
   88.0650024         6.20980757E-07
   88.2300034         7.63123012E-07
   88.3949966         9.04104468E-07
   88.5599976         1.04360299E-06
   88.7249985         1.18165781E-06
   88.8899994         1.31864601E-06
   89.0550003         1.45524643E-06
   89.2200012         1.59239460E-06
   89.3850021         1.73122862E-06
   89.5500031         1.87302658E-06
   89.7149963         2.01913667E-06
   89.8799973         2.17090178E-06
   90.0449982         2.32957609E-06
   90.2099991         2.49624100E-06
   90.3750000         2.67171959E-06
   90.5400009         2.85649503E-06
   90.7050018         3.05063895E-06
   90.8700027         3.25375072E-06
   91.0350037         3.46492061E-06
   91.1999969         3.68271276E-06
   91.3649979         3.90517926E-06
   91.5299988         4.12989903E-06
   91.6949997         4.35404854E-06
   91.8600006         4.57449414E-06
   92.0250015         4.78791435E-06
   92.1900024         4.99092948E-06
   92.3550034         5.18024535E-06
   92.5199966         5.35279605E-06
   92.6849976         5.50588311E-06
   92.8499985         5.63729918E-06
   93.0149994         5.74543492E-06
   93.1800003         5.82936127E-06
   93.3450012         5.88889043E-06
   93.5100021         5.92460128E-06
   93.6750031         5.93783807E-06
   93.8399963         5.93068262E-06
   94.0049973         5.90589480E-06
   94.1699982         5.86682745E-06
   94.3349991         5.81732274E-06
   94.5000000         5.76158391E-06
   94.6650009         5.70403290E-06
   94.8300018         5.64915672E-06
   94.9950027         5.60134640E-06
   95.1600037         5.56473560E-06
   95.3249969         5.54304916E-06
   95.4899979         5.53946165E-06
   95.6549988         5.55647421E-06
   95.8199997         5.59581758E-06
   95.9850006         5.65838127E-06
   96.1500015         5.74417618E-06
   96.3150024         5.85233693E-06
   96.4800034         5.98115412E-06
   96.6449966         6.12814074E-06
   96.8099976         6.29013311E-06
   96.9749985         6.46341505E-06
   97.1399994         6.64386016E-06
   97.3050003         6.82708605E-06
   97.4700012         7.00861938E-06
   97.6350021         7.18405499E-06
   97.8000031         7.34921059E-06
   97.9649963         7.50026538E-06
   98.1299973         7.63387561E-06
   98.2949982         7.74727050E-06
   98.4599991         7.83832547E-06
   98.6250000         7.90560352E-06
   98.7900009         7.94838161E-06
   98.9550018         7.96663699E-06
   99.1200027         7.96101904E-06
   99.2850037         7.93278650E-06
   99.4499969         7.88373200E-06
   99.6149979         7.81608014E-06
   99.7799988         7.73237662E-06
   99.9449997         7.63535445E-06
   100.110001         7.52779852E-06
   100.275002         7.41240638E-06
   100.440002         7.29165686E-06
   100.605003         7.16768909E-06
   100.769997         7.04221065E-06
   100.934998         6.91642890E-06
   101.099998         6.79102368E-06
   101.264999         6.66616279E-06
   101.430000         6.54155929E-06
   101.595001         6.41656470E-06
   101.760002         6.29030092E-06
   101.925003         6.16181114E-06
   102.089996         6.03022863E-06
   102.254997         5.89493766E-06
   102.419998         5.75571175E-06
   102.584999         5.61283014E-06
   102.750000         5.46713954E-06
   102.915001         5.32007289E-06
   103.080002         5.17361013E-06
   103.245003         5.03019328E-06
   103.410004         4.89258491E-06
   103.574997         4.76370406E-06
   103.739998         4.64642699E-06
   103.904999         4.54338806E-06
   104.070000         4.45678234E-06
   104.235001         4.38818734E-06
   104.400002         4.33842251E-06
   104.565002         4.30743648E-06
   104.730003         4.29423972E-06
   104.894997         4.29687907E-06
   105.059998         4.31245462E-06
   105.224998         4.33717832E-06
   105.389999         4.36645314E-06
   105.555000         4.39499217E-06
   105.720001         4.41694783E-06
   105.885002         4.42606097E-06
   106.050003         4.41582051E-06
   106.214996         4.37963308E-06
   106.379997         4.31100352E-06
   106.544998         4.20373135E-06
   106.709999         4.05210176E-06
   106.875000         3.85108933E-06
   107.040001         3.59656133E-06
   107.205002         3.28546571E-06
   107.370003         2.91601395E-06
   107.535004         2.48783249E-06
   107.699997         2.00208433E-06
   107.864998         1.46153502E-06
   108.029999         8.70568158E-07
   108.195000         2.35123764E-07
   108.360001        -4.37420312E-07
   108.525002        -1.13845010E-06
   108.690002        -1.85836791E-06
   108.855003        -2.58690602E-06
   109.019997        -3.31347042E-06
   109.184998        -4.02751948E-06
   109.349998        -4.71893281E-06
   109.514999        -5.37836104E-06
   109.680000        -5.99754094E-06
   109.845001        -6.56954353E-06
   110.010002        -7.08895459E-06
   110.175003        -7.55196925E-06
   110.339996        -7.95640699E-06
   110.504997        -8.30164390E-06
   110.669998        -8.58846488E-06
   110.834999        -8.81886535E-06
   111.000000        -8.99579754E-06
   111.165001        -9.12290670E-06
   111.330002        -9.20425737E-06
   111.495003        -9.24409687E-06
   111.660004        -9.24665710E-06
   111.824997        -9.21601531E-06
   111.989998        -9.15603050E-06
   112.154999        -9.07034882E-06
   112.320000        -8.96247911E-06
   112.485001        -8.83593111E-06
   112.650002        -8.69439646E-06
   112.815002        -8.54195059E-06
   112.980003        -8.38324831E-06
   113.144997        -8.22369839E-06
   113.309998        -8.06957269E-06
   113.474998        -7.92803803E-06
   113.639999        -7.80710343E-06
   113.805000        -7.71546911E-06
   113.970001        -7.66227458E-06
   114.135002        -7.65676123E-06
   114.300003        -7.70785209E-06
   114.464996        -7.82368079E-06
   114.629997        -8.01109582E-06
   114.794998        -8.27515305E-06
   114.959999        -8.61866101E-06
   115.125000        -9.04178160E-06
   115.290001        -9.54172901E-06
   115.455002        -1.01125815E-05
   115.620003        -1.07452215E-05
   115.785004        -1.14274171E-05
   115.949997        -1.21440444E-05
   116.114998        -1.28774500E-05
   116.279999        -1.36079416E-05
   116.445000        -1.43143789E-05
   116.610001        -1.49748339E-05
   116.775002        -1.55673188E-05
   116.940002        -1.60705331E-05
   117.105003        -1.64646153E-05
   117.269997        -1.67318594E-05
   117.434998        -1.68574097E-05
   117.599998        -1.68298775E-05
   117.764999        -1.66418631E-05
   117.930000        -1.62903962E-05
   118.095001        -1.57772392E-05
   118.260002        -1.51090608E-05
   118.425003        -1.42974586E-05
   118.589996        -1.33588028E-05
   118.754997        -1.23138934E-05
   118.919998        -1.11874269E-05
   119.084999        -1.00072521E-05
   119.250000        -8.80345397E-06
   119.415001        -7.60726152E-06
   119.580002        -6.44984175E-06
   119.745003        -5.36102243E-06
   119.910004        -4.36800838E-06
   120.074997        -3.49416223E-06
   120.239998        -2.75793718E-06
   120.404999        -2.17201796E-06
   120.570000        -1.74273816E-06
   120.735001        -1.46981984E-06
   120.900002        -1.34645177E-06
   121.065002        -1.35971732E-06
   121.230003        -1.49132939E-06
   121.394997        -1.71863644E-06
   121.559998        -2.01582247E-06
   121.724998        -2.35522884E-06
   121.889999        -2.70871169E-06
   122.055000        -3.04894547E-06
   122.220001        -3.35060486E-06
   122.385002        -3.59136425E-06
   122.550003        -3.75267041E-06
   122.714996        -3.82027338E-06
   122.879997        -3.78450864E-06
   123.044998        -3.64034054E-06
   123.209999        -3.38720520E-06
   123.375000        -3.02867647E-06
   123.540001        -2.57200077E-06
   123.705002        -2.02752494E-06
   123.870003        -1.40805707E-06
   124.035004        -7.28191537E-07
   124.199997        -3.61328545E-09
   124.364998         7.49596722E-07
   124.529999         1.51562949E-06
   124.695000         2.27958276E-06
   124.860001         3.02802960E-06
   125.025002         3.74949991E-06
   125.190002         4.43484896E-06
   125.355003         5.07749382E-06
   125.519997         5.67348934E-06
   125.684998         6.22143398E-06
   125.849998         6.72220585E-06
   126.014999         7.17854255E-06
   126.180000         7.59449040E-06
   126.345001         7.97476241E-06
   126.510002         8.32406567E-06
   126.675003         8.64644517E-06
   126.839996         8.94472578E-06
   127.004997         9.22008439E-06
   127.169998         9.47181252E-06
   127.334999         9.69729990E-06
   127.500000         9.89224100E-06
   127.665001         1.00510533E-05
   127.830002         1.01674868E-05
   127.995003         1.02353497E-05
   128.160004         1.02493213E-05
   128.324997         1.02057484E-05
   128.490005         1.01033702E-05
   128.654999         9.94387938E-06
   128.820007         9.73229544E-06
   128.985001         9.47707849E-06
   129.149994         9.18996739E-06
   129.315002         8.88554678E-06
   129.479996         8.58055591E-06
   129.645004         8.29299370E-06
   129.809998         8.04105457E-06
   129.975006         7.84198983E-06
   130.139999         7.71093710E-06
   130.304993         7.65982259E-06
   130.470001         7.69639064E-06
   130.634995         7.82342977E-06