  -2.84999990         0.00000000    
  -2.68499994         0.00000000    
  -2.51999998         0.00000000    
  -2.35500002         0.00000000    
  -2.19000006         0.00000000    
  -2.02500010         0.00000000    
  -1.86000001         0.00000000    
  -1.69500005         0.00000000    
  -1.52999997         0.00000000    
  -1.36500001         0.00000000    
  -1.20000005         0.00000000    
  -1.03499997         0.00000000    
 -0.870000005         0.00000000    
 -0.704999983         0.00000000    
 -0.540000021         0.00000000    
 -0.375000000         0.00000000    
 -0.209999993         0.00000000    
  -4.50000018E-02     0.00000000    
  0.119999997         0.00000000    
  0.284999996         0.00000000    
  0.449999988         0.00000000    
  0.615000010         0.00000000    
  0.779999971         0.00000000    
  0.944999993         0.00000000    
   1.11000001         0.00000000    
   1.27499998         0.00000000    
   1.44000006         0.00000000    
   1.60500002         0.00000000    
   1.76999998         0.00000000    
   1.93499994         0.00000000    
   2.09999990         0.00000000    
   2.26500010         0.00000000    
   2.43000007         0.00000000    
   2.59500003         0.00000000    
   2.75999999         0.00000000    
   2.92499995         0.00000000    
   3.08999991         0.00000000    
   3.25500011         0.00000000    
   3.42000008         0.00000000    
   3.58500004         0.00000000    
   3.75000000         0.00000000    
   3.91499996         0.00000000    
   4.07999992         0.00000000    
   4.24499989         0.00000000    
   4.40999985         0.00000000    
   4.57499981         0.00000000    
   4.73999977         0.00000000    
   4.90500021         0.00000000    
   5.07000017         0.00000000    
   5.23500013         0.00000000    
   5.40000010         1.91313611E-34
   5.56500006         2.74871503E-35
   5.73000002        -4.11425548E-35
   5.89499998         4.46939556E-33
   6.05999994         1.22649134E-32
   6.22499990         7.37326554E-33
   6.38999987        -1.97676199E-32
   6.55499983        -4.99555065E-32
   6.71999979        -7.78000995E-32
   6.88500023        -3.61362509E-32
   7.05000019         1.89137085E-32
   7.21500015         7.00693316E-32
   7.38000011         1.36047602E-31
   7.54500008         2.28399587E-31
   7.71000004         2.47082541E-31
   7.87500000         2.32656875E-31
   8.03999996         2.01024980E-31
   8.20499992        -3.05658389E-31
   8.36999989        -1.01174611E-30
   8.53499985        -1.63594621E-30
   8.69999981        -2.12339080E-30
   8.86499977        -2.12958519E-30
   9.02999973        -1.57934080E-30
   9.19499969        -2.88605285E-30
   9.35999966        -4.76564932E-30
   9.52499962         2.24605806E-30
   9.68999958         1.66349385E-29
   9.85499954         4.25976162E-29
   10.0200005         8.99032343E-29
   10.1850004         1.67963047E-28
   10.3500004         2.55618161E-28
   10.5150003         2.75389565E-28
   10.6800003         1.08527874E-28
   10.8450003        -3.44809181E-28
   11.0100002        -1.15523114E-27
   11.1750002        -2.25545482E-27
   11.3400002        -3.39296009E-27
   11.5050001        -4.10641429E-27
   11.6700001        -3.78938696E-27
   11.8350000        -1.83031253E-27
   12.0000000         2.17880339E-27
   12.1650000         8.19065110E-27
   12.3299999         1.54828882E-26
   12.4949999         2.25130364E-26
   12.6599998         2.69342689E-26
   12.8249998         2.58281719E-26
   12.9899998         1.62121563E-26
   13.1549997        -4.10605491E-27
   13.3199997        -3.53677590E-26
   13.4849997        -7.45174589E-26
   13.6499996        -1.14007201E-25
   13.8149996        -1.41305277E-25
   13.9799995        -1.39821170E-25
   14.1450005        -9.19124520E-26
   14.3100004         1.57296630E-26
   14.4750004         1.84757128E-25
   14.6400003         3.97346502E-25
   14.8050003         6.10326941E-25
   14.9700003         7.54318412E-25
   15.1350002         7.40801970E-25
   15.3000002         4.78925295E-25
   15.4650002        -9.82455137E-26
   15.6300001        -1.00103244E-24
   15.7950001        -2.14981695E-24
   15.9600000        -3.34918313E-24
   16.1250000        -4.27893183E-24
   16.2900009        -4.51144306E-24
   16.4549999        -3.56355529E-24
   16.6200008        -9.88362448E-25
   16.7849998         3.49244776E-24
   16.9500008         9.82269404E-24
   17.1149998         1.74307731E-23
   17.2800007         2.50679801E-23
   17.4449997         3.07192124E-23
   17.6100006         3.16564706E-23
   17.7749996         2.47139835E-23
   17.9400005         6.85185334E-24
   18.1049995        -2.39663343E-23
   18.2700005        -6.76350281E-23
   18.4349995        -1.20670273E-22
   18.6000004        -1.75162525E-22
   18.7649994        -2.18310654E-22
   18.9300003        -2.32970795E-22
   19.0949993        -1.99592373E-22
   19.2600002        -9.97210682E-23
   19.4249992         7.90685383E-23
   19.5900002         3.37345221E-22
   19.7549992         6.58037929E-22
   19.9200001         1.00195140E-21
   20.0849991         1.30597995E-21
   20.2500000         1.48535112E-21
   20.4150009         1.44094540E-21
   20.5799999         1.07227770E-21
   20.7450008         2.96134724E-22
   20.9099998        -9.29871572E-22
   21.0750008        -2.58050362E-21
   21.2399998        -4.53574513E-21
   21.4050007        -6.55782085E-21
   21.5699997        -8.27883070E-21
   21.7350006        -9.20728924E-21
   21.8999996        -8.76289372E-21
   22.0650005        -6.34806877E-21
   22.2299995        -1.46110287E-21
   22.3950005         6.15166022E-21
   22.5599995         1.63180359E-20
   22.7250004         2.82632881E-20
   22.8899994         4.04742899E-20
   23.0550003         5.06535583E-20
   23.2199993         5.58144190E-20
   23.3850002         5.25599382E-20
   23.5499992         3.75681007E-20
   23.7150002         8.27409460E-21
   23.8799992        -3.62994673E-20
   24.0450001        -9.46583165E-20
   24.2099991        -1.62036294E-19
   24.3750000        -2.29855579E-19
   24.5400009        -2.85651082E-19
   24.7049999        -3.13670223E-19
   24.8700008        -2.96339548E-19
   25.0349998        -2.16724099E-19
   25.2000008        -6.19812572E-20
   25.3649998         1.72382979E-19
   25.5300007         4.77918281E-19
   25.6949997         8.29071858E-19
   25.8600006         1.18055331E-18
   26.0249996         1.46751756E-18
   26.1900005         1.60984857E-18
   26.3549995         1.52148397E-18
   26.5200005         1.12496605E-18
   26.6849995         3.70250049E-19
   26.8500004        -7.44625816E-19
   27.0149994        -2.15481873E-18
   27.1800003        -3.71674459E-18
   27.3449993        -5.20796801E-18
   27.5100002        -6.34298555E-18
   27.6749992        -6.80667529E-18
   27.8400002        -6.30373665E-18
   28.0049992        -4.61837022E-18
   28.1700001        -1.67466489E-18
   28.3349991         2.41433445E-18
   28.5000000         7.32109022E-18
   28.6650009         1.25111365E-17
   28.8299999         1.72878945E-17
   28.9950008         2.08715949E-17
   29.1599998         2.25015427E-17
   29.3250008         2.15451698E-17
   29.4899998         1.75949704E-17
   29.6550007         1.05370551E-17
   29.8199997         5.82142987E-19
   29.9850006        -1.17400346E-17
   30.1499996        -2.56116922E-17
   30.3150005        -3.99655986E-17
   30.4799995        -5.35140792E-17
   30.6450005        -6.47601488E-17
   30.8099995        -7.19990644E-17
   30.9750004        -7.33386272E-17
   31.1399994        -6.67831745E-17
   31.3050003        -5.04312101E-17
   31.4699993        -2.28233524E-17
   31.6350002         1.65577124E-17
   31.7999992         6.66871554E-17
   31.9650002         1.24412345E-16
   32.1300011         1.84050466E-16
   32.2949982         2.37365896E-16
   32.4599991         2.74104467E-16
   32.6250000         2.83187228E-16
   32.7900009         2.54535068E-16
   32.9550018         1.81327334E-16
   33.1199989         6.23273577E-17
   33.2849998        -9.62259604E-17
   33.4500008        -2.79705605E-16
   33.6150017        -4.65633599E-16
   33.7799988        -6.25928549E-16
   33.9449997        -7.30801022E-16
   34.1100006        -7.53842329E-16
   34.2750015        -6.77484797E-16
   34.4399986        -4.97749912E-16
   34.6049995        -2.27140567E-16
   34.7700005         1.05269910E-16
   34.9350014         4.57046220E-16
   35.0999985         7.78734245E-16
   35.2649994         1.02243653E-15
   35.4300003         1.15106494E-15
   35.5950012         1.14631086E-15
   35.7599983         1.01336629E-15
   35.9249992         7.80891585E-16
   36.0900002         4.95619783E-16
   36.2550011         2.12171999E-16
   36.4199982        -2.00947896E-17
   36.5849991        -1.70395593E-16
   36.7500000        -2.36679323E-16
   36.9150009        -2.49594060E-16
   37.0800018        -2.68221982E-16
   37.2449989        -3.67235687E-16
   37.4099998        -6.17167581E-16
   37.5750008        -1.06145235E-15
   37.7400017        -1.69532067E-15
   37.9049988        -2.45206446E-15
   38.0699997        -3.20141629E-15
   38.2350006        -3.76278886E-15
   38.4000015        -3.93318690E-15
   38.5649986        -3.52629112E-15
   38.7299995        -2.41620066E-15
   38.8950005        -5.77346286E-16
   39.0600014         1.88831088E-15
   39.2249985         4.74419935E-15
   39.3899994         7.63639504E-15
   39.5550003         1.01350160E-14
   39.7200012         1.17947712E-14
   39.8849983         1.22255196E-14
   40.0499992         1.11610668E-14
   40.2150002         8.51399910E-15
   40.3800011         4.40629334E-15
   40.5449982        -8.30499023E-16
   40.7099991        -6.68636967E-15
   40.8750000        -1.25306065E-14
   41.0400009        -1.76869322E-14
   41.2050018        -2.15141557E-14
   41.3699989        -2.34802530E-14
   41.5349998        -2.32201055E-14
   41.7000008        -2.05711184E-14
   41.8650017        -1.55858569E-14
   42.0299988        -8.52504187E-15
   42.1949997         1.62959623E-16
   42.3600006         9.86965670E-15
   42.5250015         1.98563496E-14
   42.6899986         2.92853544E-14
   42.8549995         3.72554533E-14
   43.0200005         4.28474327E-14
   43.1850014         4.51860331E-14
   43.3499985         4.35223553E-14
   43.5149994         3.73349524E-14
   43.6800003         2.64407162E-14
   43.8450012         1.10987701E-14
   44.0099983        -7.91439549E-15
   44.1749992        -2.92816308E-14
   44.3400002        -5.11923945E-14
   44.5050011        -7.14691571E-14
   44.6699982        -8.77676770E-14
   44.8349991        -9.78304623E-14
   45.0000000        -9.97598813E-14
   45.1650009        -9.22695825E-14
   45.3300018        -7.48741618E-14
   45.4949989        -4.79865815E-14
   45.6599998        -1.29103796E-14
   45.8250008         2.82656741E-14
   45.9900017         7.28425905E-14
   46.1549988         1.17714906E-13
   46.3199997         1.59560895E-13
   46.4850006         1.94986849E-13
   46.6500015         2.20616128E-13
   46.8149986         2.33141685E-13
   46.9799995         2.29387581E-13
   47.1450005         2.06442339E-13
   47.3100014         1.61923792E-13
   47.4749985         9.44119999E-14
   47.6399994         4.04021756E-15
   47.8050003        -1.06825369E-13
   47.9700012        -2.32947071E-13
   48.1349983        -3.65793794E-13
   48.2999992        -4.93525143E-13
   48.4650002        -6.01541657E-13
   48.6300011        -6.73685174E-13
   48.7949982        -6.94058851E-13
   48.9599991        -6.49298486E-13
   49.1250000        -5.30997880E-13
   49.2900009        -3.37894670E-13
   49.4550018        -7.73945320E-14
   49.6199989         2.33939685E-13
   49.7849998         5.71171365E-13
   49.9500008         9.03084519E-13
   50.1150017         1.19539339E-12
   50.2799988         1.41465463E-12
   50.4449997         1.53230879E-12
   50.6100006         1.52822470E-12
   50.7750015         1.39318418E-12
   50.9399986         1.12992612E-12
   51.1049995         7.52640571E-13
   51.2700005         2.85095298E-13
   51.4350014        -2.42158588E-13
   51.5999985        -7.94898327E-13
   51.7649994        -1.33803656E-12
   51.9300003        -1.83763855E-12
   52.0950012        -2.26193738E-12
   52.2599983        -2.58146044E-12
   52.4249992        -2.76870389E-12
   52.5900002        -2.79799794E-12
   52.7550011        -2.64623761E-12
   52.9199982        -2.29497779E-12
   53.0849991        -1.73402774E-12
   53.2500000        -9.66186549E-13
   53.4150009        -1.22806538E-14
   53.5800018         1.08471370E-12
   53.7449989         2.25780982E-12
   53.9099998         3.41758306E-12
   54.0750008         4.45785206E-12
   54.2400017         5.26542221E-12
   54.4049988         5.73298874E-12
   54.5699997         5.77352836E-12
   54.7350006         5.33398933E-12
   54.9000015         4.40593092E-12
   55.0649986         3.03109469E-12
   55.2299995         1.30059808E-12
   55.3950005        -6.52513688E-13
   55.5600014        -2.66652282E-12
   55.7249985        -4.56826937E-12
   55.8899994        -6.19187037E-12
   56.0550003        -7.39625201E-12
   56.2200012        -8.07913632E-12
   56.3849983        -8.18585564E-12
   56.5499992        -7.71232297E-12
   56.7150002        -6.70249359E-12
   56.8800011        -5.24143663E-12
   57.0449982        -3.44555049E-12
   57.2099991        -1.45149127E-12
   57.3750000         5.94992697E-13
   57.5400009         2.54965146E-12
   57.7050018         4.27962396E-12
   57.8699989         5.67281291E-12
   58.0349998         6.64691175E-12
   58.2000008         7.15781991E-12
   58.3650017         7.20660207E-12
   58.5299988         6.84342080E-12
   58.6949997         6.16654037E-12
   58.8600006         5.31457474E-12
   59.0250015         4.45093094E-12
   59.1899986         3.74077592E-12
   59.3549995         3.32261866E-12
   59.5200005         3.27841790E-12
   59.6850014         3.60745787E-12
   59.8499985         4.20971591E-12
   60.0149994         4.88379562E-12
   60.1800003         5.34258575E-12
   60.3450012         5.24698297E-12
   60.5099983         4.25462790E-12
   60.6749992         2.07745626E-12
   60.8400002        -1.46046489E-12
   61.0050011        -6.37425442E-12
   61.1699982        -1.24873081E-11
   61.3349991        -1.94242487E-11
   61.5000000        -2.66301547E-11
   61.6650009        -3.34141430E-11
   61.8300018        -3.90115371E-11
   61.9949989        -4.26560037E-11
   62.1599998        -4.36520126E-11
   62.3250008        -4.14389321E-11
   62.4900017        -3.56406189E-11
   62.6549988        -2.60979641E-11
   62.8199997        -1.28858235E-11
   62.9850006         3.68152384E-12
   63.1500015         2.30507818E-11
   63.3149986         4.44310873E-11
   63.4799995         6.67945560E-11
   63.6450005         8.88780438E-11
   63.8100014         1.09192620E-10
   63.9749985         1.26051017E-10
   64.1399994         1.37624495E-10
   64.3050003         1.42039033E-10
   64.4700012         1.37516068E-10
   64.6350021         1.22554980E-10
   64.8000031         9.61455915E-11
   64.9649963         5.79890823E-11
   65.1299973         8.69842046E-12
   65.2949982        -5.00546098E-11
   65.4599991        -1.15477586E-10
   65.6250000        -1.83706481E-10
   65.7900009        -2.49979260E-10
   65.9550018        -3.08932963E-10
   66.1200027        -3.55006247E-10
   66.2850037        -3.82913562E-10
   66.4499969        -3.88145405E-10
   66.6149979        -3.67441688E-10
   66.7799988        -3.19186816E-10
   66.9449997        -2.43680937E-10
   67.1100006        -1.43256615E-10
   67.2750015        -2.22266528E-11
   67.4400024         1.13331844E-10
   67.6050034         2.55935106E-10
   67.7699966         3.97155947E-10
   67.9349976         5.28149802E-10
   68.0999985         6.40198450E-10
   68.2649994         7.25232430E-10
   68.4300003         7.76301079E-10
   68.5950012         7.87971133E-10
   68.7600021         7.56645802E-10
   68.9250031         6.80803247E-10
   69.0899963         5.61158064E-10
   69.2549973         4.00748212E-10
   69.4199982         2.04943396E-10
   69.5849991        -1.86329441E-11
   69.7500000        -2.60284960E-10
   69.9150009        -5.08546483E-10
   70.0800018        -7.50619567E-10
   70.2450027        -9.72955272E-10
   70.4100037        -1.16196563E-09
   70.5749969        -1.30483724E-09
   70.7399979        -1.39039535E-09
   70.9049988        -1.40994849E-09
   71.0699997        -1.35803557E-09
   71.2350006        -1.23299349E-09
   71.4000015        -1.03727926E-09
   71.5650024        -7.77498121E-10
   71.7300034        -4.64124600E-10
   71.8949966        -1.10934970E-10
   72.0599976         2.65796274E-10
   72.2249985         6.48254950E-10
   72.3899994         1.01811204E-09
   72.5550003         1.35751776E-09
   72.7200012         1.64998870E-09
   72.8850021         1.88113147E-09
   73.0500031         2.03917905E-09
   73.2149963         2.11534901E-09
   73.3799973         2.10404916E-09
   73.5449982         2.00298200E-09
   73.7099991         1.81318693E-09
   73.8750000         1.53905477E-09
   74.0400009         1.18832133E-09
   74.2050018         7.72026221E-10
   74.3700027         3.04393011E-10
   74.5350037        -1.97420136E-10
   74.6999969        -7.13755832E-10
   74.8649979        -1.22311539E-09
   75.0299988        -1.70304804E-09
   75.1949997        -2.13124163E-09
   75.3600006        -2.48674570E-09
   75.5250015        -2.75122236E-09
   75.6900024        -2.91010283E-09
   75.8550034        -2.95352964E-09
   76.0199966        -2.87697799E-09
   76.1849976        -2.68149836E-09
   76.3499985        -2.37356201E-09
   76.5149994        -1.96454897E-09
   76.6800003        -1.46996348E-09
   76.8450012        -9.08488451E-10
   77.0100021        -3.01000141E-10
   77.1750031         3.30351357E-10
   77.3399963         9.62922297E-10
   77.5049973         1.57419278E-09
   77.6699982         2.14224172E-09
   77.8349991         2.64614641E-09
   78.0000000         3.06638892E-09
   78.1650009         3.38535244E-09
   78.3300018         3.58796948E-09
   78.4950027         3.66252695E-09
   78.6600037         3.60158414E-09
   78.8249969         3.40290063E-09
   78.9899979         3.07022496E-09
   79.1549988         2.61377875E-09
   79.3199997         2.05028372E-09
   79.4850006         1.40242362E-09
   79.6500015         6.97705338E-10
   79.8150024        -3.32264563E-11
   79.9800034        -7.58679286E-10
   80.1449966        -1.44819001E-09
   80.3099976        -2.07472528E-09
   80.4749985        -2.61653543E-09
   80.6399994        -3.05843062E-09
   80.8050003        -3.39231709E-09
   80.9700012        -3.61693386E-09
   81.1350021        -3.73685172E-09
   81.3000031        -3.76087961E-09
   81.4649963        -3.70013087E-09
   81.6299973        -3.56602192E-09
   81.7949982        -3.36848549E-09
   81.9599991        -3.11463877E-09
   82.1250000        -2.80806178E-09
   82.2900009        -2.44875187E-09
   82.4550018        -2.03371764E-09
   82.6200027        -1.55809288E-09
   82.7850037        -1.01659736E-09
   82.9499969        -4.05140727E-10
   83.1149979         2.77614459E-10
   83.2799988         1.02888364E-09
   83.4449997         1.84067916E-09
   83.6100006         2.69906786E-09
   83.7750015         3.58376684E-09
   83.9400024         4.46806725E-09
   84.1050034         5.31907585E-09
   84.2699966         6.09828632E-09
   84.4349976         6.76253142E-09
   84.5999985         7.26538119E-09
   84.7649994         7.55908491E-09
   84.9300003         7.59710961E-09
   85.0950012         7.33728189E-09
   85.2600021         6.74546552E-09
   85.4250031         5.79957060E-09
   85.5899963         4.49360416E-09
   85.7549973         2.84135648E-09
   85.9199982         8.79271767E-10
   86.0849991        -1.33195766E-09
   86.2500000        -3.70747988E-09
   86.4150009        -6.14033135E-09
   86.5800018        -8.50555715E-09
   86.7450027        -1.06663105E-08
   86.9100037        -1.24816326E-08
   87.0749969        -1.38154173E-08
   87.2399979        -1.45459476E-08
   87.4049988        -1.45752672E-08
   87.5699997        -1.38376794E-08
   87.7350006        -1.23066961E-08
   87.9000015        -9.99988181E-09
   88.0650024        -6.98119251E-09
   88.2300034        -3.36058514E-09
   88.3949966         7.09160619E-10
   88.5599976         5.03827957E-09
   88.7249985         9.40826439E-09
   88.8899994         1.35821185E-08
   89.0550003         1.73161716E-08
   89.2200012         2.03728749E-08
   89.3850021         2.25339818E-08
   89.5500031         2.36134508E-08
   89.7149963         2.34693864E-08
   89.8799973         2.20143228E-08
   90.0449982         1.92232026E-08
   90.2099991         1.51384558E-08
   90.3750000         9.87173721E-09
   90.5400009         3.60203956E-09
   90.7050018        -3.42988726E-09
   90.8700027        -1.09305915E-08
   91.0350037        -1.85660376E-08
   91.1999969        -2.59761155E-08
   91.3649979        -3.27907230E-08
   91.5299988        -3.86465153E-08
   91.6949997        -4.32034355E-08
   91.8600006        -4.61601175E-08
   92.0250015        -4.72676298E-08
   92.1900024        -4.63409435E-08
   92.3550034        -4.32679101E-08
   92.5199966        -3.80156884E-08
   92.6849976        -3.06345314E-08
   92.8499985        -2.12591029E-08
   93.0149994        -1.01073718E-08
   93.1800003         2.52289722E-09
   93.3450012         1.62600848E-08
   93.5100021         3.06671701E-08
   93.6750031         4.52527829E-08
   93.8399963         5.94847975E-08
   94.0049973         7.28064364E-08
   94.1699982         8.46543742E-08
   94.3349991         9.44784091E-08
   94.5000000         1.01761756E-07
   94.6650009         1.06041142E-07
   94.8300018         1.06925548E-07
   94.9950027         1.04112750E-07
   95.1600037         9.74028609E-08
   95.3249969         8.67083543E-08
   95.4899979         7.20603808E-08
   95.6549988         5.36114584E-08
   95.8199997         3.16347872E-08
   95.9850006         6.52059917E-09
   96.1500015        -2.12302904E-08
   96.3150024        -5.10155260E-08
   96.4800034        -8.21431527E-08
   96.6449966        -1.13846859E-07
   96.8099976        -1.45305350E-07
   96.9749985        -1.75666315E-07
   97.1399994        -2.04075874E-07
   97.3050003        -2.29713237E-07
   97.4700012        -2.51830130E-07
   97.6350021        -2.69793702E-07
   97.8000031        -2.83130447E-07
   97.9649963        -2.91568199E-07
   98.1299973        -2.95072937E-07
   98.2949982        -2.93876411E-07
   98.4599991        -2.88491719E-07
   98.6250000        -2.79714186E-07
   98.7900009        -2.68606101E-07
   98.9550018        -2.56465569E-07
   99.1200027        -2.44781035E-07
   99.2850037        -2.35174099E-07
   99.4499969        -2.29335001E-07
   99.6149979        -2.28954860E-07
   99.7799988        -2.35659869E-07
   99.9449997        -2.50951103E-07
   100.110001        -2.76153401E-07
   100.275002        -3.12375676E-07
   100.440002        -3.60483085E-07
   100.605003        -4.21081381E-07
   100.769997        -4.94511369E-07
   100.934998        -5.80852884E-07
   101.099998        -6.79935397E-07
   101.264999        -7.91354807E-07
   101.430000        -9.14494876E-07
   101.595001        -1.04855314E-06
   101.760002        -1.19257209E-06
   101.925003        -1.34547508E-06
   102.089996        -1.50610890E-06
   102.254997        -1.67329040E-06
   102.419998        -1.84585906E-06
   102.584999        -2.02273077E-06
   102.750000        -2.20295146E-06
   102.915001        -2.38574307E-06
   103.080002        -2.57054421E-06
   103.245003        -2.75703223E-06
   103.410004        -2.94513097E-06
   103.574997        -3.13499731E-06
   103.739998        -3.32699051E-06
   103.904999        -3.52162056E-06
   104.070000        -3.71948749E-06
   104.235001        -3.92120774E-06
   104.400002        -4.12734198E-06
   104.565002        -4.33832565E-06
   104.730003        -4.55440977E-06
   104.894997        -4.77561753E-06
   105.059998        -5.00171564E-06
   105.224998        -5.23220660E-06
   105.389999        -5.46633601E-06
   105.555000        -5.70311340E-06
   105.720001        -5.94134463E-06
   105.885002        -6.17966953E-06
   106.050003        -6.41660563E-06
   106.214996        -6.65058406E-06
   106.379997        -6.87999182E-06
   106.544998        -7.10320319E-06
   106.709999        -7.31861383E-06
   106.875000        -7.52467122E-06
   107.040001        -7.71990381E-06
   107.205002        -7.90295235E-06
   107.370003        -8.07260130E-06
   107.535004        -8.22781567E-06
   107.699997        -8.36776962E-06
   107.864998        -8.49188655E-06
   108.029999        -8.59986631E-06
   108.195000        -8.69170799E-06
   108.360001        -8.76772447E-06
   108.525002        -8.82855056E-06
   108.690002        -8.87512761E-06
   108.855003        -8.90868887E-06
   109.019997        -8.93072411E-06
   109.184998        -8.94293407E-06
   109.349998        -8.94718414E-06
   109.514999        -8.94544610E-06
   109.680000        -8.93974811E-06
   109.845001        -8.93212291E-06
   110.010002        -8.92456319E-06
   110.175003        -8.91898344E-06
   110.339996        -8.91719537E-06
   110.504997        -8.92088610E-06
   110.669998        -8.93160268E-06
   110.834999        -8.95074390E-06
   111.000000        -8.97954487E-06
   111.165001        -9.01906878E-06
   111.330002        -9.07018602E-06
   111.495003        -9.13355052E-06
   111.660004        -9.20958428E-06
   111.824997        -9.29844191E-06
   111.989998        -9.39999791E-06
   112.154999        -9.51382935E-06
   112.320000        -9.63922139E-06
   112.485001        -9.77518266E-06
   112.650002        -9.92048354E-06
   112.815002        -1.00737070E-05
   112.980003        -1.02333206E-05
   113.144997        -1.03977491E-05
   113.309998        -1.05654453E-05
   113.474998        -1.07349597E-05
   113.639999        -1.09049824E-05
   113.805000        -1.10743613E-05
   113.970001        -1.12420958E-05
   114.135002        -1.14072927E-05
   114.300003        -1.15690964E-05
   114.464996        -1.17266036E-05
   114.629997        -1.18787621E-05
   114.794998        -1.20242767E-05
   114.959999        -1.21615240E-05
   115.125000        -1.22884921E-05
   115.290001        -1.24027620E-05
   115.455002        -1.25015167E-05
   115.620003        -1.25816041E-05
   115.785004        -1.26396262E-05
   115.949997        -1.26720734E-05
   116.114998        -1.26754658E-05
   116.279999        -1.26465320E-05
   116.445000        -1.25823717E-05
   116.610001        -1.24806174E-05
   116.775002        -1.23395894E-05
   116.940002        -1.21584208E-05
   117.105003        -1.19371534E-05
   117.269997        -1.16768197E-05
   117.434998        -1.13794713E-05
   117.599998        -1.10481933E-05
   117.764999        -1.06870802E-05
   117.930000        -1.03011680E-05
   118.095001        -9.89633736E-06
   118.260002        -9.47917852E-06
   118.425003        -9.05681281E-06
   118.589996        -8.63667810E-06
   118.754997        -8.22628408E-06
   118.919998        -7.83292580E-06
   119.084999        -7.46339538E-06
   119.250000        -7.12367000E-06
   119.415001        -6.81862184E-06
   119.580002        -6.55175199E-06
   119.745003        -6.32496995E-06
   119.910004        -6.13843667E-06
   120.074997        -5.99049372E-06
   120.239998        -5.87767590E-06
   120.404999        -5.79482139E-06
   120.570000        -5.73527723E-06
   120.735001        -5.69119038E-06
   120.900002        -5.65386745E-06
   121.065002        -5.61418892E-06
   121.230003        -5.56304440E-06
   121.394997        -5.49177230E-06
   121.559998        -5.39256916E-06
   121.724998        -5.25885162E-06
   121.889999        -5.08554012E-06
   122.055000        -4.86926456E-06
   122.220001        -4.60846468E-06
   122.385002        -4.30340242E-06
   122.550003        -3.95607412E-06
   122.714996        -3.57004751E-06
   122.879997        -3.15022749E-06
   123.044998        -2.70257601E-06
   123.209999        -2.23380357E-06
   123.375000        -1.75105049E-06
   123.540001        -1.26157659E-06
   123.705002        -7.72468582E-07
   123.870003        -2.90381280E-07
   124.035004         1.78684942E-07
   124.199997         6.29565591E-07
   124.364998         1.05807169E-06
   124.529999         1.46108641E-06
   124.695000         1.83662496E-06
   124.860001         2.18385162E-06
   125.025002         2.50306016E-06
   125.190002         2.79561550E-06
   125.355003         3.06385937E-06
   125.519997         3.31097681E-06
   125.684998         3.54082863E-06
   125.849998         3.75775494E-06
   126.014999         3.96635369E-06
   126.180000         4.17124784E-06
   126.345001         4.37684685E-06
   126.510002         4.58712293E-06
   126.675003         4.80540575E-06
   126.839996         5.03422143E-06
   127.004997         5.27516886E-06
   127.169998         5.52885695E-06
   127.334999         5.79489097E-06
   127.500000         6.07191851E-06
   127.665001         6.35771812E-06
   127.830002         6.64932941E-06
   127.995003         6.94320761E-06
   128.160004         7.23539915E-06
   128.324997         7.52171536E-06
   128.490005         7.79790662E-06
   128.654999         8.05982654E-06
   128.820007         8.30358476E-06
   128.985001         8.52567609E-06
   129.149994         8.72311375E-06
   129.315002         8.89353123E-06
   129.479996         9.03528507E-06
   129.645004         9.14753764E-06
   129.809998         9.23032349E-06
   129.975006         9.28459031E-06
   130.139999         9.31220438E-06
   130.304993         9.31591421E-06
   130.470001         9.29926318E-06
   130.634995         9.26644498E-06