  -2.84999990         0.00000000    
  -2.68499994         0.00000000    
  -2.51999998         0.00000000    
  -2.35500002         0.00000000    
  -2.19000006         0.00000000    
  -2.02500010         0.00000000    
  -1.86000001         0.00000000    
  -1.69500005         0.00000000    
  -1.52999997         0.00000000    
  -1.36500001         0.00000000    
  -1.20000005         0.00000000    
  -1.03499997         0.00000000    
 -0.870000005         0.00000000    
 -0.704999983         0.00000000    
 -0.540000021         0.00000000    
 -0.375000000         0.00000000    
 -0.209999993         0.00000000    
  -4.50000018E-02     0.00000000    
  0.119999997         0.00000000    
  0.284999996         0.00000000    
  0.449999988         0.00000000    
  0.615000010         0.00000000    
  0.779999971         0.00000000    
  0.944999993         0.00000000    
   1.11000001         0.00000000    
   1.27499998         0.00000000    
   1.44000006         0.00000000    
   1.60500002         0.00000000    
   1.76999998         0.00000000    
   1.93499994         0.00000000    
   2.09999990         0.00000000    
   2.26500010         0.00000000    
   2.43000007         0.00000000    
   2.59500003         0.00000000    
   2.75999999         0.00000000    
   2.92499995         0.00000000    
   3.08999991         0.00000000    
   3.25500011         0.00000000    
   3.42000008         0.00000000    
   3.58500004         0.00000000    
   3.75000000         0.00000000    
   3.91499996         0.00000000    
   4.07999992         0.00000000    
   4.24499989         0.00000000    
   4.40999985         0.00000000    
   4.57499981         0.00000000    
   4.73999977         0.00000000    
   4.90500021         0.00000000    
   5.07000017         0.00000000    
   5.23500013         0.00000000    
   5.40000010         1.12576662E-33
   5.56500006         2.66455843E-33
   5.73000002         3.28353408E-33
   5.89499998        -2.13054402E-33
   6.05999994        -1.78239665E-32
   6.22499990        -1.09475053E-32
   6.38999987         1.64203763E-32
   6.55499983         6.38967799E-33
   6.71999979        -1.02395485E-33
   6.88500023        -6.10950082E-32
   7.05000019        -1.45495838E-31
   7.21500015        -2.23248594E-31
   7.38000011        -1.40170543E-31
   7.54500008         1.55002110E-32
   7.71000004         1.78541593E-31
   7.87500000         4.23239985E-31
   8.03999996         9.66375693E-31
   8.20499992         1.31089926E-30
   8.36999989         1.86744938E-30
   8.53499985         2.22993592E-30
   8.69999981         2.43910338E-30
   8.86499977         2.09206660E-30
   9.02999973         1.19931222E-30
   9.19499969         1.41099232E-30
   9.35999966         2.96772338E-30
   9.52499962         3.36096179E-30
   9.68999958        -1.54495121E-29
   9.85499954        -5.35027190E-29
   10.0200005        -1.12788259E-28
   10.1850004        -1.92906428E-28
   10.3500004        -2.71587467E-28
   10.5150003        -3.09741487E-28
   10.6800003        -2.59331619E-28
   10.8450003        -4.59404949E-29
   11.0100002         3.70880591E-28
   11.1750002         9.47759852E-28
   11.3400002         1.50999658E-27
   11.5050001         1.73246874E-27
   11.6700001         1.11452911E-27
   11.8350000        -9.31108069E-28
   12.0000000        -4.86076599E-27
   12.1650000        -1.06507855E-26
   12.3299999        -1.73600398E-26
   12.4949999        -2.27739228E-26
   12.6599998        -2.33573147E-26
   12.8249998        -1.47053379E-26
   12.9899998         7.37470084E-27
   13.1549997         4.52430927E-26
   13.3199997         9.75133583E-26
   13.4849997         1.57283420E-25
   13.6499996         2.11015682E-25
   13.8149996         2.38568424E-25
   13.9799995         2.14814738E-25
   14.1450005         1.13229199E-25
   14.3100004        -8.82295070E-26
   14.4750004        -3.98750896E-25
   14.6400003        -8.04056979E-25
   14.8050003        -1.25471650E-24
   14.9700003        -1.65614938E-24
   15.1350002        -1.86507386E-24
   15.3000002        -1.69887941E-24
   15.4650002        -9.64696916E-25
   15.6300001         4.87583980E-25
   15.7950001         2.69034326E-24
   15.9600000         5.47318796E-24
   16.1250000         8.39126018E-24
   16.2900009         1.06997693E-23
   16.4549999         1.14098719E-23
   16.6200008         9.45146241E-24
   16.7849998         3.94483070E-24
   16.9500008        -5.45202124E-24
   17.1149998        -1.81922621E-23
   17.2800007        -3.25866575E-23
   17.4449997        -4.57556964E-23
   17.6100006        -5.38698850E-23
   17.7749996        -5.27032259E-23
   17.9400005        -3.84471241E-23
   18.1049995        -8.65878026E-24
   18.2700005         3.68243584E-23
   18.4349995         9.51633770E-23
   18.6000004         1.60089526E-22
   18.7649994         2.21782627E-22
   18.9300003         2.67009676E-22
   19.0949993         2.79496700E-22
   19.2600002         2.40643597E-22
   19.4249992         1.30933921E-22
   19.5900002        -6.73446453E-23
   19.7549992        -3.65326281E-22
   19.9200001        -7.60183577E-22
   20.0849991        -1.22525694E-21
   20.2500000        -1.69902635E-21
   20.4150009        -2.07584166E-21
   20.5799999        -2.20291768E-21
   20.7450008        -1.88910119E-21
   20.9099998        -9.30631907E-22
   21.0750008         8.43009277E-22
   21.2399998         3.50425938E-21
   21.4050007         6.95069852E-21
   21.5699997         1.08301231E-20
   21.7350006         1.44872477E-20
   21.8999996         1.69553042E-20
   22.0650005         1.70151569E-20
   22.2299995         1.33388359E-20
   22.3950005         4.72341738E-21
   22.5599995        -9.59385562E-21
   22.7250004        -2.95663141E-20
   22.8899994        -5.39602096E-20
   23.0550003        -8.00324449E-20
   23.2199993        -1.03343855E-19
   23.3850002        -1.17801014E-19
   23.5499992        -1.16026673E-19
   23.7150002        -9.01553649E-20
   23.8799992        -3.31263669E-20
   24.0450001         5.95094348E-20
   24.2099991         1.87352273E-19
   24.3750000         3.42719772E-19
   24.5400009         5.08445020E-19
   24.7049999         6.56543230E-19
   24.8700008         7.48552546E-19
   25.0349998         7.38402936E-19
   25.2000008         5.78502927E-19
   25.3649998         2.29287667E-19
   25.5300007        -3.28299972E-19
   25.6949997        -1.07894492E-18
   25.8600006        -1.96038414E-18
   26.0249996        -2.85572940E-18
   26.1900005        -3.59469657E-18
   26.3549995        -3.96726865E-18
   26.5200005        -3.75170497E-18
   26.6849995        -2.75606468E-18
   26.8500004        -8.68832155E-19
   27.0149994         1.88950448E-18
   27.1800003         5.32506205E-18
   27.3449993         9.05164967E-18
   27.5100002         1.25051560E-17
   27.6749992         1.49975356E-17
   27.8400002         1.58094663E-17
   28.0049992         1.43120063E-17
   28.1700001         1.00991449E-17
   28.3349991         3.10730935E-18
   28.5000000        -6.30341157E-18
   28.6650009        -1.73271442E-17
   28.8299999        -2.87601137E-17
   28.9950008        -3.91157830E-17
   29.1599998        -4.67904706E-17
   29.3250008        -5.02519104E-17
   29.4899998        -4.82194648E-17
   29.6550007        -3.98099728E-17
   29.8199997        -2.46363685E-17
   29.9850006        -2.86445160E-18
   30.1499996         2.47501439E-17
   30.3150005         5.68144173E-17
   30.4799995         9.12157009E-17
   30.6450005         1.25003667E-16
   30.8099995         1.54272533E-16
   30.9750004         1.74122379E-16
   31.1399994         1.78811382E-16
   31.3050003         1.62219462E-16
   31.4699993         1.18712197E-16
   31.6350002         4.44168692E-17
   31.7999992        -6.11959798E-17
   31.9650002        -1.93672416E-16
   32.1300011        -3.42252980E-16
   32.2949982        -4.89325269E-16
   32.4599991        -6.11096949E-16
   32.6250000        -6.79810432E-16
   32.7900009        -6.67567153E-16
   32.9550018        -5.51486264E-16
   33.1199989        -3.19529283E-16
   33.2849998         2.40243922E-17
   33.4500008         4.54684216E-16
   33.6150017         9.26669185E-16
   33.7799988         1.37559855E-15
   33.9449997         1.72536133E-15
   34.1100006         1.89880159E-15
   34.2750015         1.83099957E-15
   34.4399986         1.48313087E-15
   34.6049995         8.54366559E-16
   34.7700005        -1.08398884E-17
   34.9350014        -1.02230323E-15
   35.0999985        -2.05177257E-15
   35.2649994        -2.94860639E-15
   35.4300003        -3.56178286E-15
   35.5950012        -3.76507839E-15
   35.7599983        -3.48118153E-15
   35.9249992        -2.70014452E-15
   36.0900002        -1.48807415E-15
   36.2550011         1.66478502E-17
   36.4199982         1.62023871E-15
   36.5849991         3.10165042E-15
   36.7500000         4.24777113E-15
   36.9150009         4.88973825E-15
   37.0800018         4.93363192E-15
   37.2449989         4.37933440E-15
   37.4099998         3.32310803E-15
   37.5750008         1.94227196E-15
   37.7400017         4.63723487E-16
   37.9049988        -8.78632941E-16
   38.0699997        -1.88992426E-15
   38.2350006        -2.45489905E-15
   38.4000015        -2.56452968E-15
   38.5649986        -2.32214506E-15
   38.7299995        -1.92605022E-15
   38.8950005        -1.62991035E-15
   39.0600014        -1.68654985E-15
   39.2249985        -2.28450207E-15
   39.3899994        -3.48889652E-15
   39.5550003        -5.19865540E-15
   39.7200012        -7.13030980E-15
   39.8849983        -8.83521941E-15
   40.0499992        -9.75211055E-15
   40.2150002        -9.29124501E-15
   40.3800011        -6.94114447E-15
   40.5449982        -2.38415105E-15
   40.7099991         4.39595869E-15
   40.8750000         1.30322804E-14
   41.0400009         2.27359923E-14
   41.2050018         3.23143239E-14
   41.3699989         4.02538720E-14
   41.5349998         4.48707911E-14
   41.7000008         4.45207768E-14
   41.8650017         3.78524421E-14
   42.0299988         2.40779906E-14
   42.1949997         3.22678895E-15
   42.3600006        -2.36584959E-14
   42.5250015        -5.44251737E-14
   42.6899986        -8.58510989E-14
   42.8549995        -1.13849305E-13
   43.0200005        -1.33845083E-13
   43.1850014        -1.41309070E-13
   43.3499985        -1.32402214E-13
   43.5149994        -1.04659798E-13
   43.6800003        -5.76197483E-14
   43.8450012         6.71086713E-15
   44.0099983         8.36536515E-14
   44.1749992         1.66000514E-13
   44.3400002         2.44539171E-13
   44.5050011         3.08947692E-13
   44.6699982         3.48982941E-13
   44.8349991         3.55830247E-13
   45.0000000         3.23438514E-13
   45.1650009         2.49644896E-13
   45.3300018         1.36905759E-13
   45.4949989        -7.50779088E-15
   45.6599998        -1.71920068E-13
   45.8250008        -3.41249923E-13
   45.9900017        -4.98491439E-13
   46.1549988        -6.26492239E-13
   46.3199997        -7.09797997E-13
   46.4850006        -7.36320564E-13
   46.6500015        -6.98620794E-13
   46.8149986        -5.94663533E-13
   46.9799995        -4.27993768E-13
   47.1450005        -2.07378792E-13
   47.3100014         5.39603728E-14
   47.4749985         3.39357042E-13
   47.6399994         6.29773252E-13
   47.8050003         9.04807533E-13
   47.9700012         1.14357634E-12
   48.1349983         1.32549928E-12
   48.2999992         1.43109320E-12
   48.4650002         1.44292380E-12
   48.6300011         1.34685221E-12
   48.7949982         1.13364179E-12
   48.9599991         8.00874829E-13
   49.1250000         3.54975381E-13
   49.2900009        -1.86999938E-13
   49.4550018        -7.96241220E-13
   49.6199989        -1.43219041E-12
   49.7849998        -2.04404766E-12
   49.9500008        -2.57397922E-12
   50.1150017        -2.96196553E-12
   50.2799988        -3.15193921E-12
   50.4449997        -3.09858129E-12
   50.6100006        -2.77392931E-12
   50.7750015        -2.17286692E-12
   50.9399986        -1.31660871E-12
   51.1049995        -2.53504737E-13
   51.2700005         9.43192356E-13
   51.4350014         2.18055326E-12
   51.5999985         3.35374285E-12
   51.7649994         4.35553590E-12
   51.9300003         5.08654273E-12
   52.0950012         5.46502904E-12
   52.2599983         5.43528113E-12
   52.4249992         4.97367252E-12
   52.5900002         4.09188525E-12
   52.7550011         2.83707129E-12
   52.9199982         1.28903984E-12
   53.0849991        -4.45183766E-13
   53.2500000        -2.23893972E-12
   53.4150009        -3.95508105E-12
   53.5800018        -5.45609521E-12
   53.7449989        -6.61463115E-12
   53.9099998        -7.32385333E-12
   54.0750008        -7.50701584E-12
   54.2400017        -7.12560002E-12
   54.4049988        -6.18528709E-12
   54.5699997        -4.73899609E-12
   54.7350006        -2.88626957E-12
   54.9000015        -7.68453064E-13
   55.0649986         1.44057520E-12
   55.2299995         3.54791912E-12
   55.3950005         5.35867314E-12
   55.5600014         6.69510931E-12
   55.7249985         7.41624036E-12
   55.8899994         7.43563110E-12
   56.0550003         6.73522262E-12
   56.2200012         5.37317846E-12
   56.3849983         3.48420685E-12
   56.5499992         1.27155632E-12
   56.7150002        -1.00924130E-12
   56.8800011        -3.07387796E-12
   57.0449982        -4.63816745E-12
   57.2099991        -5.44976651E-12
   57.3750000        -5.31970258E-12
   57.5400009        -4.15050806E-12
   57.7050018        -1.95787982E-12
   57.8699989         1.11683514E-12
   58.0349998         4.80542516E-12
   58.2000008         8.72417763E-12
   58.3650017         1.23981788E-11
   58.5299988         1.52978914E-11
   58.6949997         1.68862580E-11
   58.8600006         1.66734352E-11
   59.0250015         1.42752719E-11
   59.1899986         9.47061440E-12
   59.3549995         2.25192759E-12
   59.5200005        -7.13670529E-12
   59.6850014        -1.81799385E-11
   59.8499985        -3.00948641E-11
   60.0149994        -4.18616461E-11
   60.1800003        -5.22826261E-11
   60.3450012        -6.00688110E-11
   60.5099983        -6.39496581E-11
   60.6749992        -6.27990090E-11
   60.8400002        -5.57671513E-11
   61.0050011        -4.24068350E-11
   61.1699982        -2.27796844E-11
   61.3349991         2.47035010E-12
   61.5000000         3.20884569E-11
   61.6650009         6.42342984E-11
   61.8300018         9.65659289E-11
   61.9949989         1.26381489E-10
   62.1599998         1.50812043E-10
   62.3250008         1.67053107E-10
   62.4900017         1.72617226E-10
   62.6549988         1.65586156E-10
   62.8199997         1.44839390E-10
   62.9850006         1.10236001E-10
   63.1500015         6.27295646E-11
   63.3149986         4.40058493E-12
   63.4799995        -6.16022580E-11
   63.6450005        -1.31213346E-10
   63.8100014        -1.99686864E-10
   63.9749985        -2.61904526E-10
   64.1399994        -3.12733450E-10
   64.3050003        -3.47408602E-10
   64.4700012        -3.61911917E-10
   64.6350021        -3.53319263E-10
   64.8000031        -3.20088789E-10
   64.9649963        -2.62267541E-10
   65.1299973        -1.81597626E-10
   65.2949982        -8.15107565E-11
   65.4599991         3.29947528E-11
   65.6250000         1.55591887E-10
   65.7900009         2.78967682E-10
   65.9550018         3.95253580E-10
   66.1200027         4.96518215E-10
   66.2850037         5.75292314E-10
   66.4499969         6.25089203E-10
   66.6149979         6.40883957E-10
   66.7799988         6.19513774E-10
   66.9449997         5.59966351E-10
   67.1100006         4.63531491E-10
   67.2750015         3.33800626E-10
   67.4400024         1.76512208E-10
   67.6050034        -7.45792425E-13
   67.7699966        -1.88952701E-10
   67.9349976        -3.78159531E-10
   68.0999985        -5.58040392E-10
   68.2649994        -7.18454241E-10
   68.4300003        -8.49980086E-10
   68.5950012        -9.44398337E-10
   68.7600021        -9.95100669E-10
   68.9250031        -9.97419147E-10
   69.0899963        -9.48873424E-10
   69.2549973        -8.49339599E-10
   69.4199982        -7.01143144E-10
   69.5849991        -5.09074727E-10
   69.7500000        -2.80322571E-10
   69.9150009        -2.43077277E-11
   70.0800018         2.47594473E-10
   70.2450027         5.22462573E-10
   70.4100037         7.86374188E-10
   70.5749969         1.02508424E-09
   70.7399979         1.22481270E-09
   70.9049988         1.37309719E-09
   71.0699997         1.45964962E-09
   71.2350006         1.47714152E-09
   71.4000015         1.42183720E-09
   71.5650024         1.29400612E-09
   71.7300034         1.09805509E-09
   71.8949966         8.42357684E-10
   72.0599976         5.38782352E-10
   72.2249985         2.01964181E-10
   72.3899994        -1.51616733E-10
   72.5550003        -5.04658204E-10
   72.7200012        -8.40065795E-10
   72.8850021        -1.14189924E-09
   73.0500031        -1.39616563E-09
   73.2149963        -1.59141489E-09
   73.3799973        -1.71912384E-09
   73.5449982        -1.77388715E-09
   73.7099991        -1.75345138E-09
   73.8750000        -1.65864411E-09
   74.0400009        -1.49324253E-09
   74.2050018        -1.26382005E-09
   74.3700027        -9.79578751E-10
   74.5350037        -6.52161714E-10
   74.6999969        -2.95404812E-10
   74.8649979         7.50148832E-11
   75.0299988         4.42086950E-10
   75.1949997         7.88167587E-10
   75.3600006         1.09588116E-09
   75.5250015         1.34919620E-09
   75.6900024         1.53460422E-09
   75.8550034         1.64229796E-09
   76.0199966         1.66721081E-09
   76.1849976         1.60977642E-09
   76.3499985         1.47626711E-09
   76.5149994         1.27861732E-09
   76.6800003         1.03367714E-09
   76.8450012         7.61916752E-10
   77.0100021         4.85670726E-10
   77.1750031         2.27075525E-10
   77.3399963         5.90907531E-12
   77.5049973        -1.62436786E-10
   77.6699982        -2.68612160E-10
   77.8349991        -3.10398124E-10
   78.0000000        -2.93081198E-10
   78.1650009        -2.29049266E-10
   78.3300018        -1.36630887E-10
   78.4950027        -3.82818707E-11
   78.6600037         4.17006672E-11
   78.8249969         7.97086702E-11
   78.9899979         5.53519695E-11
   79.1549988        -4.62558498E-11
   79.3199997        -2.32664485E-10
   79.4850006        -5.02855424E-10
   79.6500015        -8.46702264E-10
   79.8150024        -1.24515165E-09
   79.9800034        -1.67109204E-09
   80.1449966        -2.09083817E-09
   80.3099976        -2.46613507E-09
   80.4749985        -2.75656764E-09
   80.6399994        -2.92226399E-09
   80.8050003        -2.92677615E-09
   80.9700012        -2.74002265E-09
   81.1350021        -2.34116726E-09
   81.3000031        -1.72128800E-09
   81.4649963        -8.85669760E-10
   81.6299973         1.44478055E-10
   81.7949982         1.33109257E-09
   81.9599991         2.61933319E-09
   82.1250000         3.93885902E-09
   82.2900009         5.20645216E-09
   82.4550018         6.33003605E-09
   82.6200027         7.21403692E-09
   82.7850037         7.76588038E-09
   82.9499969         7.90328780E-09
   83.1149979         7.56188534E-09
   83.2799988         6.70251810E-09
   83.4449997         5.31760769E-09
   83.6100006         3.43586737E-09
   83.7750015         1.12472864E-09
   83.9400024        -1.51002844E-09
   84.1050034        -4.32775860E-09
   84.2699966        -7.15964310E-09
   84.4349976        -9.81836656E-09
   84.5999985        -1.21103030E-08
   84.7649994        -1.38494105E-08
   84.9300003        -1.48718522E-08
   85.0950012        -1.50501656E-08
   85.2600021        -1.43057797E-08
   85.4250031        -1.26186892E-08
   85.5899963        -1.00333191E-08
   85.7549973        -6.65983535E-09
   85.9199982        -2.67054556E-09
   86.0849991         1.70856840E-09
   86.2500000         6.21073637E-09
   86.4150009         1.05448592E-08
   86.5800018         1.44144048E-08
   86.7450027         1.75373760E-08
   86.9100037         1.96659276E-08
   87.0749969         2.06042436E-08
   87.2399979         2.02234212E-08
   87.4049988         1.84724147E-08
   87.5699997         1.53843551E-08
   87.7350006         1.10779217E-08
   87.9000015         5.75373926E-09
   88.0650024        -3.13869375E-10
   88.2300034        -6.78933754E-09
   88.3949966        -1.32918236E-08
   88.5599976        -1.94139496E-08
   88.7249985        -2.47425032E-08
   88.8899994        -2.88802386E-08
   89.0550003        -3.14679447E-08
   89.2200012        -3.22058789E-08
   89.3850021        -3.08736148E-08
   89.5500031        -2.73473972E-08
   89.7149963        -2.16139533E-08
   89.8799973        -1.37798200E-08
   90.0449982        -4.07529477E-09
   90.2099991         7.14778281E-09
   90.3750000         1.94248795E-08
   90.5400009         3.21944036E-08
   90.7050018         4.48198492E-08
   90.8700027         5.66177079E-08
   91.0350037         6.68898537E-08
   91.1999969         7.49588125E-08
   91.3649979         8.02038329E-08
   91.5299988         8.20956814E-08
   91.6949997         8.02279203E-08
   91.8600006         7.43426725E-08
   92.0250015         6.43493223E-08
   92.1900024         5.03350464E-08
   92.3550034         3.25666996E-08
   92.5199966         1.14842820E-08
   92.6849976        -1.23133530E-08
   92.8499985        -3.80892544E-08
   93.0149994        -6.49940688E-08
   93.1800003        -9.20950640E-08
   93.3450012        -1.18406888E-07
   93.5100021        -1.42922730E-07
   93.6750031        -1.64644817E-07
   93.8399963        -1.82613647E-07
   94.0049973        -1.95935641E-07
   94.1699982        -2.03809236E-07
   94.3349991        -2.05549355E-07
   94.5000000        -2.00610501E-07
   94.6650009        -1.88608254E-07
   94.8300018        -1.69338875E-07
   94.9950027        -1.42796523E-07
   95.1600037        -1.09186942E-07
   95.3249969        -6.89368278E-08
   95.4899979        -2.26974226E-08
   95.6549988         2.86587234E-08
   95.8199997         8.40488283E-08
   95.9850006         1.42199383E-07
   96.1500015         2.01674538E-07
   96.3150024         2.60912913E-07
   96.4800034         3.18272527E-07
   96.6449966         3.72082468E-07
   96.8099976         4.20700189E-07
   96.9749985         4.62572814E-07
   97.1399994         4.96300402E-07
   97.3050003         5.20699075E-07
   97.4700012         5.34862465E-07
   97.6350021         5.38218387E-07
   97.8000031         5.30579200E-07
   97.9649963         5.12183192E-07
   98.1299973         4.83724762E-07
   98.2949982         4.46370706E-07
   98.4599991         4.01760815E-07
   98.6250000         3.51991019E-07
   98.7900009         2.99577209E-07
   98.9550018         2.47399356E-07
   99.1200027         1.98626523E-07
   99.2850037         1.56623287E-07
   99.4499969         1.24840980E-07
   99.6149979         1.06696689E-07
   99.7799988         1.05445544E-07
   99.9449997         1.24051880E-07
   100.110001         1.65065373E-07
   100.275002         2.30509400E-07
   100.440002         3.21787667E-07
   100.605003         4.39615633E-07
   100.769997         5.83980011E-07
   100.934998         7.54131122E-07
   101.099998         9.48608147E-07
   101.264999         1.16529748E-06
   101.430000         1.40152144E-06
   101.595001         1.65415236E-06
   101.760002         1.91974823E-06
   101.925003         2.19470030E-06
   102.089996         2.47538628E-06
   102.254997         2.75832190E-06
   102.419998         3.04030164E-06
   102.584999         3.31852289E-06
   102.750000         3.59068645E-06
   102.915001         3.85506883E-06
   103.080002         4.11056499E-06
   103.245003         4.35669699E-06
   103.410004         4.59358989E-06
   103.574997         4.82192127E-06
   103.739998         5.04283844E-06
   103.904999         5.25785390E-06
   104.070000         5.46872343E-06
   104.235001         5.67731649E-06
   104.400002         5.88547346E-06
   104.565002         6.09487324E-06
   104.730003         6.30690056E-06
   104.894997         6.52253084E-06
   105.059998         6.74222883E-06
   105.224998         6.96587358E-06
   105.389999         7.19270702E-06
   105.555000         7.42130806E-06
   105.720001         7.64959532E-06
   105.885002         7.87486533E-06
   106.050003         8.09385347E-06
   106.214996         8.30282534E-06
   106.379997         8.49769458E-06
   106.544998         8.67415747E-06
   106.709999         8.82784843E-06
   106.875000         8.95451376E-06
   107.040001         9.05017987E-06
   107.205002         9.11132429E-06
   107.370003         9.13503936E-06
   107.535004         9.11917232E-06
   107.699997         9.06245532E-06
   107.864998         8.96459187E-06
   108.029999         8.82631775E-06
   108.195000         8.64942194E-06
   108.360001         8.43672933E-06
   108.525002         8.19204706E-06
   108.690002         7.92008086E-06
   108.855003         7.62631907E-06
   109.019997         7.31689033E-06
   109.184998         6.99841030E-06
   109.349998         6.67781069E-06
   109.514999         6.36216464E-06
   109.680000         6.05851301E-06
   109.845001         5.77368701E-06
   110.010002         5.51414223E-06
   110.175003         5.28579767E-06
   110.339996         5.09387974E-06
   110.504997         4.94278265E-06
   110.669998         4.83593794E-06
   110.834999         4.77570256E-06
   111.000000         4.76326977E-06
   111.165001         4.79860410E-06
   111.330002         4.88041223E-06
   111.495003         5.00615488E-06
   111.660004         5.17210356E-06
   111.824997         5.37344113E-06
   111.989998         5.60441867E-06
   112.154999         5.85854696E-06
   112.320000         6.12884105E-06
   112.485001         6.40807275E-06
   112.650002         6.68905386E-06
   112.815002         6.96489997E-06
   112.980003         7.22927825E-06
   113.144997         7.47661625E-06
   113.309998         7.70225506E-06
   113.474998         7.90255490E-06
   113.639999         8.07491688E-06
   113.805000         8.21775120E-06
   113.970001         8.33038757E-06
   114.135002         8.41292604E-06
   114.300003         8.46605781E-06
   114.464996         8.49087792E-06
   114.629997         8.48867694E-06
   114.794998         8.46075909E-06
   114.959999         8.40826488E-06
   115.125000         8.33204285E-06
   115.290001         8.23255050E-06
   115.455002         8.10978509E-06
   115.620003         7.96326640E-06
   115.785004         7.79204947E-06
   115.949997         7.59477098E-06
   116.114998         7.36972288E-06
   116.279999         7.11495977E-06
   116.445000         6.82842438E-06
   116.610001         6.50809125E-06
   116.775002         6.15213548E-06
   116.940002         5.75911054E-06
   117.105003         5.32813374E-06
   117.269997         4.85907594E-06
   117.434998         4.35273523E-06
   117.599998         3.81098948E-06
   117.764999         3.23690892E-06
   117.930000         2.63482616E-06
   118.095001         2.01034482E-06
   118.260002         1.37029065E-06
   118.425003         7.22587117E-07
   118.589996         7.60663141E-08
   118.754997        -5.59788987E-07
   118.919998        -1.17515367E-06
   119.084999        -1.76020865E-06
   119.250000        -2.30550904E-06
   119.415001        -2.80235690E-06
   119.580002        -3.24315579E-06
   119.745003        -3.62174660E-06
   119.910004        -3.93369237E-06
   120.074997        -4.17651700E-06
   120.239998        -4.34987805E-06
   120.404999        -4.45566457E-06
   120.570000        -4.49801928E-06
   120.735001        -4.48329092E-06
   120.900002        -4.41990323E-06
   121.065002        -4.31815670E-06
   121.230003        -4.18995523E-06
   121.394997        -4.04845969E-06
   121.559998        -3.90768309E-06
   121.724998        -3.78202731E-06
   121.889999        -3.68578299E-06
   122.055000        -3.63260415E-06
   122.220001        -3.63498452E-06
   122.385002        -3.70375710E-06
   122.550003        -3.84763189E-06
   122.714996        -4.07280413E-06
   122.879997        -4.38264988E-06
   123.044998        -4.77752883E-06
   123.209999        -5.25471069E-06
   123.375000        -5.80842880E-06
   123.540001        -6.43006388E-06
   123.705002        -7.10844324E-06
   123.870003        -7.83024916E-06
   124.035004        -8.58050134E-06
   124.199997        -9.34310538E-06
   124.364998        -1.01014348E-05
   124.529999        -1.08389213E-05
   124.695000        -1.15396306E-05
   124.860001        -1.21887988E-05
   125.025002        -1.27733110E-05
   125.190002        -1.32821042E-05
   125.355003        -1.37064826E-05
   125.519997        -1.40403463E-05
   125.684998        -1.42803201E-05
   125.849998        -1.44257938E-05
   126.014999        -1.44788555E-05
   126.180000        -1.44441365E-05
   126.345001        -1.43285524E-05
   126.510002        -1.41409746E-05
   126.675003        -1.38918176E-05
   126.839996        -1.35925739E-05
   127.004997        -1.32553041E-05
   127.169998        -1.28921101E-05
   127.334999        -1.25146007E-05
   127.500000        -1.21333896E-05
   127.665001        -1.17576365E-05
   127.830002        -1.13946699E-05
   127.995003        -1.10497194E-05
   128.160004        -1.07257638E-05
   128.324997        -1.04235241E-05
   128.490005        -1.01415862E-05
   128.654999        -9.87668136E-06
   128.820007        -9.62406921E-06
   128.985001        -9.37804634E-06
   129.149994        -9.13252006E-06
   129.315002        -8.88163231E-06
   129.479996        -8.62037905E-06
   129.645004        -8.34518323E-06
   129.809998        -8.05437321E-06
   129.975006        -7.74853197E-06
   130.139999        -7.43069359E-06
   130.304993        -7.10635368E-06
   130.470001        -6.78330025E-06
   130.634995        -6.47125898E-06