  -2.84999990         0.00000000    
  -2.68499994         0.00000000    
  -2.51999998         0.00000000    
  -2.35500002         0.00000000    
  -2.19000006         0.00000000    
  -2.02500010         0.00000000    
  -1.86000001         0.00000000    
  -1.69500005         0.00000000    
  -1.52999997         0.00000000    
  -1.36500001         0.00000000    
  -1.20000005         0.00000000    
  -1.03499997         0.00000000    
 -0.870000005         0.00000000    
 -0.704999983         0.00000000    
 -0.540000021         0.00000000    
 -0.375000000         0.00000000    
 -0.209999993         0.00000000    
  -4.50000018E-02     0.00000000    
  0.119999997         0.00000000    
  0.284999996         0.00000000    
  0.449999988         0.00000000    
  0.615000010         0.00000000    
  0.779999971         0.00000000    
  0.944999993         0.00000000    
   1.11000001         0.00000000    
   1.27499998         1.85907405E-34
   1.44000006         6.90784986E-33
   1.60500002         2.46730739E-32
   1.76999998         3.99563901E-32
   1.93499994         6.58449634E-33
   2.09999990        -8.26637485E-32
   2.26500010        -1.78688483E-31
   2.43000007        -2.57284022E-31
   2.59500003        -2.28318924E-31
   2.75999999         8.67278615E-32
   2.92499995         6.85036730E-31
   3.08999991         1.12065109E-29
   3.25500011         1.98106014E-29
   3.42000008        -1.10052354E-29
   3.58500004        -9.71256522E-29
   3.75000000        -1.87024746E-28
   3.91499996        -1.29158375E-28
   4.07999992         1.98989441E-28
   4.24499989         7.50180528E-28
   4.40999985         1.15661809E-27
   4.57499981         7.45904145E-28
   4.73999977        -1.09241375E-27
   4.90500021        -4.27655826E-27
   5.07000017        -7.41401831E-27
   5.23500013        -7.76652435E-27
   5.40000010        -2.29584427E-27
   5.56500006         1.00942133E-26
   5.73000002         2.59329579E-26
   5.89499998         3.58562765E-26
   6.05999994         2.66139267E-26
   6.22499990        -1.24258982E-26
   6.38999987        -7.93779453E-26
   6.55499983        -1.50729699E-25
   6.71999979        -1.79610784E-25
   6.88500023        -1.07850376E-25
   7.05000019         1.06001089E-25
   7.21500015         4.48766502E-25
   7.38000011         8.20952605E-25
   7.54500008         1.03464985E-24
   7.71000004         8.63141034E-25
   7.87500000         1.49508838E-25
   8.03999996        -1.04824646E-24
   8.20499992        -2.33712744E-24
   8.36999989        -2.98833547E-24
   8.53499985        -2.15200683E-24
   8.69999981         6.72063096E-25
   8.86499977         4.99504714E-24
   9.02999973         8.80006683E-24
   9.19499969         8.53889313E-24
   9.35999966         1.32328089E-25
   9.52499962        -1.87943555E-23
   9.68999958        -4.57919651E-23
   9.85499954        -7.07827725E-23
   10.0200005        -7.55725655E-23
   10.1850004        -3.79128855E-23
   10.3500004         5.85611209E-23
   10.5150003         2.09550941E-22
   10.6800003         3.74993904E-22
   10.8450003         4.71616592E-22
   11.0100002         3.82662213E-22
   11.1750002        -8.02201332E-24
   11.3400002        -7.57688000E-22
   11.5050001        -1.79392958E-21
   11.6700001        -2.85598243E-21
   11.8350000        -3.48151151E-21
   12.0000000        -3.07155789E-21
   12.1650000        -1.05159798E-21
   12.3299999         2.88310006E-21
   12.4949999         8.49048311E-21
   12.6599998         1.47679253E-20
   12.8249998         1.99246484E-20
   12.9899998         2.16584448E-20
   13.1549997         1.77975793E-20
   13.3199997         7.24865560E-21
   13.4849997        -8.98230177E-21
   13.6499996        -2.71144344E-20
   13.8149996        -4.08000601E-20
   13.9799995        -4.26999647E-20
   14.1450005        -2.75879759E-20
   14.3100004         3.47124971E-21
   14.4750004         3.91347032E-20
   14.6400003         5.59773348E-20
   14.8050003         2.11198791E-20
   14.9700003        -9.90889414E-20
   15.1350002        -3.24412843E-19
   15.3000002        -6.42752061E-19
   15.4650002        -9.94257344E-19
   15.6300001        -1.26473083E-18
   15.7950001        -1.29514708E-18
   15.9600000        -9.10843934E-19
   16.1250000         3.19768509E-20
   16.2900009         1.59188479E-18
   16.4549999         3.69506791E-18
   16.6200008         6.11180304E-18
   16.7849998         8.46800013E-18
   16.9500008         1.02921691E-17
   17.1149998         1.10839845E-17
   17.2800007         1.03788188E-17
   17.4449997         7.78001665E-18
   17.6100006         2.94224752E-18
   17.7749996        -4.48417919E-18
   17.9400005        -1.49024992E-17
   18.1049995        -2.87348913E-17
   18.2700005        -4.62158580E-17
   18.4349995        -6.69523495E-17
   18.6000004        -8.92624363E-17
   18.7649994        -1.09418088E-16
   18.9300003        -1.21046514E-16
   19.0949993        -1.15046834E-16
   19.2600002        -8.04033981E-17
   19.4249992        -6.17927699E-18
   19.5900002         1.15267896E-16
   19.7549992         2.84170713E-16
   19.9200001         4.89081800E-16
   20.0849991         7.03567112E-16
   20.2500000         8.85179076E-16
   20.4150009         9.77940513E-16
   20.5799999         9.19134086E-16
   20.7450008         6.50423683E-16
   20.9099998         1.32334088E-16
   21.0750008        -6.39951550E-16
   21.2399998        -1.62241262E-15
   21.4050007        -2.71308909E-15
   21.5699997        -3.75145429E-15
   21.7350006        -4.52892339E-15
   21.8999996        -4.81172821E-15
   22.0650005        -4.37536732E-15
   22.2299995        -3.04748754E-15
   22.3950005        -7.53707863E-16
   22.5599995         2.44097849E-15
   22.7250004         6.30352771E-15
   22.8899994         1.04247818E-14
   23.0550003         1.42379733E-14
   23.2199993         1.70664044E-14
   23.3850002         1.81985927E-14
   23.5499992         1.69847267E-14
   23.7150002         1.29444591E-14
   23.8799992         5.87373642E-15
   24.0450001        -4.06239500E-15
   24.2099991        -1.62633511E-14
   24.3750000        -2.96639171E-14
   24.5400009        -4.27523820E-14
   24.7049999        -5.36452630E-14
   24.8700008        -6.02276679E-14
   25.0349998        -6.03667778E-14
   25.2000008        -5.22001435E-14
   25.3649998        -3.44889793E-14
   25.5300007        -7.00746969E-15
   25.6949997         2.90857731E-14
   25.8600006         7.09727212E-14
   26.0249996         1.14093644E-13
   26.1900005         1.52352780E-13
   26.3549995         1.78680530E-13
   26.5200005         1.85963753E-13
   26.6849995         1.68273910E-13
   26.8500004         1.22229646E-13
   27.0149994         4.82481927E-14
   27.1800003        -4.86060133E-14
   27.3449993        -1.58453898E-13
   27.5100002        -2.67310262E-13
   27.6749992        -3.58713141E-13
   27.8400002        -4.16125576E-13
   28.0049992        -4.25765732E-13
   28.1700001        -3.79368927E-13
   28.3349991        -2.76320714E-13
   28.5000000        -1.24654518E-13
   28.6650009         5.94180060E-14
   28.8299999         2.53505685E-13
   28.9950008         4.32313690E-13
   29.1599998         5.71652372E-13
   29.3250008         6.52440721E-13
   29.4899998         6.63911255E-13
   29.6550007         6.05343846E-13
   29.8199997         4.85928192E-13
   29.9850006         3.22735030E-13
   30.1499996         1.37180144E-13
   30.3150005        -4.92882102E-14
   30.4799995        -2.19348208E-13
   30.6450005        -3.62873441E-13
   30.8099995        -4.78177719E-13
   30.9750004        -5.71081973E-13
   31.1399994        -6.51932013E-13
   31.3050003        -7.31182638E-13
   31.4699993        -8.14542335E-13
   31.6350002        -8.98862419E-13
   31.7999992        -9.69885305E-13
   31.9650002        -1.00265228E-12
   32.1300011        -9.64842572E-13
   32.2949982        -8.22689790E-13
   32.4599991        -5.48510889E-13
   32.6250000        -1.28435267E-13
   32.7900009         4.31268546E-13
   32.9550018         1.10073582E-12
   33.1199989         1.82692425E-12
   33.2849998         2.53821595E-12
   33.4500008         3.15269685E-12
   33.6150017         3.58883062E-12
   33.7799988         3.77671202E-12
   33.9449997         3.66785899E-12
   34.1100006         3.24170595E-12
   34.2750015         2.50756100E-12
   34.4399986         1.50164961E-12
   34.6049995         2.79900885E-13
   34.7700005        -1.09192820E-12
   34.9350014        -2.54850589E-12
   35.0999985        -4.03301394E-12
   35.2649994        -5.50076868E-12
   35.4300003        -6.91686205E-12
   35.5950012        -8.24752159E-12
   35.7599983        -9.44638204E-12
   35.9249992        -1.04383915E-11
   36.0900002        -1.11053727E-11
   36.2550011        -1.12779994E-11
   36.4199982        -1.07388777E-11
   36.5849991        -9.24043134E-12
   36.7500000        -6.53911083E-12
   36.9150009        -2.44452028E-12
   37.0800018         3.12160714E-12
   37.2449989         1.00651883E-11
   37.4099998         1.80698373E-11
   37.5750008         2.65700049E-11
   37.7400017         3.47591469E-11
   37.9049988         4.16412495E-11
   38.0699997         4.61278932E-11
   38.2350006         4.71748127E-11
   38.4000015         4.39427869E-11
   38.5649986         3.59598393E-11
   38.7299995         2.32564471E-11
   38.8950005         6.44477744E-12
   39.0600014        -1.32817854E-11
   39.2249985        -3.42418316E-11
   39.3899994        -5.44492125E-11
   39.5550003        -7.18663254E-11
   39.7200012        -8.46906434E-11
   39.8849983        -9.16263038E-11
   40.0499992        -9.20889476E-11
   40.2150002        -8.62988223E-11
   40.3800011        -7.52338747E-11
   40.5449982        -6.04394590E-11
   40.7099991        -4.37202080E-11
   40.8750000        -2.67662160E-11
   41.0400009        -1.07853943E-11
   41.2050018         3.77998978E-12
   41.3699989         1.73831505E-11
   41.5349998         3.13041155E-11
   41.7000008         4.73732893E-11
   41.8650017         6.75199341E-11
   42.0299988         9.32170938E-11
   42.1949997         1.24922989E-10
   42.3600006         1.61629932E-10
   42.5250015         2.00622824E-10
   42.6899986         2.37519171E-10
   42.8549995         2.66618283E-10
   43.0200005         2.81534296E-10
   43.1850014         2.76037249E-10
   43.3499985         2.44988169E-10
   43.5149994         1.85233190E-10
   43.6800003         9.63243929E-11
   43.8450012        -1.90411749E-11
   44.0099983        -1.54932914E-10
   44.1749992        -3.02467190E-10
   44.3400002        -4.50427445E-10
   44.5050011        -5.86152960E-10
   44.6699982        -6.96600888E-10
   44.8349991        -7.69476205E-10
   45.0000000        -7.94331545E-10
   45.1650009        -7.63556329E-10
   45.3300018        -6.73194611E-10
   45.4949989        -5.23551369E-10
   45.6599998        -3.19556021E-10
   45.8250008        -7.08554326E-11
   45.9900017         2.08397952E-10
   46.1549988         5.00100239E-10
   46.3199997         7.83129783E-10
   46.4850006         1.03467968E-09
   46.6500015         1.23197297E-09
   46.8149986         1.35428702E-09
   46.9799995         1.38514633E-09
   47.1450005         1.31446898E-09
   47.3100014         1.14040000E-09
   47.4749985         8.70534922E-10
   47.6399994         5.22256460E-10
   47.8050003         1.21979885E-10
   47.9700012        -2.96778824E-10
   48.1349983        -6.96437574E-10
   48.2999992        -1.03923381E-09
   48.4650002        -1.29154720E-09
   48.6300011        -1.42811962E-09
   48.7949982        -1.43558254E-09
   48.9599991        -1.31473510E-09
   49.1250000        -1.08113907E-09
   49.2900009        -7.63811125E-10
   49.4550018        -4.02049116E-10
   49.6199989        -4.07132453E-11
   49.7849998         2.75464873E-10
   49.9500008         5.07791531E-10
   50.1150017         6.28903096E-10
   50.2799988         6.26651953E-10
   50.4449997         5.05969711E-10
   50.6100006         2.88365026E-10
   50.7750015         9.05639105E-12
   50.9399986        -2.87902618E-10
   51.1049995        -5.55831159E-10
   51.2700005        -7.52064244E-10
   51.4350014        -8.44045556E-10
   51.5999985        -8.13950018E-10
   51.7649994        -6.61118271E-10
   51.9300003        -4.01924993E-10
   52.0950012        -6.70883626E-11
   52.2599983         3.03163078E-10
   52.4249992         6.65309363E-10
   52.5900002         9.79167414E-10
   52.7550011         1.21387633E-09
   52.9199982         1.35228673E-09
   53.0849991         1.39305656E-09
   53.2500000         1.35012479E-09
   53.4150009         1.24965871E-09
   53.5800018         1.12497656E-09
   53.7449989         1.01027908E-09
   53.9099998         9.34210043E-10
   54.0750008         9.14288478E-10
   54.2400017         9.53113255E-10
   54.4049988         1.03694409E-09
   54.5699997         1.13689502E-09
   54.7350006         1.21257815E-09
   54.9000015         1.21766519E-09
   55.0649986         1.10658860E-09
   55.2299995         8.41466230E-10
   55.3950005         3.98346245E-10
   55.5600014        -2.27990543E-10
   55.7249985        -1.02122688E-09
   55.8899994        -1.94298333E-09
   56.0550003        -2.93461166E-09
   56.2200012        -3.92111232E-09
   56.3849983        -4.81683848E-09
   56.5499992        -5.53256951E-09
   56.7150002        -5.98345329E-09
   56.8800011        -6.09732531E-09
   57.0449982        -5.82284887E-09
   57.2099991        -5.13689224E-09
   57.3750000        -4.05047862E-09
   57.5400009        -2.61258637E-09
   57.7050018        -9.11067499E-10
   57.8699989         9.29978872E-10
   58.0349998         2.75686229E-09
   58.2000008         4.39710490E-09
   58.3650017         5.67407499E-09
   58.5299988         6.42459952E-09
   58.6949997         6.51812293E-09
   58.8600006         5.87548943E-09
   59.0250015         4.48517490E-09
   59.1899986         2.41470288E-09
   59.3549995        -1.84779136E-10
   59.5200005        -3.08220294E-09
   59.6850014        -5.97919003E-09
   59.8499985        -8.53124504E-09
   60.0149994        -1.03761266E-08
   60.1800003        -1.11670859E-08
   60.3450012        -1.06079714E-08
   60.5099983        -8.48681303E-09
   60.6749992        -4.70454120E-09
   60.8400002         7.04160230E-10
   61.0050011         7.56004770E-09
   61.1699982         1.55399302E-08
   61.3349991         2.41888536E-08
   61.5000000         3.29431877E-08
   61.6650009         4.11628811E-08
   61.8300018         4.81705520E-08
   61.9949989         5.32947730E-08
   62.1599998         5.59145050E-08
   62.3250008         5.55019994E-08
   62.4900017         5.16615088E-08
   62.6549988         4.41615349E-08
   62.8199997         3.29588801E-08
   62.9850006         1.82129813E-08
   63.1500015         2.89609309E-10
   63.3149986        -2.02464889E-08
   63.4799995        -4.26500932E-08
   63.6450005        -6.60243700E-08
   63.8100014        -8.93589558E-08
   63.9749985        -1.11575396E-07
   64.1399994        -1.31577394E-07
   64.3050003        -1.48303101E-07
   64.4700012        -1.60776182E-07
   64.6350021        -1.68152440E-07
   64.8000031        -1.69759005E-07
   64.9649963        -1.65123623E-07
   65.1299973        -1.53992474E-07
   65.2949982        -1.36336055E-07
   65.4599991        -1.12343457E-07
   65.6250000        -8.24069843E-08
   65.7900009        -4.70996433E-08
   65.9550018        -7.14869497E-09
   66.1200027         3.65908228E-08
   66.2850037         8.31598754E-08
   66.4499969         1.31513445E-07
   66.6149979         1.80531757E-07
   66.7799988         2.29024252E-07
   66.9449997         2.75728013E-07
   67.1100006         3.19303325E-07
   67.2750015         3.58330254E-07
   67.4400024         3.91311175E-07
   67.6050034         4.16683633E-07
   67.7699966         4.32847798E-07
   67.9349976         4.38211970E-07
   68.0999985         4.31256439E-07
   68.2649994         4.10615371E-07
   68.4300003         3.75173215E-07
   68.5950012         3.24169747E-07
   68.7600021         2.57306766E-07
   68.9250031         1.74847273E-07
   69.0899963         7.76977060E-08
   69.2549973        -3.25355742E-08
   69.4199982        -1.53523672E-07
   69.5849991        -2.82232207E-07
   69.7500000        -4.14980946E-07
   69.9150009        -5.47545540E-07
   70.0800018        -6.75298338E-07
   70.2450027        -7.93381560E-07
   70.4100037        -8.96902748E-07
   70.5749969        -9.81141284E-07
   70.7399979        -1.04175331E-06
   70.9049988        -1.07496146E-06
   71.0699997        -1.07771723E-06
   71.2350006        -1.04782509E-06
   71.4000015        -9.84020858E-07
   71.5650024        -8.85998020E-07
   71.7300034        -7.54382938E-07
   71.8949966        -5.90660704E-07
   72.0599976        -3.97059779E-07
   72.2249985        -1.76405862E-07
   72.3899994         6.80407837E-08
   72.5550003         3.32751284E-07
   72.7200012         6.14081159E-07
   72.8850021         9.08398079E-07
   73.0500031         1.21217488E-06
   73.2149963         1.52204120E-06
   73.3799973         1.83479574E-06
   73.5449982         2.14738179E-06
   73.7099991         2.45683805E-06
   73.8750000         2.76023979E-06
   74.0400009         3.05464346E-06
   74.2050018         3.33705316E-06
   74.3700027         3.60442391E-06
   74.5350037         3.85371050E-06
   74.6999969         4.08196456E-06
   74.8649979         4.28648491E-06
   75.0299988         4.46500144E-06
   75.1949997         4.61588661E-06
   75.3600006         4.73837463E-06
   75.5250015         4.83275517E-06
   75.6900024         4.90053026E-06
   75.8550034         4.94450569E-06
   76.0199966         4.96880148E-06
   76.1849976         4.97877090E-06
   76.3499985         4.98082454E-06
   76.5149994         4.98216104E-06
   76.6800003         4.99042699E-06
   76.8450012         5.01331897E-06
   77.0100021         5.05815569E-06
   77.1750031         5.13145915E-06
   77.3399963         5.23856943E-06
   77.5049973         5.38332188E-06
   77.6699982         5.56782061E-06
   77.8349991         5.79232301E-06
   78.0000000         6.05523883E-06
   78.1650009         6.35325023E-06
   78.3300018         6.68153962E-06
   78.4950027         7.03410933E-06
   78.6600037         7.40416453E-06
   78.8249969         7.78452795E-06
   78.9899979         8.16806005E-06
   79.1549988         8.54805239E-06
   79.3199997         8.91856689E-06
   79.4850006         9.27469773E-06
   79.6500015         9.61275964E-06
   79.8150024         9.93037884E-06
   79.9800034         1.02264994E-05
   80.1449966         1.05013141E-05
   80.3099976         1.07561164E-05
   80.4749985         1.09931098E-05
   80.6399994         1.12151693E-05
   80.8050003         1.14255981E-05
   80.9700012         1.16278497E-05
   81.1350021         1.18252774E-05
   81.3000031         1.20208751E-05
   81.4649963         1.22170495E-05
   81.6299973         1.24154185E-05
   81.7949982         1.26166451E-05
   81.9599991         1.28203174E-05
   82.1250000         1.30248773E-05
   82.2900009         1.32276245E-05
   82.4550018         1.34247721E-05
   82.6200027         1.36116032E-05
   82.7850037         1.37826546E-05
   82.9499969         1.39319864E-05
   83.1149979         1.40534812E-05
   83.2799988         1.41411601E-05
   83.4449997         1.41894971E-05
   83.6100006         1.41937053E-05
   83.7750015         1.41499477E-05
   83.9400024         1.40554821E-05
   84.1050034         1.39087197E-05
   84.2699966         1.37091965E-05
   84.4349976         1.34574857E-05
   84.5999985         1.31550532E-05
   84.7649994         1.28041111E-05
   84.9300003         1.24074559E-05
   85.0950012         1.19683627E-05
   85.2600021         1.14905060E-05
   85.4250031         1.09779412E-05
   85.5899963         1.04351284E-05
   85.7549973         9.86700343E-06
   85.9199982         9.27905057E-06
   86.0849991         8.67737253E-06
   86.2500000         8.06872868E-06
   86.4150009         7.46052137E-06
   86.5800018         6.86071235E-06
   86.7450027         6.27769032E-06
   86.9100037         5.72008867E-06
   87.0749969         5.19656169E-06
   87.2399979         4.71554540E-06
   87.4049988         4.28501835E-06
   87.5699997         3.91226649E-06
   87.7350006         3.60367994E-06
   87.9000015         3.36457447E-06
   88.0650024         3.19903893E-06
   88.2300034         3.10980431E-06
   88.3949966         3.09812322E-06
   88.5599976         3.16365072E-06
   88.7249985         3.30432135E-06
   88.8899994         3.51621725E-06
   89.0550003         3.79344260E-06
   89.2200012         4.12801137E-06
   89.3850021         4.50976904E-06
   89.5500031         4.92636218E-06
   89.7149963         5.36328434E-06
   89.8799973         5.80400229E-06
   90.0449982         6.23019059E-06
   90.2099991         6.62206821E-06
   90.3750000         6.95884910E-06
   90.5400009         7.21929155E-06
   90.7050018         7.38232166E-06
   90.8700027         7.42771817E-06
   91.0350037         7.33679508E-06
   91.1999969         7.09308551E-06
   91.3649979         6.68297935E-06
   91.5299988         6.09629615E-06
   91.6949997         5.32678496E-06
   91.8600006         4.37254084E-06
   92.0250015         3.23632412E-06
   92.1900024         1.92578841E-06
   92.3550034         4.53587234E-07
   92.5199966        -1.16262902E-06
   92.6849976        -2.90035678E-06
   92.8499985        -4.73252703E-06
   93.0149994        -6.62796447E-06
   93.1800003        -8.55202597E-06
   93.3450012        -1.04674336E-05
   93.5100021        -1.23353057E-05
   93.6750031        -1.41163500E-05
   93.8399963        -1.57721861E-05
   94.0049973        -1.72667369E-05
   94.1699982        -1.85675945E-05
   94.3349991        -1.96473011E-05
   94.5000000        -2.04844455E-05
   94.6650009        -2.10645176E-05
   94.8300018        -2.13804833E-05
   94.9950027        -2.14330375E-05
   95.1600037        -2.12305476E-05
   95.3249969        -2.07887006E-05
   95.4899979        -2.01299099E-05
   95.6549988        -1.92825482E-05
   95.8199997        -1.82800432E-05
   95.9850006        -1.71599331E-05
   96.1500015        -1.59628944E-05
   96.3150024        -1.47317724E-05
   96.4800034        -1.35106284E-05
   96.6449966        -1.23437667E-05
   96.8099976        -1.12747366E-05
   96.9749985        -1.03452658E-05
   97.1399994        -9.59411409E-06
   97.3050003        -9.05583511E-06
   97.4700012        -8.75945898E-06
   97.6350021        -8.72714281E-06
   97.8000031        -8.97286554E-06
   97.9649963        -9.50123558E-06
   98.1299973        -1.03065440E-05
   98.2949982        -1.13721562E-05
   98.4599991        -1.26703690E-05
   98.6250000        -1.41627906E-05
   98.7900009        -1.58013136E-05
   98.9550018        -1.75296791E-05
   99.1200027        -1.92856132E-05
   99.2850037        -2.10034104E-05
   99.4499969        -2.26168704E-05
   99.6149979        -2.40624086E-05
   99.7799988        -2.52821592E-05
   99.9449997        -2.62268495E-05
   100.110001        -2.68583117E-05
   100.275002        -2.71514127E-05
   100.440002        -2.70953060E-05
   100.605003        -2.66939333E-05
   100.769997        -2.59657336E-05
   100.934998        -2.49425811E-05
   101.099998        -2.36680444E-05
   101.264999        -2.21950340E-05
   101.430000        -2.05830147E-05
   101.595001        -1.88949325E-05
   101.760002        -1.71940101E-05
   101.925003        -1.55405833E-05
   102.089996        -1.39891581E-05
   102.254997        -1.25857978E-05
   102.419998        -1.13660226E-05
   102.584999        -1.03532848E-05
   102.750000        -9.55813812E-06
   102.915001        -8.97813698E-06
   103.080002        -8.59846659E-06
   103.245003        -8.39329914E-06
   103.410004        -8.32777005E-06
   103.574997        -8.36046820E-06
   103.739998        -8.44626175E-06
   103.904999        -8.53928668E-06
   104.070000        -8.59584361E-06
   104.235001        -8.57702707E-06
   104.400002        -8.45084924E-06
   104.565002        -8.19372053E-06
   104.730003        -7.79117636E-06
   104.894997        -7.23779067E-06
   105.059998        -6.53635016E-06
   105.224998        -5.69638178E-06
   105.389999        -4.73223190E-06
   105.555000        -3.66092945E-06
   105.720001        -2.50008020E-06
   105.885002        -1.26603959E-06
   106.050003         2.74279994E-08
   106.214996         1.36985443E-06
   106.379997         2.75406092E-06
   106.544998         4.17546335E-06
   106.709999         5.63078311E-06
   106.875000         7.11635766E-06
   107.040001         8.62628440E-06
   107.205002         1.01506703E-05
   107.370003         1.16742385E-05
   107.535004         1.31755196E-05
   107.699997         1.46267730E-05
   107.864998         1.59946994E-05
   108.029999         1.72419186E-05
   108.195000         1.83290995E-05
   108.360001         1.92175703E-05
   108.525002         1.98721373E-05
   108.690002         2.02639094E-05
   108.855003         2.03728123E-05
   109.019997         2.01896128E-05
   109.184998         1.97172521E-05
   109.349998         1.89714174E-05
   109.514999         1.79803246E-05
   109.680000         1.67837607E-05
   109.845001         1.54314912E-05
   110.010002         1.39811782E-05
   110.175003         1.24959233E-05
   110.339996         1.10416258E-05
   110.504997         9.68425138E-06
   110.669998         8.48714171E-06
   110.834999         7.50845084E-06
   111.000000         6.79876803E-06
   111.165001         6.39898872E-06
   111.330002         6.33846730E-06
   111.495003         6.63349056E-06
   111.660004         7.28612576E-06
   111.824997         8.28349494E-06
   111.989998         9.59755562E-06
   112.154999         1.11854370E-05
   112.320000         1.29903856E-05
   112.485001         1.49433499E-05
   112.650002         1.69651739E-05
   112.815002         1.89693710E-05
   112.980003         2.08653455E-05
   113.144997         2.25619842E-05
   113.309998         2.39714063E-05
   113.474998         2.50126923E-05
   113.639999         2.56154090E-05
   113.805000         2.57227075E-05
   113.970001         2.52938298E-05
   114.135002         2.43058857E-05
   114.300003         2.27548244E-05
   114.464996         2.06555615E-05
   114.629997         1.80412935E-05
   114.794998         1.49620464E-05
   114.959999         1.14826062E-05
   115.125000         7.67991514E-06
   115.290001         3.64013181E-06
   115.455002        -5.44524880E-07
   115.620003        -4.77897493E-06
   115.785004        -8.96840629E-06
   115.949997        -1.30212229E-05
   116.114998        -1.68517181E-05
   116.279999        -2.03824020E-05
   116.445000        -2.35459520E-05
   116.610001        -2.62867416E-05
   116.775002        -2.85618898E-05
   116.940002        -3.03418674E-05
   117.105003        -3.16106343E-05
   117.269997        -3.23653403E-05
   117.434998        -3.26156005E-05
   117.599998        -3.23824461E-05
   117.764999        -3.16970145E-05
   117.930000        -3.05990761E-05
   118.095001        -2.91354681E-05
   118.260002        -2.73585592E-05
   118.425003        -2.53248218E-05
   118.589996        -2.30935384E-05
   118.754997        -2.07256744E-05
   118.919998        -1.82828680E-05
   119.084999        -1.58265229E-05
   119.250000        -1.34168968E-05
   119.415001        -1.11121426E-05
   119.580002        -8.96723759E-06
   119.745003        -7.03279056E-06
   119.910004        -5.35374465E-06
   120.074997        -3.96803352E-06
   120.239998        -2.90527532E-06
   120.404999        -2.18561991E-06
   120.570000        -1.81886230E-06
   120.735001        -1.80394193E-06
   120.900002        -2.12889267E-06
   121.065002        -2.77128879E-06
   121.230003        -3.69916233E-06
   121.394997        -4.87232592E-06
   121.559998        -6.24398945E-06
   121.724998        -7.76254547E-06
   121.889999        -9.37339701E-06
   122.055000        -1.10207147E-05
   122.220001        -1.26490349E-05
   122.385002        -1.42046756E-05
   122.550003        -1.56369279E-05
   122.714996        -1.68990919E-05
   122.879997        -1.79493709E-05
   123.044998        -1.87517344E-05
   123.209999        -1.92767711E-05
   123.375000        -1.95026132E-05
   123.540001        -1.94158965E-05
   123.705002        -1.90127539E-05
   123.870003        -1.82997155E-05
   124.035004        -1.72943946E-05
   124.199997        -1.60258223E-05
   124.364998        -1.45342583E-05
   124.529999        -1.28703705E-05
   124.695000        -1.10936835E-05
   124.860001        -9.27028123E-06
   125.025002        -7.46979958E-06
   125.190002        -5.76185766E-06
   125.355003        -4.21213417E-06
   125.519997        -2.87837247E-06
   125.684998        -1.80664449E-06
   125.849998        -1.02819297E-06
   126.014999        -5.57164071E-07
   126.180000        -3.89438242E-07
   126.345001        -5.02699379E-07
   126.510002        -8.57755367E-07
   126.675003        -1.40099769E-06
   126.839996        -2.06782170E-06
   127.004997        -2.78671291E-06
   127.169998        -3.48367439E-06
   127.334999        -4.08665210E-06
   127.500000        -4.52964287E-06
   127.665001        -4.75619072E-06
   127.830002        -4.72209877E-06
   127.995003        -4.39722317E-06
   128.160004        -3.76635421E-06
   128.324997        -2.82923656E-06
   128.490005        -1.59983381E-06
   128.654999        -1.05001909E-07
   128.820007         1.61728690E-06
   128.985001         3.51998574E-06
   129.149994         5.54916414E-06
   129.315002         7.64617926E-06
   129.479996         9.74973864E-06
   129.645004         1.17977561E-05
   129.809998         1.37289535E-05
   129.975006         1.54841728E-05
   130.139999         1.70074127E-05
   130.304993         1.82466483E-05
   130.470001         1.91544696E-05
   130.634995         1.96886103E-05