  -2.84999990         0.00000000    
  -2.68499994         0.00000000    
  -2.51999998         0.00000000    
  -2.35500002         0.00000000    
  -2.19000006         0.00000000    
  -2.02500010         0.00000000    
  -1.86000001         0.00000000    
  -1.69500005         0.00000000    
  -1.52999997         0.00000000    
  -1.36500001         0.00000000    
  -1.20000005         0.00000000    
  -1.03499997         0.00000000    
 -0.870000005         0.00000000    
 -0.704999983         0.00000000    
 -0.540000021         0.00000000    
 -0.375000000         0.00000000    
 -0.209999993         0.00000000    
  -4.50000018E-02     0.00000000    
  0.119999997         0.00000000    
  0.284999996         0.00000000    
  0.449999988         0.00000000    
  0.615000010         0.00000000    
  0.779999971         0.00000000    
  0.944999993         0.00000000    
   1.11000001         0.00000000    
   1.27499998        -1.40593705E-34
   1.44000006        -5.97465942E-33
   1.60500002        -1.15048372E-32
   1.76999998        -2.47387135E-32
   1.93499994        -3.04436110E-32
   2.09999990        -1.27494250E-32
   2.26500010         6.35480357E-32
   2.43000007         2.09290210E-31
   2.59500003         3.50830027E-31
   2.75999999         3.44344496E-31
   2.92499995         8.07041524E-33
   3.08999991        -1.75652146E-30
   3.25500011         7.40323634E-30
   3.42000008         2.58003955E-29
   3.58500004         4.52482916E-29
   3.75000000         5.59563598E-29
   3.91499996         1.09738285E-30
   4.07999992        -2.17508822E-28
   4.24499989        -6.50831962E-28
   4.40999985        -1.18479975E-27
   4.57499981        -1.39609025E-27
   4.73999977        -5.45693231E-28
   4.90500021         2.11160018E-27
   5.07000017         6.63793942E-27
   5.23500013         1.15530975E-26
   5.40000010         1.34258487E-26
   5.56500006         7.84339438E-27
   5.73000002        -7.65553378E-27
   5.89499998        -2.92877461E-26
   6.05999994        -4.39237690E-26
   6.22499990        -3.13106998E-26
   6.38999987         2.47898399E-26
   6.55499983         1.17272814E-25
   6.71999979         1.96805117E-25
   6.88500023         1.70106613E-25
   7.05000019        -6.63196041E-26
   7.21500015        -5.50864134E-25
   7.38000011        -1.16185742E-24
   7.54500008        -1.56037436E-24
   7.71000004        -1.24931842E-24
   7.87500000         1.94244820E-25
   8.03999996         2.73960092E-24
   8.20499992         5.53409196E-24
   8.36999989         6.82731740E-24
   8.53499985         4.48570016E-24
   8.69999981        -2.78960445E-24
   8.86499977        -1.38383968E-23
   9.02999973        -2.38258255E-23
   9.19499969        -2.45989565E-23
   9.35999966        -7.59368078E-24
   9.52499962         3.07118507E-23
   9.68999958         8.24957287E-23
   9.85499954         1.24935739E-22
   10.0200005         1.23488400E-22
   10.1850004         4.50045399E-23
   10.3500004        -1.20578248E-22
   10.5150003        -3.37387201E-22
   10.6800003        -5.12693703E-22
   10.8450003        -5.12438844E-22
   11.0100002        -2.11466649E-22
   11.1750002         4.28173151E-22
   11.3400002         1.27754350E-21
   11.5050001         2.00325676E-21
   11.6700001         2.11792265E-21
   11.8350000         1.14339655E-21
   12.0000000        -1.13410763E-21
   12.1650000        -4.39678888E-21
   12.3299999        -7.64369735E-21
   12.4949999        -9.29029164E-21
   12.6599998        -7.59920408E-21
   12.8249998        -1.40273191E-21
   12.9899998         9.07680230E-21
   13.1549997         2.16329282E-20
   13.3199997         3.20671072E-20
   13.4849997         3.50143291E-20
   13.6499996         2.55835687E-20
   13.8149996         1.43932456E-21
   13.9799995        -3.53663462E-20
   14.1450005        -7.76238888E-20
   14.3100004        -1.13876391E-19
   14.4750004        -1.31098705E-19
   14.6400003        -1.18498586E-19
   14.8050003        -7.11237033E-20
   14.9700003         8.30586028E-21
   15.1350002         1.10506367E-19
   15.3000002         2.23702441E-19
   15.4650002         3.39092740E-19
   15.6300001         4.54714676E-19
   15.7950001         5.74253131E-19
   15.9600000         6.98500726E-19
   16.1250000         8.10130094E-19
   16.2900009         8.56544852E-19
   16.4549999         7.39359933E-19
   16.6200008         3.20584238E-19
   16.7849998        -5.46941282E-19
   16.9500008        -1.96437859E-18
   17.1149998        -3.91699344E-18
   17.2800007        -6.20990501E-18
   17.4449997        -8.43566895E-18
   17.6100006        -9.99674157E-18
   17.7749996        -1.01920604E-17
   17.9400005        -8.35496342E-18
   18.1049995        -4.00681698E-18
   18.2700005         3.02269746E-18
   18.4349995         1.25515319E-17
   18.6000004         2.40907701E-17
   18.7649994         3.69449070E-17
   18.9300003         5.02830521E-17
   19.0949993         6.30718997E-17
   19.2600002         7.37853974E-17
   19.4249992         7.98929351E-17
   19.5900002         7.72699321E-17
   19.7549992         5.98332427E-17
   19.9200001         1.98185047E-17
   20.0849991        -5.08871918E-17
   20.2500000        -1.58122311E-16
   20.4150009        -3.01670546E-16
   20.5799999        -4.70963236E-16
   20.7450008        -6.41429093E-16
   20.9099998        -7.73019473E-16
   21.0750008        -8.12459709E-16
   21.2399998        -7.00313765E-16
   21.4050007        -3.82986794E-16
   21.5699997         1.71556743E-16
   21.7350006         9.57009482E-16
   21.8999996         1.91465763E-15
   22.0650005         2.92625489E-15
   22.2299995         3.81750084E-15
   22.3950005         4.37421155E-15
   22.5599995         4.37088525E-15
   22.7250004         3.60869620E-15
   22.8899994         1.95766699E-15
   23.0550003        -6.03605525E-16
   23.2199993        -3.95726508E-15
   23.3850002        -7.82993360E-15
   23.5499992        -1.17942367E-14
   23.7150002        -1.52893835E-14
   23.8799992        -1.76607521E-14
   24.0450001        -1.82180134E-14
   24.2099991        -1.63118047E-14
   24.3750000        -1.14289444E-14
   24.5400009        -3.30477422E-15
   24.7049999         7.95338950E-15
   24.8700008         2.17454008E-14
   25.0349998         3.68838904E-14
   25.2000008         5.15595020E-14
   25.3649998         6.34037432E-14
   25.5300007         6.96830289E-14
   25.6949997         6.76406698E-14
   25.8600006         5.49742645E-14
   26.0249996         3.03974341E-14
   26.1900005        -5.80448682E-15
   26.3549995        -5.13454974E-14
   26.5200005        -1.01766394E-13
   26.6849995        -1.50628316E-13
   26.8500004        -1.90129583E-13
   27.0149994        -2.12124751E-13
   27.1800003        -2.09432244E-13
   27.3449993        -1.77232591E-13
   27.5100002        -1.14302583E-13
   27.6749992        -2.38219461E-14
   27.8400002         8.64629210E-14
   28.0049992         2.04830930E-13
   28.1700001         3.16908473E-13
   28.3349991         4.07546392E-13
   28.5000000         4.62952268E-13
   28.6650009         4.72710738E-13
   28.8299999         4.31330671E-13
   28.9950008         3.39047014E-13
   29.1599998         2.01757719E-13
   29.3250008         3.01573816E-14
   29.4899998        -1.61699755E-13
   29.6550007        -3.58064544E-13
   29.8199997        -5.43021194E-13
   29.9850006        -7.01594815E-13
   30.1499996        -8.20318043E-13
   30.3150005        -8.87340169E-13
   30.4799995        -8.92350538E-13
   30.6450005        -8.26691471E-13
   30.8099995        -6.84018380E-13
   30.9750004        -4.61700231E-13
   31.1399994        -1.62880858E-13
   31.3050003         2.01204626E-13
   31.4699993         6.09340649E-13
   31.6350002         1.02968805E-12
   31.7999992         1.42111702E-12
   31.9650002         1.73691768E-12
   32.1300011         1.93075243E-12
   32.2949982         1.96408124E-12
   32.4599991         1.81371368E-12
   32.6250000         1.47780757E-12
   32.7900009         9.78660404E-13
   32.9550018         3.61116979E-13
   33.1199989        -3.13708749E-13
   33.2849998        -9.78585052E-13
   33.4500008        -1.57226619E-12
   33.6150017        -2.05082782E-12
   33.7799988        -2.39528883E-12
   33.9449997        -2.61307902E-12
   34.1100006        -2.73216497E-12
   34.2750015        -2.78842964E-12
   34.4399986        -2.80884192E-12
   34.6049995        -2.79459008E-12
   34.7700005        -2.70916753E-12
   34.9350014        -2.47606818E-12
   35.0999985        -1.98910593E-12
   35.2649994        -1.13567055E-12
   35.4300003         1.70104477E-13
   35.5950012         1.95047125E-12
   35.7599983         4.13193221E-12
   35.9249992         6.52686715E-12
   36.0900002         8.83648016E-12
   36.2550011         1.06791468E-11
   36.4199982         1.16432454E-11
   36.5849991         1.13580916E-11
   36.7500000         9.57166898E-12
   36.9150009         6.22079731E-12
   37.0800018         1.47891053E-12
   37.2449989        -4.23081318E-12
   37.4099998        -1.02640431E-11
   37.5750008        -1.58255960E-11
   37.7400017        -2.00739182E-11
   37.9049988        -2.22455492E-11
   38.0699997        -2.17809486E-11
   38.2350006        -1.84316607E-11
   38.4000015        -1.23305593E-11
   38.5649986        -4.01176401E-12
   38.7299995         5.62629197E-12
   38.8950005         1.54133130E-11
   39.0600014         2.40458608E-11
   39.2249985         3.02563530E-11
   39.3899994         3.29912660E-11
   39.5550003         3.15748955E-11
   39.7200012         2.58347198E-11
   39.8849983         1.61674025E-11
   40.0499992         3.53016314E-12
   40.2150002        -1.06492254E-11
   40.3800011        -2.46392785E-11
   40.5449982        -3.66317081E-11
   40.7099991        -4.49993688E-11
   40.8750000        -4.85468471E-11
   41.0400009        -4.67107290E-11
   41.2050018        -3.96694830E-11
   41.3699989        -2.83338335E-11
   41.5349998        -1.42075050E-11
   41.7000008         8.67697136E-13
   41.8650017         1.50430675E-11
   42.0299988         2.68101825E-11
   42.1949997         3.52925779E-11
   42.3600006         4.04135857E-11
   42.5250015         4.28904343E-11
   42.6899986         4.40376902E-11
   42.8549995         4.54041700E-11
   43.0200005         4.83094502E-11
   43.1850014         5.33782775E-11
   43.3499985         6.01861963E-11
   43.5149994         6.71194628E-11
   43.6800003         7.15184023E-11
   43.8450012         7.01166070E-11
   44.0099983         5.97225880E-11
   44.1749992         3.80257215E-11
   44.3400002         4.36214953E-12
   44.5050011        -3.97401799E-11
   44.6699982        -9.03958922E-11
   44.8349991        -1.41674228E-10
   45.0000000        -1.86397037E-10
   45.1650009        -2.17325699E-10
   45.3300018        -2.28543462E-10
   45.4949989        -2.16771240E-10
   45.6599998        -1.82333079E-10
   45.8250008        -1.29525571E-10
   45.9900017        -6.62368493E-11
   46.1549988        -2.79828591E-12
   46.3199997         4.97940300E-11
   46.4850006         8.20055759E-11
   46.6500015         8.78541198E-11
   46.8149986         6.65470040E-11
   46.9799995         2.32930602E-11
   47.1450005        -3.09591658E-11
   47.3100014        -8.09181402E-11
   47.4749985        -1.09334312E-10
   47.6399994        -1.00022844E-10
   47.8050003        -4.10303354E-11
   47.9700012         7.26139010E-11
   48.1349983         2.37079995E-10
   48.2999992         4.39236036E-10
   48.4650002         6.57629506E-10
   48.6300011         8.64867900E-10
   48.7949982         1.03106845E-09
   48.9599991         1.12785703E-09
   49.1250000         1.13229703E-09
   49.2900009         1.03013686E-09
   49.4550018         8.17883261E-10
   49.6199989         5.03408426E-10
   49.7849998         1.05045493E-10
   49.9500008        -3.50624862E-10
   50.1150017        -8.31895386E-10
   50.2799988        -1.30543665E-09
   50.4449997        -1.73963743E-09
   50.6100006        -2.10730500E-09
   50.7750015        -2.38739806E-09
   50.9399986        -2.56565036E-09
   51.1049995        -2.63414512E-09
   51.2700005        -2.59007082E-09
   51.4350014        -2.43399967E-09
   51.5999985        -2.16809948E-09
   51.7649994        -1.79466431E-09
   51.9300003        -1.31529854E-09
   52.0950012        -7.30973726E-10
   52.2599983        -4.30503480E-11
   52.4249992         7.44791062E-10
   52.5900002         1.62390712E-09
   52.7550011         2.57768562E-09
   52.9199982         3.57861829E-09
   53.0849991         4.58600757E-09
   53.2500000         5.54487034E-09
   53.4150009         6.38656728E-09
   53.5800018         7.03155978E-09
   53.7449989         7.39448680E-09
   53.9099998         7.39143413E-09
   54.0750008         6.94894320E-09
   54.2400017         6.01394268E-09
   54.4049988         4.56348337E-09
   54.5699997         2.61298538E-09
   54.7350006         2.21683005E-10
   54.9000015        -2.50586774E-09
   55.0649986        -5.42296741E-09
   55.2299995        -8.34885139E-09
   55.3950005        -1.10812524E-08
   55.5600014        -1.34123921E-08
   55.7249985        -1.51468171E-08
   55.8899994        -1.61191505E-08
   56.0550003        -1.62097393E-08
   56.2200012        -1.53564077E-08
   56.3849983        -1.35609426E-08
   56.5499992        -1.08896838E-08
   56.7150002        -7.46830509E-09
   56.8800011        -3.47165185E-09
   57.0449982         8.89899654E-10
   57.2099991         5.38573541E-09
   57.3750000         9.78009140E-09
   57.5400009         1.38453391E-08
   57.7050018         1.73724004E-08
   57.8699989         2.01779269E-08
   58.0349998         2.21086101E-08
   58.2000008         2.30435546E-08
   58.3650017         2.28960300E-08
   58.5299988         2.16159162E-08
   58.6949997         1.91937364E-08
   58.8600006         1.56666520E-08
   59.0250015         1.11257910E-08
   59.1899986         5.72353942E-09
   59.3549995        -3.21306676E-10
   59.5200005        -6.72292755E-09
   59.6850014        -1.31346001E-08
   59.8499985        -1.91631369E-08
   60.0149994        -2.43919622E-08
   60.1800003        -2.84118435E-08
   60.3450012        -3.08566719E-08
   60.5099983        -3.14405391E-08
   60.6749992        -2.99915293E-08
   60.8400002        -2.64776059E-08
   61.0050011        -2.10205968E-08
   61.1699982        -1.38957326E-08
   61.3349991        -5.51601032E-09
   61.5000000         3.59723096E-09
   61.6650009         1.28542705E-08
   61.8300018         2.16427551E-08
   61.9949989         2.93739770E-08
   62.1599998         3.55245433E-08
   62.3250008         3.96694197E-08
   62.4900017         4.15039914E-08
   62.6549988         4.08547365E-08
   62.8199997         3.76798859E-08
   62.9850006         3.20627578E-08
   63.1500015         2.42011016E-08
   63.3149986         1.43953081E-08
   63.4799995         3.03754044E-09
   63.6450005        -9.39784428E-09
   63.8100014        -2.23635936E-08
   63.9749985        -3.52510341E-08
   64.1399994        -4.74064663E-08
   64.3050003        -5.81551092E-08
   64.4700012        -6.68336710E-08
   64.6350021        -7.28309857E-08
   64.8000031        -7.56337926E-08
   64.9649963        -7.48727302E-08
   65.1299973        -7.03625176E-08
   65.2949982        -6.21298355E-08
   65.4599991        -5.04236368E-08
   65.6250000        -3.57045629E-08
   65.7900009        -1.86133047E-08
   65.9550018         7.92567678E-11
   66.1200027         1.95341787E-08
   66.2850037         3.89109900E-08
   66.4499969         5.74298049E-08
   66.6149979         7.44212869E-08
   66.7799988         8.93581600E-08
   66.9449997         1.01865844E-07
   67.1100006         1.11712481E-07
   67.2750015         1.18782729E-07
   67.4400024         1.23041445E-07
   67.6050034         1.24495145E-07
   67.7699966         1.23158557E-07
   67.9349976         1.19031931E-07
   68.0999985         1.12092764E-07
   68.2649994         1.02301428E-07
   68.4300003         8.96186449E-08
   68.5950012         7.40296358E-08
   68.7600021         5.55697532E-08
   68.9250031         3.43460087E-08
   69.0899963         1.05511164E-08
   69.2549973        -1.55313700E-08
   69.4199982        -4.35299583E-08
   69.5849991        -7.29930250E-08
   69.7500000        -1.03397589E-07
   69.9150009        -1.34155201E-07
   70.0800018        -1.64612231E-07
   70.2450027        -1.94043963E-07
   70.4100037        -2.21644854E-07
   70.5749969        -2.46518596E-07
   70.7399979        -2.67673755E-07
   70.9049988        -2.84030079E-07
   71.0699997        -2.94439900E-07
   71.2350006        -2.97726899E-07
   71.4000015        -2.92739315E-07
   71.5650024        -2.78414575E-07
   71.7300034        -2.53847787E-07
   71.8949966        -2.18355865E-07
   72.0599976        -1.71529436E-07
   72.2249985        -1.13266964E-07
   72.3899994        -4.37871961E-08
   72.5550003         3.63788040E-08
   72.7200012         1.26413738E-07
   72.8850021         2.25252052E-07
   73.0500031         3.31623937E-07
   73.2149963         4.44100237E-07
   73.3799973         5.61134584E-07
   73.5449982         6.81103586E-07
   73.7099991         8.02344914E-07
   73.8750000         9.23197774E-07
   74.0400009         1.04205242E-06
   74.2050018         1.15740568E-06
   74.3700027         1.26792611E-06
   74.5350037         1.37252550E-06
   74.6999969         1.47042897E-06
   74.8649979         1.56123599E-06
   75.0299988         1.64496157E-06
   75.1949997         1.72205216E-06
   75.3600006         1.79336791E-06
   75.5250015         1.86013506E-06
   75.6900024         1.92386869E-06
   75.8550034         1.98627640E-06
   76.0199966         2.04915227E-06
   76.1849976         2.11427209E-06
   76.3499985         2.18330683E-06
   76.5149994         2.25775693E-06
   76.6800003         2.33891183E-06
   76.8450012         2.42784245E-06
   77.0100021         2.52541145E-06
   77.1750031         2.63230731E-06
   77.3399963         2.74907893E-06
   77.5049973         2.87617513E-06
   77.6699982         3.01397017E-06
   77.8349991         3.16278010E-06
   78.0000000         3.32285435E-06
   78.1650009         3.49435777E-06
   78.3300018         3.67733787E-06
   78.4950027         3.87168348E-06
   78.6600037         4.07708740E-06
   78.8249969         4.29301372E-06
   78.9899979         4.51867845E-06
   79.1549988         4.75304705E-06
   79.3199997         4.99484213E-06
   79.4850006         5.24257257E-06
   79.6500015         5.49456581E-06
   79.8150024         5.74900923E-06
   79.9800034         6.00398562E-06
   80.1449966         6.25751363E-06
   80.3099976         6.50758102E-06
   80.4749985         6.75217780E-06
   80.6399994         6.98934355E-06
   80.8050003         7.21722108E-06
   80.9700012         7.43414193E-06
   81.1350021         7.63873686E-06
   81.3000031         7.83007545E-06
   81.4649963         8.00782072E-06
   81.6299973         8.17239379E-06
   81.7949982         8.32510887E-06
   81.9599991         8.46826788E-06
   82.1250000         8.60517048E-06
   82.2900009         8.74002035E-06
   82.4550018         8.87771694E-06
   82.6200027         9.02353077E-06
   82.7850037         9.18267779E-06
   82.9499969         9.35983371E-06
   83.1149979         9.55861742E-06
   83.2799988         9.78112894E-06
   83.4449997         1.00275620E-05
   83.6100006         1.02959502E-05
   83.7750015         1.05820918E-05
   83.9400024         1.08796430E-05
   84.1050034         1.11804011E-05
   84.2699966         1.14747290E-05
   84.4349976         1.17520985E-05
   84.5999985         1.20017021E-05
   84.7649994         1.22130859E-05
   84.9300003         1.23767659E-05
   85.0950012         1.24847820E-05
   85.2600021         1.25311799E-05
   85.4250031         1.25123815E-05
   85.5899963         1.24274638E-05
   85.7549973         1.22783113E-05
   85.9199982         1.20696604E-05
   86.0849991         1.18090229E-05
   86.2500000         1.15064850E-05
   86.4150009         1.11743830E-05
   86.5800018         1.08268669E-05
   86.7450027         1.04793344E-05
   86.9100037         1.01477754E-05
   87.0749969         9.84804319E-06
   87.2399979         9.59507634E-06
   87.4049988         9.40213977E-06
   87.5699997         9.28010468E-06
   87.7350006         9.23683456E-06
   87.9000015         9.27671408E-06
   88.0650024         9.40035807E-06
   88.2300034         9.60452871E-06
   88.3949966         9.88225929E-06
   88.5599976         1.02231879E-05
   88.7249985         1.06140697E-05
   88.8899994         1.10394249E-05
   89.0550003         1.14822906E-05
   89.2200012         1.19249889E-05
   89.3850021         1.23498921E-05
   89.5500031         1.27401017E-05
   89.7149963         1.30800399E-05
   89.8799973         1.33558970E-05
   90.0449982         1.35559612E-05
   90.2099991         1.36708331E-05
   90.3750000         1.36935460E-05
   90.5400009         1.36196368E-05
   90.7050018         1.34471829E-05
   90.8700027         1.31768402E-05
   91.0350037         1.28118727E-05
   91.1999969         1.23581685E-05
   91.3649979         1.18242051E-05
   91.5299988         1.12209273E-05
   91.6949997         1.05614909E-05
   91.8600006         9.86084342E-06
   92.0250015         9.13513850E-06
   92.1900024         8.40097709E-06
   92.3550034         7.67455367E-06
   92.5199966         6.97075893E-06
   92.6849976         6.30233444E-06
   92.8499985         5.67917232E-06
   93.0149994         5.10784594E-06
   93.1800003         4.59142439E-06
   93.3450012         4.12959025E-06
   93.5100021         3.71905571E-06
   93.6750031         3.35421100E-06
   93.8399963         3.02793319E-06
   94.0049973         2.73245610E-06
   94.1699982         2.46020250E-06
   94.3349991         2.20448487E-06
   94.5000000         1.96001429E-06
   94.6650009         1.72317232E-06
   94.8300018         1.49204743E-06
   94.9950027         1.26624195E-06
   95.1600037         1.04650655E-06
   95.3249969         8.34256753E-07
   95.4899979         6.31043974E-07
   95.6549988         4.38042349E-07
   95.8199997         2.55628123E-07
   95.9850006         8.30892546E-08
   96.1500015        -8.14977099E-08
   96.3150024        -2.41211865E-07
   96.4800034        -4.00066199E-07
   96.6449966        -5.62659636E-07
   96.8099976        -7.33741558E-07
   96.9749985        -9.17769739E-07
   97.1399994        -1.11851671E-06
   97.3050003        -1.33879519E-06
   97.4700012        -1.58033436E-06
   97.6350021        -1.84383941E-06
   97.8000031        -2.12920736E-06
   97.9649963        -2.43587283E-06
   98.1299973        -2.76320679E-06
   98.2949982        -3.11090571E-06
   98.4599991        -3.47928403E-06
   98.6250000        -3.86941520E-06
   98.7900009        -4.28309750E-06
   98.9550018        -4.72262172E-06
   99.1200027        -5.19038713E-06
   99.2850037        -5.68840642E-06
   99.4499969        -6.21777554E-06
   99.6149979        -6.77817752E-06
   99.7799988        -7.36745324E-06
   99.9449997        -7.98132805E-06
   100.110001        -8.61325407E-06
   100.275002        -9.25442419E-06
   100.440002        -9.89389991E-06
   100.605003        -1.05188756E-05
   100.769997        -1.11150184E-05
   100.934998        -1.16669362E-05
   101.099998        -1.21587154E-05
   101.264999        -1.25745810E-05
   101.430000        -1.28996517E-05
   101.595001        -1.31208117E-05
   101.760002        -1.32276427E-05
   101.925003        -1.32134019E-05
   102.089996        -1.30759427E-05
   102.254997        -1.28185166E-05
   102.419998        -1.24503331E-05
   102.584999        -1.19868064E-05
   102.750000        -1.14493732E-05
   102.915001        -1.08648701E-05
   103.080002        -1.02644035E-05
   103.245003        -9.68179575E-06
   103.410004        -9.15162036E-06
   103.574997        -8.70697568E-06
   103.739998        -8.37713924E-06
   103.904999        -8.18524677E-06
   104.070000        -8.14623218E-06
   104.235001        -8.26515588E-06
   104.400002        -8.53614711E-06
   104.565002        -8.94203549E-06
   104.730003        -9.45480951E-06
   104.894997        -1.00368788E-05
   105.059998        -1.06431153E-05
   105.224998        -1.12235148E-05
   105.389999        -1.17263198E-05
   105.555000        -1.21013163E-05
   105.720001        -1.23030695E-05
   105.885002        -1.22937909E-05
   106.050003        -1.20456225E-05
   106.214996        -1.15421535E-05
   106.379997        -1.07790693E-05
   106.544998        -9.76392585E-06
   106.709999        -8.51513505E-06
   106.875000        -7.06031460E-06
   107.040001        -5.43419992E-06
   107.205002        -3.67634652E-06
   107.370003        -1.82884264E-06
   107.535004         6.57992203E-08
   107.699997         1.96642486E-06
   107.864998         3.83462930E-06
   108.029999         5.63575304E-06
   108.195000         7.33949992E-06
   108.360001         8.92024309E-06
   108.525002         1.03571065E-05
   108.690002         1.16338806E-05
   108.855003         1.27388303E-05
   109.019997         1.36644430E-05
   109.184998         1.44071073E-05
   109.349998         1.49667485E-05
   109.514999         1.53463916E-05
   109.680000         1.55516682E-05
   109.845001         1.55902489E-05
   110.010002         1.54712779E-05
   110.175003         1.52048042E-05
   110.339996         1.48013005E-05
   110.504997         1.42713188E-05
   110.669998         1.36253429E-05
   110.834999         1.28738620E-05
   111.000000         1.20276891E-05
   111.165001         1.10984693E-05
   111.330002         1.00993375E-05
   111.495003         9.04562330E-06
   111.660004         7.95547567E-06
   111.824997         6.85030545E-06
   111.989998         5.75492368E-06
   112.154999         4.69727911E-06
   112.320000         3.70776752E-06
   112.485001         2.81811140E-06
   112.650002         2.05984384E-06
   112.815002         1.46254092E-06
   112.980003         1.05191759E-06
   113.144997         8.47963577E-07
   113.309998         8.63307946E-07
   113.474998         1.10195469E-06
   113.639999         1.55852001E-06
   113.805000         2.21806499E-06
   113.970001         3.05654430E-06
   114.135002         4.04184402E-06
   114.300003         5.13533587E-06
   114.464996         6.29382521E-06
   114.629997         7.47173863E-06
   114.794998         8.62339493E-06
   114.959999         9.70518340E-06
   115.125000         1.06775133E-05
   115.290001         1.15064095E-05
   115.455002         1.21646653E-05
   115.620003         1.26325494E-05
   115.785004         1.28980537E-05
   115.949997         1.29567525E-05
   116.114998         1.28113634E-05
   116.279999         1.24711014E-05
   116.445000         1.19509532E-05
   116.610001         1.12709349E-05
   116.775002         1.04553828E-05
   116.940002         9.53229664E-06
   117.105003         8.53269376E-06
   117.269997         7.48989441E-06
   117.434998         6.43868452E-06
   117.599998         5.41426152E-06
   117.764999         4.45096430E-06
   117.930000         3.58079160E-06
   118.095001         2.83180270E-06
   118.260002         2.22655740E-06
   118.425003         1.78077960E-06
   118.589996         1.50244921E-06
   118.754997         1.39148119E-06
   118.919998         1.44009994E-06
   119.084999         1.63392315E-06
   119.250000         1.95363054E-06
   119.415001         2.37703080E-06
   119.580002         2.88122510E-06
   119.745003         3.44456021E-06
   119.910004         4.04806360E-06
   120.074997         4.67614427E-06
   120.239998         5.31645037E-06
   120.404999         5.95892197E-06
   120.570000         6.59422403E-06
   120.735001         7.21184551E-06
   120.900002         7.79824131E-06
   121.065002         8.33537251E-06
   121.230003         8.79995969E-06
   121.394997         9.16364570E-06
   121.559998         9.39409802E-06
   121.724998         9.45695774E-06
   121.889999         9.31837349E-06
   122.055000         8.94778168E-06
   122.220001         8.32056139E-06
   122.385002         7.42022803E-06
   122.550003         6.23990400E-06
   122.714996         4.78294942E-06
   122.879997         3.06275933E-06
   123.044998         1.10187716E-06
   123.209999        -1.06934897E-06
   123.375000        -3.41430245E-06
   123.540001        -5.89155798E-06
   123.705002        -8.45609247E-06
   123.870003        -1.10601404E-05
   124.035004        -1.36537401E-05
   124.199997        -1.61850676E-05
   124.364998        -1.86007746E-05
   124.529999        -2.08465262E-05
   124.695000        -2.28679437E-05
   124.860001        -2.46120817E-05
   125.025002        -2.60294328E-05
   125.190002        -2.70763940E-05
   125.355003        -2.77180043E-05
   125.519997        -2.79306532E-05
   125.684998        -2.77044510E-05
   125.849998        -2.70449746E-05
   126.014999        -2.59741082E-05
   126.180000        -2.45298306E-05
   126.345001        -2.27648998E-05
   126.510002        -2.07444864E-05
   126.675003        -1.85429690E-05
   126.839996        -1.62400902E-05
   127.004997        -1.39168460E-05
   127.169998        -1.16513565E-05
   127.334999        -9.51500442E-06
   127.500000        -7.56909003E-06
   127.665001        -5.86209399E-06
   127.830002        -4.42765122E-06
   127.995003        -3.28322517E-06
   128.160004        -2.42945976E-06
   128.324997        -1.85013994E-06
   128.490005        -1.51273673E-06
   128.654999        -1.36950507E-06
   128.820007        -1.35911978E-06
   128.985001        -1.40887232E-06
   129.149994        -1.43742693E-06
   129.315002        -1.35812559E-06
   129.479996        -1.08278277E-06
   129.645004        -5.25856024E-07
   129.809998         3.91161848E-07
   129.975006         1.73532942E-06
   130.139999         3.55806765E-06
   130.304993         5.89141337E-06
   130.470001         8.74493890E-06
   130.634995         1.21035055E-05