  -2.84999990         0.00000000    
  -2.68499994         0.00000000    
  -2.51999998         0.00000000    
  -2.35500002         0.00000000    
  -2.19000006         0.00000000    
  -2.02500010         0.00000000    
  -1.86000001         0.00000000    
  -1.69500005         0.00000000    
  -1.52999997         0.00000000    
  -1.36500001         0.00000000    
  -1.20000005         0.00000000    
  -1.03499997         0.00000000    
 -0.870000005         0.00000000    
 -0.704999983         0.00000000    
 -0.540000021         0.00000000    
 -0.375000000         0.00000000    
 -0.209999993         0.00000000    
  -4.50000018E-02     0.00000000    
  0.119999997         0.00000000    
  0.284999996         0.00000000    
  0.449999988         0.00000000    
  0.615000010         0.00000000    
  0.779999971         0.00000000    
  0.944999993         0.00000000    
   1.11000001         0.00000000    
   1.27499998         5.85179042E-34
   1.44000006         1.15996996E-32
   1.60500002         4.38568067E-32
   1.76999998         8.12679548E-32
   1.93499994         5.03916443E-32
   2.09999990        -1.03369717E-31
   2.26500010        -4.18369395E-31
   2.43000007        -7.90864230E-31
   2.59500003        -8.56633985E-31
   2.75999999        -6.38885411E-32
   2.92499995         2.09496133E-30
   3.08999991         5.29138306E-30
   3.25500011         8.05492364E-30
   3.42000008         2.34118169E-30
   3.58500004         1.56075527E-29
   3.75000000         9.77466502E-29
   3.91499996         2.88782819E-28
   4.07999992         5.44808796E-28
   4.24499989         6.39495697E-28
   4.40999985         9.42798560E-29
   4.57499981        -1.66428466E-27
   4.73999977        -4.84194003E-27
   4.90500021        -8.68122937E-27
   5.07000017        -1.10612682E-26
   5.23500013        -8.93013194E-27
   5.40000010        -2.44996209E-29
   5.56500006         1.44466963E-26
   5.73000002         2.77622124E-26
   5.89499998         2.89940926E-26
   6.05999994         9.96059459E-27
   6.22499990        -2.29607457E-26
   6.38999987        -3.84794209E-26
   6.55499983         1.69634523E-26
   6.71999979         1.92263029E-25
   6.88500023         4.79849445E-25
   7.05000019         7.59681631E-25
   7.21500015         7.82314592E-25
   7.38000011         2.40041351E-25
   7.54500008        -1.05523626E-24
   7.71000004        -2.93978167E-24
   7.87500000        -4.75024230E-24
   8.03999996        -5.44277934E-24
   8.20499992        -4.09287346E-24
   8.36999989        -6.73697025E-25
   8.53499985         3.29822271E-24
   8.69999981         4.89615790E-24
   8.86499977         1.26230120E-24
   9.02999973        -7.57795642E-24
   9.19499969        -1.56089982E-23
   9.35999966        -9.54541259E-24
   9.52499962         2.81126897E-23
   9.68999958         1.10256918E-22
   9.85499954         2.31978395E-22
   10.0200005         3.58276238E-22
   10.1850004         4.20954102E-22
   10.3500004         3.32588377E-22
   10.5150003         1.97177598E-23
   10.6800003        -5.33216708E-22
   10.8450003        -1.24915723E-21
   11.0100002        -1.95820450E-21
   11.1750002        -2.44887648E-21
   11.3400002        -2.56315403E-21
   11.5050001        -2.29288872E-21
   11.6700001        -1.80741832E-21
   11.8350000        -1.34477050E-21
   12.0000000        -9.49721079E-22
   12.1650000        -1.39615064E-22
   12.3299999         2.30904075E-21
   12.4949999         8.19485813E-21
   12.6599998         1.91399884E-20
   12.8249998         3.52575364E-20
   12.9899998         5.35900269E-20
   13.1549997         6.70397252E-20
   13.3199997         6.47125301E-20
   13.4849997         3.44300133E-20
   13.6499996        -3.24837349E-20
   13.8149996        -1.35084914E-19
   13.9799995        -2.57445283E-19
   14.1450005        -3.66838678E-19
   14.3100004        -4.18031620E-19
   14.4750004        -3.64701321E-19
   14.6400003        -1.76331125E-19
   14.8050003         1.44146652E-19
   14.9700003         5.48940164E-19
   15.1350002         9.47254357E-19
   15.3000002         1.22438189E-18
   15.4650002         1.27594657E-18
   15.6300001         1.04775587E-18
   15.7950001         5.65708201E-19
   15.9600000        -6.09631788E-20
   16.1250000        -6.73604761E-19
   16.2900009        -1.13193287E-18
   16.4549999        -1.39437009E-18
   16.6200008        -1.57401676E-18
   16.7849998        -1.92872215E-18
   16.9500008        -2.75716834E-18
   17.1149998        -4.20627545E-18
   17.2800007        -6.04210356E-18
   17.4449997        -7.48130187E-18
   17.6100006        -7.20179258E-18
   17.7749996        -3.62956017E-18
   17.9400005         4.47657078E-18
   18.1049995         1.72396053E-17
   18.2700005         3.29084972E-17
   18.4349995         4.74585380E-17
   18.6000004         5.48829473E-17
   18.7649994         4.83913893E-17
   18.9300003         2.24825689E-17
   19.0949993        -2.44758458E-17
   19.2600002        -8.78534169E-17
   19.4249992        -1.55445475E-16
   19.5900002        -2.08107220E-16
   19.7549992        -2.22866280E-16
   19.9200001        -1.78437536E-16
   20.0849991        -6.22925367E-17
   20.2500000         1.22305509E-16
   20.4150009         3.51364778E-16
   20.5799999         5.79394253E-16
   20.7450008         7.44286527E-16
   20.9099998         7.78203950E-16
   21.0750008         6.23308305E-16
   21.2399998         2.49621589E-16
   21.4050007        -3.28911258E-16
   21.5699997        -1.04457321E-15
   21.7350006        -1.77616753E-15
   21.8999996        -2.36182982E-15
   22.0650005        -2.62430437E-15
   22.2299995        -2.40572921E-15
   22.3950005        -1.60619417E-15
   22.5599995        -2.18380857E-16
   22.7250004         1.64991261E-15
   22.8899994         3.77223116E-15
   23.0550003         5.82258791E-15
   23.2199993         7.41642228E-15
   23.3850002         8.16764564E-15
   23.5499992         7.75200403E-15
   23.7150002         5.96521725E-15
   23.8799992         2.76554881E-15
   24.0450001        -1.70530232E-15
   24.2099991        -7.12289148E-15
   24.3750000        -1.29962561E-14
   24.5400009        -1.86904139E-14
   24.7049999        -2.34475508E-14
   24.8700008        -2.64067248E-14
   25.0349998        -2.66331841E-14
   25.2000008        -2.31796309E-14
   25.3649998        -1.52069316E-14
   25.5300007        -2.18480587E-15
   25.6949997         1.58290400E-14
   25.8600006         3.78691253E-14
   26.0249996         6.17814651E-14
   26.1900005         8.40964939E-14
   26.3549995         1.00180355E-13
   26.5200005         1.04761516E-13
   26.6849995         9.28566238E-14
   26.8500004         6.10092624E-14
   27.0149994         8.62877800E-15
   27.1800003        -6.08900612E-14
   27.3449993        -1.39633829E-13
   27.5100002        -2.15546168E-13
   27.6749992        -2.73885379E-13
   27.8400002        -2.99695408E-13
   28.0049992        -2.80937735E-13
   28.1700001        -2.11673669E-13
   28.3349991        -9.45365612E-14
   28.5000000         5.82444114E-14
   28.6650009         2.25782338E-13
   28.8299999         3.81541939E-13
   28.9950008         4.98025232E-13
   29.1599998         5.52254097E-13
   29.3250008         5.30841484E-13
   29.4899998         4.33385451E-13
   29.6550007         2.73186042E-13
   29.8199997         7.48537110E-14
   29.9850006        -1.30867322E-13
   30.1499996        -3.13970800E-13
   30.3150005        -4.52094200E-13
   30.4799995        -5.35601565E-13
   30.6450005        -5.69264850E-13
   30.8099995        -5.69708994E-13
   30.9750004        -5.58859057E-13
   31.1399994        -5.54795088E-13
   31.3050003        -5.62384340E-13
   31.4699993        -5.66548490E-13
   31.6350002        -5.30832539E-13
   31.7999992        -4.03012964E-13
   31.9650002        -1.27930137E-13
   32.1300011         3.34175098E-13
   32.2949982         9.87396254E-13
   32.4599991         1.78290228E-12
   32.6250000         2.61006516E-12
   32.7900009         3.30062084E-12
   32.9550018         3.64853026E-12
   33.1199989         3.44517925E-12
   33.2849998         2.52594777E-12
   33.4500008         8.20672686E-13
   33.6150017        -1.60211308E-12
   33.7799988        -4.50829781E-12
   33.9449997        -7.49866141E-12
   34.1100006        -1.00432041E-11
   34.2750015        -1.15502842E-11
   34.4399986        -1.14646391E-11
   34.6049995        -9.38132124E-12
   34.7700005        -5.15678776E-12
   34.9350014         1.00478165E-12
   35.0999985         8.51132533E-12
   35.2649994         1.64055089E-11
   35.4300003         2.34579283E-11
   35.5950012         2.83270300E-11
   35.7599983         2.97689269E-11
   35.9249992         2.68684207E-11
   36.0900002         1.92539717E-11
   36.2550011         7.25626113E-12
   36.4199982        -8.02651869E-12
   36.5849991        -2.47828806E-11
   36.7500000        -4.06713586E-11
   36.9150009        -5.31216286E-11
   37.0800018        -5.97201594E-11
   37.2449989        -5.86276652E-11
   37.4099998        -4.89621087E-11
   37.5750008        -3.10770958E-11
   37.7400017        -6.67285758E-12
   37.9049988         2.13035249E-11
   38.0699997         4.89818915E-11
   38.2350006         7.20929844E-11
   38.4000015         8.66301059E-11
   38.5649986         8.95523516E-11
   38.7299995         7.94118937E-11
   38.8950005         5.67841121E-11
   39.0600014         2.43978344E-11
   39.2249985        -1.30972091E-11
   39.3899994        -4.97311740E-11
   39.5550003        -7.91214941E-11
   39.7200012        -9.55608231E-11
   39.8849983        -9.51099616E-11
   40.0499992        -7.64968922E-11
   40.2150002        -4.16356290E-11
   40.3800011         4.37332549E-12
   40.5449982         5.38183248E-11
   40.7099991         9.74850131E-11
   40.8750000         1.26152699E-10
   41.0400009         1.32248087E-10
   41.2050018         1.11375548E-10
   41.3699989         6.34405722E-11
   41.5349998        -6.86762062E-12
   41.7000008        -9.03732922E-11
   41.8650017        -1.74503217E-10
   42.0299988        -2.45043652E-10
   42.1949997        -2.88319452E-10
   42.3600006        -2.93464641E-10
   42.5250015        -2.54420984E-10
   42.6899986        -1.71327924E-10
   42.8549995        -5.10492516E-11
   43.0200005         9.32947053E-11
   43.1850014         2.43773307E-10
   43.3499985         3.79908133E-10
   43.5149994         4.81464146E-10
   43.6800003         5.31395983E-10
   43.8450012         5.18538101E-10
   44.0099983         4.39643710E-10
   44.1749992         3.00445391E-10
   44.3400002         1.15521107E-10
   44.5050011        -9.31054678E-11
   44.6699982        -2.98538055E-10
   44.8349991        -4.72494543E-10
   45.0000000        -5.89298221E-10
   45.1650009        -6.29848840E-10
   45.3300018        -5.84992721E-10
   45.4949989        -4.57729132E-10
   45.6599998        -2.63795291E-10
   45.8250008        -3.03620185E-11
   45.9900017         2.07166118E-10
   46.1549988         4.09952239E-10
   46.3199997         5.41541700E-10
   46.4850006         5.73864900E-10
   46.6500015         4.92479613E-10
   46.8149986         3.00125869E-10
   46.9799995         1.78558140E-11
   47.1450005        -3.16662752E-10
   47.3100014        -6.53626320E-10
   47.4749985        -9.37843136E-10
   47.6399994        -1.11680787E-09
   47.8050003        -1.14887788E-09
   47.9700012        -1.01023623E-09
   48.1349983        -6.99465708E-10
   48.2999992        -2.38917469E-10
   48.4650002         3.27435495E-10
   48.6300011         9.39379907E-10
   48.7949982         1.52825919E-09
   48.9599991         2.02595740E-09
   49.1250000         2.37365239E-09
   49.2900009         2.52898613E-09
   49.4550018         2.47059861E-09
   49.6199989         2.19946306E-09
   49.7849998         1.73702608E-09
   49.9500008         1.12070642E-09
   50.1150017         3.97738870E-10
   50.2799988        -3.81433968E-10
   50.4449997        -1.16902155E-09
   50.6100006        -1.92403160E-09
   50.7750015        -2.61414246E-09
   50.9399986        -3.21522786E-09
   51.1049995        -3.70894448E-09
   51.2700005        -4.07917655E-09
   51.4350014        -4.30835634E-09
   51.5999985        -4.37469705E-09
   51.7649994        -4.25122471E-09
   51.9300003        -3.90715149E-09
   52.0950012        -3.31172867E-09
   52.2599983        -2.44023957E-09
   52.4249992        -1.28138888E-09
   52.5900002         1.55008839E-10
   52.7550011         1.83131932E-09
   52.9199982         3.67767772E-09
   53.0849991         5.59104674E-09
   53.2500000         7.43859729E-09
   53.4150009         9.06577746E-09
   53.5800018         1.03088418E-08
   53.7449989         1.10109246E-08
   53.9099998         1.10401093E-08
   54.0750008         1.03073665E-08
   54.2400017         8.78192541E-09
   54.4049988         6.50161436E-09
   54.5699997         3.57608321E-09
   54.7350006         1.81561668E-10
   54.9000015        -3.45307227E-09
   55.0649986        -7.06783387E-09
   55.2299995        -1.03983879E-08
   55.3950005        -1.32045281E-08
   55.5600014        -1.52962532E-08
   55.7249985        -1.65533400E-08
   55.8899994        -1.69350542E-08
   56.0550003        -1.64780882E-08
   56.2200012        -1.52827404E-08
   56.3849983        -1.34894664E-08
   56.5499992        -1.12498766E-08
   56.7150002        -8.69754757E-09
   56.8800011        -5.92442762E-09
   57.0449982        -2.96797942E-09
   57.2099991         1.87571209E-10
   57.3750000         3.59503849E-09
   57.5400009         7.31521954E-09
   57.7050018         1.13798944E-08
   57.8699989         1.57538889E-08
   58.0349998         2.03041814E-08
   58.2000008         2.47835494E-08
   58.3650017         2.88343003E-08
   58.5299988         3.20145190E-08
   58.6949997         3.38453887E-08
   58.8600006         3.38741728E-08
   59.0250015         3.17442286E-08
   59.1899986         2.72613292E-08
   59.3549995         2.04452295E-08
   59.5200005         1.15570229E-08
   59.6850014         1.09585785E-09
   59.8499985        -1.02368656E-08
   60.0149994        -2.16028884E-08
   60.1800003        -3.21144036E-08
   60.3450012        -4.09320968E-08
   60.5099983        -4.73606612E-08
   60.6749992        -5.09286728E-08
   60.8400002        -5.14416705E-08
   61.0050011        -4.90010095E-08
   61.1699982        -4.39860592E-08
   61.3349991        -3.70023230E-08
   61.5000000        -2.88029458E-08
   61.6650009        -2.01945625E-08
   61.8300018        -1.19402968E-08
   61.9949989        -4.67263606E-09
   62.1599998         1.17306953E-09
   62.3250008         5.39714184E-09
   62.4900017         8.04309508E-09
   62.6549988         9.37557143E-09
   62.8199997         9.83393544E-09
   62.9850006         9.96965355E-09
   63.1500015         1.03767412E-08
   63.3149986         1.16243184E-08
   63.4799995         1.41987027E-08
   63.6450005         1.84597919E-08
   63.8100014         2.46135698E-08
   63.9749985         3.26996989E-08
   64.1399994         4.25911040E-08
   64.3050003         5.40013261E-08
   64.4700012         6.64956161E-08
   64.6350021         7.95026622E-08
   64.8000031         9.23257417E-08
   64.9649963         1.04154125E-07
   65.1299973         1.14077302E-07
   65.2949982         1.21105828E-07
   65.4599991         1.24202728E-07
   65.6250000         1.22328643E-07
   65.7900009         1.14502079E-07
   65.9550018         9.98737377E-08
   66.1200027         7.78112295E-08
   66.2850037         4.79879709E-08
   66.4499969         1.04679776E-08
   66.6149979        -3.42225981E-08
   66.7799988        -8.50466577E-08
   66.9449997        -1.40438175E-07
   67.1100006        -1.98321445E-07
   67.2750015        -2.56171006E-07
   67.4400024        -3.11112331E-07
   67.6050034        -3.60059772E-07
   67.7699966        -3.99885238E-07
   67.9349976        -4.27607119E-07
   68.0999985        -4.40587257E-07
   68.2649994        -4.36721592E-07
   68.4300003        -4.14609389E-07
   68.5950012        -3.73686760E-07
   68.7600021        -3.14311677E-07
   68.9250031        -2.37790672E-07
   69.0899963        -1.46342060E-07
   69.2549973        -4.29954952E-08
   69.4199982         6.85667487E-08
   69.5849991         1.84214869E-07
   69.7500000         2.99606626E-07
   69.9150009         4.10431909E-07
   70.0800018         5.12644192E-07
   70.2450027         6.02658076E-07
   70.4100037         6.77493404E-07
   70.5749969         7.34854780E-07
   70.7399979         7.73140812E-07
   70.9049988         7.91387492E-07
   71.0699997         7.89157866E-07
   71.2350006         7.66397136E-07
   71.4000015         7.23277537E-07
   71.5650024         6.60056173E-07
   71.7300034         5.76969001E-07
   71.8949966         4.74174868E-07
   72.0599976         3.51757649E-07
   72.2249985         2.09781476E-07
   72.3899994         4.83878644E-08
   72.5550003        -1.32087422E-07
   72.7200012        -3.31001019E-07
   72.8850021        -5.47317597E-07
   73.0500031        -7.79574520E-07
   73.2149963        -1.02590786E-06
   73.3799973        -1.28414115E-06
   73.5449982        -1.55192890E-06
   73.7099991        -1.82693498E-06
   73.8750000        -2.10702024E-06
   74.0400009        -2.39041105E-06
   74.2050018        -2.67582482E-06
   74.3700027        -2.96253211E-06
   74.5350037        -3.25034489E-06
   74.6999969        -3.53954124E-06
   74.8649979        -3.83073166E-06
   75.0299988        -4.12470081E-06
   75.1949997        -4.42224655E-06
   75.3600006        -4.72404872E-06
   75.5250015        -5.03058254E-06
   75.6900024        -5.34209994E-06
   75.8550034        -5.65866731E-06
   76.0199966        -5.98025736E-06
   76.1849976        -6.30686191E-06
   76.3499985        -6.63860601E-06
   76.5149994        -6.97582800E-06
   76.6800003        -7.31910359E-06
   76.8450012        -7.66919857E-06
   77.0100021        -8.02695467E-06
   77.1750031        -8.39311997E-06
   77.3399963        -8.76815920E-06
   77.5049973        -9.15206874E-06
   77.6699982        -9.54425741E-06
   77.8349991        -9.94350648E-06
   78.0000000        -1.03480579E-05
   78.1650009        -1.07558153E-05
   78.3300018        -1.11646596E-05
   78.4950027        -1.15728344E-05
   78.6600037        -1.19793604E-05
   78.8249969        -1.23844093E-05
   78.9899979        -1.27895737E-05
   79.1549988        -1.31979941E-05
   79.3199997        -1.36142853E-05
   79.4850006        -1.40442799E-05
   79.6500015        -1.44945825E-05
   79.8150024        -1.49719963E-05
   79.9800034        -1.54828867E-05
   80.1449966        -1.60325453E-05
   80.3099976        -1.66246609E-05
   80.4749985        -1.72609198E-05
   80.6399994        -1.79408271E-05
   80.8050003        -1.86617126E-05
   80.9700012        -1.94189524E-05
   81.1350021        -2.02063129E-05
   81.3000031        -2.10164108E-05
   81.4649963        -2.18411660E-05
   81.6299973        -2.26722204E-05
   81.7949982        -2.35012722E-05
   81.9599991        -2.43202594E-05
   82.1250000        -2.51214642E-05
   82.2900009        -2.58974978E-05
   82.4550018        -2.66412608E-05
   82.6200027        -2.73458791E-05
   82.7850037        -2.80047116E-05
   82.9499969        -2.86114573E-05
   83.1149979        -2.91603355E-05
   83.2799988        -2.96464004E-05
   83.4449997        -3.00658958E-05
   83.6100006        -3.04166369E-05
   83.7750015        -3.06983529E-05
   83.9400024        -3.09129318E-05
   84.1050034        -3.10645009E-05
   84.2699966        -3.11593285E-05
   84.4349976        -3.12055236E-05
   84.5999985        -3.12125449E-05
   84.7649994        -3.11905678E-05
   84.9300003        -3.11497424E-05
   85.0950012        -3.10994401E-05
   85.2600021        -3.10475807E-05
   85.4250031        -3.10000542E-05
   85.5899963        -3.09603965E-05
   85.7549973        -3.09296665E-05
   85.9199982        -3.09066127E-05
   86.0849991        -3.08881135E-05
   86.2500000        -3.08697818E-05
   86.4150009        -3.08467388E-05
   86.5800018        -3.08144408E-05
   86.7450027        -3.07694499E-05
   86.9100037        -3.07100636E-05
   87.0749969        -3.06367147E-05
   87.2399979        -3.05521135E-05
   87.4049988        -3.04610985E-05
   87.5699997        -3.03701763E-05
   87.7350006        -3.02868775E-05
   87.9000015        -3.02189383E-05
   88.0650024        -3.01734381E-05
   88.2300034        -3.01560049E-05
   88.3949966        -3.01701693E-05
   88.5599976        -3.02169501E-05
   88.7249985        -3.02947301E-05
   88.8899994        -3.03994275E-05
   89.0550003        -3.05249378E-05
   89.2200012        -3.06637739E-05
   89.3850021        -3.08078197E-05
   89.5500031        -3.09491079E-05
   89.7149963        -3.10804317E-05
   89.8799973        -3.11957592E-05
   90.0449982        -3.12903612E-05
   90.2099991        -3.13605524E-05
   90.3750000        -3.14031531E-05
   90.5400009        -3.14146891E-05
   90.7050018        -3.13904566E-05
   90.8700027        -3.13236196E-05
   91.0350037        -3.12045413E-05
   91.1999969        -3.10204414E-05
   91.3649979        -3.07555638E-05
   91.5299988        -3.03919187E-05
   91.6949997        -2.99104904E-05
   91.8600006        -2.92929362E-05
   92.0250015        -2.85234782E-05
   92.1900024        -2.75908387E-05
   92.3550034        -2.64899390E-05
   92.5199966        -2.52231366E-05
   92.6849976        -2.38008251E-05
   92.8499985        -2.22413255E-05
   93.0149994        -2.05700435E-05
   93.1800003        -1.88180202E-05
   93.3450012        -1.70200128E-05
   93.5100021        -1.52123748E-05
   93.6750031        -1.34309275E-05
   93.8399963        -1.17090522E-05
   94.0049973        -1.00761463E-05
   94.1699982        -8.55654798E-06
   94.3349991        -7.16892191E-06
   94.5000000        -5.92607012E-06
   94.6650009        -4.83507074E-06
   94.8300018        -3.89763591E-06
   94.9950027        -3.11058193E-06
   95.1600037        -2.46631885E-06
   95.3249969        -1.95331472E-06
   95.4899979        -1.55650412E-06
   95.6549988        -1.25765018E-06
   95.8199997        -1.03568630E-06
   95.9850006        -8.67071378E-07
   96.1500015        -7.26197300E-07
   96.3150024        -5.85877217E-07
   96.4800034        -4.17940413E-07
   96.6449966        -1.93952530E-07
   96.8099976         1.13934483E-07
   96.9749985         5.32011256E-07
   97.1399994         1.08393772E-06
   97.3050003         1.78961648E-06
   97.4700012         2.66407142E-06
   97.6350021         3.71642705E-06
   97.8000031         4.94907636E-06
   97.9649963         6.35714377E-06
   98.1299973         7.92831997E-06
   98.2949982         9.64312403E-06
   98.4599991         1.14755940E-05
   98.6250000         1.33943586E-05
   98.7900009         1.53639994E-05
   98.9550018         1.73465760E-05
   99.1200027         1.93031810E-05
   99.2850037         2.11954066E-05
   99.4499969         2.29866437E-05
   99.6149979         2.46431719E-05
   99.7799988         2.61350688E-05
   99.9449997         2.74369922E-05
   100.110001         2.85288879E-05
   100.275002         2.93966950E-05
   100.440002         3.00330448E-05
   100.605003         3.04379191E-05
   100.769997         3.06191469E-05
   100.934998         3.05926224E-05
   101.099998         3.03820616E-05
   101.264999         3.00181528E-05
   101.430000         2.95370864E-05
   101.595001         2.89784148E-05
   101.760002         2.83824229E-05
   101.925003         2.77872023E-05
   102.089996         2.72257439E-05
   102.254997         2.67233554E-05
   102.419998         2.62957219E-05
   102.584999         2.59478511E-05
   102.750000         2.56740368E-05
   102.915001         2.54588576E-05
   103.080002         2.52791142E-05
   103.245003         2.51064903E-05
   103.410004         2.49106397E-05
   103.574997         2.46623677E-05
   103.739998         2.43365848E-05
   103.904999         2.39146993E-05
   104.070000         2.33862484E-05
   104.235001         2.27495912E-05
   104.400002         2.20115980E-05
   104.565002         2.11864117E-05
   104.730003         2.02933916E-05
   104.894997         1.93544765E-05
   105.059998         1.83912725E-05
   105.224998         1.74222096E-05
   105.389999         1.64600860E-05
   105.555000         1.55103553E-05
   105.720001         1.45703807E-05
   105.885002         1.36297795E-05
   106.050003         1.26718760E-05
   106.214996         1.16760784E-05
   106.379997         1.06209118E-05
   106.544998         9.48729576E-06
   106.709999         8.26161704E-06
   106.875000         6.93817810E-06
   107.040001         5.52064739E-06
   107.205002         4.02228943E-06
   107.370003         2.46492937E-06
   107.535004         8.76777449E-07
   107.699997        -7.10598044E-07
   107.864998        -2.26573479E-06
   108.029999        -3.76070170E-06
   108.195000        -5.17402987E-06
   108.360001        -6.49276581E-06
   108.525002        -7.71338182E-06
   108.690002        -8.84146721E-06
   108.855003        -9.89026466E-06
   109.019997        -1.08782860E-05
   109.184998        -1.18263597E-05
   109.349998        -1.27545090E-05
   109.514999        -1.36791150E-05
   109.680000        -1.46107113E-05
   109.845001        -1.55527341E-05
   110.010002        -1.65013571E-05
   110.175003        -1.74464476E-05
   110.339996        -1.83734919E-05
   110.504997        -1.92662446E-05
   110.669998        -2.01097391E-05
   110.834999        -2.08932470E-05
   111.000000        -2.16127864E-05
   111.165001        -2.22728595E-05
   111.330002        -2.28871340E-05
   111.495003        -2.34780164E-05
   111.660004        -2.40751087E-05
   111.824997        -2.47127609E-05
   111.989998        -2.54269562E-05
   112.154999        -2.62519279E-05
   112.320000        -2.72167927E-05
   112.485001        -2.83425616E-05
   112.650002        -2.96397466E-05
   112.815002        -3.11067306E-05
   112.980003        -3.27289345E-05
   113.144997        -3.44788023E-05
   113.309998        -3.63165418E-05
   113.474998        -3.81915306E-05
   113.639999        -4.00443641E-05
   113.805000        -4.18094533E-05
   113.970001        -4.34181238E-05
   114.135002        -4.48021237E-05
   114.300003        -4.58974246E-05
   114.464996        -4.66480451E-05
   114.629997        -4.70096675E-05
   114.794998        -4.69526385E-05
   114.959999        -4.64640070E-05
   115.125000        -4.55482987E-05
   115.290001        -4.42267228E-05
   115.455002        -4.25348844E-05
   115.620003        -4.05190731E-05
   115.785004        -3.82315884E-05
   115.949997        -3.57256176E-05
   116.114998        -3.30502953E-05
   116.279999        -3.02467088E-05
   116.445000        -2.73453479E-05
   116.610001        -2.43654013E-05
   116.775002        -2.13160693E-05
   116.940002        -1.81996838E-05
   117.105003        -1.50162641E-05
   117.269997        -1.17688396E-05
   117.434998        -8.46881812E-06
   117.599998        -5.14058956E-06
   117.764999        -1.82468182E-06
   117.930000         1.42106944E-06
   118.095001         4.52264749E-06
   118.260002         7.39331836E-06
   118.425003         9.93920548E-06
   118.589996         1.20665172E-05
   118.754997         1.36897461E-05
   118.919998         1.47400478E-05
   119.084999         1.51729100E-05
   119.250000         1.49742991E-05
   119.415001         1.41645405E-05
   119.580002         1.27993899E-05
   119.745003         1.09680668E-05
   119.910004         8.78826177E-06
   120.074997         6.39852351E-06
   120.239998         3.94868584E-06
   120.404999         1.58927128E-06
   120.570000        -5.39105883E-07
   120.735001        -2.31527611E-06
   120.900002        -3.64507650E-06
   121.065002        -4.46628519E-06
   121.230003        -4.75061188E-06
   121.394997        -4.50276730E-06
   121.559998        -3.75703689E-06
   121.724998        -2.57198576E-06
   121.889999        -1.02411616E-06
   122.055000         7.98718418E-07
   122.220001         2.80343102E-06
   122.385002         4.89686772E-06
   122.550003         6.98976828E-06
   122.714996         8.99953466E-06
   122.879997         1.08520017E-05
   123.044998         1.24825356E-05
   123.209999         1.38367895E-05
   123.375000         1.48713843E-05
   123.540001         1.55546950E-05
   123.705002         1.58677358E-05
   123.870003         1.58050534E-05
   124.035004         1.53754154E-05
   124.199997         1.46020711E-05
   124.364998         1.35224036E-05
   124.529999         1.21867852E-05
   124.695000         1.06566349E-05
   124.860001         9.00170744E-06
   125.025002         7.29675776E-06
   125.190002         5.61779825E-06
   125.355003         4.03819968E-06
   125.519997         2.62491994E-06
   125.684998         1.43514148E-06
   125.849998         5.13580744E-07
   126.014999        -1.09317511E-07
   126.180000        -4.18149057E-07
   126.345001        -4.12229241E-07
   126.510002        -1.04240648E-07
   126.675003         4.81958864E-07
   126.839996         1.31407580E-06
   127.004997         2.35427774E-06
   127.169998         3.56183409E-06
   127.334999         4.89511604E-06
   127.500000         6.31269268E-06
   127.665001         7.77341484E-06
   127.830002         9.23558491E-06
   127.995003         1.06555171E-05
   128.160004         1.19859333E-05
   128.324997         1.31746974E-05
   128.490005         1.41644441E-05
   128.654999         1.48934023E-05
   128.820007         1.52976754E-05
   128.985001         1.53148485E-05
   129.149994         1.48886902E-05
   129.315002         1.39744252E-05
   129.479996         1.25440229E-05
   129.645004         1.05908939E-05
   129.809998         8.13346014E-06
   129.975006         5.21721131E-06
   130.139999         1.91501567E-06
   130.304993        -1.67437281E-06
   130.470001        -5.42953421E-06
   130.634995        -9.21116407E-06