  -2.84999990         0.00000000    
  -2.68499994         0.00000000    
  -2.51999998         0.00000000    
  -2.35500002         0.00000000    
  -2.19000006         0.00000000    
  -2.02500010         0.00000000    
  -1.86000001         0.00000000    
  -1.69500005         0.00000000    
  -1.52999997         0.00000000    
  -1.36500001         0.00000000    
  -1.20000005         0.00000000    
  -1.03499997         0.00000000    
 -0.870000005         0.00000000    
 -0.704999983         0.00000000    
 -0.540000021         0.00000000    
 -0.375000000         0.00000000    
 -0.209999993         0.00000000    
  -4.50000018E-02     0.00000000    
  0.119999997         0.00000000    
  0.284999996         0.00000000    
  0.449999988         0.00000000    
  0.615000010         0.00000000    
  0.779999971         0.00000000    
  0.944999993         0.00000000    
   1.11000001         0.00000000    
   1.27499998         0.00000000    
   1.44000006         0.00000000    
   1.60500002         0.00000000    
   1.76999998         0.00000000    
   1.93499994         0.00000000    
   2.09999990         0.00000000    
   2.26500010         0.00000000    
   2.43000007         0.00000000    
   2.59500003         0.00000000    
   2.75999999         0.00000000    
   2.92499995         0.00000000    
   3.08999991         0.00000000    
   3.25500011         0.00000000    
   3.42000008         0.00000000    
   3.58500004         0.00000000    
   3.75000000         0.00000000    
   3.91499996         0.00000000    
   4.07999992         0.00000000    
   4.24499989         0.00000000    
   4.40999985         0.00000000    
   4.57499981         0.00000000    
   4.73999977         0.00000000    
   4.90500021         0.00000000    
   5.07000017         0.00000000    
   5.23500013         0.00000000    
   5.40000010         0.00000000    
   5.56500006         0.00000000    
   5.73000002         0.00000000    
   5.89499998         0.00000000    
   6.05999994         0.00000000    
   6.22499990         0.00000000    
   6.38999987         0.00000000    
   6.55499983         0.00000000    
   6.71999979         0.00000000    
   6.88500023         0.00000000    
   7.05000019         0.00000000    
   7.21500015         0.00000000    
   7.38000011         0.00000000    
   7.54500008         0.00000000    
   7.71000004         0.00000000    
   7.87500000         0.00000000    
   8.03999996         0.00000000    
   8.20499992         0.00000000    
   8.36999989         0.00000000    
   8.53499985         0.00000000    
   8.69999981         0.00000000    
   8.86499977         0.00000000    
   9.02999973         0.00000000    
   9.19499969         0.00000000    
   9.35999966         5.92193758E-34
   9.52499962         1.66746941E-33
   9.68999958         3.16109863E-33
   9.85499954         6.26081975E-34
   10.0200005        -8.39729671E-33
   10.1850004        -1.77743724E-32
   10.3500004        -1.36524236E-32
   10.5150003         1.01683090E-32
   10.6800003         4.19990613E-32
   10.8450003         5.31537563E-32
   11.0100002         3.38550778E-32
   11.1750002        -1.64477873E-32
   11.3400002        -6.67432409E-32
   11.5050001        -3.79816556E-30
   11.6700001        -5.15260664E-30
   11.8350000        -3.68450222E-30
   12.0000000        -2.15303338E-30
   12.1650000         1.68913291E-30
   12.3299999        -5.11512436E-30
   12.4949999        -2.64906849E-29
   12.6599998        -5.24865021E-29
   12.8249998        -6.18983472E-29
   12.9899998        -4.08958254E-29
   13.1549997         9.52660495E-30
   13.3199997         5.71656994E-29
   13.4849997         7.23904043E-29
   13.6499996         2.35541909E-29
   13.8149996        -7.70493010E-29
   13.9799995        -1.73013112E-28
   14.1450005        -2.36808976E-28
   14.3100004        -2.72898038E-28
   14.4750004        -3.24397477E-28
   14.6400003        -4.60332116E-28
   14.8050003        -7.32428173E-28
   14.9700003        -1.11113543E-27
   15.1350002        -1.42827456E-27
   15.3000002        -1.37905607E-27
   15.4650002        -5.38820454E-28
   15.6300001         1.49090349E-27
   15.7950001         4.87050003E-27
   15.9600000         9.25035631E-27
   16.1250000         1.35634849E-26
   16.2900009         1.60683925E-26
   16.4549999         1.47781366E-26
   16.6200008         8.27461626E-27
   16.7849998        -3.33907334E-27
   16.9500008        -1.77725277E-26
   17.1149998        -3.07147739E-26
   17.2800007        -3.71774614E-26
   17.4449997        -3.39441917E-26
   17.6100006        -2.23902637E-26
   17.7749996        -1.03613506E-26
   17.9400005        -1.15709501E-26
   18.1049995        -4.13840529E-26
   18.2700005        -1.09027393E-25
   18.4349995        -2.07934416E-25
   18.6000004        -3.07700891E-25
   18.7649994        -3.52161412E-25
   18.9300003        -2.67718906E-25
   19.0949993         1.62073507E-26
   19.2600002         5.36759153E-25
   19.4249992         1.26425906E-24
   19.5900002         2.07705716E-24
   19.7549992         2.75736133E-24
   19.9200001         3.01827294E-24
   20.0849991         2.56505282E-24
   20.2500000         1.18295875E-24
   20.4150009        -1.16739325E-24
   20.5799999        -4.27437616E-24
   20.7450008        -7.64784082E-24
   20.9099998        -1.05603500E-23
   21.0750008        -1.21618189E-23
   21.2399998        -1.16522242E-23
   21.4050007        -8.47949664E-24
   21.5699997        -2.52053484E-24
   21.7350006         5.79403386E-24
   21.8999996         1.54379937E-23
   22.0650005         2.48406335E-23
   22.2299995         3.20286394E-23
   22.3950005         3.48545254E-23
   22.5599995         3.13136538E-23
   22.7250004         1.99573715E-23
   22.8899994         3.98462690E-25
   23.0550003        -2.61352836E-23
   23.2199993        -5.63143188E-23
   23.3850002        -8.44836329E-23
   23.5499992        -1.02952413E-22
   23.7150002        -1.03024433E-22
   23.8799992        -7.68619239E-23
   24.0450001        -2.00207928E-23
   24.2099991         6.58306887E-23
   24.3750000         1.70797549E-22
   24.5400009         2.76184595E-22
   24.7049999         3.56267760E-22
   24.8700008         3.82751903E-22
   25.0349998         3.31491343E-22
   25.2000008         1.90159970E-22
   25.3649998        -3.51946633E-23
   25.5300007        -3.17079599E-22
   25.6949997        -6.08920849E-22
   25.8600006        -8.53622725E-22
   26.0249996        -9.97249128E-22
   26.1900005        -1.00472687E-21
   26.3549995        -8.72872850E-22
   26.5200005        -6.35586367E-22
   26.6849995        -3.57170268E-22
   26.8500004        -1.12601513E-22
   27.0149994         4.22788645E-23
   27.1800003         1.03251719E-22
   27.3449993         1.42065039E-22
   27.5100002         3.10864183E-22
   27.6749992         8.17387428E-22
   27.8400002         1.86775262E-21
   28.0049992         3.58280721E-21
   28.1700001         5.90418014E-21
   28.3349991         8.51511839E-21
   28.5000000         1.08057843E-20
   28.6650009         1.19107489E-20
   28.8299999         1.08362534E-20
   28.9950008         6.67682500E-21
   29.1599998        -1.10292488E-21
   29.3250008        -1.23706912E-20
   29.4899998        -2.60838401E-20
   29.6550007        -4.01824631E-20
   29.8199997        -5.16932404E-20
   29.9850006        -5.70926263E-20
   30.1499996        -5.29316848E-20
   30.3150005        -3.66634365E-20
   30.4799995        -7.54669750E-21
   30.6450005         3.25576770E-20
   30.8099995         7.87162002E-20
   30.9750004         1.22989828E-19
   31.1399994         1.55196131E-19
   31.3050003         1.64418884E-19
   31.4699993         1.41166656E-19
   31.6350002         7.99125683E-20
   31.7999992        -1.84161149E-20
   31.9650002        -1.44552462E-19
   32.1300011        -2.80192492E-19
   32.2949982        -3.98992714E-19
   32.4599991        -4.69560604E-19
   32.6250000        -4.60404076E-19
   32.7900009        -3.46379839E-19
   32.9550018        -1.15751648E-19
   33.1199989         2.23408042E-19
   33.2849998         6.38941344E-19
   33.4500008         1.07388320E-18
   33.6150017         1.45037590E-18
   33.7799988         1.67864611E-18
   33.9449997         1.67058337E-18
   34.1100006         1.35644675E-18
   34.2750015         7.02274789E-19
   34.4399986        -2.75106055E-19
   34.6049995        -1.49880857E-18
   34.7700005        -2.83131743E-18
   34.9350014        -4.08455913E-18
   35.0999985        -5.04094205E-18
   35.2649994        -5.48365945E-18
   35.4300003        -5.23255348E-18
   35.5950012        -4.18008692E-18
   35.7599983        -2.32106942E-18
   35.9249992         2.30026366E-19
   36.0900002         3.23893963E-18
   36.2550011         6.37088718E-18
   36.4199982         9.22820062E-18
   36.5849991         1.14017227E-17
   36.7500000         1.25287952E-17
   36.9150009         1.23487395E-17
   37.0800018         1.07470085E-17
   37.2449989         7.78078592E-18
   37.4099998         3.68183922E-18
   37.5750008        -1.16384157E-18
   37.7400017        -6.25645211E-18
   37.9049988        -1.10369402E-17
   38.0699997        -1.49486012E-17
   38.2350006        -1.74984665E-17
   38.4000015        -1.83126803E-17
   38.5649986        -1.71822552E-17
   38.7299995        -1.40972057E-17
   38.8950005        -9.26883670E-18
   39.0600014        -3.13988620E-18
   39.2249985         3.61857314E-18
   39.3899994         1.01269472E-17
   39.5550003         1.53395284E-17
   39.7200012         1.81176228E-17
   39.8849983         1.73416794E-17
   40.0499992         1.20680796E-17
   40.2150002         1.72905036E-18
   40.3800011        -1.36377177E-17
   40.5449982        -3.31573032E-17
   40.7099991        -5.49281510E-17
   40.8750000        -7.59307201E-17
   41.0400009        -9.20955365E-17
   41.2050018        -9.85814730E-17
   41.3699989        -9.02931497E-17
   41.5349998        -6.26257317E-17
   41.7000008        -1.23773302E-17
   41.8650017         6.12816955E-17
   42.0299988         1.55933657E-16
   42.1949997         2.65304483E-16
   42.3600006         3.79085678E-16
   42.5250015         4.83311229E-16
   42.6899986         5.61346045E-16
   42.8549995         5.95459503E-16
   43.0200005         5.68862933E-16
   43.1850014         4.68011485E-16
   43.3499985         2.84914117E-16
   43.5149994         1.91677865E-17
   43.6800003        -3.20553478E-16
   43.8450012        -7.15787204E-16
   44.0099983        -1.13850598E-15
   44.1749992        -1.55235072E-15
   44.3400002        -1.91485583E-15
   44.5050011        -2.18055461E-15
   44.6699982        -2.30477093E-15
   44.8349991        -2.24783041E-15
   45.0000000        -1.97937920E-15
   45.1650009        -1.48245081E-15
   45.3300018        -7.56931406E-16
   45.4949989         1.77930639E-16
   45.6599998         1.28227405E-15
   45.8250008         2.49588126E-15
   45.9900017         3.74010701E-15
   46.1549988         4.92153205E-15
   46.3199997         5.93727363E-15
   46.4850006         6.68173174E-15
   46.6500015         7.05441183E-15
   46.8149986         6.96832618E-15
   46.9799995         6.35834133E-15
   47.1450005         5.18880271E-15
   47.3100014         3.45973254E-15
   47.4749985         1.21101730E-15
   47.6399994        -1.47591023E-15
   47.8050003        -4.47916782E-15
   47.9700012        -7.64034984E-15
   48.1349983        -1.07711733E-14
   48.2999992        -1.36625313E-14
   48.4650002        -1.60955776E-14
   48.6300011        -1.78543686E-14
   48.7949982        -1.87395943E-14
   48.9599991        -1.85828339E-14
   49.1250000        -1.72606985E-14
   49.2900009        -1.47080444E-14
   49.4550018        -1.09292551E-14
   49.6199989        -6.00641143E-15
   49.7849998        -1.03089038E-16
   49.9500008         6.53739859E-15
   50.1150017         1.36001922E-14
   50.2799988         2.07138248E-14
   50.4449997         2.74714655E-14
   50.6100006         3.34572424E-14
   50.7750015         3.82755283E-14
   50.9399986         4.15805492E-14
   51.1049995         4.31031553E-14
   51.2700005         4.26717445E-14
   51.4350014         4.02245884E-14
   51.5999985         3.58117128E-14
   51.7649994         2.95854344E-14
   51.9300003         2.17798530E-14
   52.0950012         1.26812013E-14
   52.2599983         2.59200679E-15
   52.4249992        -8.20658120E-15
   52.5900002        -1.94890711E-14
   52.7550011        -3.11107341E-14
   52.9199982        -4.30179811E-14
   53.0849991        -5.52390639E-14
   53.2500000        -6.78521841E-14
   53.4150009        -8.09305490E-14
   53.5800018        -9.44671113E-14
   53.7449989        -1.08285668E-13
   53.9099998        -1.21948241E-13
   54.0750008        -1.34671923E-13
   54.2400017        -1.45269864E-13
   54.4049988        -1.52131522E-13
   54.5699997        -1.53254999E-13
   54.7350006        -1.46340676E-13
   54.9000015        -1.28949599E-13
   55.0649986        -9.87235060E-14
   55.2299995        -5.36556307E-14
   55.3950005         7.60490659E-15
   55.5600014         8.54386074E-14
   55.7249985         1.78958587E-13
   55.8899994         2.85760537E-13
   56.0550003         4.01749218E-13
   56.2200012         5.21068757E-13
   56.3849983         6.36159474E-13
   56.5499992         7.37957872E-13
   56.7150002         8.16249683E-13
   56.8800011         8.60176568E-13
   57.0449982         8.58887722E-13
   57.2099991         8.02317577E-13
   57.3750000         6.82059715E-13
   57.5400009         4.92295495E-13
   57.7050018         2.30725107E-13
   57.8699989        -1.00562259E-13
   58.0349998        -4.94351684E-13
   58.2000008        -9.37773947E-13
   58.3650017        -1.41206469E-12
   58.5299988        -1.89268349E-12
   58.6949997        -2.34985338E-12
   58.8600006        -2.74956598E-12
   59.0250015        -3.05506922E-12
   59.1899986        -3.22882107E-12
   59.3549995        -3.23486572E-12
   59.5200005        -3.04153642E-12
   59.6850014        -2.62436492E-12
   59.8499985        -1.96902629E-12
   60.0149994        -1.07413069E-12
   60.1800003         4.63661160E-14
   60.3450012         1.36136079E-12
   60.5099983         2.82165198E-12
   60.6749992         4.36005659E-12
   60.8400002         5.89278366E-12
   61.0050011         7.32219667E-12
   61.1699982         8.54100731E-12
   61.3349991         9.43787409E-12
   61.5000000         9.90422327E-12
   61.6650009         9.84201869E-12
   61.8300018         9.17206762E-12
   61.9949989         7.84231447E-12
   62.1599998         5.83551870E-12
   62.3250008         3.17563814E-12
   62.4900017        -6.77601489E-14
   62.6549988        -3.77766091E-12
   62.8199997        -7.79082961E-12
   62.9850006        -1.19024209E-11
   63.1500015        -1.58740503E-11
   63.3149986        -1.94451417E-11
   63.4799995        -2.23471276E-11
   63.6450005        -2.43197754E-11
   63.8100014        -2.51287550E-11
   63.9749985        -2.45833388E-11
   64.1399994        -2.25530775E-11
   64.3050003        -1.89822689E-11
   64.4700012        -1.39010956E-11
   64.6350021        -7.43250600E-12
   64.8000031         2.05933876E-13
   64.9649963         8.70568461E-12
   65.1299973         1.76765477E-11
   65.2949982         2.66615167E-11
   65.4599991         3.51567248E-11
   65.6250000         4.26357456E-11
   65.7900009         4.85772776E-11
   65.9550018         5.24949390E-11
   66.1200027         5.39678302E-11
   66.2850037         5.26701877E-11
   66.4499969         4.83985456E-11
   66.6149979         4.10947006E-11
   66.7799988         3.08626874E-11
   66.9449997         1.79783428E-11
   67.1100006         2.89005560E-12
   67.2750015        -1.37903040E-11
   67.4400024        -3.13067419E-11
   67.6050034        -4.87887369E-11
   67.7699966        -6.52903287E-11
   67.9349976        -7.98372757E-11
   68.0999985        -9.14799694E-11
   68.2649994        -9.93494870E-11
   68.4300003        -1.02713317E-10
   68.5950012        -1.01027360E-10
   68.7600021        -9.39805317E-11
   68.9250031        -8.15287421E-11
   69.0899963        -6.39155742E-11
   69.2549973        -4.16775295E-11
   69.4199982        -1.56330435E-11
   69.5849991         1.31448515E-11
   69.7500000         4.33711261E-11
   69.9150009         7.36046224E-11
   70.0800018         1.02314504E-10
   70.2450027         1.27953939E-10
   70.4100037         1.49037643E-10
   70.5749969         1.64219457E-10
   70.7399979         1.72366343E-10
   70.9049988         1.72625456E-10
   71.0699997         1.64481151E-10
   71.2350006         1.47799092E-10
   71.4000015         1.22855129E-10
   71.5650024         9.03466330E-11
   71.7300034         5.13850594E-11
   71.8949966         7.46839309E-12
   72.0599976        -3.95667908E-11
   72.2249985        -8.76130002E-11
   72.3899994        -1.34377912E-10
   72.5550003        -1.77486137E-10
   72.7200012        -2.14592871E-10
   72.8850021        -2.43504633E-10
   73.0500031        -2.62301320E-10
   73.2149963        -2.69452682E-10
   73.3799973        -2.63922745E-10
   73.5449982        -2.45255205E-10
   73.7099991        -2.13633528E-10
   73.8750000        -1.69910697E-10
   74.0400009        -1.15604623E-10
   74.2050018        -5.28575135E-11
   74.3700027         1.56409573E-11
   74.5350037         8.67643804E-11
   74.6999969         1.57089800E-10
   74.8649979         2.23061472E-10
   75.0299988         2.81169754E-10
   75.1949997         3.28136324E-10
   75.3600006         3.61095487E-10
   75.5250015         3.77762016E-10
   75.6900024         3.76575104E-10
   75.8550034         3.56810748E-10
   76.0199966         3.18654991E-10
   76.1849976         2.63233157E-10
   76.3499985         1.92592498E-10
   76.5149994         1.09637154E-10
   76.6800003         1.80182223E-11
   76.8450012        -7.80183695E-11
   77.0100021        -1.73819195E-10
   77.1750031        -2.64539113E-10
   77.3399963        -3.45376450E-10
   77.5049973        -4.11817608E-10
   77.6699982        -4.59880217E-10
   77.8349991        -4.86342910E-10
   78.0000000        -4.88950047E-10
   78.1650009        -4.66578498E-10
   78.3300018        -4.19356078E-10
   78.4950027        -3.48719970E-10
   78.6600037        -2.57407734E-10
   78.8249969        -1.49376525E-10
   78.9899979        -2.96481867E-11
   79.1549988         9.59152549E-11
   79.3199997         2.20896385E-10
   79.4850006         3.38654438E-10
   79.6500015         4.42685139E-10
   79.8150024         5.26987454E-10
   79.9800034         5.86413418E-10
   80.1449966         6.16977858E-10
   80.3099976         6.16107776E-10
   80.4749985         5.82814075E-10
   80.6399994         5.17774934E-10
   80.8050003         4.23327040E-10
   80.9700012         3.03365388E-10
   81.1350021         1.63161082E-10
   81.3000031         9.10993937E-12
   81.4649963        -1.51571200E-10
   81.6299973        -3.11183607E-10
   81.7949982        -4.61901184E-10
   81.9599991        -5.96126426E-10
   82.1250000        -7.06831038E-10
   82.2900009        -7.87871102E-10
   82.4550018        -8.34266711E-10
   82.6200027        -8.42438730E-10
   82.7850037        -8.10396195E-10
   82.9499969        -7.37868044E-10
   83.1149979        -6.26374452E-10
   83.2799988        -4.79230045E-10
   83.4449997        -3.01476316E-10
   83.6100006        -9.97385230E-11
   83.7750015         1.17993129E-10
   83.9400024         3.42656570E-10
   84.1050034         5.64475522E-10
   84.2699966         7.73371756E-10
   84.4349976         9.59410773E-10
   84.5999985         1.11326148E-09
   84.7649994         1.22664412E-09
   84.9300003         1.29274091E-09
   85.0950012         1.30654465E-09
   85.2600021         1.26512678E-09
   85.4250031         1.16780774E-09
   85.5899963         1.01622344E-09
   85.7549973         8.14286305E-10
   85.9199982         5.68048719E-10
   86.0849991         2.85479473E-10
   86.2500000        -2.38273568E-11
   86.4150009        -3.48994056E-10
   86.5800018        -6.78234524E-10
   86.7450027        -9.99245242E-10
   86.9100037        -1.29960165E-09
   87.0749969        -1.56715152E-09
   87.2399979        -1.79040149E-09
   87.4049988        -1.95889438E-09
   87.5699997        -2.06357664E-09
   87.7350006        -2.09715645E-09
   87.9000015        -2.05444328E-09
   88.0650024        -1.93266558E-09
   88.2300034        -1.73174608E-09
   88.3949966        -1.45452117E-09
   88.5599976        -1.10687504E-09
   88.7249985        -6.97771563E-10
   88.8899994        -2.39154335E-10
   89.0550003         2.54299082E-10
   89.2200012         7.65580987E-10
   89.3850021         1.27591371E-09
   89.5500031         1.76545478E-09
   89.7149963         2.21412200E-09
   89.8799973         2.60249755E-09
   90.0449982         2.91276625E-09
   90.2099991         3.12962789E-09
   90.3750000         3.24112692E-09
   90.5400009         3.23934235E-09
   90.7050018         3.12088599E-09
   90.8700027         2.88717095E-09
   91.0350037         2.54442889E-09
   91.1999969         2.10346540E-09
   91.3649979         1.57917535E-09
   91.5299988         9.89839433E-10
   91.6949997         3.56254193E-10
   91.8600006        -2.99248515E-10
   92.0250015        -9.53831014E-10
   92.1900024        -1.58516333E-09
   92.3550034        -2.17236051E-09
   92.5199966        -2.69680034E-09
   92.6849976        -3.14277493E-09
   92.8499985        -3.49796170E-09
   93.0149994        -3.75370135E-09
   93.1800003        -3.90508781E-09
   93.3450012        -3.95088362E-09
   93.5100021        -3.89328525E-09
   93.6750031        -3.73755293E-09
   93.8399963        -3.49154394E-09
   94.0049973        -3.16516080E-09
   94.1699982        -2.76974665E-09
   94.3349991        -2.31745578E-09
   94.5000000        -1.82061777E-09
   94.6650009        -1.29113720E-09
   94.8300018        -7.39955430E-10
   94.9950027        -1.76615791E-10
   95.1600037         3.91025184E-10
   95.3249969         9.56910995E-10
   95.4899979         1.51669610E-09
   95.6549988         2.06744399E-09
   95.8199997         2.60712940E-09
   95.9850006         3.13397375E-09
   96.1500015         3.64568731E-09
   96.3150024         4.13868317E-09
   96.4800034         4.60736471E-09
   96.6449966         5.04358466E-09
   96.8099976         5.43634870E-09
   96.9749985         5.77183545E-09
   97.1399994         6.03375216E-09
   97.3050003         6.20402929E-09
   97.4700012         6.26378371E-09
   97.6350021         6.19448759E-09
   97.8000031         5.97921535E-09
   97.9649963         5.60385871E-09
   98.1299973         5.05818987E-09
   98.2949982         4.33667369E-09
   98.4599991         3.43896955E-09
   98.6250000         2.37009989E-09
   98.7900009         1.14031928E-09
   98.9550018        -2.35264447E-10
   99.1200027        -1.73721670E-09
   99.2850037        -3.34235062E-09
   99.4499969        -5.02425301E-09
   99.6149979        -6.75368694E-09
   99.7799988        -8.49883186E-09
   99.9449997        -1.02253672E-08
   100.110001        -1.18964580E-08
   100.275002        -1.34727030E-08
   100.440002        -1.49121888E-08
   100.605003        -1.61707465E-08
   100.769997        -1.72024883E-08
   100.934998        -1.79607156E-08
   101.099998        -1.83991755E-08
   101.264999        -1.84736315E-08
   101.430000        -1.81436342E-08
   101.595001        -1.73743757E-08
   101.760002        -1.61384222E-08
   101.925003        -1.44172256E-08
   102.089996        -1.22022259E-08
   102.254997        -9.49552792E-09
   102.419998        -6.31009955E-09
   102.584999        -2.66957123E-09
   102.750000         1.39225631E-09
   102.915001         5.83201532E-09
   103.080002         1.05973168E-08
   103.245003         1.56270730E-08
   103.410004         2.08515107E-08
   103.574997         2.61918274E-08
   103.739998         3.15595479E-08
   103.904999         3.68557380E-08
   104.070000         4.19702815E-08
   104.235001         4.67814836E-08
   104.400002         5.11563094E-08
   104.565002         5.49514283E-08
   104.730003         5.80153525E-08
   104.894997         6.01915673E-08
   105.059998         6.13228082E-08
   105.224998         6.12561450E-08
   105.389999         5.98487588E-08
   105.555000         5.69740060E-08
   105.720001         5.25274935E-08
   105.885002         4.64328203E-08
   106.050003         3.86467249E-08
   106.214996         2.91633917E-08
   106.379997         1.80178485E-08
   106.544998         5.28847766E-09
   106.709999        -8.90141116E-09
   106.875000        -2.43828051E-08
   107.040001        -4.09409893E-08
   107.205002        -5.83162354E-08
   107.370003        -7.62052181E-08
   107.535004        -9.42631218E-08
   107.699997        -1.12106612E-07
   107.864998        -1.29317669E-07
   108.029999        -1.45448524E-07
   108.195000        -1.60027554E-07
   108.360001        -1.72566374E-07
   108.525002        -1.82567845E-07
   108.690002        -1.89534902E-07
   108.855003        -1.92979769E-07
   109.019997        -1.92433333E-07
   109.184998        -1.87454233E-07
   109.349998        -1.77637006E-07
   109.514999        -1.62619642E-07
   109.680000        -1.42089448E-07
   109.845001        -1.15787678E-07
   110.010002        -8.35128091E-08
   110.175003        -4.51224906E-08
   110.339996        -5.34748745E-10
   110.504997         5.02714208E-08
   110.669998         1.07255687E-07
   110.834999         1.70315531E-07
   111.000000         2.39284788E-07
   111.165001         3.13931565E-07
   111.330002         3.93955560E-07
   111.495003         4.78984305E-07
   111.660004         5.68569988E-07
   111.824997         6.62185698E-07
   111.989998         7.59222928E-07
   112.154999         8.58990461E-07
   112.320000         9.60715624E-07
   112.485001         1.06354821E-06
   112.650002         1.16656702E-06
   112.815002         1.26879047E-06
   112.980003         1.36918902E-06
   113.144997         1.46670163E-06
   113.309998         1.56025385E-06
   113.474998         1.64877815E-06
   113.639999         1.73123351E-06
   113.805000         1.80662687E-06
   113.970001         1.87403066E-06
   114.135002         1.93260075E-06
   114.300003         1.98159114E-06
   114.464996         2.02036335E-06
   114.629997         2.04839353E-06
   114.794998         2.06527761E-06
   114.959999         2.07073049E-06
   115.125000         2.06458253E-06
   115.290001         2.04677576E-06
   115.455002         2.01735475E-06
   115.620003         1.97646068E-06
   115.785004         1.92432208E-06
   115.949997         1.86124805E-06
   116.114998         1.78762275E-06
   116.279999         1.70390115E-06
   116.445000         1.61060689E-06
   116.610001         1.50833250E-06
   116.775002         1.39774181E-06
   116.940002         1.27957344E-06
   117.105003         1.15464570E-06
   117.269997         1.02386298E-06
   117.434998         8.88221791E-07
   117.599998         7.48815410E-07
   117.764999         6.06835954E-07
   117.930000         4.63575759E-07
   118.095001         3.20423595E-07
   118.260002         1.78857761E-07
   118.425003         4.04347702E-08
   118.589996        -9.32269799E-08
   118.754997        -2.20468777E-07
   118.919998        -3.39618566E-07
   119.084999        -4.49021570E-07
   119.250000        -5.47076581E-07
   119.415001        -6.32272759E-07
   119.580002        -7.03228523E-07
   119.745003        -7.58729811E-07
   119.910004        -7.97766006E-07
   120.074997        -8.19563297E-07
   120.239998        -8.23611003E-07
   120.404999        -8.09681694E-07
   120.570000        -7.77842956E-07
   120.735001        -7.28459440E-07
   120.900002        -6.62186778E-07
   121.065002        -5.79956975E-07
   121.230003        -4.82957091E-07
   121.394997        -3.72601761E-07
   121.559998        -2.50502097E-07
   121.724998        -1.18432943E-07
   121.889999         2.17001492E-08
   122.055000         1.67891812E-07
   122.220001         3.18064309E-07
   122.385002         4.70090811E-07
   122.550003         6.21813967E-07
   122.714996         7.71060343E-07
   122.879997         9.15651299E-07
   123.044998         1.05341371E-06
   123.209999         1.18218884E-06
   123.375000         1.29984483E-06
   123.540001         1.40429040E-06
   123.705002         1.49349444E-06
   123.870003         1.56551005E-06
   124.035004         1.61850551E-06
   124.199997         1.65079939E-06
   124.364998         1.66090001E-06
   124.529999         1.64754886E-06
   124.695000         1.60976401E-06
   124.860001         1.54688144E-06
   125.025002         1.45859337E-06
   125.190002         1.34497975E-06
   125.355003         1.20653294E-06
   125.519997         1.04417222E-06
   125.684998         8.59248871E-07
   125.849998         6.53539132E-07
   126.014999         4.29226020E-07
   126.180000         1.88867801E-07
   126.345001        -6.46435296E-08
   126.510002        -3.28136053E-07
   126.675003        -5.98220595E-07
   126.839996        -8.71364080E-07
   127.004997        -1.14396903E-06
   127.169998        -1.41246051E-06
   127.334999        -1.67337623E-06
   127.500000        -1.92345874E-06
   127.665001        -2.15974319E-06
   127.830002        -2.37963991E-06
   127.995003        -2.58100431E-06
   128.160004        -2.76219362E-06
   128.324997        -2.92210393E-06
   128.490005        -3.06018728E-06
   128.654999        -3.17644503E-06
   128.820007        -3.27139901E-06
   128.985001        -3.34603828E-06
   129.149994        -3.40174893E-06
   129.315002        -3.44022624E-06
   129.479996        -3.46338015E-06
   129.645004        -3.47323657E-06
   129.809998        -3.47184232E-06
   129.975006        -3.46117577E-06
   130.139999        -3.44307455E-06
   130.304993        -3.41917303E-06
   130.470001        -3.39086296E-06
   130.634995        -3.35926552E-06