  -2.84999990         0.00000000    
  -2.68499994         0.00000000    
  -2.51999998         0.00000000    
  -2.35500002         0.00000000    
  -2.19000006         0.00000000    
  -2.02500010         0.00000000    
  -1.86000001         0.00000000    
  -1.69500005         0.00000000    
  -1.52999997         0.00000000    
  -1.36500001         0.00000000    
  -1.20000005         0.00000000    
  -1.03499997         0.00000000    
 -0.870000005         0.00000000    
 -0.704999983         0.00000000    
 -0.540000021         0.00000000    
 -0.375000000         0.00000000    
 -0.209999993         0.00000000    
  -4.50000018E-02     0.00000000    
  0.119999997         0.00000000    
  0.284999996         0.00000000    
  0.449999988         0.00000000    
  0.615000010         0.00000000    
  0.779999971         0.00000000    
  0.944999993         0.00000000    
   1.11000001         0.00000000    
   1.27499998         0.00000000    
   1.44000006         0.00000000    
   1.60500002         0.00000000    
   1.76999998         0.00000000    
   1.93499994         0.00000000    
   2.09999990         0.00000000    
   2.26500010         0.00000000    
   2.43000007         0.00000000    
   2.59500003         0.00000000    
   2.75999999         0.00000000    
   2.92499995         0.00000000    
   3.08999991         0.00000000    
   3.25500011         0.00000000    
   3.42000008         0.00000000    
   3.58500004         0.00000000    
   3.75000000         0.00000000    
   3.91499996         0.00000000    
   4.07999992         0.00000000    
   4.24499989         0.00000000    
   4.40999985         0.00000000    
   4.57499981         0.00000000    
   4.73999977         0.00000000    
   4.90500021         0.00000000    
   5.07000017         0.00000000    
   5.23500013         0.00000000    
   5.40000010         0.00000000    
   5.56500006         0.00000000    
   5.73000002         0.00000000    
   5.89499998         0.00000000    
   6.05999994         0.00000000    
   6.22499990         0.00000000    
   6.38999987         0.00000000    
   6.55499983         0.00000000    
   6.71999979         0.00000000    
   6.88500023         0.00000000    
   7.05000019         0.00000000    
   7.21500015         0.00000000    
   7.38000011         0.00000000    
   7.54500008         0.00000000    
   7.71000004         0.00000000    
   7.87500000         0.00000000    
   8.03999996         0.00000000    
   8.20499992         0.00000000    
   8.36999989         0.00000000    
   8.53499985         0.00000000    
   8.69999981         0.00000000    
   8.86499977         0.00000000    
   9.02999973         0.00000000    
   9.19499969         0.00000000    
   9.35999966         1.41059115E-34
   9.52499962         4.41694069E-34
   9.68999958         3.77051591E-34
   9.85499954         2.83639477E-33
   10.0200005         3.06501024E-33
   10.1850004        -8.89997997E-34
   10.3500004        -3.65147594E-33
   10.5150003        -3.50880215E-33
   10.6800003        -6.62178670E-33
   10.8450003        -1.05835935E-32
   11.0100002        -3.13992938E-32
   11.1750002        -5.05915665E-32
   11.3400002        -4.72992508E-32
   11.5050001        -4.42795039E-31
   11.6700001         1.85526167E-30
   11.8350000         6.60096238E-30
   12.0000000         1.13539115E-29
   12.1650000         1.40823772E-29
   12.3299999         1.45988123E-29
   12.4949999         1.19108904E-29
   12.6599998         3.32128537E-30
   12.8249998        -8.30046691E-30
   12.9899998        -2.65992020E-29
   13.1549997        -4.72885496E-29
   13.3199997        -6.39850983E-29
   13.4849997        -6.64105423E-29
   13.6499996        -4.02677014E-29
   13.8149996         4.86818290E-30
   13.9799995         5.40281007E-29
   14.1450005         7.57465178E-29
   14.3100004         3.07126213E-29
   14.4750004        -8.67788885E-29
   14.6400003        -2.41663354E-28
   14.8050003        -3.50747111E-28
   14.9700003        -2.99534973E-28
   15.1350002         3.09814510E-29
   15.3000002         6.51582063E-28
   15.4650002         1.40708365E-27
   15.6300001         1.96367124E-27
   15.7950001         1.85805671E-27
   15.9600000         6.70388143E-28
   16.1250000        -1.73562495E-27
   16.2900009        -5.00104457E-27
   16.4549999        -8.16861538E-27
   16.6200008        -9.83608784E-27
   16.7849998        -8.59836277E-27
   16.9500008        -3.67036449E-27
   17.1149998         4.52732512E-27
   17.2800007         1.41658511E-26
   17.4449997         2.24309810E-26
   17.6100006         2.66267241E-26
   17.7749996         2.56314004E-26
   17.9400005         2.10370067E-26
   18.1049995         1.71154251E-26
   18.2700005         1.90068871E-26
   18.4349995         2.91963985E-26
   18.6000004         4.34062794E-26
   18.7649994         4.80169187E-26
   18.9300003         2.15246291E-26
   19.0949993        -5.82089245E-26
   19.2600002        -2.01299110E-25
   19.4249992        -3.91311938E-25
   19.5900002        -5.75515939E-25
   19.7549992        -6.67954314E-25
   19.9200001        -5.71444036E-25
   20.0849991        -2.18416627E-25
   20.2500000         3.79121843E-25
   20.4150009         1.09044756E-24
   20.5799999         1.66379561E-24
   20.7450008         1.78353641E-24
   20.9099998         1.19333109E-24
   21.0750008        -1.36584819E-25
   21.2399998        -1.85348076E-24
   21.4050007        -3.15923311E-24
   21.5699997        -2.92503924E-24
   21.7350006        -3.47342575E-26
   21.8999996         6.06597551E-24
   22.0650005         1.47389699E-23
   22.2299995         2.36669931E-23
   22.3950005         2.87926973E-23
   22.5599995         2.49354231E-23
   22.7250004         7.19387187E-24
   22.8899994        -2.70078742E-23
   23.0550003        -7.56805006E-23
   23.2199993        -1.30555558E-22
   23.3850002        -1.76737798E-22
   23.5499992        -1.94433147E-22
   23.7150002        -1.63035436E-22
   23.8799992        -6.71754693E-23
   24.0450001         9.64456357E-23
   24.2099991         3.13275952E-22
   24.3750000         5.48293721E-22
   24.5400009         7.48346827E-22
   24.7049999         8.50281489E-22
   24.8700008         7.94207893E-22
   25.0349998         5.39575962E-22
   25.2000008         8.03605284E-23
   25.3649998        -5.44944205E-22
   25.5300007        -1.25227804E-21
   25.6949997        -1.92192002E-21
   25.8600006        -2.41868156E-21
   26.0249996        -2.61875547E-21
   26.1900005        -2.43716449E-21
   26.3549995        -1.84866102E-21
   26.5200005        -8.95726844E-22
   26.6849995         3.19913844E-22
   26.8500004         1.66159734E-21
   27.0149994         2.99235636E-21
   27.1800003         4.21029035E-21
   27.3449993         5.27286281E-21
   27.5100002         6.19893352E-21
   27.6749992         7.04129499E-21
   27.8400002         7.82939617E-21
   28.0049992         8.49108896E-21
   28.1700001         8.77194182E-21
   28.3349991         8.17904719E-21
   28.5000000         5.98068345E-21
   28.6650009         1.29143593E-21
   28.8299999        -6.73812360E-21
   28.9950008        -1.86282108E-20
   29.1599998        -3.42032979E-20
   29.3250008        -5.22173918E-20
   29.4899998        -7.00697007E-20
   29.6550007        -8.37318616E-20
   29.8199997        -8.80077068E-20
   29.9850006        -7.72133940E-20
   30.1499996        -4.62941646E-20
   30.3150005         7.71267081E-21
   30.4799995         8.40860952E-20
   30.6450005         1.77039063E-19
   30.8099995         2.74961996E-19
   30.9750004         3.60708701E-19
   31.1399994         4.13234153E-19
   31.3050003         4.10671341E-19
   31.4699993         3.34618107E-19
   31.6350002         1.75043373E-19
   31.7999992        -6.50988945E-20
   31.9650002        -3.66661455E-19
   32.1300011        -6.93591306E-19
   32.2949982        -9.95529962E-19
   32.4599991        -1.21399498E-18
   32.6250000        -1.29167706E-18
   32.7900009        -1.18358151E-18
   32.9550018        -8.68061636E-19
   33.1199989        -3.55402260E-19
   33.2849998         3.08308102E-19
   33.4500008         1.04367208E-18
   33.6150017         1.74740043E-18
   33.7799988         2.30776525E-18
   33.9449997         2.62373088E-18
   34.1100006         2.62420547E-18
   34.2750015         2.28331173E-18
   34.4399986         1.62789641E-18
   34.6049995         7.34781074E-19
   34.7700005        -2.82627815E-19
   34.9350014        -1.29625075E-18
   35.0999985        -2.18921538E-18
   35.2649994        -2.87954289E-18
   35.4300003        -3.33510165E-18
   35.5950012        -3.57470941E-18
   35.7599983        -3.65311124E-18
   35.9249992        -3.63179066E-18
   36.0900002        -3.54196877E-18
   36.2550011        -3.34986786E-18
   36.4199982        -2.93608854E-18
   36.5849991        -2.10010487E-18
   36.7500000        -5.96619475E-19
   36.9150009         1.79613419E-18
   37.0800018         5.18492069E-18
   37.2449989         9.46411253E-18
   37.4099998         1.42363292E-17
   37.5750008         1.87776087E-17
   37.7400017         2.20703947E-17
   37.9049988         2.29184136E-17
   38.0699997         2.01423657E-17
   38.2350006         1.28368364E-17
   38.4000015         6.50195498E-19
   38.5649986        -1.59661128E-17
   38.7299995        -3.55990709E-17
   38.8950005        -5.58623589E-17
   39.0600014        -7.35696356E-17
   39.2249985        -8.51014333E-17
   39.3899994        -8.69367486E-17
   39.5550003        -7.62802469E-17
   39.7200012        -5.16845839E-17
   39.8849983        -1.35494070E-17
   40.0499992         3.56154226E-17
   40.2150002         9.12455985E-17
   40.3800011         1.47126963E-16
   40.5449982         1.96113763E-16
   40.7099991         2.31058571E-16
   40.8750000         2.45800385E-16
   41.0400009         2.36035578E-16
   41.2050018         1.99912163E-16
   41.3699989         1.38241269E-16
   41.5349998         5.43033583E-17
   41.7000008        -4.66807831E-17
   41.8650017        -1.58262468E-16
   42.0299988        -2.73465037E-16
   42.1949997        -3.85280983E-16
   42.3600006        -4.86839174E-16
   42.5250015        -5.71221814E-16
   42.6899986        -6.31040710E-16
   42.8549995        -6.57995628E-16
   43.0200005        -6.42704725E-16
   43.1850014        -5.75090320E-16
   43.3499985        -4.45504125E-16
   43.5149994        -2.46609990E-16
   43.6800003         2.41765554E-17
   43.8450012         3.62097135E-16
   44.0099983         7.52865859E-16
   44.1749992         1.17149347E-15
   44.3400002         1.58263045E-15
   44.5050011         1.94272724E-15
   44.6699982         2.20398248E-15
   44.8349991         2.31970793E-15
   45.0000000         2.25040878E-15
   45.1650009         1.96968999E-15
   45.3300018         1.46903730E-15
   45.4949989         7.60676615E-16
   45.6599998        -1.21998407E-16
   45.8250008        -1.12652439E-15
   45.9900017        -2.18567789E-15
   46.1549988        -3.22332459E-15
   46.3199997        -4.16093797E-15
   46.4850006        -4.92389104E-15
   46.6500015        -5.44678057E-15
   46.8149986        -5.67732261E-15
   46.9799995        -5.57869960E-15
   47.1450005        -5.13052981E-15
   47.3100014        -4.32883472E-15
   47.4749985        -3.18545777E-15
   47.6399994        -1.72728960E-15
   47.8050003         4.45560175E-18
   47.9700012         1.95484299E-15
   48.1349983         4.05576612E-15
   48.2999992         6.22655783E-15
   48.4650002         8.37475790E-15
   48.6300011         1.03971084E-14
   48.7949982         1.21808386E-14
   48.9599991         1.36053702E-14
   49.1250000         1.45447500E-14
   49.2900009         1.48712948E-14
   49.4550018         1.44611072E-14
   49.6199989         1.32020563E-14
   49.7849998         1.10045699E-14
   49.9500008         7.81497415E-15
   50.1150017         3.63031418E-15
   50.2799988        -1.48728228E-15
   50.4449997        -7.39927071E-15
   50.6100006        -1.38851985E-14
   50.7750015        -2.06454489E-14
   50.9399986        -2.73134973E-14
   51.1049995        -3.34773713E-14
   51.2700005        -3.87081724E-14
   51.4350014        -4.25919303E-14
   51.5999985        -4.47601415E-14
   51.7649994        -4.49143422E-14
   51.9300003        -4.28413205E-14
   52.0950012        -3.84175317E-14
   52.2599983        -3.16037446E-14
   52.4249992        -2.24334016E-14
   52.5900002        -1.09997410E-14
   52.7550011         2.55281606E-15
   52.9199982         1.80284763E-14
   53.0849991         3.51686182E-14
   53.2500000         5.36295455E-14
   53.4150009         7.29525761E-14
   53.5800018         9.25320001E-14
   53.7449989         1.11587246E-13
   53.9099998         1.29145568E-13
   54.0750008         1.44039931E-13
   54.2400017         1.54924820E-13
   54.4049988         1.60311380E-13
   54.5699997         1.58621475E-13
   54.7350006         1.48261137E-13
   54.9000015         1.27714300E-13
   55.0649986         9.56593677E-14
   55.2299995         5.11114012E-14
   55.3950005        -6.40819685E-15
   55.5600014        -7.66766140E-14
   55.7249985        -1.58558523E-13
   55.8899994        -2.49796196E-13
   56.0550003        -3.46829417E-13
   56.2200012        -4.44681103E-13
   56.3849983        -5.36949229E-13
   56.5499992        -6.15944741E-13
   56.7150002        -6.73005597E-13
   56.8800011        -6.98999127E-13
   57.0449982        -6.85005384E-13
   57.2099991        -6.23143193E-13
   57.3750000        -5.07480071E-13
   57.5400009        -3.34942225E-13
   57.7050018        -1.06131466E-13
   57.8699989         1.74047422E-13
   58.0349998         4.96030625E-13
   58.2000008         8.45576376E-13
   58.3650017         1.20411428E-12
   58.5299988         1.54946401E-12
   58.6949997         1.85689376E-12
   58.8600006         2.10046043E-12
   59.0250015         2.25455201E-12
   59.1899986         2.29555220E-12
   59.3549995         2.20353098E-12
   59.5200005         1.96387980E-12
   59.6850014         1.56880932E-12
   59.8499985         1.01863819E-12
   60.0149994         3.22801735E-13
   60.1800003        -4.99487821E-13
   60.3450012        -1.41899697E-12
   60.5099983        -2.39671065E-12
   60.6749992        -3.38462244E-12
   60.8400002        -4.32712676E-12
   61.0050011        -5.16305488E-12
   61.1699982        -5.82834692E-12
   61.3349991        -6.25933897E-12
   61.5000000        -6.39656470E-12
   61.6650009        -6.18892524E-12
   61.8300018        -5.59802942E-12
   61.9949989        -4.60242651E-12
   62.1599998        -3.20143348E-12
   62.3250008        -1.41820865E-12
   62.4900017         6.98259701E-13
   62.6549988         3.07256629E-12
   62.8199997         5.60394092E-12
   62.9850006         8.16909734E-12
   63.1500015         1.06268943E-11
   63.3149986         1.28246771E-11
   63.4799995         1.46060507E-11
   63.6450005         1.58196529E-11
   63.8100014         1.63284542E-11
   63.9749985         1.60190073E-11
   64.1399994         1.48100577E-11
   64.3050003         1.26600544E-11
   64.4700012         9.57302640E-12
   64.6350021         5.60256399E-12
   64.8000031         8.53626740E-13
   64.9649963        -4.51792163E-12
   65.1299973        -1.03081389E-11
   65.2949982        -1.62701519E-11
   65.4599991        -2.21216240E-11
   65.6250000        -2.75544500E-11
   65.7900009        -3.22465978E-11
   65.9550018        -3.58758925E-11
   66.1200027        -3.81354948E-11
   66.2850037        -3.87506034E-11
   66.4499969        -3.74958224E-11
   66.6149979        -3.42123899E-11
   66.7799988        -2.88243526E-11
   66.9449997        -2.13525950E-11
   67.1100006        -1.19256627E-11
   67.2750015        -7.86256314E-13
   67.4400024         1.17075794E-11
   67.6050034         2.50873280E-11
   67.7699966         3.87854367E-11
   67.9349976         5.21534760E-11
   68.0999985         6.44868395E-11
   68.2649994         7.50552190E-11
   68.4300003         8.31378924E-11
   68.5950012         8.80622311E-11
   68.7600021         8.92435292E-11
   68.9250031         8.62240279E-11
   69.0899963         7.87087548E-11
   69.2549973         6.65958469E-11
   69.4199982         4.99991333E-11
   69.5849991         2.92613191E-11
   69.7500000         4.95636301E-12
   69.9150009        -2.21193324E-11
   70.0800018        -5.09669459E-11
   70.2450027        -8.04155839E-11
   70.4100037        -1.09161749E-10
   70.5749969        -1.35816275E-10
   70.7399979        -1.58957195E-10
   70.9049988        -1.77186918E-10
   71.0699997        -1.89192370E-10
   71.2350006        -1.93807331E-10
   71.4000015        -1.90075247E-10
   71.5650024        -1.77311832E-10
   71.7300034        -1.55165200E-10
   71.8949966        -1.23670768E-10
   72.0599976        -8.32973135E-11
   72.2249985        -3.49794881E-11
   72.3899994         1.98685079E-11
   72.5550003         7.93633076E-11
   72.7200012         1.41190892E-10
   72.8850021         2.02676126E-10
   73.0500031         2.60883259E-10
   73.2149963         3.12744663E-10
   73.3799973         3.55211777E-10
   73.5449982         3.85419446E-10
   73.7099991         4.00853684E-10
   73.8750000         3.99510397E-10
   74.0400009         3.80035253E-10
   74.2050018         3.41834450E-10
   74.3700027         2.85150070E-10
   74.5350037         2.11095919E-10
   74.6999969         1.21653215E-10
   74.8649979         1.96271940E-11
   75.0299988        -9.14317441E-11
   75.1949997        -2.07338702E-10
   75.3600006        -3.23412935E-10
   75.5250015        -4.34641073E-10
   75.6900024        -5.35861688E-10
   75.8550034        -6.21968921E-10
   76.0199966        -6.88130330E-10
   76.1849976        -7.30014771E-10
   76.3499985        -7.44022011E-10
   76.5149994        -7.27504057E-10
   76.6800003        -6.78965217E-10
   76.8450012        -5.98227579E-10
   77.0100021        -4.86545748E-10
   77.1750031        -3.46659812E-10
   77.3399963        -1.82773865E-10
   77.5049973        -4.56687639E-13
   77.6699982         1.93537728E-10
   77.8349991         3.91523342E-10
   78.0000000         5.85198723E-10
   78.1650009         7.66010977E-10
   78.3300018         9.25549248E-10
   78.4950027         1.05594611E-09
   78.6600037         1.15026544E-09
   78.8249969         1.20285881E-09
   78.9899979         1.20966837E-09
   79.1549988         1.16846499E-09
   79.3199997         1.07900533E-09
   79.4850006         9.43102485E-10
   79.6500015         7.64603159E-10
   79.8150024         5.49271351E-10
   79.9800034         3.04581305E-10
   80.1449966         3.94276278E-11
   80.3099976        -2.36236447E-10
   80.4749985        -5.11816090E-10
   80.6399994        -7.76529174E-10
   80.8050003        -1.01987607E-09
   80.9700012        -1.23210009E-09
   81.1350021        -1.40461742E-09
   81.3000031        -1.53039259E-09
   81.4649963        -1.60424074E-09
   81.6299973        -1.62304170E-09
   81.7949982        -1.58585378E-09
   81.9599991        -1.49392476E-09
   82.1250000        -1.35059930E-09
   82.2900009        -1.16113086E-09
   82.4550018        -9.32410038E-10
   82.6200027        -6.72625511E-10
   82.7850037        -3.90878691E-10
   82.9499969        -9.67730965E-11
   83.1149979         1.99997824E-10
   83.2799988         4.90044616E-10
   83.4449997         7.64635855E-10
   83.6100006         1.01599784E-09
   83.7750015         1.23754829E-09
   83.9400024         1.42405632E-09
   84.1050034         1.57172941E-09
   84.2699966         1.67822467E-09
   84.4349976         1.74259518E-09
   84.5999985         1.76517512E-09
   84.7649994         1.74741477E-09
   84.9300003         1.69167613E-09
   85.0950012         1.60099867E-09
   85.2600021         1.47884849E-09
   85.4250031         1.32886557E-09
   85.5899963         1.15462062E-09
   85.7549973         9.59403113E-10
   85.9199982         7.46057383E-10
   86.0849991         5.16883092E-10
   86.2500000         2.73619377E-10
   86.4150009         1.75215675E-11
   86.5800018        -2.50466176E-10
   86.7450027        -5.29448263E-10
   86.9100037        -8.18245138E-10
   87.0749969        -1.11502019E-09
   87.2399979        -1.41690415E-09
   87.4049988        -1.71966230E-09
   87.5699997        -2.01745043E-09
   87.7350006        -2.30269759E-09
   87.9000015        -2.56614596E-09
   88.0650024        -2.79706303E-09
   88.2300034        -2.98362335E-09
   88.3949966        -3.11344039E-09
   88.5599976        -3.17421245E-09
   88.7249985        -3.15444182E-09
   88.8899994        -3.04417092E-09
   89.0550003        -2.83568791E-09
   89.2200012        -2.52415644E-09
   89.3850021        -2.10813589E-09
   89.5500031        -1.58996516E-09
   89.7149963        -9.75999837E-10
   89.8799973        -2.76701329E-10
   90.0449982         4.93422136E-10
   90.2099991         1.31601230E-09
   90.3750000         2.16919260E-09
   90.5400009         3.02803360E-09
   90.7050018         3.86514865E-09
   90.8700027         4.65143302E-09
   91.0350037         5.35693401E-09
   91.1999969         5.95186656E-09
   91.3649979         6.40774100E-09
   91.5299988         6.69859235E-09
   91.6949997         6.80224677E-09
   91.8600006         6.70157529E-09
   92.0250015         6.38564801E-09
   92.1900024         5.85070525E-09
   92.3550034         5.10086196E-09
   92.5199966         4.14846779E-09
   92.6849976         3.01406833E-09
   92.8499985         1.72594550E-09
   93.0149994         3.19238302E-10
   93.1800003        -1.16530496E-09
   93.3450012        -2.68287459E-09
   93.5100021        -4.18634283E-09
   93.6750031        -5.62808911E-09
   93.8399963        -6.96179381E-09
   94.0049973        -8.14409518E-09
   94.1699982        -9.13602882E-09
   94.3349991        -9.90419835E-09
   94.5000000        -1.04216555E-08
   94.6650009        -1.06685087E-08
   94.8300018        -1.06322844E-08
   94.9950027        -1.03080851E-08
   95.1600037        -9.69860725E-09
   95.3249969        -8.81402240E-09
   95.4899979        -7.67176278E-09
   95.6549988        -6.29619867E-09
   95.8199997        -4.71816497E-09
   95.9850006        -2.97432545E-09
   96.1500015        -1.10631682E-09
   96.3150024         8.40337966E-10
   96.4800034         2.81754686E-09
   96.6449966         4.77616302E-09
   96.8099976         6.66761091E-09
   96.9749985         8.44552783E-09
   97.1399994         1.00672759E-08
   97.3050003         1.14952110E-08
   97.4700012         1.26975648E-08
   97.6350021         1.36488856E-08
   97.8000031         1.43299816E-08
   97.9649963         1.47274264E-08
   98.1299973         1.48327022E-08
   98.2949982         1.46411381E-08
   98.4599991         1.41508352E-08
   98.6250000         1.33617615E-08
   98.7900009         1.22752120E-08
   98.9550018         1.08937463E-08
   99.1200027         9.22168031E-09
   99.2850037         7.26611304E-09
   99.4499969         5.03837017E-09
   99.6149979         2.55570187E-09
   99.7799988        -1.57007574E-10
   99.9449997        -3.06576831E-09
   100.110001        -6.12648110E-09
   100.275002        -9.28460508E-09
   100.440002        -1.24755966E-08
   100.605003        -1.56261546E-08
   100.769997        -1.86561770E-08
   100.934998        -2.14812843E-08
   101.099998        -2.40156695E-08
   101.264999        -2.61750337E-08
   101.430000        -2.78793699E-08
   101.595001        -2.90553750E-08
   101.760002        -2.96383824E-08
   101.925003        -2.95737852E-08
   102.089996        -2.88179471E-08
   102.254997        -2.73387801E-08
   102.419998        -2.51161225E-08
   102.584999        -2.21420962E-08
   102.750000        -1.84216162E-08
   102.915001        -1.39731791E-08
   103.080002        -8.82995455E-09
   103.245003        -3.04116754E-09
   103.410004         3.32636363E-09
   103.574997         1.01867048E-08
   103.739998         1.74335231E-08
   103.904999         2.49393022E-08
   104.070000         3.25553025E-08
   104.235001         4.01124538E-08
   104.400002         4.74233559E-08
   104.565002         5.42854970E-08
   104.730003         6.04856041E-08
   104.894997         6.58051462E-08
   105.059998         7.00267080E-08
   105.224998         7.29410914E-08
   105.389999         7.43547162E-08
   105.555000         7.40970449E-08
   105.720001         7.20276390E-08
   105.885002         6.80424819E-08
   106.050003         6.20793159E-08
   106.214996         5.41217027E-08
   106.379997         4.42017658E-08
   106.544998         3.24015623E-08
   106.709999         1.88532496E-08
   106.875000         3.73814890E-09
   107.040001        -1.27149828E-08
   107.205002        -3.02322825E-08
   107.370003        -4.84975331E-08
   107.535004        -6.71552343E-08
   107.699997        -8.58140510E-08
   107.864998        -1.04050791E-07
   108.029999        -1.21415113E-07
   108.195000        -1.37435308E-07
   108.360001        -1.51625343E-07
   108.525002        -1.63493411E-07
   108.690002        -1.72551808E-07
   108.855003        -1.78328023E-07
   109.019997        -1.80376560E-07
   109.184998        -1.78290819E-07
   109.349998        -1.71714305E-07
   109.514999        -1.60350439E-07
   109.680000        -1.43970055E-07
   109.845001        -1.22416367E-07
   110.010002        -9.56069144E-08
   110.175003        -6.35325463E-08
   110.339996        -2.62539270E-08
   110.504997         1.61041882E-08
   110.669998         6.33599839E-08
   110.834999         1.15282269E-07
   111.000000         1.71597861E-07
   111.165001         2.31998811E-07
   111.330002         2.96148443E-07
   111.495003         3.63686780E-07
   111.660004         4.34235318E-07
   111.824997         5.07401467E-07
   111.989998         5.82783287E-07
   112.154999         6.59975399E-07
   112.320000         7.38574784E-07
   112.485001         8.18188767E-07
   112.650002         8.98442408E-07
   112.815002         9.78987259E-07
   112.980003         1.05950789E-06
   113.144997         1.13972681E-06
   113.309998         1.21940673E-06
   113.474998         1.29834825E-06
   113.639999         1.37638290E-06
   113.805000         1.45336105E-06
   113.970001         1.52913560E-06
   114.135002         1.60354239E-06
   114.300003         1.67637802E-06
   114.464996         1.74737795E-06
   114.629997         1.81619737E-06
   114.794998         1.88239630E-06
   114.959999         1.94543122E-06
   115.125000         2.00465570E-06
   115.290001         2.05932906E-06
   115.455002         2.10863504E-06
   115.620003         2.15170689E-06
   115.785004         2.18766354E-06
   115.949997         2.21564414E-06
   116.114998         2.23485154E-06
   116.279999         2.24459086E-06
   116.445000         2.24430642E-06
   116.610001         2.23361531E-06
   116.775002         2.21233290E-06
   116.940002         2.18049104E-06
   117.105003         2.13834869E-06
   117.269997         2.08639494E-06
   117.434998         2.02534329E-06
   117.599998         1.95611938E-06
   117.764999         1.87984313E-06
   117.930000         1.79780443E-06
   118.095001         1.71143324E-06
   118.260002         1.62226627E-06
   118.425003         1.53190945E-06
   118.589996         1.44199680E-06
   118.754997         1.35414746E-06
   118.919998         1.26992086E-06
   119.084999         1.19077242E-06
   119.250000         1.11801080E-06
   119.415001         1.05275876E-06
   119.580002         9.95920459E-07
   119.745003         9.48156298E-07
   119.910004         9.09867538E-07
   120.074997         8.81192250E-07
   120.239998         8.62013167E-07
   120.404999         8.51977632E-07
   120.570000         8.50528750E-07
   120.735001         8.56945235E-07
   120.900002         8.70388646E-07
   121.065002         8.89953469E-07
   121.230003         9.14716622E-07
   121.394997         9.43782936E-07
   121.559998         9.76322895E-07
   121.724998         1.01159969E-06
   121.889999         1.04898459E-06
   122.055000         1.08795871E-06
   122.220001         1.12810437E-06
   122.385002         1.16908552E-06
   122.550003         1.21062169E-06
   122.714996         1.25245879E-06
   122.879997         1.29433977E-06
   123.044998         1.33597939E-06
   123.209999         1.37704365E-06
   123.375000         1.41713701E-06
   123.540001         1.45579679E-06
   123.705002         1.49249229E-06
   123.870003         1.52662949E-06
   124.035004         1.55755708E-06
   124.199997         1.58457283E-06
   124.364998         1.60692809E-06
   124.529999         1.62383162E-06
   124.695000         1.63445020E-06
   124.860001         1.63791162E-06
   125.025002         1.63330856E-06
   125.190002         1.61970831E-06
   125.355003         1.59617014E-06
   125.519997         1.56177009E-06
   125.684998         1.51563711E-06
   125.849998         1.45699448E-06
   126.014999         1.38520886E-06
   126.180000         1.29983800E-06
   126.345001         1.20067648E-06
   126.510002         1.08779193E-06
   126.675003         9.61547585E-07
   126.839996         8.22609422E-07
   127.004997         6.71933833E-07
   127.169998         5.10738175E-07
   127.334999         3.40455927E-07
   127.500000         1.62679399E-07
   127.665001        -2.09027213E-08
   127.830002        -2.08569034E-07
   127.995003        -3.98622404E-07
   128.160004        -5.89438969E-07
   128.324997        -7.79501931E-07
   128.490005        -9.67421329E-07
   128.654999        -1.15193893E-06
   128.820007        -1.33192145E-06
   128.985001        -1.50634492E-06
   129.149994        -1.67427584E-06
   129.315002        -1.83485076E-06
   129.479996        -1.98726411E-06
   129.645004        -2.13076123E-06
   129.809998        -2.26464226E-06
   129.975006        -2.38827556E-06
   130.139999        -2.50111839E-06
   130.304993        -2.60274169E-06
   130.470001        -2.69285783E-06
   130.634995        -2.77134245E-06