  -30.00000        9.7844703E-19
  -29.85750        9.8019931E-19
  -29.71500        9.8339739E-19
  -29.57250        9.8751313E-19
  -29.43000        9.9190536E-19
  -29.28750        9.9594779E-19
  -29.14500        9.9914857E-19
  -29.00250        1.0012396E-18
  -28.86000        1.0022159E-18
  -28.71750        1.0023273E-18
  -28.57500        1.0020214E-18
  -28.43250        1.0018471E-18
  -28.29000        1.0023457E-18
  -28.14750        1.0039349E-18
  -28.00500        1.0068213E-18
  -27.86250        1.0109470E-18
  -27.72000        1.0159940E-18
  -27.57750        1.0214403E-18
  -27.43500        1.0266656E-18
  -27.29250        1.0310779E-18
  -27.15000        1.0342391E-18
  -27.00750        1.0359524E-18
  -26.86500        1.0363043E-18
  -26.72250        1.0356403E-18
  -26.58000        1.0344951E-18
  -26.43750        1.0334811E-18
  -26.29500        1.0331698E-18
  -26.15250        1.0339839E-18
  -26.01000        1.0361173E-18
  -25.86750        1.0395035E-18
  -25.72500        1.0438283E-18
  -25.58250        1.0485906E-18
  -25.44000        1.0532004E-18
  -25.29750        1.0570985E-18
  -25.15500        1.0598671E-18
  -25.01250        1.0613220E-18
  -24.87000        1.0615524E-18
  -24.72750        1.0609019E-18
  -24.58500        1.0598966E-18
  -24.44250        1.0591292E-18
  -24.30000        1.0591390E-18
  -24.15750        1.0602951E-18
  -24.01500        1.0627253E-18
  -23.87250        1.0662964E-18
  -23.73000        1.0706440E-18
  -23.58750        1.0752505E-18
  -23.44500        1.0795474E-18
  -23.30250        1.0830269E-18
  -23.16000        1.0853425E-18
  -23.01750        1.0863765E-18
  -22.87500        1.0862669E-18
  -22.73250        1.0853839E-18
  -22.59000        1.0842570E-18
  -22.44750        1.0834668E-18
  -22.30500        1.0835233E-18
  -22.16250        1.0847556E-18
  -22.02000        1.0872411E-18
  -21.87750        1.0907897E-18
  -21.73500        1.0949856E-18
  -21.59250        1.0992780E-18
  -21.45000        1.1030997E-18
  -21.30750        1.1059864E-18
  -21.16500        1.1076675E-18
  -21.02250        1.1081210E-18
  -20.88000        1.1075757E-18
  -20.73750        1.1064654E-18
  -20.59500        1.1053457E-18
  -20.45250        1.1047854E-18
  -20.31000        1.1052543E-18
  -20.16750        1.1070246E-18
  -20.02500        1.1101109E-18
  -19.88250        1.1142602E-18
  -19.74000        1.1189997E-18
  -19.59750        1.1237332E-18
  -19.45500        1.1278668E-18
  -19.31250        1.1309391E-18
  -19.17000        1.1327180E-18
  -19.02750        1.1332531E-18
  -18.88500        1.1328651E-18
  -18.74250        1.1320772E-18
  -18.60000        1.1315091E-18
  -18.45750        1.1317524E-18
  -18.31500        1.1332519E-18
  -18.17250        1.1362187E-18
  -18.03000        1.1405827E-18
  -17.88750        1.1459977E-18
  -17.74500        1.1518987E-18
  -17.60250        1.1575991E-18
  -17.46000        1.1624196E-18
  -17.31750        1.1658171E-18
  -17.17500        1.1674933E-18
  -17.03250        1.1674588E-18
  -16.89000        1.1660314E-18
  -16.74750        1.1637738E-18
  -16.60500        1.1613802E-18
  -16.46250        1.1595380E-18
  -16.32000        1.1587966E-18
  -16.17750        1.1594650E-18
  -16.03500        1.1615633E-18
  -15.89250        1.1648316E-18
  -15.75000        1.1687901E-18
  -15.60750        1.1728378E-18
  -15.46500        1.1763705E-18
  -15.32250        1.1788942E-18
  -15.18000        1.1801210E-18
  -15.03750        1.1800224E-18
  -14.89500        1.1788350E-18
  -14.75250        1.1770118E-18
  -14.61000        1.1751252E-18
  -14.46750        1.1737420E-18
  -14.32500        1.1733042E-18
  -14.18250        1.1740278E-18
  -14.04000        1.1758563E-18
  -13.89750        1.1784756E-18
  -13.75500        1.1813803E-18
  -13.61250        1.1839868E-18
  -13.47000        1.1857522E-18
  -13.32750        1.1862910E-18
  -13.18500        1.1854525E-18
  -13.04250        1.1833545E-18
  -12.90000        1.1803682E-18
  -12.75750        1.1770537E-18
  -12.61500        1.1740588E-18
  -12.47250        1.1720046E-18
  -12.33000        1.1713650E-18
  -12.18750        1.1723766E-18
  -12.04500        1.1749894E-18
  -11.90250        1.1788754E-18
  -11.76000        1.1834946E-18
  -11.61750        1.1882027E-18
  -11.47500        1.1923828E-18
  -11.33250        1.1955645E-18
  -11.19000        1.1975120E-18
  -11.04750        1.1982586E-18
  -10.90500        1.1980864E-18
  -10.76250        1.1974536E-18
  -10.62000        1.1968996E-18
  -10.47750        1.1969268E-18
  -10.33500        1.1979015E-18
  -10.19250        1.1999789E-18
  -10.05000        1.2030679E-18
  -9.907500        1.2068441E-18
  -9.765000        1.2108086E-18
  -9.622500        1.2143832E-18
  -9.480000        1.2170280E-18
  -9.337500        1.2183505E-18
  -9.195000        1.2181894E-18
  -9.052500        1.2166494E-18
  -8.910000        1.2140770E-18
  -8.767500        1.2109869E-18
  -8.625000        1.2079558E-18
  -8.482500        1.2055058E-18
  -8.340000        1.2040069E-18
  -8.197500        1.2036128E-18
  -8.055000        1.2042440E-18
  -7.912500        1.2056189E-18
  -7.770000        1.2073173E-18
  -7.627500        1.2088699E-18
  -7.485000        1.2098582E-18
  -7.342500        1.2100017E-18
  -7.200000        1.2092214E-18
  -7.057500        1.2076631E-18
  -6.915000        1.2056747E-18
  -6.772500        1.2037357E-18
  -6.630000        1.2023557E-18
  -6.487500        1.2019643E-18
  -6.345000        1.2028135E-18
  -6.202500        1.2049214E-18
  -6.060000        1.2080664E-18
  -5.917500        1.2118339E-18
  -5.775000        1.2157067E-18
  -5.632500        1.2191676E-18
  -5.490000        1.2218043E-18
  -5.347500        1.2233864E-18
  -5.205000        1.2239042E-18
  -5.062500        1.2235694E-18
  -4.920000        1.2227700E-18
  -4.777500        1.2219937E-18
  -4.635000        1.2217284E-18
  -4.492500        1.2223609E-18
  -4.350000        1.2240870E-18
  -4.207500        1.2268606E-18
  -4.065000        1.2303901E-18
  -3.922500        1.2341868E-18
  -3.780000        1.2376631E-18
  -3.637500        1.2402508E-18
  -3.495000        1.2415208E-18
  -3.352500        1.2412744E-18
  -3.210000        1.2395834E-18
  -3.067500        1.2367774E-18
  -2.925000        1.2333807E-18
  -2.782500        1.2300138E-18
  -2.640000        1.2272782E-18
  -2.497500        1.2256507E-18
  -2.355000        1.2254010E-18
  -2.212500        1.2265451E-18
  -2.070000        1.2288481E-18
  -1.927500        1.2318720E-18
  -1.785000        1.2350649E-18
  -1.642500        1.2378753E-18
  -1.500000        1.2398690E-18
  -1.357500        1.2408191E-18
  -1.215000        1.2407583E-18
  -1.072500        1.2399668E-18
 -0.9300000        1.2389100E-18
 -0.7875000        1.2381314E-18
 -0.6450000        1.2381348E-18
 -0.5025000        1.2392717E-18
 -0.3600000        1.2416648E-18
 -0.2175000        1.2451803E-18
 -7.5000003E-02    1.2494512E-18
  6.7500003E-02    1.2539434E-18
  0.2100000        1.2580564E-18
  0.3525000        1.2612382E-18
  0.4950000        1.2630917E-18
  0.6375000        1.2634579E-18
  0.7800000        1.2624546E-18
  0.9225000        1.2604604E-18
   1.065000        1.2580444E-18
   1.207500        1.2558562E-18
   1.350000        1.2544900E-18
   1.492500        1.2543652E-18
   1.635000        1.2556374E-18
   1.777500        1.2581679E-18
   1.920000        1.2615565E-18
   2.062500        1.2652224E-18
   2.205000        1.2685232E-18
   2.347500        1.2708794E-18
   2.490000        1.2718830E-18
   2.632500        1.2713758E-18
   2.775000        1.2694773E-18
   2.917500        1.2665663E-18
   3.060000        1.2632149E-18
   3.202500        1.2600843E-18
   3.345000        1.2578027E-18
   3.487500        1.2568454E-18
   3.630000        1.2574433E-18
   3.772500        1.2595386E-18
   3.915000        1.2628026E-18
   4.057500        1.2667069E-18
   4.200000        1.2706365E-18
   4.342500        1.2740181E-18
   4.485000        1.2764293E-18
   4.627500        1.2776734E-18
   4.770000        1.2778000E-18
   4.912500        1.2770776E-18
   5.055000        1.2759215E-18
   5.197500        1.2748016E-18
   5.340000        1.2741420E-18
   5.482500        1.2742340E-18
   5.625000        1.2751754E-18
   5.767500        1.2768474E-18
   5.910000        1.2789335E-18
   6.052500        1.2809851E-18
   6.195000        1.2825161E-18
   6.337500        1.2831135E-18
   6.480000        1.2825359E-18
   6.622500        1.2807805E-18
   6.765000        1.2780941E-18
   6.907500        1.2749331E-18
   7.050000        1.2718728E-18
   7.192500        1.2694966E-18
   7.335000        1.2682789E-18
   7.477500        1.2685009E-18
   7.620000        1.2701994E-18
   7.762500        1.2731686E-18
   7.905000        1.2770029E-18
   8.047500        1.2811729E-18
   8.190000        1.2851259E-18
   8.332500        1.2883889E-18
   8.475000        1.2906544E-18
   8.617500        1.2918398E-18
   8.760000        1.2921038E-18
   8.902500        1.2918077E-18
   9.045000        1.2914392E-18
   9.187500        1.2914998E-18
   9.330000        1.2923912E-18
   9.472500        1.2943223E-18
   9.615000        1.2972571E-18
   9.757500        1.3009216E-18
   9.900000        1.3048546E-18
   10.04250        1.3085006E-18
   10.18500        1.3113179E-18
   10.32750        1.3128822E-18
   10.47000        1.3129674E-18
   10.61250        1.3115882E-18
   10.75500        1.3090011E-18
   10.89750        1.3056631E-18
   11.04000        1.3021485E-18
   11.18250        1.2990481E-18
   11.32500        1.2968565E-18
   11.46750        1.2958789E-18
   11.61000        1.2961783E-18
   11.75250        1.2975669E-18
   11.89500        1.2996572E-18
   12.03750        1.3019513E-18
   12.18000        1.3039541E-18
   12.32250        1.3052785E-18
   12.46500        1.3057232E-18
   12.60750        1.3053080E-18
   12.75000        1.3042650E-18
   12.89250        1.3029846E-18
   13.03500        1.3019354E-18
   13.17750        1.3015701E-18
   13.32000        1.3022330E-18
   13.46250        1.3040882E-18
   13.60500        1.3070759E-18
   13.74750        1.3109139E-18
   13.89000        1.3151441E-18
   14.03250        1.3192165E-18
   14.17500        1.3225999E-18
   14.31750        1.3248909E-18
   14.46000        1.3258971E-18
   14.60250        1.3256769E-18
   14.74500        1.3245209E-18
   14.88750        1.3228870E-18
   15.03000        1.3213032E-18
   15.17250        1.3202590E-18
   15.31500        1.3201110E-18
   15.45750        1.3210192E-18
   15.60000        1.3229230E-18
   15.74250        1.3255547E-18
   15.88500        1.3284917E-18
   16.02750        1.3312373E-18
   16.17000        1.3333166E-18
   16.31250        1.3343740E-18
   16.45500        1.3342511E-18
   16.59750        1.3330326E-18
   16.74000        1.3310376E-18
   16.88250        1.3287644E-18
   17.02500        1.3267895E-18
   17.16750        1.3256485E-18
   17.31000        1.3257255E-18
   17.45250        1.3271731E-18
   17.59500        1.3298844E-18
   17.73750        1.3335143E-18
   17.88000        1.3375495E-18
   18.02250        1.3414058E-18
   18.16500        1.3445303E-18
   18.30750        1.3464981E-18
   18.45000        1.3470836E-18
   18.59250        1.3462954E-18
   18.73500        1.3443764E-18
   18.87750        1.3417556E-18
   19.02000        1.3389679E-18
   19.16250        1.3365534E-18
   19.30500        1.3349468E-18
   19.44750        1.3343956E-18
   19.59000        1.3349130E-18
   19.73250        1.3362848E-18
   19.87500        1.3381270E-18
   20.01750        1.3399759E-18
   20.16000        1.3413951E-18
   20.30250        1.3420654E-18
   20.44500        1.3418511E-18
   20.58750        1.3408196E-18
   20.73000        1.3392238E-18
   20.87250        1.3374482E-18
   21.01500        1.3359288E-18
   21.15750        1.3350686E-18
   21.30000        1.3351551E-18
   21.44250        1.3362993E-18
   21.58500        1.3384102E-18
   21.72750        1.3412075E-18
   21.87000        1.3442820E-18
   22.01250        1.3471820E-18
   22.15500        1.3495142E-18
   22.29750        1.3510326E-18
   22.44000        1.3516936E-18
   22.58250        1.3516642E-18
   22.72500        1.3512832E-18
   22.86750        1.3509829E-18
   23.01000        1.3511952E-18
   23.15250        1.3522588E-18
   23.29500        1.3543461E-18
   23.43750        1.3574225E-18
   23.58000        1.3612446E-18
   23.72250        1.3653967E-18
   23.86500        1.3693609E-18
   24.00750        1.3726112E-18
   24.15000        1.3747151E-18
   24.29250        1.3754222E-18
   24.43500        1.3747196E-18
   24.57750        1.3728420E-18
   24.72000        1.3702280E-18
   24.86250        1.3674286E-18
   25.00500        1.3649970E-18
   25.14750        1.3633735E-18
   25.29000        1.3628037E-18
   25.43250        1.3632981E-18
   25.57500        1.3646456E-18
   25.71750        1.3664641E-18
   25.86000        1.3682899E-18
   26.00250        1.3696715E-18
   26.14500        1.3702630E-18
   26.28750        1.3698937E-18
   26.43000        1.3686091E-18
   26.57250        1.3666705E-18
   26.71500        1.3645149E-18
   26.85750        1.3626731E-18
   27.00000        1.3616634E-18
   27.14250        1.3618832E-18
   27.28500        1.3635183E-18
   27.42750        1.3664966E-18
   27.57000        1.3704976E-18
   27.71250        1.3750155E-18
   27.85500        1.3794621E-18
   27.99750        1.3832841E-18
   28.14000        1.3860670E-18
   28.28250        1.3876034E-18
   28.42500        1.3879224E-18
   28.56750        1.3872672E-18
   28.71000        1.3860378E-18
   28.85250        1.3847082E-18
   28.99500        1.3837308E-18
   29.13750        1.3834457E-18
   29.28000        1.3840118E-18
   29.42250        1.3853687E-18
   29.56500        1.3872457E-18
   29.70750        1.3892147E-18
   29.85000        1.3907849E-18
   29.99250        1.3915127E-18
   30.13500        1.3911092E-18
   30.27750        1.3895142E-18
   30.42000        1.3869193E-18
   30.56250        1.3837360E-18
   30.70500        1.3805188E-18
   30.84750        1.3778569E-18
   30.99000        1.3762623E-18
   31.13250        1.3760738E-18
   31.27500        1.3773952E-18
   31.41750        1.3800759E-18
   31.56000        1.3837355E-18
   31.70250        1.3878301E-18
   31.84500        1.3917467E-18
   31.98750        1.3949183E-18
   32.13000        1.3969295E-18
   32.27250        1.3975985E-18
   32.41500        1.3970142E-18
   32.55750        1.3955197E-18
   32.70000        1.3936427E-18
   32.84250        1.3919896E-18
   32.98500        1.3911208E-18
   33.12750        1.3914448E-18
   33.27000        1.3931411E-18
   33.41250        1.3961334E-18
   33.55500        1.4001087E-18
   33.69750        1.4045791E-18
   33.84000        1.4089727E-18
   33.98250        1.4127341E-18
   34.12500        1.4154195E-18
   34.26750        1.4167749E-18
   34.41000        1.4167777E-18
   34.55250        1.4156346E-18
   34.69500        1.4137390E-18
   34.83750        1.4115825E-18
   34.98000        1.4096557E-18
   35.12250        1.4083418E-18
   35.26500        1.4078411E-18
   35.40750        1.4081375E-18
   35.55000        1.4090178E-18
   35.69250        1.4101262E-18
   35.83500        1.4110548E-18
   35.97750        1.4114362E-18
   36.12000        1.4110216E-18
   36.26250        1.4097366E-18
   36.40500        1.4076993E-18
   36.54750        1.4052057E-18
   36.69000        1.4026847E-18
   36.83250        1.4006253E-18
   36.97500        1.3994885E-18
   37.11750        1.3996209E-18
   37.26000        1.4011810E-18
   37.40250        1.4040998E-18
   37.54500        1.4080883E-18
   37.68750        1.4126893E-18
   37.83000        1.4173661E-18
   37.97250        1.4216075E-18
   38.11500        1.4250232E-18
   38.25750        1.4274094E-18
   38.40000        1.4287699E-18
   38.54250        1.4292937E-18
   38.68500        1.4292975E-18
   38.82750        1.4291525E-18
   38.97000        1.4292031E-18
   39.11250        1.4296987E-18
   39.25500        1.4307460E-18
   39.39750        1.4322880E-18
   39.54000        1.4341133E-18
   39.68250        1.4358994E-18
   39.82500        1.4372803E-18
   39.96750        1.4379316E-18
   40.11000        1.4376528E-18
   40.25250        1.4364261E-18
   40.39500        1.4344361E-18
   40.53750        1.4320419E-18
   40.68000        1.4297080E-18
   40.82250        1.4279101E-18
   40.96500        1.4270383E-18
   41.10750        1.4273172E-18
   41.25000        1.4287653E-18
   41.39250        1.4311964E-18
   41.53500        1.4342560E-18
   41.67750        1.4374889E-18
   41.82000        1.4404213E-18
   41.96250        1.4426430E-18
   42.10500        1.4438799E-18
   42.24750        1.4440401E-18
   42.39000        1.4432283E-18
   42.53250        1.4417219E-18
   42.67500        1.4399098E-18
   42.81750        1.4382058E-18
   42.96000        1.4369574E-18
   43.10250        1.4363686E-18
   43.24500        1.4364613E-18
   43.38750        1.4370749E-18
   43.53000        1.4379157E-18
   43.67250        1.4386329E-18
   43.81500        1.4389040E-18
   43.95750        1.4385129E-18
   44.10000        1.4374013E-18
   44.24250        1.4356862E-18
   44.38500        1.4336461E-18
   44.52750        1.4316693E-18
   44.67000        1.4301856E-18
   44.81250        1.4295830E-18
   44.95500        1.4301281E-18
   45.09750        1.4319052E-18
   45.24000        1.4347855E-18
   45.38250        1.4384441E-18
   45.52500        1.4424181E-18
   45.66750        1.4461953E-18
   45.81000        1.4493192E-18
   45.95250        1.4514788E-18
   46.09500        1.4525649E-18
   46.23750        1.4526834E-18
   46.38000        1.4521217E-18
   46.52250        1.4512832E-18
   46.66500        1.4506025E-18
   46.80750        1.4504625E-18
   46.95000        1.4511247E-18
   47.09250        1.4526843E-18
   47.23500        1.4550514E-18
   47.37750        1.4579689E-18
   47.52000        1.4610579E-18
   47.66250        1.4638922E-18
   47.80500        1.4660849E-18
   47.94750        1.4673723E-18
   48.09000        1.4676746E-18
   48.23250        1.4671137E-18
   48.37500        1.4659879E-18
   48.51750        1.4647002E-18
   48.66000        1.4636667E-18
   48.80250        1.4632212E-18
   48.94500        1.4635444E-18
   49.08750        1.4646331E-18
   49.23000        1.4663030E-18
   49.37250        1.4682341E-18
   49.51500        1.4700305E-18
   49.65750        1.4712981E-18
   49.80000        1.4717161E-18
   49.94250        1.4710971E-18
   50.08500        1.4694299E-18
   50.22750        1.4668944E-18
   50.37000        1.4638400E-18
   50.51250        1.4607287E-18
   50.65500        1.4580512E-18
   50.79750        1.4562279E-18
   50.94000        1.4555242E-18
   51.08250        1.4559942E-18
   51.22500        1.4574760E-18
   51.36750        1.4596284E-18
   51.51000        1.4620070E-18
   51.65250        1.4641572E-18
   51.79500        1.4657034E-18
   51.93750        1.4664131E-18
   52.08000        1.4662351E-18
   52.22250        1.4653029E-18
   52.36500        1.4639068E-18
   52.50750        1.4624405E-18
   52.65000        1.4613308E-18
   52.79250        1.4609552E-18
   52.93500        1.4615663E-18
   53.07750        1.4632348E-18
   53.22000        1.4658272E-18
   53.36250        1.4690250E-18
   53.50500        1.4723884E-18
   53.64750        1.4754462E-18
   53.79000        1.4777929E-18
   53.93250        1.4791706E-18
   54.07500        1.4795165E-18
   54.21750        1.4789684E-18
   54.36000        1.4778307E-18
   54.50250        1.4765138E-18
   54.64500        1.4754545E-18
   54.78750        1.4750361E-18
   54.93000        1.4755178E-18
   55.07250        1.4769863E-18
   55.21500        1.4793317E-18
   55.35750        1.4822621E-18
   55.50000        1.4853554E-18
   55.64250        1.4881400E-18
   55.78500        1.4901905E-18
   55.92750        1.4912191E-18
   56.07000        1.4911395E-18
   56.21250        1.4900797E-18
   56.35500        1.4883537E-18
   56.49750        1.4863907E-18
   56.64000        1.4846440E-18
   56.78250        1.4834998E-18
   56.92500        1.4832087E-18
   57.06750        1.4838421E-18
   57.21000        1.4852838E-18
   57.35250        1.4872576E-18
   57.49500        1.4893737E-18
   57.63750        1.4912037E-18
   57.78000        1.4923637E-18
   57.92250        1.4925961E-18
   58.06500        1.4918339E-18
   58.20750        1.4902283E-18
   58.35000        1.4881277E-18
   58.49250        1.4860103E-18
   58.63500        1.4843831E-18
   58.77750        1.4836717E-18
   58.92000        1.4841272E-18
   59.06250        1.4857792E-18
   59.20500        1.4884324E-18
   59.34750        1.4917159E-18
   59.49000        1.4951584E-18
   59.63250        1.4982798E-18
   59.77500        1.5006768E-18
   59.91750        1.5020892E-18
   60.06000        1.5024432E-18
   60.20250        1.5018681E-18
   60.34500        1.5006729E-18
   60.48750        1.4992944E-18
   60.63000        1.4982114E-18
   60.77250        1.4978439E-18
   60.91500        1.4984586E-18
   61.05750        1.5001030E-18
   61.20000        1.5025868E-18
   61.34250        1.5055216E-18
   61.48500        1.5084040E-18
   61.62750        1.5107269E-18
   61.77000        1.5120873E-18
   61.91250        1.5122644E-18
   62.05500        1.5112585E-18
   62.19750        1.5092825E-18
   62.34000        1.5067170E-18
   62.48250        1.5040412E-18
   62.62500        1.5017490E-18
   62.76750        1.5002630E-18
   62.91000        1.4998606E-18
   63.05250        1.5006211E-18
   63.19500        1.5024034E-18
   63.33750        1.5048702E-18
   63.48000        1.5075519E-18
   63.62250        1.5099446E-18
   63.76500        1.5116150E-18
   63.90750        1.5122945E-18
   64.05000        1.5119319E-18
   64.19250        1.5106962E-18
   64.33500        1.5089344E-18
   64.47750        1.5070928E-18
   64.62000        1.5056275E-18
   64.76250        1.5049218E-18
   64.90500        1.5052207E-18
   65.04750        1.5065938E-18
   65.19000        1.5089275E-18
   65.33250        1.5119468E-18
   65.47500        1.5152624E-18
   65.61750        1.5184411E-18
   65.76000        1.5210873E-18
   65.90250        1.5229224E-18
   66.04500        1.5238383E-18
   66.18750        1.5239153E-18
   66.33000        1.5233953E-18
   66.47250        1.5226149E-18
   66.61500        1.5219236E-18
   66.75750        1.5215998E-18
   66.90000        1.5217960E-18
   67.04250        1.5225132E-18
   67.18500        1.5236132E-18
   67.32750        1.5248561E-18
   67.47000        1.5259496E-18
   67.61250        1.5266081E-18
   67.75500        1.5266061E-18
   67.89750        1.5258268E-18
   68.04000        1.5242957E-18
   68.18250        1.5221939E-18
   68.32500        1.5198372E-18
   68.46750        1.5176234E-18
   68.61000        1.5159566E-18
   68.75250        1.5151559E-18
   68.89500        1.5153857E-18
   69.03750        1.5166156E-18
   69.18000        1.5186298E-18
   69.32250        1.5210777E-18
   69.46500        1.5235483E-18
   69.60750        1.5256545E-18
   69.75000        1.5270996E-18
   69.89250        1.5277233E-18
   70.03500        1.5275184E-18
   70.17750        1.5266255E-18
   70.32000        1.5253076E-18
   70.46250        1.5239092E-18
   70.60500        1.5227959E-18
   70.74750        1.5222894E-18
   70.89000        1.5225960E-18
   71.03250        1.5237582E-18
   71.17500        1.5256343E-18
   71.31750        1.5279253E-18
   71.46000        1.5302388E-18
   71.60250        1.5321783E-18
   71.74500        1.5334334E-18
   71.88750        1.5338463E-18
   72.03000        1.5334377E-18
   72.17250        1.5323913E-18
   72.31500        1.5310085E-18
   72.45750        1.5296442E-18
   72.60000        1.5286417E-18
   72.74250        1.5282770E-18
   72.88500        1.5287140E-18
   73.02750        1.5299784E-18
   73.17000        1.5319489E-18
   73.31250        1.5343785E-18
   73.45500        1.5369357E-18
   73.59750        1.5392755E-18
   73.74000        1.5411159E-18
   73.88250        1.5423036E-18
   74.02500        1.5428521E-18
   74.16750        1.5429340E-18
   74.31000        1.5428331E-18
   74.45250        1.5428665E-18
   74.59500        1.5433045E-18
   74.73750        1.5443022E-18
   74.88000        1.5458645E-18
   75.02250        1.5478460E-18
   75.16500        1.5499782E-18
   75.30750        1.5519199E-18
   75.45000        1.5533207E-18
   75.59250        1.5538824E-18
   75.73500        1.5534238E-18
   75.87750        1.5519271E-18
   76.02000        1.5495615E-18
   76.16250        1.5466692E-18
   76.30500        1.5437109E-18
   76.44750        1.5411789E-18
   76.59000        1.5394938E-18
   76.73250        1.5389146E-18
   76.87500        1.5394853E-18
   77.01750        1.5410266E-18
   77.16000        1.5431840E-18
   77.30250        1.5455046E-18
   77.44500        1.5475330E-18
   77.58750        1.5488970E-18
   77.73000        1.5493719E-18
   77.87250        1.5489181E-18
   78.01500        1.5476882E-18
   78.15750        1.5460026E-18
   78.30000        1.5443005E-18
   78.44250        1.5430613E-18
   78.58500        1.5427147E-18
   78.72750        1.5435468E-18
   78.87000        1.5456323E-18
   79.01250        1.5488079E-18
   79.15500        1.5527015E-18
   79.29750        1.5568134E-18
   79.44000        1.5606225E-18
   79.58250        1.5636999E-18
   79.72500        1.5657906E-18
   79.86750        1.5668512E-18
   80.01000        1.5670382E-18
   80.15250        1.5666549E-18
   80.29500        1.5660779E-18
   80.43750        1.5656794E-18
   80.58000        1.5657517E-18
   80.72250        1.5664511E-18
   80.86500        1.5677592E-18
   81.00750        1.5694750E-18
   81.15000        1.5712419E-18
   81.29250        1.5726098E-18
   81.43500        1.5731289E-18
   81.57750        1.5724552E-18
   81.72000        1.5704397E-18
   81.86250        1.5671788E-18
   82.00500        1.5630076E-18
   82.14750        1.5584366E-18
   82.29000        1.5540510E-18
   82.43250        1.5503960E-18
   82.57500        1.5478773E-18
   82.71750        1.5467008E-18
   82.86000        1.5468481E-18
   83.00250        1.5480998E-18
   83.14500        1.5500835E-18
   83.28750        1.5523411E-18
   83.43000        1.5544126E-18
   83.57250        1.5559155E-18
   83.71500        1.5566194E-18
   83.85750        1.5564906E-18
   84.00000        1.5557004E-18
   84.14250        1.5545875E-18
   84.28500        1.5535797E-18
   84.42750        1.5530907E-18
   84.57000        1.5534212E-18
   84.71250        1.5546884E-18
   84.85500        1.5568031E-18
   84.99750        1.5594903E-18
   85.14000        1.5623570E-18
   85.28250        1.5649691E-18
   85.42500        1.5669354E-18
   85.56750        1.5679754E-18
   85.71000        1.5679650E-18
   85.85250        1.5669577E-18
   85.99500        1.5651802E-18
   86.13750        1.5629978E-18
   86.28000        1.5608541E-18
   86.42250        1.5591898E-18
   86.56500        1.5583564E-18
   86.70750        1.5585422E-18
   86.85000        1.5597363E-18
   86.99250        1.5617351E-18
   87.13500        1.5641997E-18
   87.27750        1.5667366E-18
   87.42000        1.5689912E-18
   87.56250        1.5707169E-18
   87.70500        1.5718164E-18
   87.84750        1.5723443E-18
   87.99000        1.5724861E-18
   88.13250        1.5725114E-18
   88.27500        1.5727256E-18
   88.41750        1.5734132E-18
   88.56000        1.5747813E-18
   88.70250        1.5769146E-18
   88.84500        1.5797420E-18
   88.98750        1.5830347E-18
   89.13000        1.5864395E-18
   89.27250        1.5895480E-18
   89.41500        1.5919903E-18
   89.55750        1.5935199E-18
   89.70000        1.5940775E-18
   89.84250        1.5938034E-18
   89.98500        1.5930051E-18
   90.12750        1.5920838E-18
   90.27000        1.5914488E-18
   90.41250        1.5914376E-18
   90.55500        1.5922543E-18
   90.69750        1.5939417E-18
   90.84000        1.5963702E-18
   90.98250        1.5992591E-18
   91.12500        1.6022138E-18
   91.26750        1.6047843E-18
   91.41000        1.6065433E-18
   91.55250        1.6071691E-18
   91.69500        1.6065198E-18
   91.83750        1.6046752E-18
   91.98000        1.6019339E-18
   92.12250        1.5987577E-18
   92.26500        1.5956771E-18
   92.40750        1.5931819E-18
   92.55000        1.5916235E-18
   92.69250        1.5911565E-18
   92.83500        1.5917208E-18
   92.97750        1.5930748E-18
   93.12000        1.5948539E-18
   93.26250        1.5966454E-18
   93.40500        1.5980701E-18
   93.54750        1.5988472E-18
   93.69000        1.5988497E-18
   93.83250        1.5981319E-18
   93.97500        1.5969255E-18
   94.11750        1.5955984E-18
   94.26000        1.5945802E-18
   94.40250        1.5942641E-18
   94.54500        1.5949141E-18
   94.68750        1.5965957E-18
   94.83000        1.5991551E-18
   94.97250        1.6022501E-18
   95.11500        1.6054242E-18
   95.25750        1.6082030E-18
   95.40000        1.6101911E-18
   95.54250        1.6111472E-18
   95.68500        1.6110211E-18
   95.82750        1.6099618E-18
   95.97000        1.6082845E-18
   96.11250        1.6064148E-18
   96.25500        1.6048110E-18
   96.39750        1.6038763E-18
   96.54000        1.6038724E-18
   96.68250        1.6048600E-18
   96.82500        1.6066745E-18
   96.96750        1.6089550E-18
   97.11000        1.6112199E-18
   97.25250        1.6129754E-18
   97.39500        1.6138291E-18
   97.53750        1.6135739E-18
   97.68000        1.6122296E-18
   97.82250        1.6100277E-18
   97.96500        1.6073546E-18
   98.10750        1.6046678E-18
   98.25000        1.6024064E-18
   98.39250        1.6009132E-18
   98.53500        1.6003751E-18
   98.67750        1.6007906E-18
   98.82000        1.6019657E-18
   98.96250        1.6035404E-18
   99.10500        1.6050503E-18
   99.24750        1.6060153E-18
   99.39000        1.6060431E-18