  -30.00000        1.0086709E-17
  -29.83850        1.0094430E-17
  -29.67700        1.0107484E-17
  -29.51550        1.0122110E-17
  -29.35400        1.0134513E-17
  -29.19250        1.0142189E-17
  -29.03100        1.0144760E-17
  -28.86950        1.0144010E-17
  -28.70800        1.0143131E-17
  -28.54650        1.0145439E-17
  -28.38500        1.0153074E-17
  -28.22350        1.0166146E-17
  -28.06200        1.0182659E-17
  -27.90050        1.0199231E-17
  -27.73900        1.0212349E-17
  -27.57750        1.0219670E-17
  -27.41600        1.0220907E-17
  -27.25450        1.0217945E-17
  -27.09300        1.0214155E-17
  -26.93150        1.0213162E-17
  -26.77000        1.0217514E-17
  -26.60850        1.0227762E-17
  -26.44700        1.0242269E-17
  -26.28550        1.0257835E-17
  -26.12400        1.0270894E-17
  -25.96250        1.0278825E-17
  -25.80100        1.0280921E-17
  -25.63950        1.0278619E-17
  -25.47800        1.0274951E-17
  -25.31650        1.0273395E-17
  -25.15500        1.0276581E-17
  -24.99350        1.0285320E-17
  -24.83200        1.0298324E-17
  -24.67050        1.0312716E-17
  -24.50900        1.0325122E-17
  -24.34750        1.0332951E-17
  -24.18600        1.0335359E-17
  -24.02450        1.0333555E-17
  -23.86300        1.0330332E-17
  -23.70150        1.0328995E-17
  -23.54000        1.0332107E-17
  -23.37850        1.0340513E-17
  -23.21700        1.0353011E-17
  -23.05550        1.0366803E-17
  -22.89400        1.0378538E-17
  -22.73250        1.0385564E-17
  -22.57100        1.0386932E-17
  -22.40950        1.0383745E-17
  -22.24800        1.0378748E-17
  -22.08650        1.0375312E-17
  -21.92500        1.0376180E-17
  -21.76350        1.0382457E-17
  -21.60200        1.0393216E-17
  -21.44050        1.0405877E-17
  -21.27900        1.0417191E-17
  -21.11750        1.0424478E-17
  -20.95600        1.0426645E-17
  -20.79450        1.0424592E-17
  -20.63300        1.0420871E-17
  -20.47150        1.0418707E-17
  -20.31000        1.0420771E-17
  -20.14850        1.0428148E-17
  -19.98700        1.0439906E-17
  -19.82550        1.0453430E-17
  -19.66400        1.0465382E-17
  -19.50250        1.0472948E-17
  -19.34100        1.0474899E-17
  -19.17950        1.0472055E-17
  -19.01800        1.0466994E-17
  -18.85650        1.0463091E-17
  -18.69500        1.0463275E-17
  -18.53350        1.0468925E-17
  -18.37200        1.0479369E-17
  -18.21050        1.0492123E-17
  -18.04900        1.0503826E-17
  -17.88750        1.0511494E-17
  -17.72600        1.0513625E-17
  -17.56450        1.0510773E-17
  -17.40300        1.0505325E-17
  -17.24150        1.0500615E-17
  -17.08000        1.0499666E-17
  -16.91850        1.0504056E-17
  -16.75700        1.0513320E-17
  -16.59550        1.0525118E-17
  -16.43400        1.0536101E-17
  -16.27250        1.0543164E-17
  -16.11100        1.0544608E-17
  -15.94950        1.0540790E-17
  -15.78800        1.0533993E-17
  -15.62650        1.0527596E-17
  -15.46500        1.0524823E-17
  -15.30350        1.0527546E-17
  -15.14200        1.0535593E-17
  -14.98050        1.0546809E-17
  -14.81900        1.0557846E-17
  -14.65750        1.0565404E-17
  -14.49600        1.0567443E-17
  -14.33450        1.0563934E-17
  -14.17300        1.0556859E-17
  -14.01150        1.0549475E-17
  -13.85000        1.0545095E-17
  -13.68850        1.0545865E-17
  -13.52700        1.0551973E-17
  -13.36550        1.0561589E-17
  -13.20400        1.0571549E-17
  -13.04250        1.0578539E-17
  -12.88100        1.0580326E-17
  -12.71950        1.0576590E-17
  -12.55800        1.0569041E-17
  -12.39650        1.0560787E-17
  -12.23500        1.0555189E-17
  -12.07350        1.0554628E-17
  -11.91200        1.0559643E-17
  -11.75050        1.0568757E-17
  -11.58900        1.0579045E-17
  -11.42750        1.0587242E-17
  -11.26600        1.0590957E-17
  -11.10450        1.0589556E-17
  -10.94300        1.0584386E-17
  -10.78150        1.0578247E-17
  -10.62000        1.0574330E-17
  -10.45850        1.0575011E-17
  -10.29700        1.0580951E-17
  -10.13550        1.0590838E-17
  -9.974000        1.0601866E-17
  -9.812500        1.0610761E-17
  -9.651000        1.0614988E-17
  -9.489500        1.0613662E-17
  -9.328000        1.0607858E-17
  -9.166500        1.0600193E-17
  -9.005000        1.0593832E-17
  -8.843500        1.0591327E-17
  -8.682000        1.0593686E-17
  -8.520500        1.0600039E-17
  -8.359000        1.0608021E-17
  -8.197500        1.0614705E-17
  -8.036000        1.0617742E-17
  -7.874500        1.0616273E-17
  -7.713000        1.0611270E-17
  -7.551500        1.0605172E-17
  -7.390000        1.0600963E-17
  -7.228500        1.0601040E-17
  -7.067000        1.0606288E-17
  -6.905500        1.0615734E-17
  -6.744000        1.0626884E-17
  -6.582500        1.0636629E-17
  -6.421000        1.0642392E-17
  -6.259500        1.0643058E-17
  -6.098000        1.0639366E-17
  -5.936500        1.0633604E-17
  -5.775000        1.0628732E-17
  -5.613500        1.0627260E-17
  -5.452000        1.0630305E-17
  -5.290500        1.0637181E-17
  -5.129000        1.0645685E-17
  -4.967500        1.0652942E-17
  -4.806000        1.0656524E-17
  -4.644500        1.0655376E-17
  -4.483000        1.0650241E-17
  -4.321500        1.0643383E-17
  -4.160000        1.0637740E-17
  -3.998500        1.0635816E-17
  -3.837000        1.0638726E-17
  -3.675500        1.0645765E-17
  -3.514000        1.0654674E-17
  -3.352500        1.0662480E-17
  -3.191000        1.0666630E-17
  -3.029500        1.0665964E-17
  -2.868000        1.0661171E-17
  -2.706500        1.0654555E-17
  -2.545000        1.0649190E-17
  -2.383500        1.0647777E-17
  -2.222000        1.0651630E-17
  -2.060500        1.0660186E-17
  -1.899000        1.0671195E-17
  -1.737500        1.0681549E-17
  -1.576000        1.0688430E-17
  -1.414500        1.0690345E-17
  -1.253000        1.0687667E-17
  -1.091500        1.0682474E-17
 -0.9300000        1.0677753E-17
 -0.7685000        1.0676254E-17
 -0.6070000        1.0679446E-17
 -0.4455000        1.0686947E-17
 -0.2840000        1.0696659E-17
 -0.1225000        1.0705548E-17
  3.9000001E-02    1.0710794E-17
  0.2005000        1.0710861E-17
  0.3620000        1.0706105E-17
  0.5235000        1.0698661E-17
  0.6850000        1.0691680E-17
  0.8465000        1.0688168E-17
   1.008000        1.0689873E-17
   1.169500        1.0696639E-17
   1.331000        1.0706456E-17
   1.492500        1.0716201E-17
   1.654000        1.0722798E-17
   1.815500        1.0724350E-17
   1.977000        1.0720846E-17
   2.138500        1.0714153E-17
   2.300000        1.0707325E-17
   2.461500        1.0703460E-17
   2.623000        1.0704550E-17
   2.784500        1.0710747E-17
   2.946000        1.0720319E-17
   3.107500        1.0730307E-17
   3.269000        1.0737644E-17
   3.430500        1.0740307E-17
   3.592000        1.0738077E-17
   3.753500        1.0732606E-17
   3.915000        1.0726797E-17
   4.076500        1.0723693E-17
   4.238000        1.0725324E-17
   4.399500        1.0731929E-17
   4.561000        1.0741849E-17
   4.722500        1.0752148E-17
   4.884000        1.0759694E-17
   5.045500        1.0762347E-17
   5.207000        1.0759754E-17
   5.368500        1.0753492E-17
   5.530000        1.0746486E-17
   5.691500        1.0741925E-17
   5.853000        1.0742088E-17
   6.014500        1.0747512E-17
   6.176000        1.0756811E-17
   6.337500        1.0767226E-17
   6.499000        1.0775664E-17
   6.660500        1.0779875E-17
   6.822000        1.0779263E-17
   6.983500        1.0775089E-17
   7.145000        1.0769945E-17
   7.306500        1.0766729E-17
   7.468000        1.0767504E-17
   7.629500        1.0772682E-17
   7.791000        1.0780858E-17
   7.952500        1.0789329E-17
   8.114000        1.0795131E-17
   8.275500        1.0796188E-17
   8.437000        1.0792125E-17
   8.598500        1.0784438E-17
   8.760000        1.0775970E-17
   8.921500        1.0769846E-17
   9.083000        1.0768331E-17
   9.244500        1.0771984E-17
   9.406000        1.0779482E-17
   9.567500        1.0788133E-17
   9.729000        1.0794920E-17
   9.890500        1.0797651E-17
   10.05200        1.0795785E-17
   10.21350        1.0790619E-17
   10.37500        1.0784758E-17
   10.53650        1.0781086E-17
   10.69800        1.0781628E-17
   10.85950        1.0786740E-17
   11.02100        1.0794960E-17
   11.18250        1.0803556E-17
   11.34400        1.0809586E-17
   11.50550        1.0811048E-17
   11.66700        1.0807681E-17
   11.82850        1.0801105E-17
   11.99000        1.0794233E-17
   12.15150        1.0790184E-17
   12.31300        1.0791100E-17
   12.47450        1.0797329E-17
   12.63600        1.0807287E-17
   12.79750        1.0818044E-17
   12.95900        1.0826438E-17
   13.12050        1.0830264E-17
   13.28200        1.0829105E-17
   13.44350        1.0824473E-17
   13.60500        1.0819210E-17
   13.76650        1.0816372E-17
   13.92800        1.0818038E-17
   14.08950        1.0824485E-17
   14.25100        1.0834068E-17
   14.41250        1.0843832E-17
   14.57400        1.0850662E-17
   14.73550        1.0852481E-17
   14.89700        1.0849079E-17
   15.05850        1.0842221E-17
   15.22000        1.0834994E-17
   15.38150        1.0830650E-17
   15.54300        1.0831361E-17
   15.70450        1.0837386E-17
   15.86600        1.0846956E-17
   16.02750        1.0856927E-17
   16.18900        1.0863969E-17
   16.35050        1.0865821E-17
   16.51200        1.0862139E-17
   16.67350        1.0854629E-17
   16.83500        1.0846388E-17
   16.99650        1.0840721E-17
   17.15800        1.0839886E-17
   17.31950        1.0844240E-17
   17.48100        1.0852113E-17
   17.64250        1.0860471E-17
   17.80400        1.0866088E-17
   17.96550        1.0866806E-17
   18.12700        1.0862376E-17
   18.28850        1.0854574E-17
   18.45000        1.0846527E-17
   18.61150        1.0841530E-17
   18.77300        1.0841788E-17
   18.93450        1.0847569E-17
   19.09600        1.0857100E-17
   19.25750        1.0867244E-17
   19.41900        1.0874680E-17
   19.58050        1.0877169E-17
   19.74200        1.0874394E-17
   19.90350        1.0868070E-17
   20.06500        1.0861271E-17
   20.22650        1.0857255E-17
   20.38800        1.0858215E-17
   20.54950        1.0864452E-17
   20.71100        1.0874269E-17
   20.87250        1.0884642E-17
   21.03400        1.0892386E-17
   21.19550        1.0895371E-17
   21.35700        1.0893328E-17
   21.51850        1.0887928E-17
   21.68000        1.0882109E-17
   21.84150        1.0878917E-17
   22.00300        1.0880314E-17
   22.16450        1.0886396E-17
   22.32600        1.0895357E-17
   22.48750        1.0904180E-17
   22.64900        1.0909800E-17
   22.81050        1.0910291E-17
   22.97200        1.0905612E-17
   23.13350        1.0897636E-17
   23.29500        1.0889435E-17
   23.45650        1.0884117E-17
   23.61800        1.0883653E-17
   23.77950        1.0888154E-17
   23.94100        1.0895865E-17
   24.10250        1.0903882E-17
   24.26400        1.0909311E-17
   24.42550        1.0910401E-17
   24.58700        1.0907226E-17
   24.74850        1.0901649E-17
   24.91000        1.0896569E-17
   25.07150        1.0894769E-17
   25.23300        1.0897796E-17
   25.39450        1.0905335E-17
   25.55600        1.0915299E-17
   25.71750        1.0924631E-17
   25.87900        1.0930472E-17
   26.04050        1.0931284E-17
   26.20200        1.0927443E-17
   26.36350        1.0921104E-17
   26.52500        1.0915366E-17
   26.68650        1.0913069E-17
   26.84800        1.0915692E-17
   27.00950        1.0922775E-17
   27.17100        1.0932095E-17
   27.33250        1.0940532E-17
   27.49400        1.0945284E-17
   27.65550        1.0944952E-17
   27.81700        1.0940086E-17
   27.97850        1.0932954E-17
   28.14000        1.0926651E-17
   28.30150        1.0923870E-17
   28.46300        1.0925834E-17
   28.62450        1.0931812E-17
   28.78600        1.0939400E-17
   28.94750        1.0945473E-17
   29.10900        1.0947434E-17
   29.27050        1.0944265E-17
   29.43200        1.0936973E-17
   29.59350        1.0928236E-17
   29.75500        1.0921401E-17
   29.91650        1.0919199E-17
   30.07800        1.0922692E-17
   30.23950        1.0930857E-17
   30.40100        1.0940986E-17
   30.56250        1.0949726E-17
   30.72400        1.0954373E-17
   30.88550        1.0953915E-17
   31.04700        1.0949405E-17
   31.20850        1.0943520E-17
   31.37000        1.0939488E-17
   31.53150        1.0939794E-17
   31.69300        1.0945177E-17
   31.85450        1.0954325E-17
   32.01600        1.0964368E-17
   32.17750        1.0972005E-17
   32.33900        1.0974806E-17
   32.50050        1.0972175E-17
   32.66200        1.0965609E-17
   32.82350        1.0958123E-17
   32.98500        1.0953090E-17
   33.14650        1.0952929E-17
   33.30800        1.0958169E-17
   33.46950        1.0967242E-17
   33.63100        1.0977106E-17
   33.79250        1.0984431E-17
   33.95400        1.0986895E-17
   34.11550        1.0984081E-17
   34.27700        1.0977614E-17
   34.43850        1.0970497E-17
   34.60000        1.0965913E-17
   34.76150        1.0965954E-17
   34.92300        1.0970807E-17
   35.08450        1.0978683E-17
   35.24600        1.0986548E-17
   35.40750        1.0991333E-17
   35.56900        1.0991166E-17
   35.73050        1.0986111E-17
   35.89200        1.0978145E-17
   36.05350        1.0970375E-17
   36.21500        1.0965804E-17
   36.37650        1.0966148E-17
   36.53800        1.0971177E-17
   36.69950        1.0978815E-17
   36.86100        1.0985993E-17
   37.02250        1.0989876E-17
   37.18400        1.0988994E-17
   37.34550        1.0983817E-17
   37.50700        1.0976562E-17
   37.66850        1.0970292E-17
   37.83000        1.0967699E-17
   37.99150        1.0970037E-17
   38.15300        1.0976646E-17
   38.31450        1.0985245E-17
   38.47600        1.0992865E-17
   38.63750        1.0997055E-17
   38.79900        1.0996867E-17
   38.96050        1.0993212E-17
   39.12200        1.0988480E-17
   39.28350        1.0985545E-17
   39.44500        1.0986588E-17
   39.60650        1.0992204E-17
   39.76800        1.1001151E-17
   39.92950        1.1010837E-17
   40.09100        1.1018358E-17
   40.25250        1.1021644E-17
   40.41400        1.1020274E-17
   40.57550        1.1015614E-17
   40.73700        1.1010238E-17
   40.89850        1.1006871E-17
   41.06000        1.1007280E-17
   41.22150        1.1011573E-17
   41.38300        1.1018168E-17
   41.54450        1.1024470E-17
   41.70600        1.1027940E-17
   41.86750        1.1027158E-17
   42.02900        1.1022412E-17
   42.19050        1.1015597E-17
   42.35200        1.1009454E-17
   42.51350        1.1006466E-17
   42.67500        1.1007863E-17
   42.83650        1.1013125E-17
   42.99800        1.1020201E-17
   43.15950        1.1026346E-17
   43.32100        1.1029228E-17
   43.48250        1.1027869E-17
   43.64400        1.1023030E-17
   43.80550        1.1016884E-17
   43.96700        1.1012129E-17
   44.12850        1.1010882E-17
   44.29000        1.1013821E-17
   44.45150        1.1019918E-17
   44.61300        1.1026856E-17
   44.77450        1.1031985E-17
   44.93600        1.1033395E-17
   45.09750        1.1030683E-17
   45.25900        1.1025120E-17
   45.42050        1.1019114E-17
   45.58200        1.1015235E-17
   45.74350        1.1015171E-17
   45.90500        1.1019051E-17
   46.06650        1.1025412E-17
   46.22800        1.1031815E-17
   46.38950        1.1035857E-17
   46.55100        1.1036163E-17
   46.71250        1.1032954E-17
   46.87400        1.1027961E-17
   47.03550        1.1023724E-17
   47.19700        1.1022559E-17
   47.35850        1.1025618E-17
   47.52000        1.1032429E-17
   47.68150        1.1041091E-17
   47.84300        1.1049040E-17
   48.00450        1.1054079E-17
   48.16600        1.1055239E-17
   48.32750        1.1053132E-17
   48.48900        1.1049654E-17
   48.65050        1.1047163E-17
   48.81200        1.1047488E-17
   48.97350        1.1051164E-17
   49.13500        1.1057220E-17
   49.29650        1.1063587E-17
   49.45800        1.1067970E-17
   49.61950        1.1068802E-17
   49.78100        1.1065897E-17
   49.94250        1.1060531E-17
   50.10400        1.1054917E-17
   50.26550        1.1051293E-17
   50.42700        1.1051008E-17
   50.58850        1.1053987E-17
   50.75000        1.1058774E-17
   50.91150        1.1063167E-17
   51.07300        1.1065133E-17
   51.23450        1.1063672E-17
   51.39600        1.1059230E-17
   51.55750        1.1053512E-17
   51.71900        1.1048777E-17
   51.88050        1.1046901E-17
   52.04200        1.1048608E-17
   52.20350        1.1053183E-17
   52.36500        1.1058788E-17
   52.52650        1.1063246E-17
   52.68800        1.1064962E-17
   52.84950        1.1063589E-17
   53.01100        1.1060179E-17
   53.17250        1.1056721E-17
   53.33400        1.1055297E-17
   53.49550        1.1057188E-17
   53.65700        1.1062301E-17
   53.81850        1.1069186E-17
   53.98000        1.1075612E-17
   54.14150        1.1079481E-17
   54.30300        1.1079700E-17
   54.46450        1.1076632E-17
   54.62600        1.1071961E-17
   54.78750        1.1067998E-17
   54.94900        1.1066738E-17
   55.11050        1.1069037E-17
   55.27200        1.1074278E-17
   55.43350        1.1080635E-17
   55.59500        1.1085856E-17
   55.75650        1.1088210E-17
   55.91800        1.1087227E-17
   56.07950        1.1083899E-17
   56.24100        1.1080260E-17
   56.40250        1.1078526E-17
   56.56400        1.1080143E-17
   56.72550        1.1085144E-17
   56.88700        1.1092092E-17
   57.04850        1.1098635E-17
   57.21000        1.1102460E-17
   57.37150        1.1102232E-17
   57.53300        1.1098161E-17
   57.69450        1.1091923E-17
   57.85600        1.1085995E-17
   58.01750        1.1082654E-17
   58.17900        1.1083057E-17
   58.34050        1.1086789E-17
   58.50200        1.1092054E-17
   58.66350        1.1096435E-17
   58.82500        1.1097915E-17
   58.98650        1.1095728E-17
   59.14800        1.1090685E-17
   59.30950        1.1084847E-17
   59.47100        1.1080677E-17
   59.63250        1.1080006E-17
   59.79400        1.1083275E-17
   59.95550        1.1089340E-17
   60.11700        1.1095941E-17
   60.27850        1.1100637E-17
   60.44000        1.1101823E-17
   60.60150        1.1099403E-17
   60.76300        1.1094846E-17
   60.92450        1.1090582E-17
   61.08600        1.1088999E-17
   61.24750        1.1091448E-17
   61.40900        1.1097668E-17
   61.57050        1.1105870E-17
   61.73200        1.1113454E-17
   61.89350        1.1118055E-17
   62.05500        1.1118503E-17
   62.21650        1.1115282E-17
   62.37800        1.1110320E-17
   62.53950        1.1106172E-17
   62.70100        1.1104961E-17
   62.86250        1.1107496E-17
   63.02400        1.1112948E-17
   63.18550        1.1119202E-17
   63.34700        1.1123759E-17
   63.50850        1.1124798E-17
   63.67000        1.1121958E-17
   63.83150        1.1116511E-17
   63.99300        1.1110851E-17
   64.15450        1.1107509E-17
   64.31600        1.1108090E-17
   64.47750        1.1112602E-17
   64.63900        1.1119430E-17
   64.80050        1.1125990E-17
   64.96200        1.1129795E-17
   65.12350        1.1129485E-17
   65.28500        1.1125406E-17
   65.44650        1.1119475E-17
   65.60800        1.1114414E-17
   65.76950        1.1112617E-17
   65.93100        1.1115180E-17
   66.09250        1.1121432E-17
   66.25400        1.1129210E-17
   66.41550        1.1135742E-17
   66.57700        1.1138781E-17
   66.73850        1.1137520E-17
   66.90000        1.1132905E-17
   67.06150        1.1127216E-17
   67.22300        1.1123099E-17
   67.38450        1.1122436E-17
   67.54600        1.1125547E-17
   67.70750        1.1131045E-17
   67.86900        1.1136423E-17
   68.03050        1.1139121E-17
   68.19200        1.1137641E-17
   68.35350        1.1132233E-17
   68.51500        1.1124857E-17
   68.67650        1.1118435E-17
   68.83800        1.1115673E-17
   68.99950        1.1117965E-17
   69.16100        1.1124807E-17
   69.32250        1.1133979E-17
   69.48400        1.1142429E-17
   69.64550        1.1147492E-17
   69.80700        1.1147951E-17
   69.96850        1.1144501E-17
   70.13000        1.1139420E-17
   70.29150        1.1135596E-17
   70.45300        1.1135304E-17
   70.61450        1.1139245E-17
   70.77600        1.1146253E-17
   70.93750        1.1153781E-17
   71.09900        1.1158983E-17
   71.26050        1.1159920E-17
   71.42200        1.1156395E-17
   71.58350        1.1150064E-17
   71.74500        1.1143760E-17
   71.90650        1.1140317E-17
   72.06800        1.1141379E-17
   72.22950        1.1146688E-17
   72.39100        1.1154159E-17
   72.55250        1.1160723E-17
   72.71400        1.1163582E-17
   72.87550        1.1161374E-17
   73.03700        1.1154751E-17
   73.19850        1.1146136E-17
   73.36000        1.1138743E-17
   73.52150        1.1135278E-17
   73.68300        1.1136842E-17
   73.84450        1.1142494E-17
   74.00600        1.1149664E-17
   74.16750        1.1155229E-17
   74.32900        1.1156819E-17
   74.49050        1.1153799E-17
   74.65200        1.1147529E-17
   74.81350        1.1140779E-17
   74.97500        1.1136551E-17
   75.13650        1.1136815E-17
   75.29800        1.1141656E-17
   75.45950        1.1149227E-17
   75.62100        1.1156507E-17
   75.78250        1.1160567E-17
   75.94400        1.1159805E-17
   76.10550        1.1154639E-17
   76.26700        1.1147361E-17
   76.42850        1.1141206E-17
   76.59000        1.1139019E-17
   76.75150        1.1142073E-17
   76.91300        1.1149522E-17
   77.07450        1.1158725E-17
   77.23600        1.1166315E-17
   77.39750        1.1169561E-17
   77.55900        1.1167470E-17
   77.72050        1.1161177E-17
   77.88200        1.1153451E-17
   78.04350        1.1147540E-17
   78.20500        1.1145823E-17
   78.36650        1.1148831E-17
   78.52800        1.1155049E-17
   78.68950        1.1161567E-17
   78.85100        1.1165319E-17
   79.01250        1.1164381E-17
   79.17400        1.1158794E-17
   79.33550        1.1150576E-17
   79.49700        1.1142890E-17
   79.65850        1.1138750E-17
   79.82000        1.1139767E-17
   79.98150        1.1145480E-17
   80.14300        1.1153531E-17
   80.30450        1.1160626E-17
   80.46600        1.1163871E-17
   80.62750        1.1161954E-17
   80.78900        1.1155660E-17
   80.95050        1.1147543E-17
   81.11200        1.1140866E-17
   81.27350        1.1138271E-17
   81.43500        1.1140711E-17
   81.59650        1.1147091E-17
   81.75800        1.1154746E-17
   81.91950        1.1160560E-17
   82.08100        1.1162254E-17
   82.24250        1.1159321E-17
   82.40400        1.1153209E-17
   82.56550        1.1146705E-17
   82.72700        1.1142771E-17
   82.88850        1.1143313E-17
   83.05000        1.1148398E-17
   83.21150        1.1156225E-17
   83.37300        1.1163868E-17
   83.53450        1.1168467E-17
   83.69600        1.1168382E-17
   83.85750        1.1163845E-17
   84.01900        1.1156850E-17
   84.18050        1.1150336E-17
   84.34200        1.1147003E-17
   84.50350        1.1148254E-17
   84.66500        1.1153665E-17
   84.82650        1.1161208E-17
   84.98800        1.1168101E-17
   85.14950        1.1171926E-17
   85.31100        1.1171567E-17
   85.47250        1.1167597E-17
   85.63400        1.1161959E-17
   85.79550        1.1157124E-17
   85.95700        1.1155043E-17
   86.11850        1.1156371E-17
   86.28000        1.1160228E-17
   86.44150        1.1164609E-17
   86.60300        1.1167239E-17
   86.76450        1.1166530E-17
   86.92600        1.1162241E-17
   87.08750        1.1155588E-17
   87.24900        1.1148772E-17
   87.41050        1.1144132E-17
   87.57200        1.1143265E-17
   87.73350        1.1146448E-17
   87.89500        1.1152593E-17
   88.05650        1.1159710E-17
   88.21800        1.1165688E-17
   88.37950        1.1169064E-17
   88.54100        1.1169503E-17
   88.70250        1.1167810E-17
   88.86400        1.1165501E-17
   89.02550        1.1164145E-17
   89.18700        1.1164727E-17
   89.34850        1.1167293E-17
   89.51000        1.1170989E-17
   89.67150        1.1174449E-17
   89.83300        1.1176367E-17
   89.99450        1.1176011E-17
   90.15600        1.1173484E-17
   90.31750        1.1169665E-17
   90.47900        1.1165853E-17
   90.64050        1.1163275E-17
   90.80200        1.1162652E-17
   90.96350        1.1163973E-17
   91.12500        1.1166534E-17
   91.28650        1.1169222E-17
   91.44800        1.1170925E-17
   91.60950        1.1170905E-17
   91.77100        1.1169031E-17
   91.93250        1.1165803E-17
   92.09400        1.1162164E-17
   92.25550        1.1159194E-17
   92.41700        1.1157774E-17
   92.57850        1.1158327E-17
   92.74000        1.1160710E-17
   92.90150        1.1164278E-17
   93.06300        1.1168105E-17
   93.22450        1.1171269E-17
   93.38600        1.1173152E-17
   93.54750        1.1173626E-17
   93.70900        1.1173088E-17
   93.87050        1.1172308E-17
   94.03200        1.1172145E-17
   94.19350        1.1173199E-17
   94.35500        1.1175547E-17
   94.51650        1.1178649E-17
   94.67800        1.1181487E-17
   94.83950        1.1182913E-17
   95.00100        1.1182097E-17
   95.16250        1.1178896E-17
   95.32400        1.1174011E-17
   95.48550        1.1168828E-17
   95.64700        1.1164970E-17
   95.80850        1.1163726E-17
   95.97000        1.1165537E-17
   96.13150        1.1169779E-17
   96.29300        1.1174946E-17
   96.45450        1.1179184E-17
   96.61600        1.1180997E-17
   96.77750        1.1179856E-17
   96.93900        1.1176447E-17
   97.10050        1.1172439E-17
   97.26200        1.1169846E-17
   97.42350        1.1170198E-17
   97.58500        1.1173879E-17
   97.74650        1.1179897E-17
   97.90800        1.1186217E-17
   98.06950        1.1190546E-17
   98.23100        1.1191272E-17
   98.39250        1.1188166E-17
   98.55400        1.1182550E-17
   98.71550        1.1176825E-17
   98.87700        1.1173523E-17
   99.03850        1.1174259E-17
   99.20000        1.1179009E-17
   99.36150        1.1186040E-17
   99.52300        1.1192535E-17
   99.68450        1.1195718E-17
   99.84600        1.1193993E-17
   100.0075        1.1187653E-17
   100.1690        1.1178844E-17
   100.3305        1.1170757E-17
   100.4920        1.1166370E-17
   100.6535        1.1167243E-17
   100.8150        1.1172851E-17
   100.9765        1.1180779E-17
   101.1380        1.1187686E-17
   101.2995        1.1190679E-17
   101.4610        1.1188524E-17
   101.6225        1.1182197E-17
   101.7840        1.1174507E-17
   101.9455        1.1168948E-17
   102.1070        1.1168234E-17
   102.2685        1.1173119E-17
   102.4300        1.1182019E-17
   102.5915        1.1191596E-17
   102.7530        1.1198103E-17
   102.9145        1.1198931E-17
   103.0760        1.1193716E-17
   103.2375        1.1184546E-17
   103.3990        1.1175155E-17
   103.5605        1.1169414E-17
   103.7220        1.1169749E-17
   103.8835        1.1176128E-17
   104.0450        1.1186059E-17
   104.2065        1.1195598E-17
   104.3680        1.1200972E-17
   104.5295        1.1200132E-17
   104.6910        1.1193607E-17
   104.8525        1.1184273E-17
   105.0140        1.1176152E-17
   105.1755        1.1172719E-17
   105.3370        1.1175425E-17
   105.4985        1.1183077E-17
   105.6600        1.1192315E-17
   105.8215        1.1199028E-17
   105.9830        1.1200086E-17
   106.1445        1.1194688E-17
   106.3060        1.1184743E-17
   106.4675        1.1174115E-17
   106.6290        1.1167038E-17
   106.7905        1.1166365E-17
   106.9520        1.1172378E-17
   107.1135        1.1182656E-17
   107.2750        1.1193076E-17
   107.4365        1.1199511E-17
   107.5980        1.1199545E-17
   107.7595        1.1193458E-17
   107.9210        1.1184091E-17
   108.0825        1.1175634E-17
   108.2440        1.1171846E-17
   108.4055        1.1174470E-17
   108.5670        1.1182480E-17
   108.7285        1.1192510E-17
   108.8900        1.1200262E-17
   109.0515        1.1202318E-17
   109.2130        1.1197581E-17
   109.3745        1.1187760E-17
   109.5360        1.1176672E-17
   109.6975        1.1168670E-17
   109.8590        1.1166851E-17
   110.0205        1.1171793E-17
   110.1820        1.1181340E-17
   110.3435        1.1191535E-17
   110.5050        1.1198283E-17
   110.6665        1.1199066E-17
   110.8280        1.1193960E-17
   110.9895        1.1185575E-17
   111.1510        1.1177903E-17
   111.3125        1.1174609E-17
   111.4740        1.1177455E-17
   111.6355        1.1185549E-17
   111.7970        1.1195708E-17
   111.9585        1.1203797E-17
   112.1200        1.1206459E-17
   112.2815        1.1202524E-17
   112.4430        1.1193501E-17
   112.6045        1.1182938E-17
   112.7660        1.1174954E-17
   112.9275        1.1172529E-17
   113.0890        1.1176298E-17
   113.2505        1.1184321E-17
   113.4120        1.1192942E-17
   113.5735        1.1198340E-17
   113.7350        1.1198144E-17
   113.8965        1.1192414E-17
   114.0580        1.1183589E-17
   114.2195        1.1175451E-17
   114.3810        1.1171522E-17
   114.5425        1.1173593E-17
   114.7040        1.1180989E-17
   114.8655        1.1190867E-17
   115.0270        1.1199418E-17
   115.1885        1.1203452E-17
   115.3500        1.1201705E-17
   115.5115        1.1195328E-17
   115.6730        1.1187361E-17
   115.8345        1.1181427E-17
   115.9960        1.1180194E-17
   116.1575        1.1184264E-17
   116.3190        1.1191932E-17
   116.4805        1.1199918E-17
   116.6420        1.1204732E-17