  -30.00000       -5.9167500E-19
  -29.83850       -6.0341719E-19
  -29.67700       -6.2555270E-19
  -29.51550       -6.5578186E-19
  -29.35400       -6.9110123E-19
  -29.19250       -7.2812842E-19
  -29.03100       -7.6348688E-19
  -28.86950       -7.9419337E-19
  -28.70800       -8.1802057E-19
  -28.54650       -8.3376823E-19
  -28.38500       -8.4141138E-19
  -28.22350       -8.4209489E-19
  -28.06200       -8.3796819E-19
  -27.90050       -8.3188541E-19
  -27.73900       -8.2700494E-19
  -27.57750       -8.2635405E-19
  -27.41600       -8.3241982E-19
  -27.25450       -8.4682248E-19
  -27.09300       -8.7011180E-19
  -26.93150       -9.0171227E-19
  -26.77000       -9.4000763E-19
  -26.60850       -9.8255377E-19
  -26.44700       -1.0263747E-18
  -26.28550       -1.0683147E-18
  -26.12400       -1.1053975E-18
  -25.96250       -1.1351651E-18
  -25.80100       -1.1559533E-18
  -25.63950       -1.1670909E-18
  -25.47800       -1.1689888E-18
  -25.31650       -1.1631152E-18
  -25.15500       -1.1518421E-18
  -24.99350       -1.1381820E-18
  -24.83200       -1.1254312E-18
  -24.67050       -1.1167661E-18
  -24.50900       -1.1148411E-18
  -24.34750       -1.1214461E-18
  -24.18600       -1.1372734E-18
  -24.02450       -1.1618341E-18
  -23.86300       -1.1935338E-18
  -23.70150       -1.2298973E-18
  -23.54000       -1.2679071E-18
  -23.37850       -1.3044043E-18
  -23.21700       -1.3364888E-18
  -23.05550       -1.3618745E-18
  -22.89400       -1.3791471E-18
  -22.73250       -1.3879047E-18
  -22.57100       -1.3887761E-18
  -22.40950       -1.3833203E-18
  -22.24800       -1.3738293E-18
  -22.08650       -1.3630548E-18
  -21.92500       -1.3538908E-18
  -21.76350       -1.3490406E-18
  -21.60200       -1.3506986E-18
  -21.44050       -1.3602816E-18
  -21.27900       -1.3782437E-18
  -21.11750       -1.4039977E-18
  -20.95600       -1.4359668E-18
  -20.79450       -1.4717656E-18
  -20.63300       -1.5084944E-18
  -20.47150       -1.5431119E-18
  -20.31000       -1.5728345E-18
  -20.14850       -1.5955027E-18
  -19.98700       -1.6098630E-18
  -19.82550       -1.6157229E-18
  -19.66400       -1.6139567E-18
  -19.50250       -1.6063727E-18
  -19.34100       -1.5954599E-18
  -19.17950       -1.5840589E-18
  -19.01800       -1.5750068E-18
  -18.85650       -1.5707951E-18
  -18.69500       -1.5732848E-18
  -18.53350       -1.5835027E-18
  -18.37200       -1.6015323E-18
  -18.21050       -1.6265116E-18
  -18.04900       -1.6567305E-18
  -17.88750       -1.6898197E-18
  -17.72600       -1.7230222E-18
  -17.56450       -1.7535164E-18
  -17.40300       -1.7787599E-18
  -17.24150       -1.7968154E-18
  -17.08000       -1.8066125E-18
  -16.91850       -1.8081016E-18
  -16.75700       -1.8022820E-18
  -16.59550       -1.7910783E-18
  -16.43400       -1.7770900E-18
  -16.27250       -1.7632440E-18
  -16.11100       -1.7524020E-18
  -15.94950       -1.7469883E-18
  -15.78800       -1.7486807E-18
  -15.62650       -1.7582208E-18
  -15.46500       -1.7753480E-18
  -15.30350       -1.7988717E-18
  -15.14200       -1.8268489E-18
  -14.98050       -1.8568451E-18
  -14.81900       -1.8862344E-18
  -14.65750       -1.9125123E-18
  -14.49600       -1.9335789E-18
  -14.33450       -1.9479808E-18
  -14.17300       -1.9550767E-18
  -14.01150       -1.9551264E-18
  -13.85000       -1.9492755E-18
  -13.68850       -1.9394416E-18
  -13.52700       -1.9280991E-18
  -13.36550       -1.9179827E-18
  -13.20400       -1.9117403E-18
  -13.04250       -1.9115817E-18
  -12.88100       -1.9189732E-18
  -12.71950       -1.9344212E-18
  -12.55800       -1.9573964E-18
  -12.39650       -1.9863884E-18
  -12.23500       -2.0191129E-18
  -12.07350       -2.0528114E-18
  -11.91200       -2.0846169E-18
  -11.75050       -2.1119166E-18
  -11.58900       -2.1326720E-18
  -11.42750       -2.1456492E-18
  -11.26600       -2.1505385E-18
  -11.10450       -2.1479657E-18
  -10.94300       -2.1393986E-18
  -10.78150       -2.1269630E-18
  -10.62000       -2.1131989E-18
  -10.45850       -2.1007774E-18
  -10.29700       -2.0921966E-18
  -10.13550       -2.0894967E-18
  -9.974000       -2.0940077E-18
  -9.812500       -2.1061766E-18
  -9.651000       -2.1254861E-18
  -9.489500       -2.1504938E-18
  -9.328000       -2.1790003E-18
  -9.166500       -2.2083206E-18
  -9.005000       -2.2356399E-18
  -8.843500       -2.2583910E-18
  -8.682000       -2.2746081E-18
  -8.520500       -2.2831899E-18
  -8.359000       -2.2840415E-18
  -8.197500       -2.2780726E-18
  -8.036000       -2.2670574E-18
  -7.874500       -2.2533804E-18
  -7.713000       -2.2397189E-18
  -7.551500       -2.2287013E-18
  -7.390000       -2.2225940E-18
  -7.228500       -2.2230415E-18
  -7.067000       -2.2308943E-18
  -6.905500       -2.2461196E-18
  -6.744000       -2.2678104E-18
  -6.582500       -2.2942822E-18
  -6.421000       -2.3232501E-18
  -6.259500       -2.3520748E-18
  -6.098000       -2.3780609E-18
  -5.936500       -2.3987735E-18
  -5.775000       -2.4123451E-18
  -5.613500       -2.4177294E-18
  -5.452000       -2.4148618E-18
  -5.290500       -2.4046930E-18
  -5.129000       -2.3890889E-18
  -4.967500       -2.3705958E-18
  -4.806000       -2.3521110E-18
  -4.644500       -2.3364990E-18
  -4.483000       -2.3262178E-18
  -4.321500       -2.3230073E-18
  -4.160000       -2.3276831E-18
  -3.998500       -2.3400615E-18
  -3.837000       -2.3590112E-18
  -3.675500       -2.3826257E-18
  -3.514000       -2.4084726E-18
  -3.352500       -2.4338942E-18
  -3.191000       -2.4563153E-18
  -3.029500       -2.4735382E-18
  -2.868000       -2.4839831E-18
  -2.706500       -2.4868691E-18
  -2.545000       -2.4823097E-18
  -2.383500       -2.4713094E-18
  -2.222000       -2.4556612E-18
  -2.060500       -2.4377437E-18
  -1.899000       -2.4202362E-18
  -1.737500       -2.4057802E-18
  -1.576000       -2.3966324E-18
  -1.414500       -2.3943591E-18
  -1.253000       -2.3996179E-18
  -1.091500       -2.4120628E-18
 -0.9300000       -2.4303898E-18
 -0.7685000       -2.4525169E-18
 -0.6070000       -2.4758659E-18
 -0.4455000       -2.4977062E-18
 -0.2840000       -2.5155038E-18
 -0.1225000       -2.5272314E-18
  3.9000001E-02   -2.5315989E-18
  0.2005000       -2.5281866E-18
  0.3620000       -2.5174731E-18
  0.5235000       -2.5007663E-18
  0.6850000       -2.4800502E-18
  0.8465000       -2.4577635E-18
   1.008000       -2.4365378E-18
   1.169500       -2.4189081E-18
   1.331000       -2.4070278E-18
   1.492500       -2.4024094E-18
   1.654000       -2.4057349E-18
   1.815500       -2.4167508E-18
   1.977000       -2.4342858E-18
   2.138500       -2.4563860E-18
   2.300000       -2.4805680E-18
   2.461500       -2.5041456E-18
   2.623000       -2.5245962E-18
   2.784500       -2.5398961E-18
   2.946000       -2.5487798E-18
   3.107500       -2.5508858E-18
   3.269000       -2.5467667E-18
   3.430500       -2.5377703E-18
   3.592000       -2.5258289E-18
   3.753500       -2.5131819E-18
   3.915000       -2.5020840E-18
   4.076500       -2.4945375E-18
   4.238000       -2.4920630E-18
   4.399500       -2.4955423E-18
   4.561000       -2.5051258E-18
   4.722500       -2.5202115E-18
   4.884000       -2.5395013E-18
   5.045500       -2.5611267E-18
   5.207000       -2.5828431E-18
   5.368500       -2.6022839E-18
   5.530000       -2.6172497E-18
   5.691500       -2.6259976E-18
   5.853000       -2.6274906E-18
   6.014500       -2.6215664E-18
   6.176000       -2.6089816E-18
   6.337500       -2.5913261E-18
   6.499000       -2.5708149E-18
   6.660500       -2.5499850E-18
   6.822000       -2.5313511E-18
   6.983500       -2.5170796E-18
   7.145000       -2.5087261E-18
   7.306500       -2.5070786E-18
   7.468000       -2.5121080E-18
   7.629500       -2.5230318E-18
   7.791000       -2.5384548E-18
   7.952500       -2.5565638E-18
   8.114000       -2.5753441E-18
   8.275500       -2.5927999E-18
   8.437000       -2.6071608E-18
   8.598500       -2.6170683E-18
   8.760000       -2.6217303E-18
   8.921500       -2.6210283E-18
   9.083000       -2.6155602E-18
   9.244500       -2.6066010E-18
   9.406000       -2.5959674E-18
   9.567500       -2.5857964E-18
   9.729000       -2.5782519E-18
   9.890500       -2.5752078E-18
   10.05200       -2.5779574E-18
   10.21350       -2.5870028E-18
   10.37500       -2.6019684E-18
   10.53650       -2.6216484E-18
   10.69800       -2.6441860E-18
   10.85950       -2.6673475E-18
   11.02100       -2.6888312E-18
   11.18250       -2.7065749E-18
   11.34400       -2.7190018E-18
   11.50550       -2.7251838E-18
   11.66700       -2.7249143E-18
   11.82850       -2.7186962E-18
   11.99000       -2.7076622E-18
   12.15150       -2.6934430E-18
   12.31300       -2.6779958E-18
   12.47450       -2.6634047E-18
   12.63600       -2.6516590E-18
   12.79750       -2.6444234E-18
   12.95900       -2.6428245E-18
   13.12050       -2.6472793E-18
   13.28200       -2.6574071E-18
   13.44350       -2.6720461E-18
   13.60500       -2.6893877E-18
   13.76650       -2.7072240E-18
   13.92800       -2.7232620E-18
   14.08950       -2.7354635E-18
   14.25100       -2.7423397E-18
   14.41250       -2.7431609E-18
   14.57400       -2.7380381E-18
   14.73550       -2.7278785E-18
   14.89700       -2.7142263E-18
   15.05850       -2.6990320E-18
   15.22000       -2.6843975E-18
   15.38150       -2.6723222E-18
   15.54300       -2.6644871E-18
   15.70450       -2.6620910E-18
   15.86600       -2.6657322E-18
   16.02750       -2.6753476E-18
   16.18900       -2.6902027E-18
   16.35050       -2.7089429E-18
   16.51200       -2.7297142E-18
   16.67350       -2.7503596E-18
   16.83500       -2.7686736E-18
   16.99650       -2.7826962E-18
   17.15800       -2.7910009E-18
   17.31950       -2.7929230E-18
   17.48100       -2.7886839E-18
   17.64250       -2.7793792E-18
   17.80400       -2.7668242E-18
   17.96550       -2.7532878E-18
   18.12700       -2.7411599E-18
   18.28850       -2.7326120E-18
   18.45000       -2.7293128E-18
   18.61150       -2.7322359E-18
   18.77300       -2.7415758E-18
   18.93450       -2.7567715E-18
   19.09600       -2.7766069E-18
   19.25750       -2.7993678E-18
   19.41900       -2.8230283E-18
   19.58050       -2.8454511E-18
   19.74200       -2.8645959E-18
   19.90350       -2.8787312E-18
   20.06500       -2.8866372E-18
   20.22650       -2.8877764E-18
   20.38800       -2.8824082E-18
   20.54950       -2.8716102E-18
   20.71100       -2.8571815E-18
   20.87250       -2.8414283E-18
   21.03400       -2.8268511E-18
   21.19550       -2.8157832E-18
   21.35700       -2.8100438E-18
   21.51850       -2.8106751E-18
   21.68000       -2.8178025E-18
   21.84150       -2.8306501E-18
   22.00300       -2.8476942E-18
   22.16450       -2.8669158E-18
   22.32600       -2.8860989E-18
   22.48750       -2.9031208E-18
   22.64900       -2.9161949E-18
   22.81050       -2.9240425E-18
   22.97200       -2.9259994E-18
   23.13350       -2.9220600E-18
   23.29500       -2.9128750E-18
   23.45650       -2.8997083E-18
   23.61800       -2.8843407E-18
   23.77950       -2.8689173E-18
   23.94100       -2.8557292E-18
   24.10250       -2.8469406E-18
   24.26400       -2.8442903E-18
   24.42550       -2.8488123E-18
   24.58700       -2.8606389E-18
   24.74850       -2.8789300E-18
   24.91000       -2.9019593E-18
   25.07150       -2.9273533E-18
   25.23300       -2.9524384E-18
   25.39450       -2.9746366E-18
   25.55600       -2.9918316E-18
   25.71750       -3.0026410E-18
   25.87900       -3.0065540E-18
   26.04050       -3.0039322E-18
   26.20200       -2.9958871E-18
   26.36350       -2.9840843E-18
   26.52500       -2.9705127E-18
   26.68650       -2.9572555E-18
   26.84800       -2.9462827E-18
   27.00950       -2.9392701E-18
   27.17100       -2.9374406E-18
   27.33250       -2.9414299E-18
   27.49400       -2.9511865E-18
   27.65550       -2.9659299E-18
   27.81700       -2.9841912E-18
   27.97850       -3.0039562E-18
   28.14000       -3.0229146E-18
   28.30150       -3.0387843E-18
   28.46300       -3.0496648E-18
   28.62450       -3.0543497E-18
   28.78600       -3.0525332E-18
   28.94750       -3.0448661E-18
   29.10900       -3.0328494E-18
   29.27050       -3.0185866E-18
   29.43200       -3.0044525E-18
   29.59350       -2.9927419E-18
   29.75500       -2.9853662E-18
   29.91650       -2.9836390E-18
   30.07800       -2.9881666E-18
   30.23950       -2.9988403E-18
   30.40100       -3.0148984E-18
   30.56250       -3.0350311E-18
   30.72400       -3.0575156E-18
   30.88550       -3.0803658E-18
   31.04700       -3.1015094E-18
   31.20850       -3.1189893E-18
   31.37000       -3.1311905E-18
   31.53150       -3.1370632E-18
   31.69300       -3.1363084E-18
   31.85450       -3.1294768E-18
   32.01600       -3.1179450E-18
   32.17750       -3.1037481E-18
   32.33900       -3.0892894E-18
   32.50050       -3.0769713E-18
   32.66200       -3.0688217E-18
   32.82350       -3.0661877E-18
   32.98500       -3.0695533E-18
   33.14650       -3.0785123E-18
   33.30800       -3.0918882E-18
   33.46950       -3.1079589E-18
   33.63100       -3.1247316E-18
   33.79250       -3.1402183E-18
   33.95400       -3.1526655E-18
   34.11550       -3.1607264E-18
   34.27700       -3.1635754E-18
   34.43850       -3.1609768E-18
   34.60000       -3.1533171E-18
   34.76150       -3.1415995E-18
   34.92300       -3.1273867E-18
   35.08450       -3.1126732E-18
   35.24600       -3.0996759E-18
   35.40750       -3.0905556E-18
   35.56900       -3.0870951E-18
   35.73050       -3.0904018E-18
   35.89200       -3.1006894E-18
   36.05350       -3.1172045E-18
   36.21500       -3.1383185E-18
   36.37650       -3.1617775E-18
   36.53800       -3.1850598E-18
   36.69950       -3.2057674E-18
   36.86100       -3.2219700E-18
   37.02250       -3.2324440E-18
   37.18400       -3.2367706E-18
   37.34550       -3.2353033E-18
   37.50700       -3.2290399E-18
   37.66850       -3.2194446E-18
   37.83000       -3.2082620E-18
   37.99150       -3.1973469E-18
   38.15300       -3.1885112E-18
   38.31450       -3.1833740E-18
   38.47600       -3.1831997E-18
   38.63750       -3.1887306E-18
   38.79900       -3.2000313E-18
   38.96050       -3.2163868E-18
   39.12200       -3.2363057E-18
   39.28350       -3.2576567E-18
   39.44500       -3.2779468E-18
   39.60650       -3.2946986E-18
   39.76800       -3.3058662E-18
   39.92950       -3.3101868E-18
   40.09100       -3.3074058E-18
   40.25250       -3.2983087E-18
   40.41400       -3.2845692E-18
   40.57550       -3.2684439E-18
   40.73700       -3.2523991E-18
   40.89850       -3.2387426E-18
   41.06000       -3.2293338E-18
   41.22150       -3.2254068E-18
   41.38300       -3.2275032E-18
   41.54450       -3.2354922E-18
   41.70600       -3.2486338E-18
   41.86750       -3.2656663E-18
   42.02900       -3.2849017E-18
   42.19050       -3.3043442E-18
   42.35200       -3.3218575E-18
   42.51350       -3.3353895E-18
   42.67500       -3.3432523E-18
   42.83650       -3.3444076E-18
   42.99800       -3.3387051E-18
   43.15950       -3.3269955E-18
   43.32100       -3.3110747E-18
   43.48250       -3.2934409E-18
   43.64400       -3.2769031E-18
   43.80550       -3.2641184E-18
   43.96700       -3.2571597E-18
   44.12850       -3.2572015E-18
   44.29000       -3.2643866E-18
   44.45150       -3.2778829E-18
   44.61300       -3.2960943E-18
   44.77450       -3.3169591E-18
   44.93600       -3.3382617E-18
   45.09750       -3.3578959E-18
   45.25900       -3.3740569E-18
   45.42050       -3.3853665E-18
   45.58200       -3.3909572E-18
   45.74350       -3.3905416E-18
   45.90500       -3.3844721E-18
   46.06650       -3.3737798E-18
   46.22800       -3.3601491E-18
   46.38950       -3.3457932E-18
   46.55100       -3.3332074E-18
   46.71250       -3.3248159E-18
   46.87400       -3.3225692E-18
   47.03550       -3.3275766E-18
   47.19700       -3.3398648E-18
   47.35850       -3.3583287E-18
   47.52000       -3.3809004E-18
   47.68150       -3.4048969E-18
   47.84300       -3.4274748E-18
   48.00450       -3.4460822E-18
   48.16600       -3.4588235E-18
   48.32750       -3.4646681E-18
   48.48900       -3.4634956E-18
   48.65050       -3.4560049E-18
   48.81200       -3.4435423E-18
   48.97350       -3.4279045E-18
   49.13500       -3.4111481E-18
   49.29650       -3.3954242E-18
   49.45800       -3.3828103E-18
   49.61950       -3.3751264E-18
   49.78100       -3.3737223E-18
   49.94250       -3.3792578E-18
   50.10400       -3.3915226E-18
   50.26550       -3.4093568E-18
   50.42700       -3.4307281E-18
   50.58850       -3.4529840E-18
   50.75000       -3.4732536E-18
   50.91150       -3.4889237E-18
   51.07300       -3.4980848E-18
   51.23450       -3.4998545E-18
   51.39600       -3.4944944E-18
   51.55750       -3.4833146E-18
   51.71900       -3.4683997E-18
   51.88050       -3.4522286E-18
   52.04200       -3.4372870E-18
   52.20350       -3.4257466E-18
   52.36500       -3.4192509E-18
   52.52650       -3.4188084E-18
   52.68800       -3.4247641E-18
   52.84950       -3.4368103E-18
   53.01100       -3.4540101E-18
   53.17250       -3.4748389E-18
   53.33400       -3.4972654E-18
   53.49550       -3.5189119E-18
   53.65700       -3.5373101E-18
   53.81850       -3.5502443E-18
   53.98000       -3.5561239E-18
   54.14150       -3.5543066E-18
   54.30300       -3.5452808E-18
   54.46450       -3.5306451E-18
   54.62600       -3.5128607E-18
   54.78750       -3.4948410E-18
   54.94900       -3.4794476E-18
   55.11050       -3.4690259E-18
   55.27200       -3.4650695E-18
   55.43350       -3.4680796E-18
   55.59500       -3.4776137E-18
   55.75650       -3.4924794E-18
   55.91800       -3.5109913E-18
   56.07950       -3.5312241E-18
   56.24100       -3.5512088E-18
   56.40250       -3.5690738E-18
   56.56400       -3.5831500E-18
   56.72550       -3.5920938E-18
   56.88700       -3.5950324E-18
   57.04850       -3.5917386E-18
   57.21000       -3.5827781E-18
   57.37150       -3.5695689E-18
   57.53300       -3.5542830E-18
   57.69450       -3.5395741E-18
   57.85600       -3.5281557E-18
   58.01750       -3.5223133E-18
   58.17900       -3.5234701E-18
   58.34050       -3.5319115E-18
   58.50200       -3.5467474E-18
   58.66350       -3.5661158E-18
   58.82500       -3.5875712E-18
   58.98650       -3.6085465E-18
   59.14800       -3.6267779E-18
   59.30950       -3.6405964E-18
   59.47100       -3.6490469E-18
   59.63250       -3.6518572E-18
   59.79400       -3.6493203E-18
   59.95550       -3.6421581E-18
   60.11700       -3.6314288E-18
   60.27850       -3.6184813E-18
   60.44000       -3.6049317E-18
   60.60150       -3.5926038E-18
   60.76300       -3.5833857E-18
   60.92450       -3.5789806E-18
   61.08600       -3.5805960E-18
   61.24750       -3.5886420E-18
   61.40900       -3.6025391E-18
   61.57050       -3.6207180E-18
   61.73200       -3.6408408E-18
   61.89350       -3.6602060E-18
   62.05500       -3.6762537E-18
   62.21650       -3.6870331E-18
   62.37800       -3.6915317E-18
   62.53950       -3.6897851E-18
   62.70100       -3.6827619E-18
   62.86250       -3.6720909E-18
   63.02400       -3.6597092E-18
   63.18550       -3.6475460E-18
   63.34700       -3.6372902E-18
   63.50850       -3.6302777E-18
   63.67000       -3.6274562E-18
   63.83150       -3.6293869E-18
   63.99300       -3.6362256E-18
   64.15450       -3.6476692E-18
   64.31600       -3.6628885E-18
   64.47750       -3.6804996E-18
   64.63900       -3.6986339E-18
   64.80050       -3.7151394E-18
   64.96200       -3.7279070E-18
   65.12350       -3.7352565E-18
   65.28500       -3.7362884E-18
   65.44650       -3.7311057E-18
   65.60800       -3.7208317E-18
   65.76950       -3.7074103E-18
   65.93100       -3.6932440E-18
   66.09250       -3.6807527E-18
   66.25400       -3.6719726E-18
   66.41550       -3.6682735E-18
   66.57700       -3.6702413E-18
   66.73850       -3.6777161E-18
   66.90000       -3.6899303E-18
   67.06150       -3.7056819E-18
   67.22300       -3.7234919E-18
   67.38450       -3.7417246E-18
   67.54600       -3.7586839E-18
   67.70750       -3.7727269E-18
   67.86900       -3.7824207E-18
   68.03050       -3.7867452E-18
   68.19200       -3.7853179E-18
   68.35350       -3.7785643E-18
   68.51500       -3.7677676E-18
   68.67650       -3.7549479E-18
   68.83800       -3.7425638E-18
   68.99950       -3.7330905E-18
   69.16100       -3.7285658E-18
   69.32250       -3.7302181E-18
   69.48400       -3.7382625E-18
   69.64550       -3.7519142E-18
   69.80700       -3.7695911E-18
   69.96850       -3.7892428E-18
   70.13000       -3.8087126E-18
   70.29150       -3.8260412E-18
   70.45300       -3.8396702E-18
   70.61450       -3.8485298E-18
   70.77600       -3.8520573E-18
   70.93750       -3.8501866E-18
   71.09900       -3.8433483E-18
   71.26050       -3.8324858E-18
   71.42200       -3.8190548E-18
   71.58350       -3.8049609E-18
   71.74500       -3.7923882E-18
   71.90650       -3.7835109E-18
   72.06800       -3.7801314E-18
   72.22950       -3.7833132E-18
   72.39100       -3.7931173E-18
   72.55250       -3.8085314E-18
   72.71400       -3.8276137E-18
   72.87550       -3.8478440E-18
   73.03700       -3.8665937E-18
   73.19850       -3.8815897E-18
   73.36000       -3.8912772E-18
   73.52150       -3.8949942E-18
   73.68300       -3.8929527E-18
   73.84450       -3.8860685E-18
   74.00600       -3.8757126E-18
   74.16750       -3.8634777E-18
   74.32900       -3.8509993E-18
   74.49050       -3.8398526E-18
   74.65200       -3.8314849E-18
   74.81350       -3.8271426E-18
   74.97500       -3.8277518E-18
   75.13650       -3.8337468E-18
   75.29800       -3.8448964E-18
   75.45950       -3.8601897E-18
   75.62100       -3.8778603E-18
   75.78250       -3.8955864E-18
   75.94400       -3.9108632E-18
   76.10550       -3.9214631E-18
   76.26700       -3.9258852E-18
   76.42850       -3.9236646E-18
   76.59000       -3.9154627E-18
   76.75150       -3.9029136E-18
   76.91300       -3.8882704E-18
   77.07450       -3.8739569E-18
   77.23600       -3.8621377E-18
   77.39750       -3.8544118E-18
   77.55900       -3.8516759E-18
   77.72050       -3.8541463E-18
   77.88200       -3.8614867E-18
   78.04350       -3.8729618E-18
   78.20500       -3.8875561E-18
   78.36650       -3.9040361E-18
   78.52800       -3.9209763E-18
   78.68950       -3.9368019E-18
   78.85100       -3.9498945E-18
   79.01250       -3.9587929E-18
   79.17400       -3.9624598E-18
   79.33550       -3.9605507E-18
   79.49700       -3.9536032E-18
   79.65850       -3.9430500E-18
   79.82000       -3.9310398E-18
   79.98150       -3.9200672E-18
   80.14300       -3.9125076E-18
   80.30450       -3.9101601E-18
   80.46600       -3.9139147E-18
   80.62750       -3.9236216E-18
   80.78900       -3.9381788E-18
   80.95050       -3.9558023E-18
   81.11200       -3.9743886E-18
   81.27350       -3.9918756E-18
   81.43500       -4.0065320E-18
   81.59650       -4.0171224E-18
   81.75800       -4.0229702E-18
   81.91950       -4.0239367E-18
   82.08100       -4.0203774E-18
   82.24250       -4.0130858E-18
   82.40400       -4.0032489E-18
   82.56550       -3.9923794E-18
   82.72700       -3.9822084E-18
   82.88850       -3.9745061E-18
   83.05000       -3.9708454E-18
   83.21150       -3.9723388E-18
   83.37300       -3.9794108E-18
   83.53450       -3.9916655E-18
   83.69600       -4.0078989E-18
   83.85750       -4.0262661E-18
   84.01900       -4.0445703E-18
   84.18050       -4.0606209E-18
   84.34200       -4.0725791E-18
   84.50350       -4.0792255E-18
   84.66500       -4.0801118E-18
   84.82650       -4.0755743E-18
   84.98800       -4.0666399E-18
   85.14950       -4.0548447E-18
   85.31100       -4.0420189E-18
   85.47250       -4.0300529E-18
   85.63400       -4.0206780E-18
   85.79550       -4.0152687E-18
   85.95700       -4.0146735E-18
   86.11850       -4.0190985E-18
   86.28000       -4.0280565E-18
   86.44150       -4.0404001E-18
   86.60300       -4.0544551E-18
   86.76450       -4.0682422E-18
   86.92600       -4.0797607E-18
   87.08750       -4.0872880E-18
   87.24900       -4.0896384E-18
   87.41050       -4.0863438E-18
   87.57200       -4.0777105E-18
   87.73350       -4.0647647E-18
   87.89500       -4.0490942E-18
   88.05650       -4.0326279E-18
   88.21800       -4.0173871E-18
   88.37950       -4.0052445E-18
   88.54100       -3.9977126E-18
   88.70250       -3.9957774E-18
   88.86400       -3.9997814E-18
   89.02550       -4.0093680E-18
   89.18700       -4.0234975E-18
   89.34850       -4.0405469E-18
   89.51000       -4.0585005E-18
   89.67150       -4.0752153E-18
   89.83300       -4.0887306E-18
   89.99450       -4.0975756E-18
   90.15600       -4.1010134E-18
   90.31750       -4.0991642E-18
   90.47900       -4.0929918E-18
   90.64050       -4.0841348E-18
   90.80200       -4.0746297E-18
   90.96350       -4.0665795E-18
   91.12500       -4.0618286E-18
   91.28650       -4.0617074E-18
   91.44800       -4.0668769E-18
   91.60950       -4.0772795E-18
   91.77100       -4.0921911E-18
   91.93250       -4.1103407E-18
   92.09400       -4.1300743E-18
   92.25550       -4.1495441E-18
   92.41700       -4.1669066E-18
   92.57850       -4.1805311E-18
   92.74000       -4.1891962E-18
   92.90150       -4.1922667E-18
   93.06300       -4.1898104E-18
   93.22450       -4.1826317E-18
   93.38600       -4.1721977E-18
   93.54750       -4.1604443E-18
   93.70900       -4.1494961E-18
   93.87050       -4.1413327E-18
   94.03200       -4.1374755E-18
   94.19350       -4.1387465E-18
   94.35500       -4.1451514E-18
   94.51650       -4.1559006E-18
   94.67800       -4.1695606E-18
   94.83950       -4.1842964E-18
   95.00100       -4.1981575E-18
   95.16250       -4.2093567E-18
   95.32400       -4.2165023E-18
   95.48550       -4.2187626E-18
   95.64700       -4.2159456E-18
   95.80850       -4.2085093E-18
   95.97000       -4.1974933E-18
   96.13150       -4.1843916E-18
   96.29300       -4.1709697E-18
   96.45450       -4.1590472E-18
   96.61600       -4.1502617E-18
   96.77750       -4.1458507E-18
   96.93900       -4.1464765E-18
   97.10050       -4.1521299E-18
   97.26200       -4.1621338E-18
   97.42350       -4.1752405E-18
   97.58500       -4.1898100E-18
   97.74650       -4.2040495E-18
   97.90800       -4.2162541E-18
   98.06950       -4.2250384E-18
   98.23100       -4.2295139E-18
   98.39250       -4.2294022E-18
   98.55400       -4.2250694E-18
   98.71550       -4.2174879E-18
   98.87700       -4.2081201E-18
   99.03850       -4.1987316E-18
   99.20000       -4.1911525E-18
   99.36150       -4.1870096E-18
   99.52300       -4.1874625E-18
   99.68450       -4.1929963E-18
   99.84600       -4.2033125E-18
   100.0075       -4.2173497E-18
   100.1690       -4.2334421E-18
   100.3305       -4.2495899E-18
   100.4920       -4.2637901E-18
   100.6535       -4.2743619E-18
   100.8150       -4.2801993E-18
   100.9765       -4.2809012E-18
   101.1380       -4.2767761E-18
   101.2995       -4.2687313E-18
   101.4610       -4.2580954E-18
   101.6225       -4.2464198E-18
   101.7840       -4.2352975E-18
   101.9455       -4.2262146E-18
   102.1070       -4.2204331E-18
   102.2685       -4.2188804E-18
   102.4300       -4.2220461E-18
   102.5915       -4.2298762E-18
   102.7530       -4.2417040E-18
   102.9145       -4.2562529E-18
   103.0760       -4.2717435E-18
   103.2375       -4.2861286E-18
   103.3990       -4.2974241E-18
   103.5605       -4.3040763E-18
   103.7220       -4.3052795E-18
   103.8835       -4.3011589E-18
   104.0450       -4.2927597E-18
   104.2065       -4.2818417E-18
   104.3680       -4.2705222E-18
   104.5295       -4.2608632E-18
   104.6910       -4.2544976E-18
   104.8525       -4.2523875E-18
   105.0140       -4.2547507E-18
   105.1755       -4.2611461E-18
   105.3370       -4.2706636E-18
   105.4985       -4.2821457E-18
   105.6600       -4.2943785E-18
   105.8215       -4.3062092E-18
   105.9830       -4.3166085E-18
   106.1445       -4.3246926E-18
   106.3060       -4.3297607E-18
   106.4675       -4.3313683E-18
   106.6290       -4.3294311E-18
   106.7905       -4.3243290E-18
   106.9520       -4.3169539E-18
   107.1135       -4.3086548E-18
   107.2750       -4.3010617E-18
   107.4365       -4.2958066E-18
   107.5980       -4.2942031E-18
   107.7595       -4.2969688E-18
   107.9210       -4.3040627E-18
   108.0825       -4.3146837E-18
   108.2440       -4.3274343E-18
   108.4055       -4.3406009E-18
   108.5670       -4.3524805E-18
   108.7285       -4.3616746E-18
   108.8900       -4.3672886E-18
   109.0515       -4.3690187E-18
   109.2130       -4.3671207E-18
   109.3745       -4.3623057E-18
   109.5360       -4.3556039E-18
   109.6975       -4.3482180E-18
   109.8590       -4.3413946E-18
   110.0205       -4.3363045E-18
   110.1820       -4.3339268E-18
   110.3435       -4.3349335E-18
   110.5050       -4.3395843E-18
   110.6665       -4.3476551E-18
   110.8280       -4.3584250E-18
   110.9895       -4.3707492E-18
   111.1510       -4.3832156E-18
   111.3125       -4.3943685E-18
   111.4740       -4.4029546E-18
   111.6355       -4.4081352E-18
   111.7970       -4.4096266E-18
   111.9585       -4.4077320E-18
   112.1200       -4.4032648E-18
   112.2815       -4.3973897E-18
   112.4430       -4.3914150E-18
   112.6045       -4.3865810E-18
   112.7660       -4.3838819E-18
   112.9275       -4.3839377E-18
   113.0890       -4.3869350E-18
   113.2505       -4.3926231E-18
   113.4120       -4.4003688E-18
   113.5735       -4.4092544E-18
   113.7350       -4.4182107E-18
   113.8965       -4.4261715E-18
   114.0580       -4.4322327E-18
   114.2195       -4.4357875E-18
   114.3810       -4.4366192E-18
   114.5425       -4.4349276E-18
   114.7040       -4.4312793E-18
   114.8655       -4.4265007E-18
   115.0270       -4.4215269E-18
   115.1885       -4.4172413E-18
   115.3500       -4.4143449E-18
   115.5115       -4.4132720E-18
   115.6730       -4.4141583E-18
   115.8345       -4.4168583E-18
   115.9960       -4.4209904E-18
   116.1575       -4.4259986E-18
   116.3190       -4.4312111E-18
   116.4805       -4.4359062E-18
   116.6420       -4.4393857E-18