  -30.00000       -4.4358929E-18
  -29.83850       -4.4436569E-18
  -29.67700       -4.4582417E-18
  -29.51550       -4.4780506E-18
  -29.35400       -4.5010313E-18
  -29.19250       -4.5249348E-18
  -29.03100       -4.5475867E-18
  -28.86950       -4.5671404E-18
  -28.70800       -4.5822857E-18
  -28.54650       -4.5923773E-18
  -28.38500       -4.5974872E-18
  -28.22350       -4.5983657E-18
  -28.06200       -4.5963316E-18
  -27.90050       -4.5930982E-18
  -27.73900       -4.5905592E-18
  -27.57750       -4.5905546E-18
  -27.41600       -4.5946425E-18
  -27.25450       -4.6039020E-18
  -27.09300       -4.6187834E-18
  -26.93150       -4.6390398E-18
  -26.77000       -4.6637311E-18
  -26.60850       -4.6913267E-18
  -26.44700       -4.7198822E-18
  -26.28550       -4.7472809E-18
  -26.12400       -4.7714991E-18
  -25.96250       -4.7908659E-18
  -25.80100       -4.8042820E-18
  -25.63950       -4.8113597E-18
  -25.47800       -4.8124677E-18
  -25.31650       -4.8086788E-18
  -25.15500       -4.8016279E-18
  -24.99350       -4.7932974E-18
  -24.83200       -4.7857742E-18
  -24.67050       -4.7809943E-18
  -24.50900       -4.7805224E-18
  -24.34750       -4.7853767E-18
  -24.18600       -4.7959258E-18
  -24.02450       -4.8118556E-18
  -23.86300       -4.8322179E-18
  -23.70150       -4.8555448E-18
  -23.54000       -4.8800174E-18
  -23.37850       -4.9036805E-18
  -23.21700       -4.9246744E-18
  -23.05550       -4.9414570E-18
  -22.89400       -4.9530003E-18
  -22.73250       -4.9589234E-18
  -22.57100       -4.9595491E-18
  -22.40950       -4.9558740E-18
  -22.24800       -4.9494422E-18
  -22.08650       -4.9421515E-18
  -21.92500       -4.9360059E-18
  -21.76350       -4.9328556E-18
  -21.60200       -4.9341580E-18
  -21.44050       -4.9407936E-18
  -21.27900       -4.9529623E-18
  -21.11750       -4.9701697E-18
  -20.95600       -4.9912980E-18
  -20.79450       -5.0147560E-18
  -20.63300       -5.0386785E-18
  -20.47150       -5.0611538E-18
  -20.31000       -5.0804486E-18
  -20.14850       -5.0952109E-18
  -19.98700       -5.1046271E-18
  -19.82550       -5.1085182E-18
  -19.66400       -5.1073667E-18
  -19.50250       -5.1022659E-18
  -19.34100       -5.0947985E-18
  -19.17950       -5.0868473E-18
  -19.01800       -5.0803684E-18
  -18.85650       -5.0771432E-18
  -18.69500       -5.0785461E-18
  -18.53350       -5.0853612E-18
  -18.37200       -5.0976722E-18
  -18.21050       -5.1148490E-18
  -18.04900       -5.1356273E-18
  -17.88750       -5.1582772E-18
  -17.72600       -5.1808311E-18
  -17.56450       -5.2013369E-18
  -17.40300       -5.2181064E-18
  -17.24150       -5.2299193E-18
  -17.08000       -5.2361629E-18
  -16.91850       -5.2368945E-18
  -16.75700       -5.2328227E-18
  -16.59550       -5.2252114E-18
  -16.43400       -5.2157332E-18
  -16.27250       -5.2062719E-18
  -16.11100       -5.1987057E-18
  -15.94950       -5.1946905E-18
  -15.78800       -5.1954606E-18
  -15.62650       -5.2016740E-18
  -15.46500       -5.2133174E-18
  -15.30350       -5.2296960E-18
  -15.14200       -5.2495024E-18
  -14.98050       -5.2709756E-18
  -14.81900       -5.2921266E-18
  -14.65750       -5.3109975E-18
  -14.49600       -5.3259310E-18
  -14.33450       -5.3357955E-18
  -14.17300       -5.3401399E-18
  -14.01150       -5.3392532E-18
  -13.85000       -5.3341193E-18
  -13.68850       -5.3262780E-18
  -13.52700       -5.3176154E-18
  -13.36550       -5.3101157E-18
  -13.20400       -5.3056142E-18
  -13.04250       -5.3055704E-18
  -12.88100       -5.3109015E-18
  -12.71950       -5.3218824E-18
  -12.55800       -5.3381129E-18
  -12.39650       -5.3585699E-18
  -12.23500       -5.3817140E-18
  -12.07350       -5.4056617E-18
  -11.91200       -5.4283943E-18
  -11.75050       -5.4479898E-18
  -11.58900       -5.4628579E-18
  -11.42750       -5.4719424E-18
  -11.26600       -5.4748698E-18
  -11.10450       -5.4720148E-18
  -10.94300       -5.4644701E-18
  -10.78150       -5.4539202E-18
  -10.62000       -5.4424257E-18
  -10.45850       -5.4321588E-18
  -10.29700       -5.4251120E-18
  -10.13550       -5.4228447E-18
  -9.974000       -5.4262808E-18
  -9.812500       -5.4356023E-18
  -9.651000       -5.4502434E-18
  -9.489500       -5.4689799E-18
  -9.328000       -5.4900978E-18
  -9.166500       -5.5116128E-18
  -9.005000       -5.5315147E-18
  -8.843500       -5.5480046E-18
  -8.682000       -5.5597001E-18
  -8.520500       -5.5657923E-18
  -8.359000       -5.5661414E-18
  -8.197500       -5.5612932E-18
  -8.036000       -5.5524300E-18
  -7.874500       -5.5412383E-18
  -7.713000       -5.5297160E-18
  -7.551500       -5.5199338E-18
  -7.390000       -5.5137771E-18
  -7.228500       -5.5126972E-18
  -7.067000       -5.5175189E-18
  -6.905500       -5.5283160E-18
  -6.744000       -5.5443956E-18
  -6.582500       -5.5643786E-18
  -6.421000       -5.5863758E-18
  -6.259500       -5.6082370E-18
  -6.098000       -5.6278205E-18
  -5.936500       -5.6432689E-18
  -5.775000       -5.6532302E-18
  -5.613500       -5.6570129E-18
  -5.452000       -5.6546551E-18
  -5.290500       -5.6469056E-18
  -5.129000       -5.6351220E-18
  -4.967500       -5.6211067E-18
  -4.806000       -5.6068953E-18
  -4.644500       -5.5945248E-18
  -4.483000       -5.5858030E-18
  -4.321500       -5.5820977E-18
  -4.160000       -5.5841772E-18
  -3.998500       -5.5921119E-18
  -3.837000       -5.6052567E-18
  -3.675500       -5.6223202E-18
  -3.514000       -5.6415157E-18
  -3.352500       -5.6607807E-18
  -3.191000       -5.6780403E-18
  -3.029500       -5.6914716E-18
  -2.868000       -5.6997410E-18
  -2.706500       -5.7021749E-18
  -2.545000       -5.6988443E-18
  -2.383500       -5.6905452E-18
  -2.222000       -5.6786880E-18
  -2.060500       -5.6651069E-18
  -1.899000       -5.6518244E-18
  -1.737500       -5.6407956E-18
  -1.576000       -5.6336703E-18
  -1.414500       -5.6315974E-18
  -1.253000       -5.6350922E-18
  -1.091500       -5.6439770E-18
 -0.9300000       -5.6574001E-18
 -0.7685000       -5.6739300E-18
 -0.6070000       -5.6917210E-18
 -0.4455000       -5.7087212E-18
 -0.2840000       -5.7229227E-18
 -0.1225000       -5.7326019E-18
  3.9000001E-02   -5.7365468E-18
  0.2005000       -5.7342216E-18
  0.3620000       -5.7258526E-18
  0.5235000       -5.7124171E-18
  0.6850000       -5.6955285E-18
  0.8465000       -5.6772421E-18
   1.008000       -5.6597931E-18
   1.169500       -5.6453154E-18
   1.331000       -5.6355741E-18
   1.492500       -5.6317525E-18
   1.654000       -5.6343201E-18
   1.815500       -5.6429980E-18
   1.977000       -5.6568144E-18
   2.138500       -5.6742448E-18
   2.300000       -5.6934060E-18
   2.461500       -5.7122860E-18
   2.623000       -5.7289743E-18
   2.784500       -5.7418784E-18
   2.946000       -5.7498921E-18
   3.107500       -5.7525192E-18
   3.269000       -5.7499272E-18
   3.430500       -5.7429276E-18
   3.592000       -5.7328807E-18
   3.753500       -5.7215376E-18
   3.915000       -5.7108186E-18
   4.076500       -5.7025711E-18
   4.238000       -5.6983219E-18
   4.399500       -5.6990643E-18
   4.561000       -5.7051156E-18
   4.722500       -5.7160666E-18
   4.884000       -5.7308293E-18
   5.045500       -5.7477819E-18
   5.207000       -5.7649869E-18
   5.368500       -5.7804485E-18
   5.530000       -5.7923711E-18
   5.691500       -5.7993806E-18
   5.853000       -5.8006876E-18
   6.014500       -5.7961724E-18
   6.176000       -5.7863856E-18
   6.337500       -5.7724783E-18
   6.499000       -5.7560707E-18
   6.660500       -5.7390746E-18
   6.822000       -5.7234860E-18
   6.983500       -5.7111709E-18
   7.145000       -5.7036585E-18
   7.306500       -5.7019570E-18
   7.468000       -5.7064221E-18
   7.629500       -5.7166957E-18
   7.791000       -5.7317264E-18
   7.952500       -5.7498846E-18
   8.114000       -5.7691563E-18
   8.275500       -5.7874051E-18
   8.437000       -5.8026530E-18
   8.598500       -5.8133468E-18
   8.760000       -5.8185646E-18
   8.921500       -5.8181328E-18
   9.083000       -5.8126296E-18
   9.244500       -5.8032903E-18
   9.406000       -5.7918227E-18
   9.567500       -5.7801714E-18
   9.729000       -5.7702664E-18
   9.890500       -5.7637846E-18
   10.05200       -5.7619569E-18
   10.21350       -5.7654327E-18
   10.37500       -5.7742079E-18
   10.53650       -5.7876256E-18
   10.69800       -5.8044384E-18
   10.85950       -5.8229392E-18
   11.02100       -5.8411425E-18
   11.18250       -5.8570178E-18
   11.34400       -5.8687377E-18
   11.50550       -5.8749266E-18
   11.66700       -5.8748605E-18
   11.82850       -5.8685975E-18
   11.99000       -5.8569958E-18
   12.15150       -5.8416210E-18
   12.31300       -5.8245402E-18
   12.47450       -5.8080412E-18
   12.63600       -5.7943179E-18
   12.79750       -5.7851730E-18
   12.95900       -5.7817832E-18
   13.12050       -5.7845667E-18
   13.28200       -5.7931545E-18
   13.44350       -5.8064700E-18
   13.60500       -5.8228895E-18
   13.76650       -5.8404576E-18
   13.92800       -5.8571253E-18
   14.08950       -5.8709872E-18
   14.25100       -5.8804923E-18
   14.41250       -5.8846224E-18
   14.57400       -5.8830169E-18
   14.73550       -5.8760305E-18
   14.89700       -5.8647155E-18
   15.05850       -5.8507180E-18
   15.22000       -5.8360884E-18
   15.38150       -5.8230239E-18
   15.54300       -5.8135713E-18
   15.70450       -5.8093341E-18
   15.86600       -5.8112333E-18
   16.02750       -5.8193662E-18
   16.18900       -5.8329836E-18
   16.35050       -5.8506034E-18
   16.51200       -5.8702266E-18
   16.67350       -5.8896248E-18
   16.83500       -5.9066482E-18
   16.99650       -5.9195042E-18
   17.15800       -5.9269708E-18
   17.31950       -5.9285188E-18
   17.48100       -5.9243461E-18
   17.64250       -5.9153286E-18
   17.80400       -5.9029068E-18
   17.96550       -5.8889180E-18
   18.12700       -5.8753940E-18
   18.28850       -5.8643416E-18
   18.45000       -5.8575120E-18
   18.61150       -5.8561790E-18
   18.77300       -5.8609622E-18
   18.93450       -5.8717151E-18
   19.09600       -5.8875039E-18
   19.25750       -5.9067032E-18
   19.41900       -5.9271908E-18
   19.58050       -5.9466333E-18
   19.74200       -5.9628113E-18
   19.90350       -5.9739286E-18
   20.06500       -5.9788639E-18
   20.22650       -5.9773117E-18
   20.38800       -5.9698034E-18
   20.54950       -5.9576095E-18
   20.71100       -5.9425474E-18
   20.87250       -5.9267350E-18
   21.03400       -5.9123301E-18
   21.19550       -5.9012781E-18
   21.35700       -5.8951086E-18
   21.51850       -5.8947761E-18
   21.68000       -5.9005659E-18
   21.84150       -5.9120542E-18
   22.00300       -5.9281437E-18
   22.16450       -5.9471627E-18
   22.32600       -5.9670406E-18
   22.48750       -5.9855488E-18
   22.64900       -6.0005783E-18
   22.81050       -6.0104296E-18
   22.97200       -6.0140580E-18
   23.13350       -6.0112415E-18
   23.29500       -6.0026268E-18
   23.45650       -5.9896479E-18
   23.61800       -5.9743231E-18
   23.77950       -5.9589711E-18
   23.94100       -5.9458859E-18
   24.10250       -5.9370314E-18
   24.26400       -5.9338020E-18
   24.42550       -5.9368701E-18
   24.58700       -5.9461370E-18
   24.74850       -5.9607735E-18
   24.91000       -5.9793416E-18
   25.07150       -5.9999645E-18
   25.23300       -6.0205348E-18
   25.39450       -6.0389379E-18
   25.55600       -6.0532825E-18
   25.71750       -6.0621164E-18
   25.87900       -6.0646136E-18
   26.04050       -6.0606998E-18
   26.20200       -6.0510954E-18
   26.36350       -6.0372592E-18
   26.52500       -6.0212197E-18
   26.68650       -6.0053197E-18
   26.84800       -5.9918941E-18
   27.00950       -5.9829498E-18
   27.17100       -5.9798814E-18
   27.33250       -5.9832848E-18
   27.49400       -5.9928925E-18
   27.65550       -6.0076321E-18
   27.81700       -6.0257969E-18
   27.97850       -6.0452932E-18
   28.14000       -6.0639171E-18
   28.30150       -6.0796257E-18
   28.46300       -6.0907703E-18
   28.62450       -6.0962727E-18
   28.78600       -6.0957326E-18
   28.94750       -6.0894692E-18
   29.10900       -6.0784908E-18
   29.27050       -6.0643973E-18
   29.43200       -6.0492140E-18
   29.59350       -6.0351668E-18
   29.75500       -6.0244151E-18
   29.91650       -6.0187721E-18
   30.07800       -6.0194483E-18
   30.23950       -6.0268657E-18
   30.40100       -6.0405712E-18
   30.56250       -6.0592804E-18
   30.72400       -6.0810385E-18
   30.88550       -6.1034853E-18
   31.04700       -6.1241797E-18
   31.20850       -6.1409260E-18
   31.37000       -6.1520528E-18
   31.53150       -6.1566143E-18
   31.69300       -6.1544794E-18
   31.85450       -6.1463147E-18
   32.01600       -6.1334772E-18
   32.17750       -6.1178336E-18
   32.33900       -6.1015340E-18
   32.50050       -6.0867701E-18
   32.66200       -6.0755283E-18
   32.82350       -6.0693670E-18
   32.98500       -6.0692314E-18
   33.14650       -6.0753269E-18
   33.30800       -6.0870736E-18
   33.46950       -6.1031565E-18
   33.63100       -6.1216697E-18
   33.79250       -6.1403573E-18
   33.95400       -6.1569075E-18
   34.11550       -6.1692755E-18
   34.27700       -6.1759658E-18
   34.43850       -6.1762487E-18
   34.60000       -6.1702595E-18
   34.76150       -6.1589751E-18
   34.92300       -6.1440722E-18
   35.08450       -6.1276948E-18
   35.24600       -6.1121678E-18
   35.40750       -6.0997030E-18
   35.56900       -6.0921298E-18
   35.73050       -6.0906847E-18
   35.89200       -6.0958753E-18
   36.05350       -6.1074244E-18
   36.21500       -6.1243026E-18
   36.37650       -6.1448386E-18
   36.53800       -6.1669073E-18
   36.69950       -6.1881725E-18
   36.86100       -6.2063696E-18
   37.02250       -6.2195963E-18
   37.18400       -6.2265669E-18
   37.34550       -6.2268022E-18
   37.50700       -6.2207088E-18
   37.66850       -6.2095382E-18
   37.83000       -6.1952197E-18
   37.99150       -6.1800938E-18
   38.15300       -6.1665843E-18
   38.31450       -6.1568620E-18
   38.47600       -6.1525529E-18
   38.63750       -6.1545286E-18
   38.79900       -6.1628087E-18
   38.96050       -6.1765783E-18
   39.12200       -6.1943118E-18
   39.28350       -6.2139727E-18
   39.44500       -6.2332700E-18
   39.60650       -6.2499360E-18
   39.76800       -6.2619975E-18
   39.92950       -6.2680186E-18
   40.09100       -6.2672865E-18
   40.25250       -6.2599259E-18
   40.41400       -6.2469155E-18
   40.57550       -6.2299997E-18
   40.73700       -6.2114924E-18
   40.89850       -6.1939921E-18
   41.06000       -6.1800376E-18
   41.22150       -6.1717534E-18
   41.38300       -6.1705395E-18
   41.54450       -6.1768629E-18
   41.70600       -6.1901743E-18
   41.86750       -6.2089786E-18
   42.02900       -6.2310461E-18
   42.19050       -6.2537183E-18
   42.35200       -6.2742766E-18
   42.51350       -6.2902995E-18
   42.67500       -6.2999734E-18
   42.83650       -6.3023110E-18
   42.99800       -6.2972540E-18
   43.15950       -6.2856669E-18
   43.32100       -6.2692184E-18
   43.48250       -6.2501746E-18
   43.64400       -6.2311329E-18
   43.80550       -6.2147105E-18
   43.96700       -6.2032280E-18
   44.12850       -6.1984159E-18
   44.29000       -6.2011811E-18
   44.45150       -6.2114680E-18
   44.61300       -6.2282287E-18
   44.77450       -6.2495402E-18
   44.93600       -6.2728340E-18
   45.09750       -6.2952374E-18
   45.25900       -6.3139668E-18
   45.42050       -6.3267223E-18
   45.58200       -6.3320180E-18
   45.74350       -6.3293999E-18
   45.90500       -6.3195164E-18
   46.06650       -6.3040253E-18
   46.22800       -6.2853670E-18
   46.38950       -6.2664209E-18
   46.55100       -6.2501155E-18
   46.71250       -6.2390338E-18
   46.87400       -6.2350716E-18
   47.03550       -6.2391975E-18
   47.19700       -6.2513248E-18
   47.35850       -6.2703268E-18
   47.52000       -6.2941769E-18
   47.68150       -6.3202013E-18
   47.84300       -6.3454125E-18
   48.00450       -6.3668836E-18
   48.16600       -6.3821240E-18
   48.32750       -6.3893966E-18
   48.48900       -6.3879540E-18
   48.65050       -6.3781465E-18
   48.81200       -6.3613916E-18
   48.97350       -6.3400040E-18
   49.13500       -6.3169095E-18
   49.29650       -6.2952705E-18
   49.45800       -6.2780771E-18
   49.61950       -6.2677601E-18
   49.78100       -6.2658650E-18
   49.94250       -6.2728435E-18
   50.10400       -6.2879863E-18
   50.26550       -6.3095033E-18
   50.42700       -6.3347530E-18
   50.58850       -6.3605879E-18
   50.75000       -6.3837693E-18
   50.91150       -6.4014048E-18
   51.07300       -6.4113409E-18
   51.23450       -6.4124571E-18
   51.39600       -6.4048231E-18
   51.55750       -6.3896844E-18
   51.71900       -6.3692944E-18
   51.88050       -6.3465995E-18
   52.04200       -6.3248376E-18
   52.20350       -6.3071053E-18
   52.36500       -6.2959492E-18
   52.52650       -6.2930466E-18
   52.68800       -6.2990015E-18
   52.84950       -6.3132869E-18
   53.01100       -6.3343299E-18
   53.17250       -6.3597161E-18
   53.33400       -6.3864944E-18
   53.49550       -6.4115390E-18
   53.65700       -6.4319302E-18
   53.81850       -6.4453136E-18
   53.98000       -6.4502001E-18
   54.14150       -6.4461577E-18
   54.30300       -6.4338898E-18
   54.46450       -6.4151591E-18
   54.62600       -6.3925725E-18
   54.78750       -6.3692452E-18
   54.94900       -6.3483862E-18
   55.11050       -6.3328646E-18
   55.27200       -6.3248198E-18
   55.43350       -6.3253749E-18
   55.59500       -6.3344991E-18
   55.75650       -6.3510381E-18
   55.91800       -6.3728956E-18
   56.07950       -6.3973445E-18
   56.24100       -6.4214031E-18
   56.40250       -6.4422332E-18
   56.56400       -6.4574975E-18
   56.72550       -6.4656370E-18
   56.88700       -6.4660485E-18
   57.04850       -6.4591345E-18
   57.21000       -6.4462392E-18
   57.37150       -6.4294722E-18
   57.53300       -6.4114426E-18
   57.69450       -6.3949259E-18
   57.85600       -6.3825053E-18
   58.01750       -6.3762241E-18
   58.17900       -6.3773061E-18
   58.34050       -6.3859770E-18
   58.50200       -6.4014217E-18
   58.66350       -6.4218940E-18
   58.82500       -6.4449558E-18
   58.98650       -6.4678187E-18
   59.14800       -6.4877293E-18
   59.30950       -6.5023394E-18
   59.47100       -6.5100107E-18
   59.63250       -6.5100111E-18
   59.79400       -6.5025805E-18
   59.95550       -6.4888766E-18
   60.11700       -6.4708106E-18
   60.27850       -6.4507999E-18
   60.44000       -6.4314757E-18
   60.60150       -6.4153680E-18
   60.76300       -6.4046014E-18
   60.92450       -6.4006363E-18
   61.08600       -6.4040724E-18
   61.24750       -6.4145602E-18
   61.40900       -6.4308239E-18
   61.57050       -6.4508197E-18
   61.73200       -6.4720046E-18
   61.89350       -6.4916882E-18
   62.05500       -6.5074183E-18
   62.21650       -6.5173304E-18
   62.37800       -6.5204079E-18
   62.53950       -6.5166079E-18
   62.70100       -6.5068376E-18
   62.86250       -6.4927888E-18
   63.02400       -6.4766741E-18
   63.18550       -6.4609088E-18
   63.34700       -6.4477926E-18
   63.50850       -6.4392350E-18
   63.67000       -6.4365442E-18
   63.83150       -6.4402980E-18
   63.99300       -6.4502944E-18
   64.15450       -6.4655741E-18
   64.31600       -6.4845207E-18
   64.47750       -6.5050294E-18
   64.63900       -6.5247440E-18
   64.80050       -6.5413468E-18
   64.96200       -6.5528640E-18
   65.12350       -6.5579607E-18
   65.28500       -6.5561554E-18
   65.44650       -6.5479220E-18
   65.60800       -6.5346421E-18
   65.76950       -6.5184082E-18
   65.93100       -6.5017083E-18
   66.09250       -6.4870494E-18
   66.25400       -6.4765880E-18
   66.41550       -6.4718317E-18
   66.57700       -6.4734634E-18
   66.73850       -6.4812930E-18
   66.90000       -6.4943439E-18
   67.06150       -6.5110207E-18
   67.22300       -6.5293411E-18
   67.38450       -6.5471722E-18
   67.54600       -6.5624730E-18
   67.70750       -6.5735084E-18
   67.86900       -6.5790410E-18
   68.03050       -6.5784863E-18
   68.19200       -6.5720166E-18
   68.35350       -6.5605891E-18
   68.51500       -6.5458785E-18
   68.67650       -6.5300959E-18
   68.83800       -6.5157004E-18
   68.99950       -6.5050468E-18
   69.16100       -6.5000192E-18
   69.32250       -6.5017248E-18
   69.48400       -6.5103089E-18
   69.64550       -6.5249310E-18
   69.80700       -6.5439040E-18
   69.96850       -6.5649735E-18
   70.13000       -6.5856638E-18
   70.29150       -6.6036351E-18
   70.45300       -6.6169842E-18
   70.61450       -6.6244553E-18
   70.77600       -6.6255451E-18
   70.93750       -6.6205113E-18
   71.09900       -6.6103076E-18
   71.26050       -6.5964659E-18
   71.42200       -6.5809373E-18
   71.58350       -6.5658934E-18
   71.74500       -6.5534952E-18
   71.90650       -6.5456340E-18
   72.06800       -6.5436703E-18
   72.22950       -6.5482107E-18
   72.39100       -6.5589674E-18
   72.55250       -6.5747512E-18
   72.71400       -6.5936093E-18
   72.87550       -6.6131043E-18
   73.03700       -6.6306860E-18
   73.19850       -6.6440876E-18
   73.36000       -6.6516687E-18
   73.52150       -6.6526456E-18
   73.68300       -6.6471626E-18
   73.84450       -6.6362211E-18
   74.00600       -6.6214832E-18
   74.16750       -6.6050124E-18
   74.32900       -6.5889940E-18
   74.49050       -6.5754833E-18
   74.65200       -6.5661953E-18
   74.81350       -6.5623443E-18
   74.97500       -6.5645264E-18
   75.13650       -6.5726527E-18
   75.29800       -6.5859285E-18
   75.45950       -6.6029064E-18
   75.62100       -6.6216259E-18
   75.78250       -6.6398375E-18
   75.94400       -6.6553025E-18
   76.10550       -6.6661203E-18
   76.26700       -6.6710251E-18
   76.42850       -6.6695937E-18
   76.59000       -6.6623099E-18
   76.75150       -6.6504825E-18
   76.91300       -6.6360205E-18
   77.07450       -6.6211238E-18
   77.23600       -6.6079538E-18
   77.39750       -6.5983399E-18
   77.55900       -6.5935704E-18
   77.72050       -6.5942776E-18
   77.88200       -6.6004203E-18
   78.04350       -6.6113291E-18
   78.20500       -6.6258065E-18
   78.36650       -6.6422520E-18
   78.52800       -6.6588267E-18
   78.68950       -6.6736394E-18
   78.85100       -6.6849705E-18
   79.01250       -6.6915003E-18
   79.17400       -6.6925190E-18
   79.33550       -6.6880725E-18
   79.49700       -6.6789987E-18
   79.65850       -6.6668292E-18
   79.82000       -6.6535658E-18
   79.98150       -6.6413653E-18
   80.14300       -6.6321989E-18
   80.30450       -6.6275518E-18
   80.46600       -6.6282206E-18
   80.62750       -6.6342433E-18
   80.78900       -6.6449553E-18
   80.95050       -6.6591331E-18
   81.11200       -6.6751949E-18
   81.27350       -6.6914002E-18
   81.43500       -6.7060335E-18
   81.59650       -6.7175615E-18
   81.75800       -6.7247724E-18
   81.91950       -6.7269045E-18
   82.08100       -6.7237608E-18
   82.24250       -6.7157967E-18
   82.40400       -6.7041367E-18
   82.56550       -6.6904969E-18
   82.72700       -6.6769912E-18
   82.88850       -6.6658383E-18
   83.05000       -6.6590053E-18
   83.21150       -6.6578775E-18
   83.37300       -6.6630139E-18
   83.53450       -6.6740509E-18
   83.69600       -6.6897773E-18
   83.85750       -6.7083603E-18
   84.01900       -6.7276580E-18
   84.18050       -6.7455582E-18
   84.34200       -6.7602564E-18
   84.50350       -6.7704502E-18
   84.66500       -6.7754277E-18
   84.82650       -6.7750749E-18
   84.98800       -6.7698256E-18
   85.14950       -6.7605964E-18
   85.31100       -6.7487032E-18
   85.47250       -6.7357578E-18
   85.63400       -6.7235287E-18
   85.79550       -6.7137465E-18
   85.95700       -6.7078636E-18
   86.11850       -6.7068040E-18
   86.28000       -6.7107600E-18
   86.44150       -6.7190884E-18
   86.60300       -6.7303625E-18
   86.76450       -6.7425845E-18
   86.92600       -6.7535260E-18
   87.08750       -6.7611270E-18
   87.24900       -6.7638683E-18
   87.41050       -6.7610315E-18
   87.57200       -6.7527994E-18
   87.73350       -6.7401902E-18
   87.89500       -6.7248522E-18
   88.05650       -6.7087780E-18
   88.21800       -6.6940145E-18
   88.37950       -6.6823955E-18
   88.54100       -6.6753484E-18
   88.70250       -6.6737639E-18
   88.86400       -6.6779259E-18
   89.02550       -6.6874844E-18
   89.18700       -6.7014728E-18
   89.34850       -6.7183837E-18
   89.51000       -6.7363062E-18
   89.67150       -6.7531431E-18
   89.83300       -6.7668908E-18
   89.99450       -6.7759451E-18
   90.15600       -6.7793804E-18
   90.31750       -6.7771321E-18
   90.47900       -6.7700419E-18
   90.64050       -6.7597373E-18
   90.80200       -6.7483636E-18
   90.96350       -6.7382261E-18
   91.12500       -6.7314035E-18
   91.28650       -6.7294174E-18
   91.44800       -6.7330128E-18
   91.60950       -6.7420783E-18
   91.77100       -6.7557073E-18
   91.93250       -6.7723680E-18
   92.09400       -6.7901507E-18
   92.25550       -6.8070392E-18
   92.41700       -6.8211749E-18
   92.57850       -6.8310887E-18
   92.74000       -6.8358756E-18
   92.90150       -6.8353040E-18
   93.06300       -6.8298430E-18
   93.22450       -6.8206054E-18
   93.38600       -6.8092015E-18
   93.54750       -6.7975184E-18
   93.70900       -6.7874520E-18
   93.87050       -6.7806257E-18
   94.03200       -6.7781508E-18
   94.19350       -6.7804590E-18
   94.35500       -6.7872485E-18
   94.51650       -6.7975399E-18
   94.67800       -6.8098417E-18
   94.83950       -6.8223843E-18
   95.00100       -6.8333887E-18
   95.16250       -6.8413280E-18
   95.32400       -6.8451429E-18
   95.48550       -6.8443852E-18
   95.64700       -6.8392724E-18
   95.80850       -6.8306553E-18
   95.97000       -6.8198945E-18
   96.13150       -6.8086642E-18
   96.29300       -6.7987145E-18
   96.45450       -6.7916115E-18
   96.61600       -6.7885059E-18
   96.77750       -6.7899588E-18
   96.93900       -6.7958603E-18
   97.10050       -6.8054519E-18
   97.26200       -6.8174485E-18
   97.42350       -6.8302437E-18
   97.58500       -6.8421531E-18
   97.74650       -6.8516578E-18
   97.90800       -6.8576127E-18
   98.06950       -6.8593911E-18
   98.23100       -6.8569497E-18
   98.39250       -6.8508219E-18
   98.55400       -6.8420344E-18
   98.71550       -6.8319717E-18
   98.87700       -6.8221953E-18
   99.03850       -6.8142370E-18
   99.20000       -6.8093893E-18
   99.36150       -6.8085149E-18
   99.52300       -6.8119122E-18
   99.68450       -6.8192542E-18
   99.84600       -6.8296333E-18
   100.0075       -6.8416989E-18
   100.1690       -6.8538746E-18
   100.3305       -6.8646160E-18
   100.4920       -6.8726553E-18
   100.6535       -6.8771883E-18
   100.8150       -6.8779749E-18
   100.9765       -6.8753342E-18
   101.1380       -6.8700543E-18
   101.2995       -6.8632458E-18
   101.4610       -6.8561643E-18
   101.6225       -6.8500406E-18
   101.7840       -6.8459316E-18
   101.9455       -6.8445970E-18
   102.1070       -6.8464089E-18
   102.2685       -6.8512980E-18
   102.4300       -6.8587397E-18
   102.5915       -6.8678077E-18
   102.7530       -6.8772871E-18
   102.9145       -6.8858605E-18
   103.0760       -6.8923290E-18
   103.2375       -6.8958342E-18
   103.3990       -6.8960232E-18
   103.5605       -6.8931119E-18
   103.7220       -6.8878316E-18
   103.8835       -6.8812605E-18
   104.0450       -6.8745959E-18
   104.2065       -6.8689181E-18
   104.3680       -6.8650221E-18
   104.5295       -6.8633367E-18
   104.6910       -6.8639456E-18
   104.8525       -6.8666707E-18
   105.0140       -6.8711759E-18
   105.1755       -6.8770344E-18
   105.3370       -6.8837540E-18
   105.4985       -6.8907594E-18
   105.6600       -6.8973765E-18
   105.8215       -6.9028656E-18
   105.9830       -6.9065156E-18
   106.1445       -6.9078134E-18
   106.3060       -6.9066173E-18
   106.4675       -6.9032801E-18
   106.6290       -6.8986557E-18
   106.7905       -6.8939519E-18
   106.9520       -6.8904617E-18
   107.1135       -6.8892383E-18
   107.2750       -6.8908206E-18
   107.4365       -6.8950939E-18
   107.5980       -6.9013416E-18
   107.7595       -6.9084652E-18
   107.9210       -6.9153027E-18
   108.0825       -6.9209333E-18
   108.2440       -6.9248724E-18
   108.4055       -6.9271004E-18
   108.5670       -6.9279350E-18
   108.7285       -6.9278142E-18
   108.8900       -6.9270917E-18
   109.0515       -6.9259345E-18
   109.2130       -6.9243492E-18
   109.3745       -6.9223304E-18
   109.5360       -6.9200363E-18
   109.6975       -6.9179050E-18
   109.8590       -6.9166432E-18
   110.0205       -6.9170539E-18
   110.1820       -6.9197736E-18
   110.3435       -6.9250072E-18
   110.5050       -6.9323674E-18
   110.6665       -6.9409040E-18
   110.8280       -6.9493189E-18
   110.9895       -6.9563085E-18
   111.1510       -6.9609143E-18
   111.3125       -6.9627622E-18
   111.4740       -6.9621187E-18
   111.6355       -6.9597397E-18
   111.7970       -6.9565890E-18
   111.9585       -6.9535333E-18
   112.1200       -6.9511213E-18
   112.2815       -6.9495223E-18
   112.4430       -6.9486265E-18
   112.6045       -6.9482369E-18
   112.7660       -6.9482683E-18
   112.9275       -6.9488482E-18
   113.0890       -6.9502800E-18
   113.2505       -6.9528865E-18
   113.4120       -6.9568007E-18
   113.5735       -6.9618126E-18
   113.7350       -6.9673365E-18
   113.8965       -6.9725320E-18
   114.0580       -6.9765447E-18
   114.2195       -6.9787615E-18
   114.3810       -6.9790072E-18
   114.5425       -6.9775853E-18
   114.7040       -6.9751699E-18
   114.8655       -6.9725825E-18
   115.0270       -6.9705344E-18
   115.1885       -6.9694516E-18
   115.3500       -6.9694136E-18
   115.5115       -6.9702275E-18
   115.6730       -6.9715833E-18
   115.8345       -6.9732095E-18
   115.9960       -6.9749681E-18
   116.1575       -6.9768367E-18
   116.3190       -6.9788120E-18
   116.4805       -6.9807856E-18
   116.6420       -6.9824607E-18