  -30.00000        8.4828034E-18
  -29.83850        8.4865985E-18
  -29.67700        8.4922192E-18
  -29.51550        8.4970979E-18
  -29.35400        8.4997333E-18
  -29.19250        8.5005547E-18
  -29.03100        8.5014356E-18
  -28.86950        8.5042042E-18
  -28.70800        8.5092301E-18
  -28.54650        8.5150717E-18
  -28.38500        8.5194491E-18
  -28.22350        8.5208297E-18
  -28.06200        8.5195260E-18
  -27.90050        8.5175019E-18
  -27.73900        8.5170486E-18
  -27.57750        8.5192349E-18
  -27.41600        8.5232318E-18
  -27.25450        8.5269500E-18
  -27.09300        8.5285274E-18
  -26.93150        8.5276159E-18
  -26.77000        8.5255868E-18
  -26.60850        8.5245421E-18
  -26.44700        8.5258507E-18
  -26.28550        8.5292264E-18
  -26.12400        8.5329793E-18
  -25.96250        8.5352268E-18
  -25.80100        8.5352069E-18
  -25.63950        8.5337610E-18
  -25.47800        8.5326716E-18
  -25.31650        8.5333350E-18
  -25.15500        8.5357495E-18
  -24.99350        8.5385156E-18
  -24.83200        8.5398515E-18
  -24.67050        8.5388531E-18
  -24.50900        8.5361325E-18
  -24.34750        8.5333888E-18
  -24.18600        8.5322745E-18
  -24.02450        8.5333557E-18
  -23.86300        8.5358662E-18
  -23.70150        8.5383874E-18
  -23.54000        8.5399020E-18
  -23.37850        8.5404785E-18
  -23.21700        8.5411113E-18
  -23.05550        8.5428782E-18
  -22.89400        8.5460248E-18
  -22.73250        8.5496842E-18
  -22.57100        8.5524271E-18
  -22.40950        8.5532279E-18
  -22.24800        8.5521467E-18
  -22.08650        8.5502351E-18
  -21.92500        8.5487710E-18
  -21.76350        8.5484252E-18
  -21.60200        8.5489389E-18
  -21.44050        8.5495171E-18
  -21.27900        8.5495634E-18
  -21.11750        8.5491887E-18
  -20.95600        8.5491341E-18
  -20.79450        8.5501880E-18
  -20.63300        8.5525545E-18
  -20.47150        8.5556482E-18
  -20.31000        8.5584755E-18
  -20.14850        8.5603267E-18
  -19.98700        8.5612507E-18
  -19.82550        8.5619596E-18
  -19.66400        8.5632086E-18
  -19.50250        8.5651566E-18
  -19.34100        8.5671923E-18
  -19.17950        8.5683843E-18
  -19.01800        8.5681891E-18
  -18.85650        8.5668631E-18
  -18.69500        8.5652468E-18
  -18.53350        8.5641127E-18
  -18.37200        8.5635941E-18
  -18.21050        8.5631367E-18
  -18.04900        8.5620092E-18
  -17.88750        8.5600058E-18
  -17.72600        8.5577972E-18
  -17.56450        8.5566309E-18
  -17.40300        8.5575623E-18
  -17.24150        8.5607304E-18
  -17.08000        8.5652129E-18
  -16.91850        8.5696093E-18
  -16.75700        8.5729586E-18
  -16.59550        8.5753219E-18
  -16.43400        8.5775784E-18
  -16.27250        8.5805769E-18
  -16.11100        8.5843026E-18
  -15.94950        8.5877188E-18
  -15.78800        8.5894336E-18
  -15.62650        8.5887214E-18
  -15.46500        8.5861513E-18
  -15.30350        8.5833364E-18
  -15.14200        8.5819401E-18
  -14.98050        8.5826118E-18
  -14.81900        8.5845929E-18
  -14.65750        8.5862646E-18
  -14.49600        8.5862961E-18
  -14.33450        8.5845970E-18
  -14.17300        8.5823893E-18
  -14.01150        8.5812999E-18
  -13.85000        8.5821287E-18
  -13.68850        8.5841859E-18
  -13.52700        8.5857245E-18
  -13.36550        8.5851860E-18
  -13.20400        8.5823587E-18
  -13.04250        8.5786140E-18
  -12.88100        8.5760092E-18
  -12.71950        8.5758835E-18
  -12.55800        8.5779473E-18
  -12.39650        8.5804868E-18
  -12.23500        8.5815704E-18
  -12.07350        8.5804214E-18
  -11.91200        8.5780127E-18
  -11.75050        8.5764452E-18
  -11.58900        8.5775139E-18
  -11.42750        8.5814562E-18
  -11.26600        8.5867651E-18
  -11.10450        8.5912368E-18
  -10.94300        8.5935116E-18
  -10.78150        8.5939979E-18
  -10.62000        8.5945249E-18
  -10.45850        8.5969410E-18
  -10.29700        8.6016725E-18
  -10.13550        8.6072841E-18
  -9.974000        8.6113638E-18
  -9.812500        8.6121297E-18
  -9.651000        8.6096358E-18
  -9.489500        8.6057646E-18
  -9.328000        8.6029861E-18
  -9.166500        8.6027495E-18
  -9.005000        8.6045809E-18
  -8.843500        8.6065562E-18
  -8.682000        8.6067646E-18
  -8.520500        8.6047538E-18
  -8.359000        8.6019107E-18
  -8.197500        8.6005087E-18
  -8.036000        8.6020770E-18
  -7.874500        8.6062634E-18
  -7.713000        8.6110197E-18
  -7.551500        8.6139686E-18
  -7.390000        8.6139983E-18
  -7.228500        8.6119651E-18
  -7.067000        8.6100411E-18
  -6.905500        8.6101718E-18
  -6.744000        8.6127203E-18
  -6.582500        8.6162474E-18
  -6.421000        8.6185487E-18
  -6.259500        8.6182153E-18
  -6.098000        8.6156105E-18
  -5.936500        8.6126029E-18
  -5.775000        8.6112405E-18
  -5.613500        8.6123258E-18
  -5.452000        8.6148768E-18
  -5.290500        8.6168794E-18
  -5.129000        8.6167611E-18
  -4.967500        8.6145327E-18
  -4.806000        8.6118055E-18
  -4.644500        8.6106780E-18
  -4.483000        8.6122960E-18
  -4.321500        8.6160886E-18
  -4.160000        8.6201956E-18
  -3.998500        8.6227516E-18
  -3.837000        8.6230824E-18
  -3.675500        8.6220088E-18
  -3.514000        8.6211005E-18
  -3.352500        8.6214521E-18
  -3.191000        8.6228574E-18
  -3.029500        8.6239766E-18
  -2.868000        8.6233480E-18
  -2.706500        8.6205107E-18
  -2.545000        8.6164079E-18
  -2.383500        8.6128246E-18
  -2.222000        8.6112587E-18
  -2.060500        8.6120156E-18
  -1.899000        8.6141489E-18
  -1.737500        8.6162565E-18
  -1.576000        8.6174948E-18
  -1.414500        8.6180780E-18
  -1.253000        8.6189407E-18
  -1.091500        8.6208929E-18
 -0.9300000        8.6239129E-18
 -0.7685000        8.6270943E-18
 -0.6070000        8.6292631E-18
 -0.4455000        8.6297950E-18
 -0.2840000        8.6290208E-18
 -0.1225000        8.6279537E-18
  3.9000001E-02    8.6275707E-18
  0.2005000        8.6281721E-18
  0.3620000        8.6292714E-18
  0.5235000        8.6300738E-18
  0.6850000        8.6301631E-18
  0.8465000        8.6298612E-18
   1.008000        8.6299728E-18
   1.169500        8.6311549E-18
   1.331000        8.6334114E-18
   1.492500        8.6361254E-18
   1.654000        8.6385689E-18
   1.815500        8.6404838E-18
   1.977000        8.6422432E-18
   2.138500        8.6444642E-18
   2.300000        8.6473883E-18
   2.461500        8.6505192E-18
   2.623000        8.6528427E-18
   2.784500        8.6534549E-18
   2.946000        8.6521744E-18
   3.107500        8.6496928E-18
   3.269000        8.6471079E-18
   3.430500        8.6451847E-18
   3.592000        8.6438653E-18
   3.753500        8.6424550E-18
   3.915000        8.6403300E-18
   4.076500        8.6376383E-18
   4.238000        8.6354008E-18
   4.399500        8.6348664E-18
   4.561000        8.6365597E-18
   4.722500        8.6397609E-18
   4.884000        8.6428529E-18
   5.045500        8.6443368E-18
   5.207000        8.6437917E-18
   5.368500        8.6421001E-18
   5.530000        8.6407915E-18
   5.691500        8.6409289E-18
   5.853000        8.6423375E-18
   6.014500        8.6437388E-18
   6.176000        8.6437256E-18
   6.337500        8.6418983E-18
   6.499000        8.6393142E-18
   6.660500        8.6378575E-18
   6.822000        8.6389320E-18
   6.983500        8.6423839E-18
   7.145000        8.6464908E-18
   7.306500        8.6491031E-18
   7.468000        8.6491345E-18
   7.629500        8.6473436E-18
   7.791000        8.6458208E-18
   7.952500        8.6465454E-18
   8.114000        8.6500130E-18
   8.275500        8.6548759E-18
   8.437000        8.6588737E-18
   8.598500        8.6604131E-18
   8.760000        8.6596852E-18
   8.921500        8.6585213E-18
   9.083000        8.6590607E-18
   9.244500        8.6621452E-18
   9.406000        8.6665797E-18
   9.567500        8.6698554E-18
   9.729000        8.6698818E-18
   9.890500        8.6664978E-18
   10.05200        8.6616605E-18
   10.21350        8.6581582E-18
   10.37500        8.6577537E-18
   10.53650        8.6600359E-18
   10.69800        8.6627813E-18
   10.85950        8.6635721E-18
   11.02100        8.6615273E-18
   11.18250        8.6579473E-18
   11.34400        8.6554062E-18
   11.50550        8.6559405E-18
   11.66700        8.6595710E-18
   11.82850        8.6642057E-18
   11.99000        8.6670314E-18
   12.15150        8.6664416E-18
   12.31300        8.6631395E-18
   12.47450        8.6596198E-18
   12.63600        8.6583973E-18
   12.79750        8.6602410E-18
   12.95900        8.6636515E-18
   13.12050        8.6659279E-18
   13.28200        8.6650800E-18
   13.44350        8.6612411E-18
   13.60500        8.6566031E-18
   13.76650        8.6539346E-18
   13.92800        8.6547386E-18
   14.08950        8.6582963E-18
   14.25100        8.6622494E-18
   14.41250        8.6642967E-18
   14.57400        8.6638310E-18
   14.73550        8.6623421E-18
   14.89700        8.6623065E-18
   15.05850        8.6653737E-18
   15.22000        8.6711234E-18
   15.38150        8.6772652E-18
   15.54300        8.6811158E-18
   15.70450        8.6813432E-18
   15.86600        8.6787641E-18
   16.02750        8.6756845E-18
   16.18900        8.6742833E-18
   16.35050        8.6751932E-18
   16.51200        8.6772181E-18
   16.67350        8.6783406E-18
   16.83500        8.6772785E-18
   16.99650        8.6744867E-18
   17.15800        8.6718911E-18
   17.31950        8.6715536E-18
   17.48100        8.6742394E-18
   17.64250        8.6788683E-18
   17.80400        8.6832127E-18
   17.96550        8.6853212E-18
   18.12700        8.6847016E-18
   18.28850        8.6824773E-18
   18.45000        8.6804764E-18
   18.61150        8.6799279E-18
   18.77300        8.6806898E-18
   18.93450        8.6815045E-18
   19.09600        8.6810215E-18
   19.25750        8.6788534E-18
   19.41900        8.6759128E-18
   19.58050        8.6737985E-18
   19.74200        8.6736968E-18
   19.90350        8.6756125E-18
   20.06500        8.6784208E-18
   20.22650        8.6806699E-18
   20.38800        8.6815203E-18
   20.54950        8.6811944E-18
   20.71100        8.6806881E-18
   20.87250        8.6809859E-18
   21.03400        8.6823714E-18
   21.19550        8.6842897E-18
   21.35700        8.6858084E-18
   21.51850        8.6862832E-18
   21.68000        8.6857728E-18
   21.84150        8.6849134E-18
   22.00300        8.6843798E-18
   22.16450        8.6843691E-18
   22.32600        8.6845089E-18
   22.48750        8.6842285E-18
   22.64900        8.6832482E-18
   22.81050        8.6818056E-18
   22.97200        8.6804871E-18
   23.13350        8.6798295E-18
   23.29500        8.6800115E-18
   23.45650        8.6808469E-18
   23.61800        8.6820439E-18
   23.77950        8.6834625E-18
   23.94100        8.6851714E-18
   24.10250        8.6872650E-18
   24.26400        8.6896324E-18
   24.42550        8.6918567E-18
   24.58700        8.6934102E-18
   24.74850        8.6940239E-18
   24.91000        8.6939602E-18
   25.07150        8.6938883E-18
   25.23300        8.6944160E-18
   25.39450        8.6956196E-18
   25.55600        8.6969753E-18
   25.71750        8.6977462E-18
   25.87900        8.6975808E-18
   26.04050        8.6968314E-18
   26.20200        8.6963169E-18
   26.36350        8.6966850E-18
   26.52500        8.6978637E-18
   26.68650        8.6990375E-18
   26.84800        8.6991706E-18
   27.00950        8.6977653E-18
   27.17100        8.6953292E-18
   27.33250        8.6931835E-18
   27.49400        8.6926434E-18
   27.65550        8.6941009E-18
   27.81700        8.6966908E-18
   27.97850        8.6988315E-18
   28.14000        8.6992922E-18
   28.30150        8.6980705E-18
   28.46300        8.6963946E-18
   28.62450        8.6958181E-18
   28.78600        8.6970431E-18
   28.94750        8.6993625E-18
   29.10900        8.7011393E-18
   29.27050        8.7009772E-18
   29.43200        8.6987852E-18
   29.59350        8.6959810E-18
   29.75500        8.6946476E-18
   29.91650        8.6961465E-18
   30.07800        8.7001236E-18
   30.23950        8.7046424E-18
   30.40100        8.7073986E-18
   30.56250        8.7072208E-18
   30.72400        8.7048335E-18
   30.88550        8.7023081E-18
   31.04700        8.7015455E-18
   31.20850        8.7028772E-18
   31.37000        8.7048170E-18
   31.53150        8.7051669E-18
   31.69300        8.7026498E-18
   31.85450        8.6979398E-18
   32.01600        8.6933597E-18
   32.17750        8.6914241E-18
   32.33900        8.6931777E-18
   32.50050        8.6974857E-18
   32.66200        8.7017754E-18
   32.82350        8.7037640E-18
   32.98500        8.7029889E-18
   33.14650        8.7011153E-18
   33.30800        8.7007497E-18
   33.46950        8.7035473E-18
   33.63100        8.7089545E-18
   33.79250        8.7145239E-18
   33.95400        8.7175762E-18
   34.11550        8.7170220E-18
   34.27700        8.7140756E-18
   34.43850        8.7113840E-18
   34.60000        8.7111747E-18
   34.76150        8.7136860E-18
   34.92300        8.7169914E-18
   35.08450        8.7183149E-18
   35.24600        8.7159674E-18
   35.40750        8.7105634E-18
   35.56900        8.7047094E-18
   35.73050        8.7013321E-18
   35.89200        8.7017506E-18
   36.05350        8.7048459E-18
   36.21500        8.7079255E-18
   36.37650        8.7086700E-18
   36.53800        8.7067509E-18
   36.69950        8.7040171E-18
   36.86100        8.7031428E-18
   37.02250        8.7056946E-18
   37.18400        8.7109828E-18
   37.34550        8.7164761E-18
   37.50700        8.7195069E-18
   37.66850        8.7190370E-18
   37.83000        8.7163330E-18
   37.99150        8.7140880E-18
   38.15300        8.7145860E-18
   38.31450        8.7181296E-18
   38.47600        8.7228239E-18
   38.63750        8.7258886E-18
   38.79900        8.7255651E-18
   38.96050        8.7222672E-18
   39.12200        8.7181999E-18
   39.28350        8.7157722E-18
   39.44500        8.7159144E-18
   39.60650        8.7175010E-18
   39.76800        8.7182512E-18
   39.92950        8.7164413E-18
   40.09100        8.7121789E-18
   40.25250        8.7073994E-18
   40.41400        8.7046358E-18
   40.57550        8.7053762E-18
   40.73700        8.7091100E-18
   40.89850        8.7137034E-18
   41.06000        8.7168500E-18
   41.22150        8.7175721E-18
   41.38300        8.7167193E-18
   41.54450        8.7161824E-18
   41.70600        8.7174191E-18
   41.86750        8.7203630E-18
   42.02900        8.7234856E-18
   42.19050        8.7249406E-18
   42.35200        8.7239108E-18
   42.51350        8.7211770E-18
   42.67500        8.7185664E-18
   42.83650        8.7177326E-18
   42.99800        8.7191065E-18
   43.15950        8.7216906E-18
   43.32100        8.7238024E-18
   43.48250        8.7242483E-18
   43.64400        8.7230836E-18
   43.80550        8.7214557E-18
   43.96700        8.7207046E-18
   44.12850        8.7213879E-18
   44.29000        8.7229306E-18
   44.45150        8.7241283E-18
   44.61300        8.7241176E-18
   44.77450        8.7230249E-18
   44.93600        8.7218188E-18
   45.09750        8.7215442E-18
   45.25900        8.7225741E-18
   45.42050        8.7244046E-18
   45.58200        8.7260706E-18
   45.74350        8.7268456E-18
   45.90500        8.7267149E-18
   46.06650        8.7263038E-18
   46.22800        8.7263336E-18
   46.38950        8.7270714E-18
   46.55100        8.7281658E-18
   46.71250        8.7289541E-18
   46.87400        8.7290244E-18
   47.03550        8.7285728E-18
   47.19700        8.7282320E-18
   47.35850        8.7284677E-18
   47.52000        8.7290931E-18
   47.68150        8.7293412E-18
   47.84300        8.7284611E-18
   48.00450        8.7263477E-18
   48.16600        8.7236891E-18
   48.32750        8.7215194E-18
   48.48900        8.7204945E-18
   48.65050        8.7204581E-18
   48.81200        8.7206517E-18
   48.97350        8.7204019E-18
   49.13500        8.7197418E-18
   49.29650        8.7195052E-18
   49.45800        8.7207882E-18
   49.61950        8.7240952E-18
   49.78100        8.7287647E-18
   49.94250        8.7332042E-18
   50.10400        8.7358776E-18
   50.26550        8.7363599E-18
   50.42700        8.7356286E-18
   50.58850        8.7353408E-18
   50.75000        8.7365758E-18
   50.91150        8.7389638E-18
   51.07300        8.7408961E-18
   51.23450        8.7407141E-18
   51.39600        8.7379902E-18
   51.55750        8.7339362E-18
   51.71900        8.7306358E-18
   51.88050        8.7296415E-18
   52.04200        8.7308732E-18
   52.20350        8.7326193E-18
   52.36500        8.7327103E-18
   52.52650        8.7301469E-18
   52.68800        8.7259746E-18
   52.84950        8.7227254E-18
   53.01100        8.7227254E-18
   53.17250        8.7264387E-18
   53.33400        8.7320428E-18
   53.49550        8.7366188E-18
   53.65700        8.7381598E-18
   53.81850        8.7369240E-18
   53.98000        8.7351323E-18
   54.14150        8.7352349E-18
   54.30300        8.7380316E-18
   54.46450        8.7419624E-18
   54.62600        8.7440832E-18
   54.78750        8.7421154E-18
   54.94900        8.7361770E-18
   55.11050        8.7289268E-18
   55.27200        8.7239480E-18
   55.43350        8.7234385E-18
   55.59500        8.7267976E-18
   55.75650        8.7311089E-18
   55.91800        8.7332455E-18
   56.07950        8.7321379E-18
   56.24100        8.7295340E-18
   56.40250        8.7286497E-18
   56.56400        8.7317128E-18
   56.72550        8.7382094E-18
   56.88700        8.7450668E-18
   57.04850        8.7486509E-18
   57.21000        8.7472183E-18
   57.37150        8.7421253E-18
   57.53300        8.7369141E-18
   57.69450        8.7348875E-18
   57.85600        8.7368686E-18
   58.01750        8.7406769E-18
   58.17900        8.7427068E-18
   58.34050        8.7405297E-18
   58.50200        8.7347444E-18
   58.66350        8.7286729E-18
   58.82500        8.7260681E-18
   58.98650        8.7285033E-18
   59.14800        8.7343175E-18
   59.30950        8.7398456E-18
   59.47100        8.7419954E-18
   59.63250        8.7403833E-18
   59.79400        8.7375121E-18
   59.95550        8.7368768E-18
   60.11700        8.7403485E-18
   60.27850        8.7467401E-18
   60.44000        8.7525072E-18
   60.60150        8.7541012E-18
   60.76300        8.7503690E-18
   60.92450        8.7433768E-18
   61.08600        8.7370208E-18
   61.24750        8.7343721E-18
   61.40900        8.7356890E-18
   61.57050        8.7384948E-18
   61.73200        8.7395917E-18
   61.89350        8.7374947E-18
   62.05500        8.7335665E-18
   62.21650        8.7310394E-18
   62.37800        8.7326309E-18
   62.53950        8.7384956E-18
   62.70100        8.7460197E-18
   62.86250        8.7515212E-18
   63.02400        8.7526255E-18
   63.18550        8.7497072E-18
   63.34700        8.7454737E-18
   63.50850        8.7429881E-18
   63.67000        8.7435067E-18
   63.83150        8.7457368E-18
   63.99300        8.7469842E-18
   64.15450        8.7452760E-18
   64.31600        8.7408878E-18
   64.47750        8.7362209E-18
   64.63900        8.7341182E-18
   64.80050        8.7358296E-18
   64.96200        8.7401690E-18
   65.12350        8.7444513E-18
   65.28500        8.7464316E-18
   65.44650        8.7457773E-18
   65.60800        8.7441320E-18
   65.76950        8.7437904E-18
   65.93100        8.7459560E-18
   66.09250        8.7498363E-18
   66.25400        8.7532410E-18
   66.41550        8.7541939E-18
   66.57700        8.7523129E-18
   66.73850        8.7489851E-18
   66.90000        8.7462827E-18
   67.06150        8.7454258E-18
   67.22300        8.7459105E-18
   67.38450        8.7460122E-18
   67.54600        8.7442694E-18
   67.70750        8.7407232E-18
   67.86900        8.7369538E-18
   68.03050        8.7349503E-18
   68.19200        8.7357039E-18
   68.35350        8.7385246E-18
   68.51500        8.7415943E-18
   68.67650        8.7433462E-18
   68.83800        8.7435811E-18
   68.99950        8.7434455E-18
   69.16100        8.7443570E-18
   69.32250        8.7467501E-18
   69.48400        8.7495757E-18
   69.64550        8.7509538E-18
   69.80700        8.7495898E-18
   69.96850        8.7458824E-18
   70.13000        8.7417870E-18
   70.29150        8.7394659E-18
   70.45300        8.7397654E-18
   70.61450        8.7416786E-18
   70.77600        8.7431750E-18
   70.93750        8.7428086E-18
   71.09900        8.7409449E-18
   71.26050        8.7395759E-18
   71.42200        8.7407969E-18
   71.58350        8.7451255E-18
   71.74500        8.7509728E-18
   71.90650        8.7556522E-18
   72.06800        8.7572156E-18
   72.22950        8.7558664E-18
   72.39100        8.7538613E-18
   72.55250        8.7538539E-18
   72.71400        8.7568417E-18
   72.87550        8.7612977E-18
   73.03700        8.7641482E-18
   73.19850        8.7629355E-18
   73.36000        8.7576374E-18
   73.52150        8.7508330E-18
   73.68300        8.7459667E-18
   73.84450        8.7449022E-18
   74.00600        8.7466186E-18
   74.16750        8.7480711E-18
   74.32900        8.7465482E-18
   74.49050        8.7418118E-18
   74.65200        8.7365112E-18
   74.81350        8.7344664E-18
   74.97500        8.7379555E-18
   75.13650        8.7459386E-18
   75.29800        8.7545868E-18
   75.45950        8.7597757E-18
   75.62100        8.7597682E-18
   75.78250        8.7562527E-18
   75.94400        8.7530085E-18
   76.10550        8.7530582E-18
   76.26700        8.7563503E-18
   76.42850        8.7597385E-18
   76.59000        8.7593406E-18
   76.75150        8.7535205E-18
   76.91300        8.7443240E-18
   77.07450        8.7363309E-18
   77.23600        8.7336823E-18
   77.39750        8.7372805E-18
   77.55900        8.7442065E-18
   77.72050        8.7498214E-18
   77.88200        8.7510183E-18
   78.04350        8.7483085E-18
   78.20500        8.7453149E-18
   78.36650        8.7460792E-18
   78.52800        8.7520233E-18
   78.68950        8.7607261E-18
   78.85100        8.7675016E-18
   79.01250        8.7686803E-18
   79.17400        8.7641763E-18
   79.33550        8.7575150E-18
   79.49700        8.7533568E-18
   79.65850        8.7542410E-18
   79.82000        8.7588112E-18
   79.98150        8.7628636E-18
   80.14300        8.7624723E-18
   80.30450        8.7569079E-18
   80.46600        8.7492068E-18
   80.62750        8.7440956E-18
   80.78900        8.7447640E-18
   80.95050        8.7506717E-18
   81.11200        8.7579360E-18
   81.27350        8.7620612E-18
   81.43500        8.7610479E-18
   81.59650        8.7566101E-18
   81.75800        8.7527000E-18
   81.91950        8.7525089E-18
   82.08100        8.7560616E-18
   82.24250        8.7600991E-18
   82.40400        8.7604002E-18
   82.56550        8.7549143E-18
   82.72700        8.7453463E-18
   82.88850        8.7360546E-18
   83.05000        8.7311619E-18
   83.21150        8.7319435E-18
   83.37300        8.7362292E-18
   83.53450        8.7401690E-18
   83.69600        8.7411079E-18
   83.85750        8.7394452E-18
   84.01900        8.7381309E-18
   84.18050        8.7402815E-18
   84.34200        8.7467550E-18
   84.50350        8.7553528E-18
   84.66500        8.7621911E-18
   84.82650        8.7643500E-18
   84.98800        8.7618734E-18
   85.14950        8.7576234E-18
   85.31100        8.7550988E-18
   85.47250        8.7559409E-18
   85.63400        8.7589063E-18
   85.79550        8.7609362E-18
   85.95700        8.7594936E-18
   86.11850        8.7545049E-18
   86.28000        8.7484226E-18
   86.44150        8.7444025E-18
   86.60300        8.7440485E-18
   86.76450        8.7464300E-18
   86.92600        8.7489487E-18
   87.08750        8.7493367E-18
   87.24900        8.7474044E-18
   87.41050        8.7452380E-18
   87.57200        8.7456201E-18
   87.73350        8.7498545E-18
   87.89500        8.7567068E-18
   88.05650        8.7632201E-18
   88.21800        8.7667273E-18
   88.37950        8.7666198E-18
   88.54100        8.7646163E-18
   88.70250        8.7632937E-18
   88.86400        8.7639869E-18
   89.02550        8.7658009E-18
   89.18700        8.7664519E-18
   89.34850        8.7641986E-18
   89.51000        8.7593282E-18
   89.67150        8.7541922E-18
   89.83300        8.7516958E-18
   89.99450        8.7532443E-18
   90.15600        8.7576928E-18
   90.31750        8.7621654E-18
   90.47900        8.7641035E-18
   90.64050        8.7630033E-18
   90.80200        8.7606252E-18
   90.96350        8.7595441E-18
   91.12500        8.7610082E-18
   91.28650        8.7637561E-18
   91.44800        8.7648455E-18
   91.60950        8.7619239E-18
   91.77100        8.7551153E-18
   91.93250        8.7470793E-18
   92.09400        8.7412626E-18
   92.25550        8.7395553E-18
   92.41700        8.7410003E-18
   92.57850        8.7425587E-18
   92.74000        8.7414743E-18
   92.90150        8.7374129E-18
   93.06300        8.7327964E-18
   93.22450        8.7311238E-18
   93.38600        8.7344772E-18
   93.54750        8.7418995E-18
   93.70900        8.7498768E-18
   93.87050        8.7547779E-18
   94.03200        8.7554661E-18
   94.19350        8.7540226E-18
   94.35500        8.7540417E-18
   94.51650        8.7578062E-18
   94.67800        8.7643889E-18
   94.83950        8.7700501E-18
   95.00100        8.7708003E-18
   95.16250        8.7653285E-18
   95.32400        8.7560765E-18
   95.48550        8.7476443E-18
   95.64700        8.7437664E-18
   95.80850        8.7449658E-18
   95.97000        8.7484193E-18
   96.13150        8.7501655E-18
   96.29300        8.7481976E-18
   96.45450        8.7441296E-18
   96.61600        8.7420699E-18
   96.77750        8.7455184E-18
   96.93900        8.7546058E-18
   97.10050        8.7656429E-18
   97.26200        8.7733638E-18
   97.42350        8.7744176E-18
   97.58500        8.7696117E-18
   97.74650        8.7631895E-18
   97.90800        8.7596698E-18
   98.06950        8.7606624E-18
   98.23100        8.7638868E-18
   98.39250        8.7649414E-18
   98.55400        8.7606037E-18
   98.71550        8.7513823E-18
   98.87700        8.7414139E-18
   99.03850        8.7356427E-18
   99.20000        8.7363781E-18
   99.36150        8.7417249E-18
   99.52300        8.7469469E-18
   99.68450        8.7478147E-18
   99.84600        8.7436556E-18
   100.0075        8.7378728E-18
   100.1690        8.7354094E-18
   100.3305        8.7390424E-18
   100.4920        8.7473035E-18
   100.6535        8.7554628E-18
   100.8150        8.7587392E-18
   100.9765        8.7555182E-18
   101.1380        8.7483838E-18
   101.2995        8.7421940E-18
   101.4610        8.7405561E-18
   101.6225        8.7433537E-18
   101.7840        8.7470619E-18
   101.9455        8.7475061E-18
   102.1070        8.7430691E-18
   102.2685        8.7361415E-18
   102.4300        8.7316813E-18
   102.5915        8.7337518E-18
   102.7530        8.7425935E-18
   102.9145        8.7544247E-18
   103.0760        8.7640233E-18
   103.2375        8.7681145E-18
   103.3990        8.7672584E-18
   103.5605        8.7650043E-18
   103.7220        8.7649489E-18
   103.8835        8.7678754E-18
   104.0450        8.7711726E-18
   104.2065        8.7708731E-18
   104.3680        8.7646718E-18
   104.5295        8.7537786E-18
   104.6910        8.7423759E-18
   104.8525        8.7350025E-18
   105.0140        8.7336012E-18
   105.1755        8.7364169E-18
   105.3370        8.7395776E-18
   105.4985        8.7400623E-18
   105.6600        8.7378173E-18
   105.8215        8.7356170E-18
   105.9830        8.7368644E-18
   106.1445        8.7429037E-18
   106.3060        8.7518596E-18
   106.4675        8.7599386E-18
   106.6290        8.7641176E-18
   106.7905        8.7640861E-18
   106.9520        8.7621489E-18
   107.1135        8.7613300E-18
   107.2750        8.7630447E-18
   107.4365        8.7659655E-18
   107.5980        8.7669978E-18
   107.7595        8.7636808E-18
   107.9210        8.7561229E-18
   108.0825        8.7470173E-18
   108.2440        8.7398506E-18
   108.4055        8.7366320E-18
   108.5670        8.7367007E-18
   108.7285        8.7375254E-18
   108.8900        8.7369215E-18
   109.0515        8.7348908E-18
   109.2130        8.7335301E-18
   109.3745        8.7352142E-18
   109.5360        8.7405652E-18
   109.6975        8.7476790E-18
   109.8590        8.7531806E-18
   110.0205        8.7544520E-18
   110.1820        8.7514410E-18
   110.3435        8.7465822E-18
   110.5050        8.7429244E-18
   110.6665        8.7419599E-18
   110.8280        8.7427316E-18
   110.9895        8.7427498E-18
   111.1510        8.7401368E-18
   111.3125        8.7354268E-18
   111.4740        8.7314902E-18
   111.6355        8.7314621E-18
   111.7970        8.7363044E-18
   111.9585        8.7439525E-18
   112.1200        8.7506147E-18
   112.2815        8.7533228E-18
   112.4430        8.7519704E-18
   112.6045        8.7493251E-18
   112.7660        8.7488379E-18
   112.9275        8.7519200E-18
   113.0890        8.7568144E-18
   113.2505        8.7598344E-18
   113.4120        8.7580072E-18
   113.5735        8.7513227E-18
   113.7350        8.7429823E-18
   113.8965        8.7372698E-18
   114.0580        8.7364682E-18
   114.2195        8.7392194E-18
   114.3810        8.7416182E-18
   114.5425        8.7401756E-18
   114.7040        8.7345301E-18
   114.8655        8.7279921E-18
   115.0270        8.7253906E-18
   115.1885        8.7296068E-18
   115.3500        8.7393683E-18
   115.5115        8.7500414E-18
   115.6730        8.7567465E-18
   115.8345        8.7575307E-18
   115.9960        8.7544569E-18
   116.1575        8.7518976E-18
   116.3190        8.7531301E-18
   116.4805        8.7576672E-18
   116.6420        8.7614474E-18