  -30.00000        7.3069115E-18
  -29.83850        7.2958687E-18
  -29.67700        7.2789462E-18
  -29.51550        7.2632844E-18
  -29.35400        7.2539744E-18
  -29.19250        7.2513341E-18
  -29.03100        7.2510661E-18
  -28.86950        7.2471725E-18
  -28.70800        7.2358369E-18
  -28.54650        7.2179309E-18
  -28.38500        7.1986650E-18
  -28.22350        7.1845823E-18
  -28.06200        7.1797168E-18
  -27.90050        7.1832091E-18
  -27.73900        7.1897770E-18
  -27.57750        7.1927747E-18
  -27.41600        7.1880142E-18
  -27.25450        7.1761161E-18
  -27.09300        7.1620102E-18
  -26.93150        7.1519235E-18
  -26.77000        7.1496306E-18
  -26.60850        7.1541801E-18
  -26.44700        7.1604286E-18
  -26.28550        7.1620515E-18
  -26.12400        7.1552670E-18
  -25.96250        7.1410817E-18
  -25.80100        7.1247498E-18
  -25.63950        7.1127458E-18
  -25.47800        7.1090350E-18
  -25.31650        7.1128086E-18
  -25.15500        7.1190117E-18
  -24.99350        7.1213666E-18
  -24.83200        7.1160901E-18
  -24.67050        7.1041315E-18
  -24.50900        7.0905914E-18
  -24.34750        7.0816545E-18
  -24.18600        7.0808522E-18
  -24.02450        7.0868807E-18
  -23.86300        7.0943021E-18
  -23.70150        7.0967315E-18
  -23.54000        7.0906443E-18
  -23.37850        7.0775285E-18
  -23.21700        7.0630769E-18
  -23.05550        7.0538753E-18
  -22.89400        7.0535345E-18
  -22.73250        7.0605664E-18
  -22.57100        7.0692824E-18
  -22.40950        7.0731685E-18
  -22.24800        7.0687364E-18
  -22.08650        7.0575530E-18
  -21.92500        7.0452412E-18
  -21.76350        7.0380687E-18
  -21.60200        7.0391722E-18
  -21.44050        7.0466822E-18
  -21.27900        7.0548547E-18
  -21.11750        7.0575149E-18
  -20.95600        7.0517445E-18
  -20.79450        7.0396040E-18
  -20.63300        7.0268795E-18
  -20.47150        7.0196069E-18
  -20.31000        7.0204771E-18
  -20.14850        7.0272302E-18
  -19.98700        7.0340106E-18
  -19.82550        7.0348427E-18
  -19.66400        7.0271888E-18
  -19.50250        7.0134725E-18
  -19.34100        6.9997024E-18
  -19.17950        6.9920047E-18
  -19.01800        6.9931123E-18
  -18.85650        7.0008448E-18
  -18.69500        7.0094549E-18
  -18.53350        7.0130258E-18
  -18.37200        7.0089172E-18
  -18.21050        6.9992367E-18
  -18.04900        6.9895008E-18
  -17.88750        6.9852789E-18
  -17.72600        6.9888002E-18
  -17.56450        6.9975476E-18
  -17.40300        7.0056598E-18
  -17.24150        7.0073365E-18
  -17.08000        7.0002418E-18
  -16.91850        6.9868944E-18
  -16.75700        6.9732004E-18
  -16.59550        6.9649774E-18
  -16.43400        6.9645167E-18
  -16.27250        6.9692258E-18
  -16.11100        6.9731723E-18
  -15.94950        6.9706502E-18
  -15.78800        6.9596479E-18
  -15.62650        6.9431770E-18
  -15.46500        6.9276306E-18
  -15.30350        6.9191495E-18
  -15.14200        6.9201202E-18
  -14.98050        6.9278945E-18
  -14.81900        6.9364657E-18
  -14.65750        6.9400917E-18
  -14.49600        6.9366874E-18
  -14.33450        6.9289504E-18
  -14.17300        6.9225629E-18
  -14.01150        6.9225662E-18
  -13.85000        6.9301039E-18
  -13.68850        6.9415111E-18
  -13.52700        6.9503090E-18
  -13.36550        6.9509302E-18
  -13.20400        6.9419586E-18
  -13.04250        6.9269697E-18
  -12.88100        6.9124833E-18
  -12.71950        6.9042458E-18
  -12.55800        6.9040361E-18
  -12.39650        6.9088486E-18
  -12.23500        6.9128861E-18
  -12.07350        6.9111412E-18
  -11.91200        6.9024260E-18
  -11.75050        6.8900683E-18
  -11.58900        6.8798878E-18
  -11.42750        6.8766746E-18
  -11.26600        6.8812659E-18
  -11.10450        6.8899438E-18
  -10.94300        6.8965145E-18
  -10.78150        6.8958483E-18
  -10.62000        6.8868212E-18
  -10.45850        6.8729420E-18
  -10.29700        6.8603117E-18
  -10.13550        6.8541046E-18
  -9.974000        6.8556311E-18
  -9.812500        6.8616902E-18
  -9.651000        6.8665756E-18
  -9.489500        6.8655499E-18
  -9.328000        6.8577268E-18
  -9.166500        6.8466509E-18
  -9.005000        6.8382091E-18
  -8.843500        6.8370998E-18
  -8.682000        6.8439340E-18
  -8.520500        6.8547101E-18
  -8.359000        6.8630013E-18
  -8.197500        6.8635998E-18
  -8.036000        6.8554839E-18
  -7.874500        6.8423599E-18
  -7.713000        6.8304538E-18
  -7.551500        6.8248600E-18
  -7.390000        6.8266124E-18
  -7.228500        6.8322075E-18
  -7.067000        6.8358471E-18
  -6.905500        6.8330454E-18
  -6.744000        6.8234178E-18
  -6.582500        6.8109717E-18
  -6.421000        6.8017155E-18
  -6.259500        6.8000173E-18
  -6.098000        6.8058994E-18
  -5.936500        6.8149016E-18
  -5.775000        6.8206158E-18
  -5.613500        6.8183977E-18
  -5.452000        6.8080695E-18
  -5.290500        6.7940368E-18
  -5.129000        6.7827545E-18
  -4.967500        6.7790557E-18
  -4.806000        6.7834898E-18
  -4.644500        6.7922017E-18
  -4.483000        6.7993659E-18
  -4.321500        6.8006973E-18
  -4.160000        6.7959451E-18
  -3.998500        6.7889108E-18
  -3.837000        6.7850118E-18
  -3.675500        6.7878524E-18
  -3.514000        6.7968542E-18
  -3.352500        6.8073639E-18
  -3.191000        6.8131976E-18
  -3.029500        6.8101569E-18
  -2.868000        6.7984796E-18
  -2.706500        6.7827896E-18
  -2.545000        6.7695704E-18
  -2.383500        6.7636106E-18
  -2.222000        6.7654614E-18
  -2.060500        6.7713605E-18
  -1.899000        6.7756386E-18
  -1.737500        6.7741774E-18
  -1.576000        6.7668800E-18
  -1.414500        6.7576777E-18
  -1.253000        6.7520731E-18
  -1.091500        6.7536662E-18
 -0.9300000        6.7617412E-18
 -0.7685000        6.7713919E-18
 -0.6070000        6.7761685E-18
 -0.4455000        6.7717339E-18
 -0.2840000        6.7583853E-18
 -0.1225000        6.7409351E-18
  3.9000001E-02    6.7260037E-18
  0.2005000        6.7182865E-18
  0.3620000        6.7180007E-18
  0.5235000        6.7210046E-18
  0.6850000        6.7215017E-18
  0.8465000        6.7157156E-18
   1.008000        6.7043005E-18
   1.169500        6.6920471E-18
   1.331000        6.6850342E-18
   1.492500        6.6869277E-18
   1.654000        6.6966541E-18
   1.815500        6.7088529E-18
   1.977000        6.7168716E-18
   2.138500        6.7165457E-18
   2.300000        6.7085369E-18
   2.461500        6.6978518E-18
   2.623000        6.6908555E-18
   2.784500        6.6915338E-18
   2.946000        6.6992254E-18
   3.107500        6.7091313E-18
   3.269000        6.7152702E-18
   3.430500        6.7141022E-18
   3.592000        6.7066592E-18
   3.753500        6.6979114E-18
   3.915000        6.6937527E-18
   4.076500        6.6973857E-18
   4.238000        6.7072560E-18
   4.399500        6.7177769E-18
   4.561000        6.7224567E-18
   4.722500        6.7176169E-18
   4.884000        6.7045470E-18
   5.045500        6.6888289E-18
   5.207000        6.6772046E-18
   5.368500        6.6738053E-18
   5.530000        6.6779147E-18
   5.691500        6.6845739E-18
   5.853000        6.6876494E-18
   6.014500        6.6835540E-18
   6.176000        6.6734128E-18
   6.337500        6.6623732E-18
   6.499000        6.6564494E-18
   6.660500        6.6587853E-18
   6.822000        6.6675733E-18
   6.983500        6.6769366E-18
   7.145000        6.6803061E-18
   7.306500        6.6743276E-18
   7.468000        6.6609658E-18
   7.629500        6.6465075E-18
   7.791000        6.6379974E-18
   7.952500        6.6391799E-18
   8.114000        6.6483475E-18
   8.275500        6.6593859E-18
   8.437000        6.6654019E-18
   8.598500        6.6627835E-18
   8.760000        6.6532610E-18
   8.921500        6.6427359E-18
   9.083000        6.6375855E-18
   9.244500        6.6406734E-18
   9.406000        6.6494870E-18
   9.567500        6.6575503E-18
   9.729000        6.6582828E-18
   9.890500        6.6490047E-18
   10.05200        6.6326704E-18
   10.21350        6.6162794E-18
   10.37500        6.6068851E-18
   10.53650        6.6075663E-18
   10.69800        6.6157455E-18
   10.85950        6.6248473E-18
   11.02100        6.6282839E-18
   11.18250        6.6233998E-18
   11.34400        6.6130133E-18
   11.50550        6.6036508E-18
   11.66700        6.6015283E-18
   11.82850        6.6086880E-18
   11.99000        6.6215978E-18
   12.15150        6.6330811E-18
   12.31300        6.6364465E-18
   12.47450        6.6293956E-18
   12.63600        6.6153914E-18
   12.79750        6.6016619E-18
   12.95900        6.5949956E-18
   13.12050        6.5977961E-18
   13.28200        6.6067205E-18
   13.44350        6.6147169E-18
   13.60500        6.6152607E-18
   13.76650        6.6062879E-18
   13.92800        6.5914714E-18
   14.08950        6.5780773E-18
   14.25100        6.5726382E-18
   14.41250        6.5770396E-18
   14.57400        6.5873628E-18
   14.73550        6.5962207E-18
   14.89700        6.5972108E-18
   15.05850        6.5888311E-18
   15.22000        6.5754746E-18
   15.38150        6.5648540E-18
   15.54300        6.5633601E-18
   15.70450        6.5721208E-18
   15.86600        6.5861593E-18
   16.02750        6.5972046E-18
   16.18900        6.5985120E-18
   16.35050        6.5888307E-18
   16.51200        6.5731184E-18
   16.67350        6.5595749E-18
   16.83500        6.5547562E-18
   16.99650        6.5597048E-18
   17.15800        6.5694337E-18
   17.31950        6.5760689E-18
   17.48100        6.5737441E-18
   17.64250        6.5622844E-18
   17.80400        6.5474294E-18
   17.96550        6.5374491E-18
   18.12700        6.5381712E-18
   18.28850        6.5494209E-18
   18.45000        6.5650165E-18
   18.61150        6.5763382E-18
   18.77300        6.5773424E-18
   18.93450        6.5680291E-18
   19.09600        6.5543037E-18
   19.25750        6.5443403E-18
   19.41900        6.5436360E-18
   19.58050        6.5517250E-18
   19.74200        6.5625127E-18
   19.90350        6.5680196E-18
   20.06500        6.5632828E-18
   20.22650        6.5494722E-18
   20.38800        6.5333335E-18
   20.54950        6.5232816E-18
   20.71100        6.5244384E-18
   20.87250        6.5355772E-18
   21.03400        6.5497977E-18
   21.19550        6.5585459E-18
   21.35700        6.5566091E-18
   21.51850        6.5451187E-18
   21.68000        6.5307816E-18
   21.84150        6.5217918E-18
   22.00300        6.5228676E-18
   22.16450        6.5323888E-18
   22.32600        6.5433638E-18
   22.48750        6.5476743E-18
   22.64900        6.5410469E-18
   22.81050        6.5257548E-18
   22.97200        6.5093853E-18
   23.13350        6.5003567E-18
   23.29500        6.5028630E-18
   23.45650        6.5142827E-18
   23.61800        6.5266560E-18
   23.77950        6.5313763E-18
   23.94100        6.5243147E-18
   24.10250        6.5082984E-18
   24.26400        6.4914376E-18
   24.42550        6.4823059E-18
   24.58700        6.4848619E-18
   24.74850        6.4961777E-18
   24.91000        6.5083290E-18
   25.07150        6.5132925E-18
   25.23300        6.5078625E-18
   25.39450        6.4955875E-18
   25.55600        6.4845509E-18
   25.71750        6.4823349E-18
   25.87900        6.4912407E-18
   26.04050        6.5066887E-18
   26.20200        6.5197892E-18
   26.36350        6.5225627E-18
   26.52500        6.5126829E-18
   26.68650        6.4948869E-18
   26.84800        6.4782196E-18
   27.00950        6.4707614E-18
   27.17100        6.4749920E-18
   27.33250        6.4865436E-18
   27.49400        6.4970388E-18
   27.65550        6.4992751E-18
   27.81700        6.4916109E-18
   27.97850        6.4789290E-18
   28.14000        6.4696099E-18
   28.30150        6.4703577E-18
   28.46300        6.4819937E-18
   28.62450        6.4987598E-18
   28.78600        6.5115670E-18
   28.94750        6.5132665E-18
   29.10900        6.5028097E-18
   29.27050        6.4858330E-18
   29.43200        6.4713156E-18
   29.59350        6.4663025E-18
   29.75500        6.4718363E-18
   29.91650        6.4825135E-18
   30.07800        6.4899061E-18
   30.23950        6.4877901E-18
   30.40100        6.4760214E-18
   30.56250        6.4607024E-18
   30.72400        6.4505236E-18
   30.88550        6.4514661E-18
   31.04700        6.4630603E-18
   31.20850        6.4784930E-18
   31.37000        6.4885462E-18
   31.53150        6.4870300E-18
   31.69300        6.4744576E-18
   31.85450        6.4577287E-18
   32.01600        6.4460006E-18
   32.17750        6.4452085E-18
   32.33900        6.4545462E-18
   32.50050        6.4670196E-18
   32.66200        6.4737504E-18
   32.82350        6.4694102E-18
   32.98500        6.4554912E-18
   33.14650        6.4394282E-18
   33.30800        6.4301030E-18
   33.46950        6.4324629E-18
   33.63100        6.4445269E-18
   33.79250        6.4585857E-18
   33.95400        6.4658616E-18
   34.11550        6.4617985E-18
   34.27700        6.4487728E-18
   34.43850        6.4345962E-18
   34.60000        6.4277397E-18
   34.76150        6.4321895E-18
   34.92300        6.4450315E-18
   35.08450        6.4582234E-18
   35.24600        6.4634462E-18
   35.40750        6.4571030E-18
   35.56900        6.4424511E-18
   35.73050        6.4276119E-18
   35.89200        6.4206801E-18
   36.05350        6.4248839E-18
   36.21500        6.4367014E-18
   36.37650        6.4480387E-18
   36.53800        6.4511344E-18
   36.69950        6.4432460E-18
   36.86100        6.4283096E-18
   37.02250        6.4145966E-18
   37.18400        6.4097762E-18
   37.34550        6.4163486E-18
   37.50700        6.4301605E-18
   37.66850        6.4428912E-18
   37.83000        6.4470031E-18
   37.99150        6.4402053E-18
   38.15300        6.4267487E-18
   38.31450        6.4147956E-18
   38.47600        6.4114372E-18
   38.63750        6.4183529E-18
   38.79900        6.4307399E-18
   38.96050        6.4401631E-18
   39.12200        6.4396358E-18
   39.28350        6.4278696E-18
   39.44500        6.4101278E-18
   39.60650        6.3951480E-18
   39.76800        6.3899665E-18
   39.92950        6.3957688E-18
   40.09100        6.4072612E-18
   40.25250        6.4159582E-18
   40.41400        6.4153858E-18
   40.57550        6.4050435E-18
   40.73700        6.3907130E-18
   40.89850        6.3809209E-18
   41.06000        6.3817100E-18
   41.22150        6.3929088E-18
   41.38300        6.4081728E-18
   41.54450        6.4187805E-18
   41.70600        6.4188732E-18
   41.86750        6.4089569E-18
   42.02900        6.3955450E-18
   42.19050        6.3871777E-18
   42.35200        6.3892473E-18
   42.51350        6.4007687E-18
   42.67500        6.4150181E-18
   42.83650        6.4236245E-18
   42.99800        6.4215962E-18
   43.15950        6.4102444E-18
   43.32100        6.3962688E-18
   43.48250        6.3876124E-18
   43.64400        6.3886356E-18
   43.80550        6.3975323E-18
   43.96700        6.4075313E-18
   44.12850        6.4111113E-18
   44.29000        6.4046655E-18
   44.45150        6.3907846E-18
   44.61300        6.3767990E-18
   44.77450        6.3704475E-18
   44.93600        6.3752708E-18
   45.09750        6.3884660E-18
   45.25900        6.4024689E-18
   45.42050        6.4093093E-18
   45.58200        6.4051569E-18
   45.74350        6.3923852E-18
   45.90500        6.3779790E-18
   46.06650        6.3692783E-18
   46.22800        6.3696344E-18
   46.38950        6.3765691E-18
   46.55100        6.3835095E-18
   46.71250        6.3840162E-18
   46.87400        6.3759102E-18
   47.03550        6.3627775E-18
   47.19700        6.3518972E-18
   47.35850        6.3498313E-18
   47.52000        6.3583343E-18
   47.68150        6.3730953E-18
   47.84300        6.3861189E-18
   48.00450        6.3903648E-18
   48.16600        6.3838698E-18
   48.32750        6.3708744E-18
   48.48900        6.3592620E-18
   48.65050        6.3558490E-18
   48.81200        6.3623676E-18
   48.97350        6.3745499E-18
   49.13500        6.3848504E-18
   49.29650        6.3871119E-18
   49.45800        6.3803224E-18
   49.61950        6.3691658E-18
   49.78100        6.3610665E-18
   49.94250        6.3615516E-18
   50.10400        6.3707970E-18
   50.26550        6.3834661E-18
   50.42700        6.3919286E-18
   50.58850        6.3908789E-18
   50.75000        6.3805346E-18
   50.91150        6.3664882E-18
   51.07300        6.3563271E-18
   51.23450        6.3551017E-18
   51.39600        6.3623887E-18
   51.55750        6.3726797E-18
   51.71900        6.3788074E-18
   51.88050        6.3762907E-18
   52.04200        6.3659663E-18
   52.20350        6.3533547E-18
   52.36500        6.3452069E-18
   52.52650        6.3453579E-18
   52.68800        6.3523931E-18
   52.84950        6.3605230E-18
   53.01100        6.3631005E-18
   53.17250        6.3566576E-18
   53.33400        6.3430348E-18
   53.49550        6.3283494E-18
   53.65700        6.3194270E-18
   53.81850        6.3198290E-18
   53.98000        6.3278361E-18
   54.14150        6.3375559E-18
   54.30300        6.3424814E-18
   54.46450        6.3393617E-18
   54.62600        6.3300770E-18
   54.78750        6.3204147E-18
   54.94900        6.3164910E-18
   55.11050        6.3209830E-18
   55.27200        6.3314385E-18
   55.43350        6.3416972E-18
   55.59500        6.3455688E-18
   55.75650        6.3405586E-18
   55.91800        6.3293879E-18
   56.07950        6.3183802E-18
   56.24100        6.3136926E-18
   56.40250        6.3176726E-18
   56.56400        6.3275578E-18
   56.72550        6.3372983E-18
   56.88700        6.3413688E-18
   57.04850        6.3382210E-18
   57.21000        6.3312354E-18
   57.37150        6.3265788E-18
   57.53300        6.3292837E-18
   57.69450        6.3399738E-18
   57.85600        6.3542654E-18
   58.01750        6.3652384E-18
   58.17900        6.3674821E-18
   58.34050        6.3602596E-18
   58.50200        6.3478874E-18
   58.66350        6.3371212E-18
   58.82500        6.3331715E-18
   58.98650        6.3367515E-18
   59.14800        6.3439099E-18
   59.30950        6.3486596E-18
   59.47100        6.3467285E-18
   59.63250        6.3381250E-18
   59.79400        6.3269887E-18
   59.95550        6.3188889E-18
   60.11700        6.3172941E-18
   60.27850        6.3213887E-18
   60.44000        6.3265644E-18
   60.60150        6.3272666E-18
   60.76300        6.3204436E-18
   60.92450        6.3075169E-18
   61.08600        6.2936897E-18
   61.24750        6.2850171E-18
   61.40900        6.2849696E-18
   61.57050        6.2925131E-18
   61.73200        6.3027912E-18
   61.89350        6.3099686E-18
   62.05500        6.3105290E-18
   62.21650        6.3050961E-18
   62.37800        6.2977578E-18
   62.53950        6.2933580E-18
   62.70100        6.2944334E-18
   62.86250        6.2996541E-18
   63.02400        6.3047094E-18
   63.18550        6.3050891E-18
   63.34700        6.2990664E-18
   63.50850        6.2890306E-18
   63.67000        6.2803167E-18
   63.83150        6.2781821E-18
   63.99300        6.2847181E-18
   64.15450        6.2975560E-18
   64.31600        6.3111594E-18
   64.47750        6.3199531E-18
   64.63900        6.3214114E-18
   64.80050        6.3172644E-18
   64.96200        6.3121288E-18
   65.12350        6.3104372E-18
   65.28500        6.3135917E-18
   65.44650        6.3191057E-18
   65.60800        6.3222605E-18
   65.76950        6.3192252E-18
   65.93100        6.3096721E-18
   66.09250        6.2972313E-18
   66.25400        6.2874755E-18
   66.41550        6.2846544E-18
   66.57700        6.2891816E-18
   66.73850        6.2974091E-18
   66.90000        6.3038057E-18
   67.06150        6.3042011E-18
   67.22300        6.2981259E-18
   67.38450        6.2888706E-18
   67.54600        6.2813093E-18
   67.70750        6.2788828E-18
   67.86900        6.2816046E-18
   68.03050        6.2862641E-18
   68.19200        6.2886278E-18
   68.35350        6.2862116E-18
   68.51500        6.2799068E-18
   68.67650        6.2734631E-18
   68.83800        6.2711830E-18
   68.99950        6.2752465E-18
   69.16100        6.2842917E-18
   69.32250        6.2940971E-18
   69.48400        6.2999436E-18
   69.64550        6.2992488E-18
   69.80700        6.2929266E-18
   69.96850        6.2847185E-18
   70.13000        6.2789279E-18
   70.29150        6.2779274E-18
   70.45300        6.2809061E-18
   70.61450        6.2845651E-18
   70.77600        6.2852976E-18
   70.93750        6.2815173E-18
   71.09900        6.2747270E-18
   71.26050        6.2686683E-18
   71.42200        6.2670644E-18
   71.58350        6.2713141E-18
   71.74500        6.2795321E-18
   71.90650        6.2875388E-18
   72.06800        6.2912272E-18
   72.22950        6.2888941E-18
   72.39100        6.2821427E-18
   72.55250        6.2748147E-18
   72.71400        6.2706163E-18
   72.87550        6.2709038E-18
   73.03700        6.2739792E-18
   73.19850        6.2763371E-18
   73.36000        6.2750562E-18
   73.52150        6.2698276E-18
   73.68300        6.2633177E-18
   73.84450        6.2596086E-18
   74.00600        6.2616662E-18
   74.16750        6.2694173E-18
   74.32900        6.2796347E-18
   74.49050        6.2877340E-18
   74.65200        6.2903785E-18
   74.81350        6.2873134E-18
   74.97500        6.2813287E-18
   75.13650        6.2764240E-18
   75.29800        6.2753395E-18
   75.45950        6.2779960E-18
   75.62100        6.2817585E-18
   75.78250        6.2832933E-18
   75.94400        6.2808060E-18
   76.10550        6.2752366E-18
   76.26700        6.2696853E-18
   76.42850        6.2674549E-18
   76.59000        6.2699529E-18
   76.75150        6.2757523E-18
   76.91300        6.2813800E-18
   77.07450        6.2833264E-18
   77.23600        6.2800536E-18
   77.39750        6.2728100E-18
   77.55900        6.2648000E-18
   77.72050        6.2592711E-18
   77.88200        6.2576780E-18
   78.04350        6.2590114E-18
   78.20500        6.2606376E-18
   78.36650        6.2600847E-18
   78.52800        6.2566593E-18
   78.68950        6.2519188E-18
   78.85100        6.2487163E-18
   79.01250        6.2494203E-18
   79.17400        6.2543887E-18
   79.33550        6.2616307E-18
   79.49700        6.2678726E-18
   79.65850        6.2704120E-18
   79.82000        6.2686621E-18
   79.98150        6.2644679E-18
   80.14300        6.2610012E-18
   80.30450        6.2608957E-18
   80.46600        6.2647318E-18
   80.62750        6.2707764E-18
   80.78900        6.2761241E-18
   80.95050        6.2785312E-18
   81.11200        6.2777934E-18
   81.27350        6.2758139E-18
   81.43500        6.2753077E-18
   81.59650        6.2779505E-18
   81.75800        6.2831485E-18
   81.91950        6.2882307E-18
   82.08100        6.2899819E-18
   82.24250        6.2865801E-18
   82.40400        6.2787397E-18
   82.56550        6.2693338E-18
   82.72700        6.2617291E-18
   82.88850        6.2578649E-18
   83.05000        6.2572599E-18
   83.21150        6.2575609E-18
   83.37300        6.2562308E-18
   83.53450        6.2522959E-18
   83.69600        6.2470165E-18
   83.85750        6.2430708E-18
   84.01900        6.2427842E-18
   84.18050        6.2465532E-18
   84.34200        6.2524767E-18
   84.50350        6.2574336E-18
   84.66500        6.2589324E-18
   84.82650        6.2565650E-18
   84.98800        6.2521810E-18
   85.14950        6.2486849E-18
   85.31100        6.2482324E-18
   85.47250        6.2509427E-18
   85.63400        6.2548970E-18
   85.79550        6.2573802E-18
   85.95700        6.2565679E-18
   86.11850        6.2526152E-18
   86.28000        6.2475053E-18
   86.44150        6.2437942E-18
   86.60300        6.2430547E-18
   86.76450        6.2449725E-18
   86.92600        6.2476220E-18
   87.08750        6.2487225E-18
   87.24900        6.2470868E-18
   87.41050        6.2433715E-18
   87.57200        6.2396930E-18
   87.73350        6.2383464E-18
   87.89500        6.2404118E-18
   88.05650        6.2450941E-18
   88.21800        6.2501916E-18
   88.37950        6.2534114E-18
   88.54100        6.2537419E-18
   88.70250        6.2520453E-18
   88.86400        6.2504985E-18
   89.02550        6.2512090E-18
   89.18700        6.2548445E-18
   89.34850        6.2601207E-18
   89.51000        6.2644985E-18
   89.67150        6.2656917E-18
   89.83300        6.2630816E-18
   89.99450        6.2581627E-18
   90.15600        6.2537166E-18
   90.31750        6.2521959E-18
   90.47900        6.2542961E-18
   90.64050        6.2586082E-18
   90.80200        6.2625613E-18
   90.96350        6.2640791E-18
   91.12500        6.2628905E-18
   91.28650        6.2606563E-18
   91.44800        6.2598208E-18
   91.60950        6.2619161E-18
   91.77100        6.2664283E-18
   91.93250        6.2709741E-18
   92.09400        6.2727194E-18
   92.25550        6.2701539E-18
   92.41700        6.2640944E-18
   92.57850        6.2572557E-18
   92.74000        6.2526463E-18
   92.90150        6.2517682E-18
   93.06300        6.2537588E-18
   93.22450        6.2559889E-18
   93.38600        6.2557362E-18
   93.54750        6.2518699E-18
   93.70900        6.2455114E-18
   93.87050        6.2392724E-18
   94.03200        6.2356001E-18
   94.19350        6.2352792E-18
   94.35500        6.2370283E-18
   94.51650        6.2384208E-18
   94.67800        6.2375138E-18
   94.83950        6.2341567E-18
   95.00100        6.2301469E-18
   95.16250        6.2281460E-18
   95.32400        6.2300336E-18
   95.48550        6.2357060E-18
   95.64700        6.2430551E-18
   95.80850        6.2491340E-18
   95.97000        6.2518116E-18
   96.13150        6.2509253E-18
   96.29300        6.2482709E-18
   96.45450        6.2464461E-18
   96.61600        6.2472609E-18
   96.77750        6.2506631E-18
   96.93900        6.2548176E-18
   97.10050        6.2572781E-18
   97.26200        6.2565427E-18
   97.42350        6.2530396E-18
   97.58500        6.2489285E-18
   97.74650        6.2468142E-18
   97.90800        6.2481294E-18
   98.06950        6.2521760E-18
   98.23100        6.2564352E-18
   98.39250        6.2580118E-18
   98.55400        6.2553652E-18
   98.71550        6.2492776E-18
   98.87700        6.2424479E-18
   99.03850        6.2379138E-18
   99.20000        6.2372437E-18
   99.36150        6.2396111E-18
   99.52300        6.2423375E-18
   99.68450        6.2425931E-18
   99.84600        6.2392095E-18
   100.0075        6.2334689E-18
   100.1690        6.2283416E-18
   100.3305        6.2266385E-18
   100.4920        6.2292143E-18
   100.6535        6.2343751E-18
   100.8150        6.2388758E-18
   100.9765        6.2399114E-18
   101.1380        6.2368546E-18
   101.2995        6.2316417E-18
   101.4610        6.2275587E-18
   101.6225        6.2271761E-18
   101.7840        6.2307400E-18
   101.9455        6.2360150E-18
   102.1070        6.2396951E-18
   102.2685        6.2394825E-18
   102.4300        6.2355460E-18
   102.5915        6.2304439E-18
   102.7530        6.2275736E-18
   102.9145        6.2291035E-18
   103.0760        6.2346675E-18
   103.2375        6.2416050E-18
   103.3990        6.2465785E-18
   103.5605        6.2475653E-18
   103.7220        6.2450077E-18
   103.8835        6.2414483E-18
   104.0450        6.2399011E-18
   104.2065        6.2419649E-18
   104.3680        6.2468258E-18
   104.5295        6.2517376E-18
   104.6910        6.2536815E-18
   104.8525        6.2511954E-18
   105.0140        6.2452877E-18
   105.1755        6.2388787E-18
   105.3370        6.2351075E-18
   105.4985        6.2354959E-18
   105.6600        6.2390577E-18
   105.8215        6.2428897E-18
   105.9830        6.2438934E-18
   106.1445        6.2406310E-18
   106.3060        6.2341985E-18
   106.4675        6.2275988E-18
   106.6290        6.2239592E-18
   106.7905        6.2246673E-18
   106.9520        6.2285435E-18
   107.1135        6.2325826E-18
   107.2750        6.2338345E-18
   107.4365        6.2312980E-18
   107.5980        6.2266335E-18
   107.7595        6.2232218E-18
   107.9210        6.2240891E-18
   108.0825        6.2299517E-18
   108.2440        6.2386032E-18
   108.4055        6.2460656E-18
   108.5670        6.2488536E-18
   108.7285        6.2459850E-18
   108.8900        6.2395127E-18
   109.0515        6.2332365E-18
   109.2130        6.2303848E-18
   109.3745        6.2317012E-18
   109.5360        6.2351175E-18
   109.6975        6.2372069E-18
   109.8590        6.2354951E-18
   110.0205        6.2301705E-18
   110.1820        6.2240978E-18
   110.3435        6.2211088E-18
   110.5050        6.2236304E-18
   110.6665        6.2311102E-18
   110.8280        6.2402282E-18
   110.9895        6.2467724E-18
   111.1510        6.2480463E-18
   111.3125        6.2443567E-18
   111.4740        6.2387132E-18
   111.6355        6.2349487E-18
   111.7970        6.2354239E-18
   111.9585        6.2396922E-18
   112.1200        6.2448914E-18
   112.2815        6.2475843E-18
   112.4430        6.2459072E-18
   112.6045        6.2407270E-18
   112.7660        6.2351274E-18
   112.9275        6.2325449E-18
   113.0890        6.2346782E-18
   113.2505        6.2404193E-18
   113.4120        6.2464399E-18
   113.5735        6.2490948E-18
   113.7350        6.2465276E-18
   113.8965        6.2397393E-18
   114.0580        6.2319887E-18
   114.2195        6.2268655E-18
   114.3810        6.2261723E-18
   114.5425        6.2288611E-18
   114.7040        6.2316830E-18
   114.8655        6.2311772E-18
   115.0270        6.2258282E-18
   115.1885        6.2170891E-18
   115.3500        6.2086291E-18
   115.5115        6.2042123E-18
   115.6730        6.2054755E-18
   115.8345        6.2109415E-18
   115.9960        6.2169108E-18
   116.1575        6.2197009E-18
   116.3190        6.2178981E-18
   116.4805        6.2132199E-18
   116.6420        6.2094459E-18