  -30.00000       -5.3501613E-19
  -29.83850       -5.4720541E-19
  -29.67700       -5.6987538E-19
  -29.51550       -6.0013970E-19
  -29.35400       -6.3437975E-19
  -29.19250       -6.6879858E-19
  -29.03100       -6.9998919E-19
  -28.86950       -7.2542763E-19
  -28.70800       -7.4381606E-19
  -28.54650       -7.5522355E-19
  -28.38500       -7.6101247E-19
  -28.22350       -7.6356251E-19
  -28.06200       -7.6583835E-19
  -27.90050       -7.7086424E-19
  -27.73900       -7.8119046E-19
  -27.57750       -7.9843314E-19
  -27.41600       -8.2296902E-19
  -27.25450       -8.5383656E-19
  -27.09300       -8.8887019E-19
  -26.93150       -9.2503990E-19
  -26.77000       -9.5894190E-19
  -26.60850       -9.8734997E-19
  -26.44700       -1.0077370E-18
  -26.28550       -1.0186774E-18
  -26.12400       -1.0200720E-18
  -25.96250       -1.0131646E-18
  -25.80100       -1.0003563E-18
  -25.63950       -9.8483989E-19
  -25.47800       -9.7012383E-19
  -25.31650       -9.5949642E-19
  -25.15500       -9.5552720E-19
  -24.99350       -9.5966920E-19
  -24.83200       -9.7203927E-19
  -24.67050       -9.9141298E-19
  -24.50900       -1.0154406E-18
  -24.34750       -1.0410453E-18
  -24.18600       -1.0649407E-18
  -24.02450       -1.0841794E-18
  -23.86300       -1.0966315E-18
  -23.70150       -1.1013257E-18
  -23.54000       -1.0985957E-18
  -23.37850       -1.0900181E-18
  -23.21700       -1.0781540E-18
  -23.05550       -1.0661441E-18
  -22.89400       -1.0572089E-18
  -22.73250       -1.0541388E-18
  -22.57100       -1.0588400E-18
  -22.40950       -1.0720155E-18
  -22.24800       -1.0930279E-18
  -22.08650       -1.1199791E-18
  -21.92500       -1.1499973E-18
  -21.76350       -1.1796914E-18
  -21.60200       -1.2056946E-18
  -21.44050       -1.2252058E-18
  -21.27900       -1.2364309E-18
  -21.11750       -1.2388588E-18
  -20.95600       -1.2333190E-18
  -20.79450       -1.2218323E-18
  -20.63300       -1.2072807E-18
  -20.47150       -1.1929531E-18
  -20.31000       -1.1820380E-18
  -20.14850       -1.1771366E-18
  -19.98700       -1.1798618E-18
  -19.82550       -1.1905874E-18
  -19.66400       -1.2083886E-18
  -19.50250       -1.2311905E-18
  -19.34100       -1.2561106E-18
  -19.17950       -1.2799367E-18
  -19.01800       -1.2996610E-18
  -18.85650       -1.3129752E-18
  -18.69500       -1.3186355E-18
  -18.53350       -1.3166392E-18
  -18.37200       -1.3081918E-18
  -18.21050       -1.2954825E-18
  -18.04900       -1.2813118E-18
  -17.88750       -1.2686420E-18
  -17.72600       -1.2601291E-18
  -17.56450       -1.2577140E-18
  -17.40300       -1.2623147E-18
  -17.24150       -1.2736836E-18
  -17.08000       -1.2904342E-18
  -16.91850       -1.3102658E-18
  -16.75700       -1.3303392E-18
  -16.59550       -1.3477502E-18
  -16.43400       -1.3600212E-18
  -16.27250       -1.3655199E-18
  -16.11100       -1.3637252E-18
  -15.94950       -1.3552983E-18
  -15.78800       -1.3419585E-18
  -15.62650       -1.3261841E-18
  -15.46500       -1.3108157E-18
  -15.30350       -1.2986105E-18
  -15.14200       -1.2918259E-18
  -14.98050       -1.2918804E-18
  -14.81900       -1.2991396E-18
  -14.65750       -1.3128497E-18
  -14.49600       -1.3312448E-18
  -14.33450       -1.3518159E-18
  -14.17300       -1.3717110E-18
  -14.01150       -1.3882078E-18
  -13.85000       -1.3991727E-18
  -13.68850       -1.4034257E-18
  -13.52700       -1.4009335E-18
  -13.36550       -1.3928044E-18
  -13.20400       -1.3810913E-18
  -13.04250       -1.3684467E-18
  -12.88100       -1.3577001E-18
  -12.71950       -1.3514213E-18
  -12.55800       -1.3515361E-18
  -12.39650       -1.3590374E-18
  -12.23500       -1.3738272E-18
  -12.07350       -1.3947091E-18
  -11.91200       -1.4195471E-18
  -11.75050       -1.4455775E-18
  -11.58900       -1.4698355E-18
  -11.42750       -1.4896324E-18
  -11.26600       -1.5029987E-18
  -11.10450       -1.5090045E-18
  -10.94300       -1.5078987E-18
  -10.78150       -1.5010408E-18
  -10.62000       -1.4906439E-18
  -10.45850       -1.4793929E-18
  -10.29700       -1.4700058E-18
  -10.13550       -1.4648133E-18
  -9.974000       -1.4654130E-18
  -9.812500       -1.4724357E-18
  -9.651000       -1.4854497E-18
  -9.489500       -1.5030123E-18
  -9.328000       -1.5228756E-18
  -9.166500       -1.5423256E-18
  -9.005000       -1.5586189E-18
  -8.843500       -1.5694434E-18
  -8.682000       -1.5733209E-18
  -8.520500       -1.5698686E-18
  -8.359000       -1.5598621E-18
  -8.197500       -1.5450945E-18
  -8.036000       -1.5280638E-18
  -7.874500       -1.5115601E-18
  -7.713000       -1.4982325E-18
  -7.551500       -1.4902068E-18
  -7.390000       -1.4887969E-18
  -7.228500       -1.4943378E-18
  -7.067000       -1.5061524E-18
  -6.905500       -1.5226543E-18
  -6.744000       -1.5415823E-18
  -6.582500       -1.5603532E-18
  -6.421000       -1.5764853E-18
  -6.259500       -1.5880259E-18
  -6.098000       -1.5938975E-18
  -5.936500       -1.5940926E-18
  -5.775000       -1.5896674E-18
  -5.613500       -1.5825418E-18
  -5.452000       -1.5751505E-18
  -5.290500       -1.5700293E-18
  -5.129000       -1.5694057E-18
  -4.967500       -1.5748675E-18
  -4.806000       -1.5871377E-18
  -4.644500       -1.6059737E-18
  -4.483000       -1.6301921E-18
  -4.321500       -1.6578096E-18
  -4.160000       -1.6863027E-18
  -3.998500       -1.7129613E-18
  -3.837000       -1.7352959E-18
  -3.675500       -1.7514336E-18
  -3.514000       -1.7604271E-18
  -3.352500       -1.7624005E-18
  -3.191000       -1.7584969E-18
  -3.029500       -1.7506415E-18
  -2.868000       -1.7411734E-18
  -2.706500       -1.7324320E-18
  -2.545000       -1.7263790E-18
  -2.383500       -1.7243131E-18
  -2.222000       -1.7267056E-18
  -2.060500       -1.7331555E-18
  -1.899000       -1.7424566E-18
  -1.737500       -1.7527678E-18
  -1.576000       -1.7618852E-18
  -1.414500       -1.7675981E-18
  -1.253000       -1.7680874E-18
  -1.091500       -1.7622977E-18
 -0.9300000       -1.7502015E-18
 -0.7685000       -1.7328783E-18
 -0.6070000       -1.7123817E-18
 -0.4455000       -1.6914124E-18
 -0.2840000       -1.6728759E-18
 -0.1225000       -1.6594207E-18
  3.9000001E-02   -1.6530398E-18
  0.2005000       -1.6548028E-18
  0.3620000       -1.6647228E-18
  0.5235000       -1.6817672E-18
  0.6850000       -1.7039883E-18
  0.8465000       -1.7287666E-18
   1.008000       -1.7531591E-18
   1.169500       -1.7743274E-18
   1.331000       -1.7899864E-18
   1.492500       -1.7988027E-18
   1.654000       -1.8006444E-18
   1.815500       -1.7966140E-18
   1.977000       -1.7888445E-18
   2.138500       -1.7800997E-18
   2.300000       -1.7732693E-18
   2.461500       -1.7708671E-18
   2.623000       -1.7746341E-18
   2.784500       -1.7852909E-18
   2.946000       -1.8024621E-18
   3.107500       -1.8247478E-18
   3.269000       -1.8499185E-18
   3.430500       -1.8752118E-18
   3.592000       -1.8977169E-18
   3.753500       -1.9148112E-18
   3.915000       -1.9245997E-18
   4.076500       -1.9262741E-18
   4.238000       -1.9202979E-18
   4.399500       -1.9083619E-18
   4.561000       -1.8930909E-18
   4.722500       -1.8775712E-18
   4.884000       -1.8648011E-18
   5.045500       -1.8571952E-18
   5.207000       -1.8562313E-18
   5.368500       -1.8622861E-18
   5.530000       -1.8746481E-18
   5.691500       -1.8916640E-18
   5.853000       -1.9109870E-18
   6.014500       -1.9298951E-18
   6.176000       -1.9456748E-18
   6.337500       -1.9560429E-18
   6.499000       -1.9595481E-18
   6.660500       -1.9558803E-18
   6.822000       -1.9459817E-18
   6.983500       -1.9319206E-18
   7.145000       -1.9165206E-18
   7.306500       -1.9028388E-18
   7.468000       -1.8936123E-18
   7.629500       -1.8907994E-18
   7.791000       -1.8953045E-18
   7.952500       -1.9068976E-18
   8.114000       -1.9243036E-18
   8.275500       -1.9454101E-18
   8.437000       -1.9675554E-18
   8.598500       -1.9878716E-18
   8.760000       -2.0036821E-18
   8.921500       -2.0129200E-18
   9.083000       -2.0145132E-18
   9.244500       -2.0086404E-18
   9.406000       -1.9967735E-18
   9.567500       -1.9814615E-18
   9.729000       -1.9658805E-18
   9.890500       -1.9532501E-18
   10.05200       -1.9462478E-18
   10.21350       -1.9465673E-18
   10.37500       -1.9546826E-18
   10.53650       -1.9698343E-18
   10.69800       -1.9902015E-18
   10.85950       -2.0131854E-18
   11.02100       -2.0357635E-18
   11.18250       -2.0548914E-18
   11.34400       -2.0679335E-18
   11.50550       -2.0730939E-18
   11.66700       -2.0697798E-18
   11.82850       -2.0588035E-18
   11.99000       -2.0423358E-18
   12.15150       -2.0235708E-18
   12.31300       -2.0061618E-18
   12.47450       -1.9935433E-18
   12.63600       -1.9883166E-18
   12.79750       -1.9918271E-18
   12.95900       -2.0040125E-18
   13.12050       -2.0235001E-18
   13.28200       -2.0478854E-18
   13.44350       -2.0741113E-18
   13.60500       -2.0988833E-18
   13.76650       -2.1191029E-18
   13.92800       -2.1323072E-18
   14.08950       -2.1370738E-18
   14.25100       -2.1333286E-18
   14.41250       -2.1224493E-18
   14.57400       -2.1070917E-18
   14.73550       -2.0907329E-18
   14.89700       -2.0770164E-18
   15.05850       -2.0690504E-18
   15.22000       -2.0688405E-18
   15.38150       -2.0769769E-18
   15.54300       -2.0926174E-18
   15.70450       -2.1137143E-18
   15.86600       -2.1373892E-18
   16.02750       -2.1603710E-18
   16.18900       -2.1794334E-18
   16.35050       -2.1918233E-18
   16.51200       -2.1956693E-18
   16.67350       -2.1903312E-18
   16.83500       -2.1766193E-18
   16.99650       -2.1567866E-18
   17.15800       -2.1342391E-18
   17.31950       -2.1129806E-18
   17.48100       -2.0968948E-18
   17.64250       -2.0890405E-18
   17.80400       -2.0911271E-18
   17.96550       -2.1032856E-18
   18.12700       -2.1241485E-18
   18.28850       -2.1511659E-18
   18.45000       -2.1810555E-18
   18.61150       -2.2102859E-18
   18.77300       -2.2355396E-18
   18.93450       -2.2541406E-18
   19.09600       -2.2644386E-18
   19.25750       -2.2661091E-18
   19.41900       -2.2602917E-18
   19.58050       -2.2494825E-18
   19.74200       -2.2371331E-18
   19.90350       -2.2269987E-18
   20.06500       -2.2223748E-18
   20.22650       -2.2254130E-18
   20.38800       -2.2366937E-18
   20.54950       -2.2551477E-18
   20.71100       -2.2783127E-18
   20.87250       -2.3028158E-18
   21.03400       -2.3249439E-18
   21.19550       -2.3411941E-18
   21.35700       -2.3487475E-18
   21.51850       -2.3458586E-18
   21.68000       -2.3321619E-18
   21.84150       -2.3088389E-18
   22.00300       -2.2785945E-18
   22.16450       -2.2453499E-18
   22.32600       -2.2136567E-18
   22.48750       -2.1879099E-18
   22.64900       -2.1715327E-18
   22.81050       -2.1663480E-18
   22.97200       -2.1722911E-18
   23.13350       -2.1875230E-18
   23.29500       -2.2088744E-18
   23.45650       -2.2324769E-18
   23.61800       -2.2544260E-18
   23.77950       -2.2713550E-18
   23.94100       -2.2808899E-18
   24.10250       -2.2819676E-18
   24.26400       -2.2750209E-18
   24.42550       -2.2620002E-18
   24.58700       -2.2461643E-18
   24.74850       -2.2316109E-18
   24.91000       -2.2225694E-18
   25.07150       -2.2225832E-18
   25.23300       -2.2337665E-18
   25.39450       -2.2563392E-18
   25.55600       -2.2885633E-18
   25.71750       -2.3270807E-18
   25.87900       -2.3675551E-18
   26.04050       -2.4054265E-18
   26.20200       -2.4366187E-18
   26.36350       -2.4580842E-18
   26.52500       -2.4681630E-18
   26.68650       -2.4667566E-18
   26.84800       -2.4553434E-18
   27.00950       -2.4368182E-18
   27.17100       -2.4151232E-18
   27.33250       -2.3946577E-18
   27.49400       -2.3795248E-18
   27.65550       -2.3727463E-18
   27.81700       -2.3756439E-18
   27.97850       -2.3875632E-18
   28.14000       -2.4060248E-18
   28.30150       -2.4272674E-18
   28.46300       -2.4470211E-18
   28.62450       -2.4613113E-18
   28.78600       -2.4671175E-18
   28.94750       -2.4627996E-18
   29.10900       -2.4482826E-18
   29.27050       -2.4250460E-18
   29.43200       -2.3959559E-18
   29.59350       -2.3649340E-18
   29.75500       -2.3364533E-18
   29.91650       -2.3148627E-18
   30.07800       -2.3036308E-18
   30.23950       -2.3046513E-18
   30.40100       -2.3178149E-18
   30.56250       -2.3409811E-18
   30.72400       -2.3703868E-18
   30.88550       -2.4013926E-18
   31.04700       -2.4293627E-18
   31.20850       -2.4504661E-18
   31.37000       -2.4622400E-18
   31.53150       -2.4638633E-18
   31.69300       -2.4561625E-18
   31.85450       -2.4414246E-18
   32.01600       -2.4230649E-18
   32.17750       -2.4051616E-18
   32.33900       -2.3918705E-18
   32.50050       -2.3867457E-18
   32.66200       -2.3920682E-18
   32.82350       -2.4083376E-18
   32.98500       -2.4340745E-18
   33.14650       -2.4660413E-18
   33.30800       -2.4998459E-18
   33.46950       -2.5307897E-18
   33.63100       -2.5547440E-18
   33.79250       -2.5688557E-18
   33.95400       -2.5719456E-18
   34.11550       -2.5645858E-18
   34.27700       -2.5489070E-18
   34.43850       -2.5282360E-18
   34.60000       -2.5066209E-18
   34.76150       -2.4882854E-18
   34.92300       -2.4770254E-18
   35.08450       -2.4755890E-18
   35.24600       -2.4851366E-18
   35.40750       -2.5049151E-18
   35.56900       -2.5322803E-18
   35.73050       -2.5631192E-18
   35.89200       -2.5926099E-18
   36.05350       -2.6161458E-18
   36.21500       -2.6301998E-18
   36.37650       -2.6329233E-18
   36.53800       -2.6243817E-18
   36.69950       -2.6064343E-18
   36.86100       -2.5823543E-18
   37.02250       -2.5562956E-18
   37.18400       -2.5327003E-18
   37.34550       -2.5156736E-18
   37.50700       -2.5083661E-18
   37.66850       -2.5124170E-18
   37.83000       -2.5275589E-18
   37.99150       -2.5515168E-18
   38.15300       -2.5803004E-18
   38.31450       -2.6088884E-18
   38.47600       -2.6321778E-18
   38.63750       -2.6459756E-18
   38.79900       -2.6477921E-18
   38.96050       -2.6372532E-18
   39.12200       -2.6160776E-18
   39.28350       -2.5876821E-18
   39.44500       -2.5565473E-18
   39.60650       -2.5274954E-18
   39.76800       -2.5049773E-18
   39.92950       -2.4924381E-18
   40.09100       -2.4917954E-18
   40.25250       -2.5030965E-18
   40.41400       -2.5244272E-18
   40.57550       -2.5521485E-18
   40.73700       -2.5814884E-18
   40.89850       -2.6074061E-18
   41.06000       -2.6255693E-18
   41.22150       -2.6332058E-18
   41.38300       -2.6296272E-18
   41.54450       -2.6163107E-18
   41.70600       -2.5965392E-18
   41.86750       -2.5747314E-18
   42.02900       -2.5556345E-18
   42.19050       -2.5435427E-18
   42.35200       -2.5416590E-18
   42.51350       -2.5516402E-18
   42.67500       -2.5733490E-18
   42.83650       -2.6048193E-18
   42.99800       -2.6424713E-18
   43.15950       -2.6815917E-18
   43.32100       -2.7170631E-18
   43.48250       -2.7442463E-18
   43.64400       -2.7598350E-18
   43.80550       -2.7624896E-18
   43.96700       -2.7530752E-18
   44.12850       -2.7344465E-18
   44.29000       -2.7108481E-18
   44.45150       -2.6870937E-18
   44.61300       -2.6677253E-18
   44.77450       -2.6563127E-18
   44.93600       -2.6549762E-18
   45.09750       -2.6641428E-18
   45.25900       -2.6825151E-18
   45.42050       -2.7072414E-18
   45.58200       -2.7342914E-18
   45.74350       -2.7590431E-18
   45.90500       -2.7770376E-18
   46.06650       -2.7847914E-18
   46.22800       -2.7804969E-18
   46.38950       -2.7644217E-18
   46.55100       -2.7388974E-18
   46.71250       -2.7078878E-18
   46.87400       -2.6762484E-18
   47.03550       -2.6488631E-18
   47.19700       -2.6298452E-18
   47.35850       -2.6219417E-18
   47.52000       -2.6261969E-18
   47.68150       -2.6418596E-18
   47.84300       -2.6665251E-18
   48.00450       -2.6964698E-18
   48.16600       -2.7271773E-18
   48.32750       -2.7540284E-18
   48.48900       -2.7730769E-18
   48.65050       -2.7817857E-18
   48.81200       -2.7795550E-18
   48.97350       -2.7678909E-18
   49.13500       -2.7501493E-18
   49.29650       -2.7308863E-18
   49.45800       -2.7149685E-18
   49.61950       -2.7066491E-18
   49.78100       -2.7088006E-18
   49.94250       -2.7224472E-18
   50.10400       -2.7466311E-18
   50.26550       -2.7785950E-18
   50.42700       -2.8142074E-18
   50.58850       -2.8485666E-18
   50.75000       -2.8767228E-18
   50.91150       -2.8944477E-18
   51.07300       -2.8989645E-18
   51.23450       -2.8895057E-18
   51.39600       -2.8675618E-18
   51.55750       -2.8367166E-18
   51.71900       -2.8020547E-18
   51.88050       -2.7692462E-18
   52.04200       -2.7435037E-18
   52.20350       -2.7286496E-18
   52.36500       -2.7264952E-18
   52.52650       -2.7366255E-18
   52.68800       -2.7565829E-18
   52.84950       -2.7823647E-18
   53.01100       -2.8091124E-18
   53.17250       -2.8318851E-18
   53.33400       -2.8464321E-18
   53.49550       -2.8498881E-18
   53.65700       -2.8412988E-18
   53.81850       -2.8218762E-18
   53.98000       -2.7948828E-18
   54.14150       -2.7651186E-18
   54.30300       -2.7380739E-18
   54.46450       -2.7189110E-18
   54.62600       -2.7115061E-18
   54.78750       -2.7177573E-18
   54.94900       -2.7373106E-18
   55.11050       -2.7677147E-18
   55.27200       -2.8049281E-18
   55.43350       -2.8440411E-18
   55.59500       -2.8800597E-18
   55.75650       -2.9086400E-18
   55.91800       -2.9266916E-18
   56.07950       -2.9328032E-18
   56.24100       -2.9274377E-18
   56.40250       -2.9128566E-18
   56.56400       -2.8927571E-18
   56.72550       -2.8716361E-18
   56.88700       -2.8539874E-18
   57.04850       -2.8434780E-18
   57.21000       -2.8422865E-18
   57.37150       -2.8507485E-18
   57.53300       -2.8673831E-18
   57.69450       -2.8892633E-18
   57.85600       -2.9126218E-18
   58.01750       -2.9335450E-18
   58.17900       -2.9486139E-18
   58.34050       -2.9554051E-18
   58.50200       -2.9528189E-18
   58.66350       -2.9412274E-18
   58.82500       -2.9224390E-18
   58.98650       -2.8994750E-18
   59.14800       -2.8761438E-18
   59.30950       -2.8564486E-18
   59.47100       -2.8439009E-18
   59.63250       -2.8408801E-18
   59.79400       -2.8481874E-18
   59.95550       -2.8649101E-18
   60.11700       -2.8886249E-18
   60.27850       -2.9158807E-18
   60.44000       -2.9428224E-18
   60.60150       -2.9658189E-18
   60.76300       -2.9819785E-18
   60.92450       -2.9895037E-18
   61.08600       -2.9878849E-18
   61.24750       -2.9779435E-18
   61.40900       -2.9617282E-18
   61.57050       -2.9422550E-18
   61.73200       -2.9230764E-18
   61.89350       -2.9077189E-18
   62.05500       -2.8990699E-18
   62.21650       -2.8988452E-18
   62.37800       -2.9072638E-18
   62.53950       -2.9230187E-18
   62.70100       -2.9435383E-18
   62.86250       -2.9654793E-18
   63.02400       -2.9853165E-18
   63.18550       -2.9999115E-18
   63.34700       -3.0069748E-18
   63.50850       -3.0053707E-18
   63.67000       -2.9952644E-18
   63.83150       -2.9781108E-18
   63.99300       -2.9564850E-18
   64.15450       -2.9337513E-18
   64.31600       -2.9135841E-18
   64.47750       -2.8993851E-18
   64.63900       -2.8936933E-18
   64.80050       -2.8977113E-18
   64.96200       -2.9110676E-18
   65.12350       -2.9318790E-18
   65.28500       -2.9571080E-18
   65.44650       -2.9831270E-18
   65.60800       -3.0063565E-18
   65.76950       -3.0238412E-18
   65.93100       -3.0336700E-18
   66.09250       -3.0352053E-18
   66.25400       -3.0291187E-18
   66.41550       -3.0172689E-18
   66.57700       -3.0024317E-18
   66.73850       -2.9879027E-18
   66.90000       -2.9769877E-18
   67.06150       -2.9724433E-18
   67.22300       -2.9759580E-18
   67.38450       -2.9877964E-18
   67.54600       -3.0067105E-18
   67.70750       -3.0301541E-18
   67.86900       -3.0547596E-18
   68.03050       -3.0769605E-18
   68.19200       -3.0936077E-18
   68.35350       -3.1024604E-18
   68.51500       -3.1024809E-18
   68.67650       -3.0939218E-18
   68.83800       -3.0782412E-18
   68.99950       -3.0578805E-18
   69.16100       -3.0359276E-18
   69.32250       -3.0156912E-18
   69.48400       -3.0002199E-18
   69.64550       -2.9918118E-18
   69.80700       -2.9916271E-18
   69.96850       -2.9994762E-18
   70.13000       -3.0138601E-18
   70.29150       -3.0322652E-18
   70.45300       -3.0516397E-18
   70.61450       -3.0689472E-18
   70.77600       -3.0816713E-18
   70.93750       -3.0881822E-18
   71.09900       -3.0879264E-18
   71.26050       -3.0814436E-18
   71.42200       -3.0702512E-18
   71.58350       -3.0566288E-18
   71.74500       -3.0433160E-18
   71.90650       -3.0331454E-18
   72.06800       -3.0286199E-18
   72.22950       -3.0314842E-18
   72.39100       -3.0423666E-18
   72.55250       -3.0605883E-18
   72.71400       -3.0842031E-18
   72.87550       -3.1102876E-18
   73.03700       -3.1354318E-18
   73.19850       -3.1563198E-18
   73.36000       -3.1702747E-18
   73.52150       -3.1756752E-18
   73.68300       -3.1721760E-18
   73.84450       -3.1607413E-18
   74.00600       -3.1434997E-18
   74.16750       -3.1234603E-18
   74.32900       -3.1040989E-18
   74.49050       -3.0888432E-18
   74.65200       -3.0805052E-18
   74.81350       -3.0807461E-18
   74.97500       -3.0896995E-18
   75.13650       -3.1058548E-18
   75.29800       -3.1262739E-18
   75.45950       -3.1471127E-18
   75.62100       -3.1643385E-18
   75.78250       -3.1744917E-18
   75.94400       -3.1753115E-18
   76.10550       -3.1661293E-18
   76.26700       -3.1479682E-18
   76.42850       -3.1233660E-18
   76.59000       -3.0959747E-18
   76.75150       -3.0700054E-18
   76.91300       -3.0495814E-18
   77.07450       -3.0380814E-18
   77.23600       -3.0375586E-18
   77.39750       -3.0483434E-18
   77.55900       -3.0689226E-18
   77.72050       -3.0961532E-18
   77.88200       -3.1258010E-18
   78.04350       -3.1533099E-18
   78.20500       -3.1746381E-18
   78.36650       -3.1869844E-18
   78.52800       -3.1892470E-18
   78.68950       -3.1821402E-18
   78.85100       -3.1679735E-18
   79.01250       -3.1501728E-18
   79.17400       -3.1326546E-18
   79.33550       -3.1191732E-18
   79.49700       -3.1127251E-18
   79.65850       -3.1150782E-18
   79.82000       -3.1264770E-18
   79.98150       -3.1455774E-18
   80.14300       -3.1696341E-18
   80.30450       -3.1949545E-18
   80.46600       -3.2175492E-18
   80.62750       -3.2338719E-18
   80.78900       -3.2414842E-18
   80.95050       -3.2394972E-18
   81.11200       -3.2286890E-18
   81.27350       -3.2113029E-18
   81.43500       -3.1905932E-18
   81.59650       -3.1702406E-18
   81.75800       -3.1537644E-18
   81.91950       -3.1440107E-18
   82.08100       -3.1427596E-18
   82.24250       -3.1504807E-18
   82.40400       -3.1662431E-18
   82.56550       -3.1878197E-18
   82.72700       -3.2119944E-18
   82.88850       -3.2350680E-18
   83.05000       -3.2534893E-18
   83.21150       -3.2644974E-18
   83.37300       -3.2666301E-18
   83.53450       -3.2599794E-18
   83.69600       -3.2461481E-18
   83.85750       -3.2279241E-18
   84.01900       -3.2087709E-18
   84.18050       -3.1922451E-18
   84.34200       -3.1814438E-18
   84.50350       -3.1785565E-18
   84.66500       -3.1845556E-18
   84.82650       -3.1990412E-18
   84.98800       -3.2202638E-18
   85.14950       -3.2453379E-18
   85.31100       -3.2706515E-18
   85.47250       -3.2924359E-18
   85.63400       -3.3074153E-18
   85.79550       -3.3134043E-18
   85.95700       -3.3097192E-18
   86.11850       -3.2973036E-18
   86.28000       -3.2785341E-18
   86.44150       -3.2567666E-18
   86.60300       -3.2357316E-18
   86.76450       -3.2189206E-18
   86.92600       -3.2090592E-18
   87.08750       -3.2077398E-18
   87.24900       -3.2152153E-18
   87.41050       -3.2303696E-18
   87.57200       -3.2508583E-18
   87.73350       -3.2734324E-18
   87.89500       -3.2944360E-18
   88.05650       -3.3104256E-18
   88.21800       -3.3188120E-18
   88.37950       -3.3183713E-18
   88.54100       -3.3095023E-18
   88.70250       -3.2941484E-18
   88.86400       -3.2754096E-18
   89.02550       -3.2569430E-18
   89.18700       -3.2422972E-18
   89.34850       -3.2343196E-18
   89.51000       -3.2347192E-18
   89.67150       -3.2438274E-18
   89.83300       -3.2605485E-18
   89.99450       -3.2825033E-18
   90.15600       -3.3063489E-18
   90.31750       -3.3282729E-18
   90.47900       -3.3446095E-18
   90.64050       -3.3524991E-18
   90.80200       -3.3504487E-18
   90.96350       -3.3386612E-18
   91.12500       -3.3190407E-18
   91.28650       -3.2948558E-18
   91.44800       -3.2701380E-18
   91.60950       -3.2489524E-18
   91.77100       -3.2347043E-18
   91.93250       -3.2296035E-18
   92.09400       -3.2343614E-18
   92.25550       -3.2481340E-18
   92.41700       -3.2686826E-18
   92.57850       -3.2927264E-18
   92.74000       -3.3164309E-18
   92.90150       -3.3360051E-18
   93.06300       -3.3483285E-18
   93.22450       -3.3515115E-18
   93.38600       -3.3452805E-18
   93.54750       -3.3310650E-18
   93.70900       -3.3117565E-18
   93.87050       -3.2911657E-18
   94.03200       -3.2732964E-18
   94.19350       -3.2616114E-18
   94.35500       -3.2584419E-18
   94.51650       -3.2646507E-18
   94.67800       -3.2795683E-18
   94.83950       -3.3011705E-18
   95.00100       -3.3264301E-18
   95.16250       -3.3517797E-18
   95.32400       -3.3736454E-18
   95.48550       -3.3890022E-18
   95.64700       -3.3958947E-18
   95.80850       -3.3938191E-18
   95.97000       -3.3838710E-18
   96.13150       -3.3685896E-18
   96.29300       -3.3514904E-18
   96.45450       -3.3363947E-18
   96.61600       -3.3267029E-18
   96.77750       -3.3247846E-18
   96.93900       -3.3316101E-18
   97.10050       -3.3466596E-18
   97.26200       -3.3680844E-18
   97.42350       -3.3930440E-18
   97.58500       -3.4181473E-18
   97.74650       -3.4399453E-18
   97.90800       -3.4554347E-18
   98.06950       -3.4625297E-18
   98.23100       -3.4604373E-18
   98.39250       -3.4498426E-18
   98.55400       -3.4328438E-18
   98.71550       -3.4126087E-18
   98.87700       -3.3928058E-18
   99.03850       -3.3769305E-18
   99.20000       -3.3676783E-18
   99.36150       -3.3664987E-18
   99.52300       -3.3734043E-18
   99.68450       -3.3870335E-18
   99.84600       -3.4049258E-18
   100.0075       -3.4239239E-18
   100.1690       -3.4406404E-18
   100.3305       -3.4519451E-18
   100.4920       -3.4554298E-18
   100.6535       -3.4498124E-18
   100.8150       -3.4352157E-18
   100.9765       -3.4132415E-18
   101.1380       -3.3867874E-18
   101.2995       -3.3595998E-18
   101.4610       -3.3356352E-18
   101.6225       -3.3183595E-18
   101.7840       -3.3101429E-18
   101.9455       -3.3118804E-18
   102.1070       -3.3229009E-18
   102.2685       -3.3411461E-18
   102.4300       -3.3635532E-18
   102.5915       -3.3865529E-18
   102.7530       -3.4066050E-18
   102.9145       -3.4207248E-18
   103.0760       -3.4269524E-18
   103.2375       -3.4247066E-18
   103.3990       -3.4149490E-18
   103.5605       -3.4000819E-18
   103.7220       -3.3835564E-18
   103.8835       -3.3692363E-18
   104.0450       -3.3606466E-18
   104.2065       -3.3602829E-18
   104.3680       -3.3691441E-18
   104.5295       -3.3865825E-18
   104.6910       -3.4104750E-18
   104.8525       -3.4376400E-18
   105.0140       -3.4643933E-18
   105.1755       -3.4871284E-18
   105.3370       -3.5028646E-18
   105.4985       -3.5096947E-18
   105.6600       -3.5071035E-18
   105.8215       -3.4960950E-18
   105.9830       -3.4790844E-18
   106.1445       -3.4595322E-18
   106.3060       -3.4413493E-18
   106.4675       -3.4281861E-18
   106.6290       -3.4227522E-18
   106.7905       -3.4263246E-18
   106.9520       -3.4385476E-18
   107.1135       -3.4575591E-18
   107.2750       -3.4803777E-18
   107.4365       -3.5034540E-18
   107.5980       -3.5232650E-18
   107.7595       -3.5368547E-18
   107.9210       -3.5422690E-18
   108.0825       -3.5388379E-18
   108.2440       -3.5272913E-18
   108.4055       -3.5096781E-18
   108.5670       -3.4890780E-18
   108.7285       -3.4691113E-18
   108.8900       -3.4533190E-18
   109.0515       -3.4445174E-18
   109.2130       -3.4442682E-18
   109.3745       -3.4525921E-18
   109.5360       -3.4679822E-18
   109.6975       -3.4877181E-18
   109.8590       -3.5083828E-18
   110.0205       -3.5264641E-18
   110.1820       -3.5389272E-18
   110.3435       -3.5436703E-18
   110.5050       -3.5398297E-18
   110.6665       -3.5279146E-18
   110.8280       -3.5097687E-18
   110.9895       -3.4883393E-18
   111.1510       -3.4672568E-18
   111.3125       -3.4502508E-18
   111.4740       -3.4404919E-18
   111.6355       -3.4399908E-18
   111.7970       -3.4491984E-18
   111.9585       -3.4669135E-18
   112.1200       -3.4905173E-18
   112.2815       -3.5164759E-18
   112.4430       -3.5409803E-18
   112.6045       -3.5605886E-18
   112.7660       -3.5727548E-18
   112.9275       -3.5761805E-18
   113.0890       -3.5709734E-18
   113.2505       -3.5586096E-18
   113.4120       -3.5417012E-18
   113.5735       -3.5235892E-18
   113.7350       -3.5077880E-18
   113.8965       -3.4973622E-18
   114.0580       -3.4943554E-18
   114.2195       -3.4993959E-18
   114.3810       -3.5115856E-18
   114.5425       -3.5287058E-18
   114.7040       -3.5476813E-18
   114.8655       -3.5651960E-18
   115.0270       -3.5783043E-18
   115.1885       -3.5849234E-18
   115.3500       -3.5841322E-18
   115.5115       -3.5762591E-18
   115.6730       -3.5627777E-18
   115.8345       -3.5460555E-18
   115.9960       -3.5289804E-18
   116.1575       -3.5145142E-18
   116.3190       -3.5052138E-18
   116.4805       -3.5027956E-18
   116.6420       -3.5078174E-18