  -30.00000       -5.3501613E-19
  -29.83850       -5.4720541E-19
  -29.67700       -5.6987538E-19
  -29.51550       -6.0013970E-19
  -29.35400       -6.3437975E-19
  -29.19250       -6.6879858E-19
  -29.03100       -6.9998919E-19
  -28.86950       -7.2542763E-19
  -28.70800       -7.4381606E-19
  -28.54650       -7.5522355E-19
  -28.38500       -7.6101247E-19
  -28.22350       -7.6356251E-19
  -28.06200       -7.6583835E-19
  -27.90050       -7.7086424E-19
  -27.73900       -7.8119046E-19
  -27.57750       -7.9843314E-19
  -27.41600       -8.2296902E-19
  -27.25450       -8.5383656E-19
  -27.09300       -8.8887019E-19
  -26.93150       -9.2503990E-19
  -26.77000       -9.5894190E-19
  -26.60850       -9.8734997E-19
  -26.44700       -1.0077370E-18
  -26.28550       -1.0186773E-18
  -26.12400       -1.0200720E-18
  -25.96250       -1.0131649E-18
  -25.80100       -1.0003565E-18
  -25.63950       -9.8484020E-19
  -25.47800       -9.7012352E-19
  -25.31650       -9.5949673E-19
  -25.15500       -9.5552771E-19
  -24.99350       -9.5966951E-19
  -24.83200       -9.7203958E-19
  -24.67050       -9.9141319E-19
  -24.50900       -1.0154405E-18
  -24.34750       -1.0410452E-18
  -24.18600       -1.0649410E-18
  -24.02450       -1.0841795E-18
  -23.86300       -1.0966312E-18
  -23.70150       -1.1013255E-18
  -23.54000       -1.0985957E-18
  -23.37850       -1.0900179E-18
  -23.21700       -1.0781541E-18
  -23.05550       -1.0661432E-18
  -22.89400       -1.0572072E-18
  -22.73250       -1.0541364E-18
  -22.57100       -1.0588372E-18
  -22.40950       -1.0720125E-18
  -22.24800       -1.0930255E-18
  -22.08650       -1.1199776E-18
  -21.92500       -1.1499973E-18
  -21.76350       -1.1796923E-18
  -21.60200       -1.2056968E-18
  -21.44050       -1.2252078E-18
  -21.27900       -1.2364337E-18
  -21.11750       -1.2388612E-18
  -20.95600       -1.2333205E-18
  -20.79450       -1.2218326E-18
  -20.63300       -1.2072794E-18
  -20.47150       -1.1929505E-18
  -20.31000       -1.1820344E-18
  -20.14850       -1.1771326E-18
  -19.98700       -1.1798575E-18
  -19.82550       -1.1905840E-18
  -19.66400       -1.2083862E-18
  -19.50250       -1.2311897E-18
  -19.34100       -1.2561117E-18
  -19.17950       -1.2799398E-18
  -19.01800       -1.2996656E-18
  -18.85650       -1.3129811E-18
  -18.69500       -1.3186421E-18
  -18.53350       -1.3166455E-18
  -18.37200       -1.3081972E-18
  -18.21050       -1.2954861E-18
  -18.04900       -1.2813137E-18
  -17.88750       -1.2686421E-18
  -17.72600       -1.2601281E-18
  -17.56450       -1.2577117E-18
  -17.40300       -1.2623126E-18
  -17.24150       -1.2736815E-18
  -17.08000       -1.2904338E-18
  -16.91850       -1.3102669E-18
  -16.75700       -1.3303418E-18
  -16.59550       -1.3477533E-18
  -16.43400       -1.3600245E-18
  -16.27250       -1.3655223E-18
  -16.11100       -1.3637265E-18
  -15.94950       -1.3552976E-18
  -15.78800       -1.3419551E-18
  -15.62650       -1.3261788E-18
  -15.46500       -1.3108089E-18
  -15.30350       -1.2986029E-18
  -15.14200       -1.2918182E-18
  -14.98050       -1.2918741E-18
  -14.81900       -1.2991351E-18
  -14.65750       -1.3128475E-18
  -14.49600       -1.3312449E-18
  -14.33450       -1.3518176E-18
  -14.17300       -1.3717139E-18
  -14.01150       -1.3882102E-18
  -13.85000       -1.3991747E-18
  -13.68850       -1.4034271E-18
  -13.52700       -1.4009334E-18
  -13.36550       -1.3928030E-18
  -13.20400       -1.3810889E-18
  -13.04250       -1.3684441E-18
  -12.88100       -1.3576972E-18
  -12.71950       -1.3514183E-18
  -12.55800       -1.3515338E-18
  -12.39650       -1.3590367E-18
  -12.23500       -1.3738275E-18
  -12.07350       -1.3947112E-18
  -11.91200       -1.4195512E-18
  -11.75050       -1.4455837E-18
  -11.58900       -1.4698431E-18
  -11.42750       -1.4896402E-18
  -11.26600       -1.5030054E-18
  -11.10450       -1.5090090E-18
  -10.94300       -1.5079018E-18
  -10.78150       -1.5010417E-18
  -10.62000       -1.4906435E-18
  -10.45850       -1.4793912E-18
  -10.29700       -1.4700038E-18
  -10.13550       -1.4648115E-18
  -9.974000       -1.4654117E-18
  -9.812500       -1.4724354E-18
  -9.651000       -1.4854497E-18
  -9.489500       -1.5030130E-18
  -9.328000       -1.5228762E-18
  -9.166500       -1.5423258E-18
  -9.005000       -1.5586186E-18
  -8.843500       -1.5694421E-18
  -8.682000       -1.5733189E-18
  -8.520500       -1.5698657E-18
  -8.359000       -1.5598593E-18
  -8.197500       -1.5450923E-18
  -8.036000       -1.5280623E-18
  -7.874500       -1.5115596E-18
  -7.713000       -1.4982330E-18
  -7.551500       -1.4902080E-18
  -7.390000       -1.4887984E-18
  -7.228500       -1.4943389E-18
  -7.067000       -1.5061529E-18
  -6.905500       -1.5226542E-18
  -6.744000       -1.5415818E-18
  -6.582500       -1.5603524E-18
  -6.421000       -1.5764848E-18
  -6.259500       -1.5880254E-18
  -6.098000       -1.5938974E-18
  -5.936500       -1.5940926E-18
  -5.775000       -1.5896676E-18
  -5.613500       -1.5825429E-18
  -5.452000       -1.5751530E-18
  -5.290500       -1.5700324E-18
  -5.129000       -1.5694096E-18
  -4.967500       -1.5748714E-18
  -4.806000       -1.5871408E-18
  -4.644500       -1.6059757E-18
  -4.483000       -1.6301929E-18
  -4.321500       -1.6578096E-18
  -4.160000       -1.6863024E-18
  -3.998500       -1.7129608E-18
  -3.837000       -1.7352951E-18
  -3.675500       -1.7514327E-18
  -3.514000       -1.7604260E-18
  -3.352500       -1.7623995E-18
  -3.191000       -1.7584960E-18
  -3.029500       -1.7506405E-18
  -2.868000       -1.7411726E-18
  -2.706500       -1.7324314E-18
  -2.545000       -1.7263781E-18
  -2.383500       -1.7243119E-18
  -2.222000       -1.7267042E-18
  -2.060500       -1.7331537E-18
  -1.899000       -1.7424543E-18
  -1.737500       -1.7527647E-18
  -1.576000       -1.7618819E-18
  -1.414500       -1.7675952E-18
  -1.253000       -1.7680845E-18
  -1.091500       -1.7622953E-18
 -0.9300000       -1.7501996E-18
 -0.7685000       -1.7328770E-18
 -0.6070000       -1.7123804E-18
 -0.4455000       -1.6914115E-18
 -0.2840000       -1.6728762E-18
 -0.1225000       -1.6594210E-18
  3.9000001E-02   -1.6530398E-18
  0.2005000       -1.6548022E-18
  0.3620000       -1.6647218E-18
  0.5235000       -1.6817664E-18
  0.6850000       -1.7039875E-18
  0.8465000       -1.7287664E-18
   1.008000       -1.7531603E-18
   1.169500       -1.7743297E-18
   1.331000       -1.7899903E-18
   1.492500       -1.7988074E-18
   1.654000       -1.8006496E-18
   1.815500       -1.7966189E-18
   1.977000       -1.7888490E-18
   2.138500       -1.7801038E-18
   2.300000       -1.7732726E-18
   2.461500       -1.7708694E-18
   2.623000       -1.7746347E-18
   2.784500       -1.7852901E-18
   2.946000       -1.8024598E-18
   3.107500       -1.8247439E-18
   3.269000       -1.8499140E-18
   3.430500       -1.8752073E-18
   3.592000       -1.8977124E-18
   3.753500       -1.9148073E-18
   3.915000       -1.9245972E-18
   4.076500       -1.9262724E-18
   4.238000       -1.9202979E-18
   4.399500       -1.9083630E-18
   4.561000       -1.8930922E-18
   4.722500       -1.8775718E-18
   4.884000       -1.8648007E-18
   5.045500       -1.8571934E-18
   5.207000       -1.8562274E-18
   5.368500       -1.8622809E-18
   5.530000       -1.8746417E-18
   5.691500       -1.8916570E-18
   5.853000       -1.9109799E-18
   6.014500       -1.9298895E-18
   6.176000       -1.9456717E-18
   6.337500       -1.9560429E-18
   6.499000       -1.9595516E-18
   6.660500       -1.9558865E-18
   6.822000       -1.9459910E-18
   6.983500       -1.9319318E-18
   7.145000       -1.9165332E-18
   7.306500       -1.9028519E-18
   7.468000       -1.8936238E-18
   7.629500       -1.8908089E-18
   7.791000       -1.8953111E-18
   7.952500       -1.9069005E-18
   8.114000       -1.9243027E-18
   8.275500       -1.9454064E-18
   8.437000       -1.9675498E-18
   8.598500       -1.9878654E-18
   8.760000       -2.0036759E-18
   8.921500       -2.0129153E-18
   9.083000       -2.0145103E-18
   9.244500       -2.0086396E-18
   9.406000       -1.9967747E-18
   9.567500       -1.9814646E-18
   9.729000       -1.9658857E-18
   9.890500       -1.9532553E-18
   10.05200       -1.9462522E-18
   10.21350       -1.9465692E-18
   10.37500       -1.9546805E-18
   10.53650       -1.9698285E-18
   10.69800       -1.9901924E-18
   10.85950       -2.0131748E-18
   11.02100       -2.0357529E-18
   11.18250       -2.0548823E-18
   11.34400       -2.0679269E-18
   11.50550       -2.0730904E-18
   11.66700       -2.0697790E-18
   11.82850       -2.0588056E-18
   11.99000       -2.0423393E-18
   12.15150       -2.0235747E-18
   12.31300       -2.0061647E-18
   12.47450       -1.9935439E-18
   12.63600       -1.9883143E-18
   12.79750       -1.9918222E-18
   12.95900       -2.0040047E-18
   13.12050       -2.0234906E-18
   13.28200       -2.0478757E-18
   13.44350       -2.0741039E-18
   13.60500       -2.0988788E-18
   13.76650       -2.1191033E-18
   13.92800       -2.1323114E-18
   14.08950       -2.1370815E-18
   14.25100       -2.1333381E-18
   14.41250       -2.1224578E-18
   14.57400       -2.1070974E-18
   14.73550       -2.0907352E-18
   14.89700       -2.0770147E-18
   15.05850       -2.0690453E-18
   15.22000       -2.0688329E-18
   15.38150       -2.0769690E-18
   15.54300       -2.0926108E-18
   15.70450       -2.1137112E-18
   15.86600       -2.1373919E-18
   16.02750       -2.1603799E-18
   16.18900       -2.1794472E-18
   16.35050       -2.1918406E-18
   16.51200       -2.1956874E-18
   16.67350       -2.1903466E-18
   16.83500       -2.1766290E-18
   16.99650       -2.1567891E-18
   17.15800       -2.1342352E-18
   17.31950       -2.1129721E-18
   17.48100       -2.0968842E-18
   17.64250       -2.0890306E-18
   17.80400       -2.0911204E-18
   17.96550       -2.1032852E-18
   18.12700       -2.1241545E-18
   18.28850       -2.1511777E-18
   18.45000       -2.1810720E-18
   18.61150       -2.2103050E-18
   18.77300       -2.2355584E-18
   18.93450       -2.2541569E-18
   19.09600       -2.2644501E-18
   19.25750       -2.2661157E-18
   19.41900       -2.2602934E-18
   19.58050       -2.2494813E-18
   19.74200       -2.2371298E-18
   19.90350       -2.2269950E-18
   20.06500       -2.2223715E-18
   20.22650       -2.2254107E-18
   20.38800       -2.2366916E-18
   20.54950       -2.2551452E-18
   20.71100       -2.2783089E-18
   20.87250       -2.3028100E-18
   21.03400       -2.3249373E-18
   21.19550       -2.3411875E-18
   21.35700       -2.3487419E-18
   21.51850       -2.3458565E-18
   21.68000       -2.3321638E-18
   21.84150       -2.3088456E-18
   22.00300       -2.2786044E-18
   22.16450       -2.2453632E-18
   22.32600       -2.2136706E-18
   22.48750       -2.1879229E-18
   22.64900       -2.1715427E-18
   22.81050       -2.1663529E-18
   22.97200       -2.1722909E-18
   23.13350       -2.1875172E-18
   23.29500       -2.2088638E-18
   23.45650       -2.2324639E-18
   23.61800       -2.2544123E-18
   23.77950       -2.2713430E-18
   23.94100       -2.2808804E-18
   24.10250       -2.2819599E-18
   24.26400       -2.2750147E-18
   24.42550       -2.2619938E-18
   24.58700       -2.2461566E-18
   24.74850       -2.2316018E-18
   24.91000       -2.2225590E-18
   25.07150       -2.2225712E-18
   25.23300       -2.2337535E-18
   25.39450       -2.2563260E-18
   25.55600       -2.2885503E-18
   25.71750       -2.3270690E-18
   25.87900       -2.3675450E-18
   26.04050       -2.4054185E-18
   26.20200       -2.4366131E-18
   26.36350       -2.4580815E-18
   26.52500       -2.4681632E-18
   26.68650       -2.4667591E-18
   26.84800       -2.4553479E-18
   27.00950       -2.4368240E-18
   27.17100       -2.4151306E-18
   27.33250       -2.3946670E-18
   27.49400       -2.3795356E-18
   27.65550       -2.3727583E-18
   27.81700       -2.3756565E-18
   27.97850       -2.3875747E-18
   28.14000       -2.4060347E-18
   28.30150       -2.4272753E-18
   28.46300       -2.4470271E-18
   28.62450       -2.4613167E-18
   28.78600       -2.4671239E-18
   28.94750       -2.4628079E-18
   29.10900       -2.4482933E-18
   29.27050       -2.4250586E-18
   29.43200       -2.3959700E-18
   29.59350       -2.3649489E-18
   29.75500       -2.3364674E-18
   29.91650       -2.3148757E-18
   30.07800       -2.3036403E-18
   30.23950       -2.3046557E-18
   30.40100       -2.3178132E-18
   30.56250       -2.3409730E-18
   30.72400       -2.3703727E-18
   30.88550       -2.4013736E-18
   31.04700       -2.4293407E-18
   31.20850       -2.4504440E-18
   31.37000       -2.4622201E-18
   31.53150       -2.4638466E-18
   31.69300       -2.4561501E-18
   31.85450       -2.4414168E-18
   32.01600       -2.4230608E-18
   32.17750       -2.4051606E-18
   32.33900       -2.3918717E-18
   32.50050       -2.3867482E-18
   32.66200       -2.3920713E-18
   32.82350       -2.4083390E-18
   32.98500       -2.4340737E-18
   33.14650       -2.4660374E-18
   33.30800       -2.4998401E-18
   33.46950       -2.5307818E-18
   33.63100       -2.5547359E-18
   33.79250       -2.5688497E-18
   33.95400       -2.5719436E-18
   34.11550       -2.5645885E-18
   34.27700       -2.5489155E-18
   34.43850       -2.5282500E-18
   34.60000       -2.5066393E-18
   34.76150       -2.4883065E-18
   34.92300       -2.4770482E-18
   35.08450       -2.4756110E-18
   35.24600       -2.4851558E-18
   35.40750       -2.5049302E-18
   35.56900       -2.5322896E-18
   35.73050       -2.5631221E-18
   35.89200       -2.5926078E-18
   36.05350       -2.6161407E-18
   36.21500       -2.6301945E-18
   36.37650       -2.6329198E-18
   36.53800       -2.6243810E-18
   36.69950       -2.6064368E-18
   36.86100       -2.5823586E-18
   37.02250       -2.5563008E-18
   37.18400       -2.5327036E-18
   37.34550       -2.5156734E-18
   37.50700       -2.5083617E-18
   37.66850       -2.5124079E-18
   37.83000       -2.5275445E-18
   37.99150       -2.5514971E-18
   38.15300       -2.5802772E-18
   38.31450       -2.6088638E-18
   38.47600       -2.6321536E-18
   38.63750       -2.6459539E-18
   38.79900       -2.6477747E-18
   38.96050       -2.6372402E-18
   39.12200       -2.6160683E-18
   39.28350       -2.5876753E-18
   39.44500       -2.5565425E-18
   39.60650       -2.5274913E-18
   39.76800       -2.5049728E-18
   39.92950       -2.4924331E-18
   40.09100       -2.4917898E-18
   40.25250       -2.5030909E-18
   40.41400       -2.5244216E-18
   40.57550       -2.5521432E-18
   40.73700       -2.5814835E-18
   40.89850       -2.6074023E-18
   41.06000       -2.6255674E-18
   41.22150       -2.6332058E-18
   41.38300       -2.6296305E-18
   41.54450       -2.6163179E-18
   41.70600       -2.5965493E-18
   41.86750       -2.5747444E-18
   42.02900       -2.5556492E-18
   42.19050       -2.5435576E-18
   42.35200       -2.5416729E-18
   42.51350       -2.5516514E-18
   42.67500       -2.5733560E-18
   42.83650       -2.6048215E-18
   42.99800       -2.6424680E-18
   43.15950       -2.6815826E-18
   43.32100       -2.7170497E-18
   43.48250       -2.7442283E-18
   43.64400       -2.7598151E-18
   43.80550       -2.7624697E-18
   43.96700       -2.7530566E-18
   44.12850       -2.7344294E-18
   44.29000       -2.7108313E-18
   44.45150       -2.6870753E-18
   44.61300       -2.6677032E-18
   44.77450       -2.6562860E-18
   44.93600       -2.6549445E-18
   45.09750       -2.6641066E-18
   45.25900       -2.6824756E-18
   45.42050       -2.7072000E-18
   45.58200       -2.7342507E-18
   45.74350       -2.7590047E-18
   45.90500       -2.7770037E-18
   46.06650       -2.7847641E-18
   46.22800       -2.7804762E-18
   46.38950       -2.7644070E-18
   46.55100       -2.7388877E-18
   46.71250       -2.7078812E-18
   46.87400       -2.6762430E-18
   47.03550       -2.6488569E-18
   47.19700       -2.6298369E-18
   47.35850       -2.6219322E-18
   47.52000       -2.6261855E-18
   47.68150       -2.6418478E-18
   47.84300       -2.6665129E-18
   48.00450       -2.6964572E-18
   48.16600       -2.7271640E-18
   48.32750       -2.7540139E-18
   48.48900       -2.7730599E-18
   48.65050       -2.7817658E-18
   48.81200       -2.7795320E-18
   48.97350       -2.7678642E-18
   49.13500       -2.7501189E-18
   49.29650       -2.7308518E-18
   49.45800       -2.7149308E-18
   49.61950       -2.7066096E-18
   49.78100       -2.7087615E-18
   49.94250       -2.7224096E-18
   50.10400       -2.7465961E-18
   50.26550       -2.7785634E-18
   50.42700       -2.8141799E-18
   50.58850       -2.8485431E-18
   50.75000       -2.8767017E-18
   50.91150       -2.8944272E-18
   51.07300       -2.8989428E-18
   51.23450       -2.8894811E-18
   51.39600       -2.8675335E-18
   51.55750       -2.8366848E-18
   51.71900       -2.8020199E-18
   51.88050       -2.7692086E-18
   52.04200       -2.7434628E-18
   52.20350       -2.7286062E-18
   52.36500       -2.7264508E-18
   52.52650       -2.7365800E-18
   52.68800       -2.7565366E-18
   52.84950       -2.7823177E-18
   53.01100       -2.8090644E-18
   53.17250       -2.8318359E-18
   53.33400       -2.8463806E-18
   53.49550       -2.8498335E-18
   53.65700       -2.8412419E-18
   53.81850       -2.8218171E-18
   53.98000       -2.7948222E-18
   54.14150       -2.7650565E-18
   54.30300       -2.7380104E-18
   54.46450       -2.7188457E-18
   54.62600       -2.7114379E-18
   54.78750       -2.7176858E-18
   54.94900       -2.7372356E-18
   55.11050       -2.7676357E-18
   55.27200       -2.8048462E-18
   55.43350       -2.8439568E-18
   55.59500       -2.8799739E-18
   55.75650       -2.9085538E-18
   55.91800       -2.9266072E-18
   56.07950       -2.9327230E-18
   56.24100       -2.9273632E-18
   56.40250       -2.9127902E-18
   56.56400       -2.8926988E-18
   56.72550       -2.8715860E-18
   56.88700       -2.8539452E-18
   57.04850       -2.8434427E-18
   57.21000       -2.8422571E-18
   57.37150       -2.8507245E-18
   57.53300       -2.8673639E-18
   57.69450       -2.8892476E-18
   57.85600       -2.9126094E-18
   58.01750       -2.9335357E-18
   58.17900       -2.9486063E-18
   58.34050       -2.9553976E-18
   58.50200       -2.9528104E-18
   58.66350       -2.9412150E-18
   58.82500       -2.9224221E-18
   58.98650       -2.8994517E-18
   59.14800       -2.8761134E-18
   59.30950       -2.8564112E-18
   59.47100       -2.8438558E-18
   59.63250       -2.8408277E-18
   59.79400       -2.8481280E-18
   59.95550       -2.8648447E-18
   60.11700       -2.8885546E-18
   60.27850       -2.9158069E-18
   60.44000       -2.9427453E-18
   60.60150       -2.9657384E-18
   60.76300       -2.9818939E-18
   60.92450       -2.9894142E-18
   61.08600       -2.9877904E-18
   61.24750       -2.9778440E-18
   61.40900       -2.9616257E-18
   61.57050       -2.9421503E-18
   61.73200       -2.9229707E-18
   61.89350       -2.9076129E-18
   62.05500       -2.8989651E-18
   62.21650       -2.8987424E-18
   62.37800       -2.9071641E-18
   62.53950       -2.9229221E-18
   62.70100       -2.9434447E-18
   62.86250       -2.9653873E-18
   63.02400       -2.9852245E-18
   63.18550       -2.9998181E-18
   63.34700       -3.0068778E-18
   63.50850       -3.0052698E-18
   63.67000       -2.9951596E-18
   63.83150       -2.9780030E-18
   63.99300       -2.9563745E-18
   64.15450       -2.9336391E-18
   64.31600       -2.9134707E-18
   64.47750       -2.8992711E-18
   64.63900       -2.8935785E-18
   64.80050       -2.8975949E-18
   64.96200       -2.9109485E-18
   65.12350       -2.9317554E-18
   65.28500       -2.9569777E-18
   65.44650       -2.9829893E-18
   65.60800       -3.0062101E-18
   65.76950       -3.0236864E-18
   65.93100       -3.0335077E-18
   66.09250       -3.0350373E-18
   66.25400       -3.0289476E-18
   66.41550       -3.0170974E-18
   66.57700       -3.0022632E-18
   66.73850       -2.9877394E-18
   66.90000       -2.9768311E-18
   67.06150       -2.9722936E-18
   67.22300       -2.9758139E-18
   67.38450       -2.9876560E-18
   67.54600       -3.0065716E-18
   67.70750       -3.0300143E-18
   67.86900       -3.0546186E-18
   68.03050       -3.0768180E-18
   68.19200       -3.0934648E-18
   68.35350       -3.1023181E-18
   68.51500       -3.1023392E-18
   68.67650       -3.0937825E-18
   68.83800       -3.0781057E-18
   68.99950       -3.0577492E-18
   69.16100       -3.0358012E-18
   69.32250       -3.0155694E-18
   69.48400       -3.0001007E-18
   69.64550       -2.9916937E-18
   69.80700       -2.9915074E-18
   69.96850       -2.9993515E-18
   70.13000       -3.0137288E-18
   70.29150       -3.0321257E-18
   70.45300       -3.0514904E-18
   70.61450       -3.0687869E-18
   70.77600       -3.0814995E-18
   70.93750       -3.0879990E-18
   71.09900       -3.0877316E-18
   71.26050       -3.0812379E-18
   71.42200       -3.0700358E-18
   71.58350       -3.0564047E-18
   71.74500       -3.0430850E-18
   71.90650       -3.0329090E-18
   72.06800       -3.0283794E-18
   72.22950       -3.0312406E-18
   72.39100       -3.0421209E-18
   72.55250       -3.0603418E-18
   72.71400       -3.0839556E-18
   72.87550       -3.1100405E-18
   73.03700       -3.1351862E-18
   73.19850       -3.1560760E-18
   73.36000       -3.1700340E-18
   73.52150       -3.1754382E-18
   73.68300       -3.1719442E-18
   73.84450       -3.1605151E-18
   74.00600       -3.1432803E-18
   74.16750       -3.1232487E-18
   74.32900       -3.1038945E-18
   74.49050       -3.0886457E-18
   74.65200       -3.0803124E-18
   74.81350       -3.0805563E-18
   74.97500       -3.0895092E-18
   75.13650       -3.1056608E-18
   75.29800       -3.1260735E-18
   75.45950       -3.1469034E-18
   75.62100       -3.1641197E-18
   75.78250       -3.1742622E-18
   75.94400       -3.1750709E-18
   76.10550       -3.1658793E-18
   76.26700       -3.1477097E-18
   76.42850       -3.1231002E-18
   76.59000       -3.0957044E-18
   76.75150       -3.0697318E-18
   76.91300       -3.0493045E-18
   77.07450       -3.0378003E-18
   77.23600       -3.0372716E-18
   77.39750       -3.0480499E-18
   77.55900       -3.0686219E-18
   77.72050       -3.0958452E-18
   77.88200       -3.1254868E-18
   78.04350       -3.1529910E-18
   78.20500       -3.1743168E-18
   78.36650       -3.1866624E-18
   78.52800       -3.1889262E-18
   78.68950       -3.1818224E-18
   78.85100       -3.1676607E-18
   79.01250       -3.1498653E-18
   79.17400       -3.1323527E-18
   79.33550       -3.1188771E-18
   79.49700       -3.1124333E-18
   79.65850       -3.1147891E-18
   79.82000       -3.1261893E-18
   79.98150       -3.1452898E-18
   80.14300       -3.1693460E-18
   80.30450       -3.1946654E-18
   80.46600       -3.2172586E-18
   80.62750       -3.2335809E-18
   80.78900       -3.2411949E-18
   80.95050       -3.2392099E-18
   81.11200       -3.2284053E-18
   81.27350       -3.2110227E-18
   81.43500       -3.1903161E-18
   81.59650       -3.1699660E-18
   81.75800       -3.1534921E-18
   81.91950       -3.1437386E-18
   82.08100       -3.1424862E-18
   82.24250       -3.1502034E-18
   82.40400       -3.1659604E-18
   82.56550       -3.1875308E-18
   82.72700       -3.2116985E-18
   82.88850       -3.2347665E-18
   83.05000       -3.2531837E-18
   83.21150       -3.2641901E-18
   83.37300       -3.2663228E-18
   83.53450       -3.2596739E-18
   83.69600       -3.2458453E-18
   83.85750       -3.2276246E-18
   84.01900       -3.2084746E-18
   84.18050       -3.1919510E-18
   84.34200       -3.1811507E-18
   84.50350       -3.1782624E-18
   84.66500       -3.1842576E-18
   84.82650       -3.1987360E-18
   84.98800       -3.2199484E-18
   85.14950       -3.2450099E-18
   85.31100       -3.2703088E-18
   85.47250       -3.2920775E-18
   85.63400       -3.3070412E-18
   85.79550       -3.3130143E-18
   85.95700       -3.3093141E-18
   86.11850       -3.2968849E-18
   86.28000       -3.2781027E-18
   86.44150       -3.2563228E-18
   86.60300       -3.2352765E-18
   86.76450       -3.2184547E-18
   86.92600       -3.2085844E-18
   87.08750       -3.2072557E-18
   87.24900       -3.2147233E-18
   87.41050       -3.2298704E-18
   87.57200       -3.2503541E-18
   87.73350       -3.2729270E-18
   87.89500       -3.2939333E-18
   88.05650       -3.3099295E-18
   88.21800       -3.3183268E-18
   88.37950       -3.3179006E-18
   88.54100       -3.3090475E-18
   88.70250       -3.2937106E-18
   88.86400       -3.2749878E-18
   89.02550       -3.2565356E-18
   89.18700       -3.2419030E-18
   89.34850       -3.2339356E-18
   89.51000       -3.2343428E-18
   89.67150       -3.2434550E-18
   89.83300       -3.2601777E-18
   89.99450       -3.2821325E-18
   90.15600       -3.3059772E-18
   90.31750       -3.3278996E-18
   90.47900       -3.3442356E-18
   90.64050       -3.3521259E-18
   90.80200       -3.3500765E-18
   90.96350       -3.3382913E-18
   91.12500       -3.3186732E-18
   91.28650       -3.2944908E-18
   91.44800       -3.2697753E-18
   91.60950       -3.2485912E-18
   91.77100       -3.2343436E-18
   91.93250       -3.2292422E-18
   92.09400       -3.2339987E-18
   92.25550       -3.2477685E-18
   92.41700       -3.2683147E-18
   92.57850       -3.2923550E-18
   92.74000       -3.3160573E-18
   92.90150       -3.3356300E-18
   93.06300       -3.3479525E-18
   93.22450       -3.3511365E-18
   93.38600       -3.3449062E-18
   93.54750       -3.3306897E-18
   93.70900       -3.3113785E-18
   93.87050       -3.2907824E-18
   94.03200       -3.2729049E-18
   94.19350       -3.2612098E-18
   94.35500       -3.2580283E-18
   94.51650       -3.2642245E-18
   94.67800       -3.2791286E-18
   94.83950       -3.3007182E-18
   95.00100       -3.3259673E-18
   95.16250       -3.3513096E-18
   95.32400       -3.3731724E-18
   95.48550       -3.3885313E-18
   95.64700       -3.3954306E-18
   95.80850       -3.3933652E-18
   95.97000       -3.3834305E-18
   96.13150       -3.3681624E-18
   96.29300       -3.3510760E-18
   96.45450       -3.3359894E-18
   96.61600       -3.3263031E-18
   96.77750       -3.3243861E-18
   96.93900       -3.3312087E-18
   97.10050       -3.3462512E-18
   97.26200       -3.3676655E-18
   97.42350       -3.3926126E-18
   97.58500       -3.4177027E-18
   97.74650       -3.4394883E-18
   97.90800       -3.4549667E-18
   98.06950       -3.4620532E-18
   98.23100       -3.4599536E-18
   98.39250       -3.4493537E-18
   98.55400       -3.4323504E-18
   98.71550       -3.4121111E-18
   98.87700       -3.3923031E-18
   99.03850       -3.3764208E-18
   99.20000       -3.3671597E-18
   99.36150       -3.3659710E-18
   99.52300       -3.3728662E-18
   99.68450       -3.3864865E-18
   99.84600       -3.4043735E-18
   100.0075       -3.4233701E-18
   100.1690       -3.4400897E-18
   100.3305       -3.4514016E-18
   100.4920       -3.4548971E-18
   100.6535       -3.4492954E-18
   100.8150       -3.4347172E-18
   100.9765       -3.4127630E-18
   101.1380       -3.3863279E-18
   101.2995       -3.3591573E-18
   101.4610       -3.3352069E-18
   101.6225       -3.3179412E-18
   101.7840       -3.3097318E-18
   101.9455       -3.3114734E-18
   102.1070       -3.3224954E-18
   102.2685       -3.3407391E-18
   102.4300       -3.3631422E-18
   102.5915       -3.3861346E-18
   102.7530       -3.4061767E-18
   102.9145       -3.4202839E-18
   103.0760       -3.4264979E-18
   103.2375       -3.4242382E-18
   103.3990       -3.4144659E-18
   103.5605       -3.3995831E-18
   103.7220       -3.3830413E-18
   103.8835       -3.3687046E-18
   104.0450       -3.3600986E-18
   104.2065       -3.3597194E-18
   104.3680       -3.3685671E-18
   104.5295       -3.3859946E-18
   104.6910       -3.4098790E-18
   104.8525       -3.4370403E-18
   105.0140       -3.4637940E-18
   105.1755       -3.4865348E-18
   105.3370       -3.5022827E-18
   105.4985       -3.5091301E-18
   105.6600       -3.5065597E-18
   105.8215       -3.4955747E-18
   105.9830       -3.4785894E-18
   106.1445       -3.4590619E-18
   106.3060       -3.4409020E-18
   106.4675       -3.4277585E-18
   106.6290       -3.4223396E-18
   106.7905       -3.4259211E-18
   106.9520       -3.4381485E-18
   107.1135       -3.4571598E-18
   107.2750       -3.4799745E-18
   107.4365       -3.5030454E-18
   107.5980       -3.5228501E-18
   107.7595       -3.5364333E-18
   107.9210       -3.5418406E-18
   108.0825       -3.5384028E-18
   108.2440       -3.5268492E-18
   108.4055       -3.5092290E-18
   108.5670       -3.4886214E-18
   108.7285       -3.4686452E-18
   108.8900       -3.4528419E-18
   109.0515       -3.4440265E-18
   109.2130       -3.4437622E-18
   109.3745       -3.4520689E-18
   109.5360       -3.4674431E-18
   109.6975       -3.4871652E-18
   109.8590       -3.5078178E-18
   110.0205       -3.5258909E-18
   110.1820       -3.5383494E-18
   110.3435       -3.5430917E-18
   110.5050       -3.5392523E-18
   110.6665       -3.5273405E-18
   110.8280       -3.5091984E-18
   110.9895       -3.4877719E-18
   111.1510       -3.4666906E-18
   111.3125       -3.4496833E-18
   111.4740       -3.4399214E-18
   111.6355       -3.4394149E-18
   111.7970       -3.4486171E-18
   111.9585       -3.4663281E-18
   112.1200       -3.4899296E-18
   112.2815       -3.5158890E-18
   112.4430       -3.5403992E-18
   112.6045       -3.5600183E-18
   112.7660       -3.5722010E-18
   112.9275       -3.5756470E-18
   113.0890       -3.5704627E-18
   113.2505       -3.5581215E-18
   113.4120       -3.5412346E-18
   113.5735       -3.5231409E-18
   113.7350       -3.5073546E-18
   113.8965       -3.4969404E-18
   114.0580       -3.4939406E-18
   114.2195       -3.4989835E-18
   114.3810       -3.5111720E-18
   114.5425       -3.5282876E-18
   114.7040       -3.5472565E-18
   114.8655       -3.5647646E-18
   115.0270       -3.5778672E-18
   115.1885       -3.5844813E-18
   115.3500       -3.5836856E-18
   115.5115       -3.5758075E-18
   115.6730       -3.5623199E-18
   115.8345       -3.5455885E-18
   115.9960       -3.5285035E-18
   116.1575       -3.5140262E-18
   116.3190       -3.5047150E-18
   116.4805       -3.5022844E-18
   116.6420       -3.5072934E-18