  -30.00000        6.1428877E-18
  -29.83850        6.1427731E-18
  -29.67700        6.1425680E-18
  -29.51550        6.1423124E-18
  -29.35400        6.1420510E-18
  -29.19250        6.1418214E-18
  -29.03100        6.1416494E-18
  -28.86950        6.1415468E-18
  -28.70800        6.1415067E-18
  -28.54650        6.1415088E-18
  -28.38500        6.1415187E-18
  -28.22350        6.1414951E-18
  -28.06200        6.1413987E-18
  -27.90050        6.1412043E-18
  -27.73900        6.1409103E-18
  -27.57750        6.1405430E-18
  -27.41600        6.1401505E-18
  -27.25450        6.1397899E-18
  -27.09300        6.1395115E-18
  -26.93150        6.1393440E-18
  -26.77000        6.1392853E-18
  -26.60850        6.1393085E-18
  -26.44700        6.1393684E-18
  -26.28550        6.1394135E-18
  -26.12400        6.1393961E-18
  -25.96250        6.1392845E-18
  -25.80100        6.1390653E-18
  -25.63950        6.1387518E-18
  -25.47800        6.1383795E-18
  -25.31650        6.1379978E-18
  -25.15500        6.1376615E-18
  -24.99350        6.1374130E-18
  -24.83200        6.1372719E-18
  -24.67050        6.1372289E-18
  -24.50900        6.1372508E-18
  -24.34750        6.1372905E-18
  -24.18600        6.1372988E-18
  -24.02450        6.1372384E-18
  -23.86300        6.1370900E-18
  -23.70150        6.1368526E-18
  -23.54000        6.1365432E-18
  -23.37850        6.1361941E-18
  -23.21700        6.1358475E-18
  -23.05550        6.1355452E-18
  -22.89400        6.1353223E-18
  -22.73250        6.1351978E-18
  -22.57100        6.1351651E-18
  -22.40950        6.1351961E-18
  -22.24800        6.1352429E-18
  -22.08650        6.1352536E-18
  -21.92500        6.1351854E-18
  -21.76350        6.1350146E-18
  -21.60200        6.1347437E-18
  -21.44050        6.1343987E-18
  -21.27900        6.1340195E-18
  -21.11750        6.1336547E-18
  -20.95600        6.1333478E-18
  -20.79450        6.1331302E-18
  -20.63300        6.1330107E-18
  -20.47150        6.1329751E-18
  -20.31000        6.1329855E-18
  -20.14850        6.1329900E-18
  -19.98700        6.1329363E-18
  -19.82550        6.1327857E-18
  -19.66400        6.1325243E-18
  -19.50250        6.1321657E-18
  -19.34100        6.1317468E-18
  -19.17950        6.1313133E-18
  -19.01800        6.1309105E-18
  -18.85650        6.1305685E-18
  -18.69500        6.1303009E-18
  -18.53350        6.1301023E-18
  -18.37200        6.1299535E-18
  -18.21050        6.1298244E-18
  -18.04900        6.1296809E-18
  -17.88750        6.1294931E-18
  -17.72600        6.1292417E-18
  -17.56450        6.1289236E-18
  -17.40300        6.1285559E-18
  -17.24150        6.1281684E-18
  -17.08000        6.1278007E-18
  -16.91850        6.1274864E-18
  -16.75700        6.1272477E-18
  -16.59550        6.1270898E-18
  -16.43400        6.1270037E-18
  -16.27250        6.1269686E-18
  -16.11100        6.1269570E-18
  -15.94950        6.1269425E-18
  -15.78800        6.1268999E-18
  -15.62650        6.1268118E-18
  -15.46500        6.1266720E-18
  -15.30350        6.1264884E-18
  -15.14200        6.1262841E-18
  -14.98050        6.1260901E-18
  -14.81900        6.1259387E-18
  -14.65750        6.1258486E-18
  -14.49600        6.1258233E-18
  -14.33450        6.1258457E-18
  -14.17300        6.1258858E-18
  -14.01150        6.1259106E-18
  -13.85000        6.1258920E-18
  -13.68850        6.1258167E-18
  -13.52700        6.1256844E-18
  -13.36550        6.1255074E-18
  -13.20400        6.1253092E-18
  -13.04250        6.1251182E-18
  -12.88100        6.1249656E-18
  -12.71950        6.1248758E-18
  -12.55800        6.1248617E-18
  -12.39650        6.1249188E-18
  -12.23500        6.1250247E-18
  -12.07350        6.1251426E-18
  -11.91200        6.1252348E-18
  -11.75050        6.1252741E-18
  -11.58900        6.1252484E-18
  -11.42750        6.1251632E-18
  -11.26600        6.1250371E-18
  -11.10450        6.1248919E-18
  -10.94300        6.1247492E-18
  -10.78150        6.1246268E-18
  -10.62000        6.1245362E-18
  -10.45850        6.1244837E-18
  -10.29700        6.1244659E-18
  -10.13550        6.1244697E-18
  -9.974000        6.1244709E-18
  -9.812500        6.1244419E-18
  -9.651000        6.1243580E-18
  -9.489500        6.1242099E-18
  -9.328000        6.1240073E-18
  -9.166500        6.1237757E-18
  -9.005000        6.1235498E-18
  -8.843500        6.1233625E-18
  -8.682000        6.1232380E-18
  -8.520500        6.1231850E-18
  -8.359000        6.1232008E-18
  -8.197500        6.1232715E-18
  -8.036000        6.1233728E-18
  -7.874500        6.1234737E-18
  -7.713000        6.1235411E-18
  -7.551500        6.1235465E-18
  -7.390000        6.1234762E-18
  -7.228500        6.1233397E-18
  -7.067000        6.1231681E-18
  -6.905500        6.1230039E-18
  -6.744000        6.1228889E-18
  -6.582500        6.1228484E-18
  -6.421000        6.1228856E-18
  -6.259500        6.1229828E-18
  -6.098000        6.1231085E-18
  -5.936500        6.1232293E-18
  -5.775000        6.1233141E-18
  -5.613500        6.1233381E-18
  -5.452000        6.1232876E-18
  -5.290500        6.1231586E-18
  -5.129000        6.1229650E-18
  -4.967500        6.1227346E-18
  -4.806000        6.1225097E-18
  -4.644500        6.1223314E-18
  -4.483000        6.1222292E-18
  -4.321500        6.1222098E-18
  -4.160000        6.1222574E-18
  -3.998500        6.1223376E-18
  -3.837000        6.1224129E-18
  -3.675500        6.1224509E-18
  -3.514000        6.1224294E-18
  -3.352500        6.1223355E-18
  -3.191000        6.1221693E-18
  -3.029500        6.1219410E-18
  -2.868000        6.1216775E-18
  -2.706500        6.1214178E-18
  -2.545000        6.1212081E-18
  -2.383500        6.1210873E-18
  -2.222000        6.1210733E-18
  -2.060500        6.1211539E-18
  -1.899000        6.1212908E-18
  -1.737500        6.1214314E-18
  -1.576000        6.1215257E-18
  -1.414500        6.1215390E-18
  -1.253000        6.1214571E-18
  -1.091500        6.1212829E-18
 -0.9300000        6.1210340E-18
 -0.7685000        6.1207374E-18
 -0.6070000        6.1204293E-18
 -0.4455000        6.1201468E-18
 -0.2840000        6.1199218E-18
 -0.1225000        6.1197671E-18
  3.9000001E-02    6.1196704E-18
  0.2005000        6.1195918E-18
  0.3620000        6.1194772E-18
  0.5235000        6.1192762E-18
  0.6850000        6.1189598E-18
  0.8465000        6.1185305E-18
   1.008000        6.1180131E-18
   1.169500        6.1174481E-18
   1.331000        6.1168790E-18
   1.492500        6.1163430E-18
   1.654000        6.1158715E-18
   1.815500        6.1154910E-18
   1.977000        6.1152156E-18
   2.138500        6.1150427E-18
   2.300000        6.1149463E-18
   2.461500        6.1148802E-18
   2.623000        6.1147929E-18
   2.784500        6.1146436E-18
   2.946000        6.1144149E-18
   3.107500        6.1141241E-18
   3.269000        6.1138052E-18
   3.430500        6.1135017E-18
   3.592000        6.1132490E-18
   3.753500        6.1130719E-18
   3.915000        6.1129847E-18
   4.076500        6.1129905E-18
   4.238000        6.1130819E-18
   4.399500        6.1132341E-18
   4.561000        6.1134012E-18
   4.722500        6.1135269E-18
   4.884000        6.1135554E-18
   5.045500        6.1134533E-18
   5.207000        6.1132204E-18
   5.368500        6.1128924E-18
   5.530000        6.1125206E-18
   5.691500        6.1121567E-18
   5.853000        6.1118370E-18
   6.014500        6.1115747E-18
   6.176000        6.1113692E-18
   6.337500        6.1112075E-18
   6.499000        6.1110702E-18
   6.660500        6.1109279E-18
   6.822000        6.1107401E-18
   6.983500        6.1104638E-18
   7.145000        6.1100622E-18
   7.306500        6.1095262E-18
   7.468000        6.1088744E-18
   7.629500        6.1081556E-18
   7.791000        6.1074281E-18
   7.952500        6.1067411E-18
   8.114000        6.1061236E-18
   8.275500        6.1055810E-18
   8.437000        6.1051045E-18
   8.598500        6.1046802E-18
   8.760000        6.1042881E-18
   8.921500        6.1039059E-18
   9.083000        6.1035048E-18
   9.244500        6.1030573E-18
   9.406000        6.1025481E-18
   9.567500        6.1019890E-18
   9.729000        6.1014199E-18
   9.890500        6.1009020E-18
   10.05200        6.1004942E-18
   10.21350        6.1002304E-18
   10.37500        6.1001117E-18
   10.53650        6.1001067E-18
   10.69800        6.1001679E-18
   10.85950        6.1002461E-18
   11.02100        6.1003011E-18
   11.18250        6.1003032E-18
   11.34400        6.1002345E-18
   11.50550        6.1000869E-18
   11.66700        6.0998705E-18
   11.82850        6.0996154E-18
   11.99000        6.0993660E-18
   12.15150        6.0991691E-18
   12.31300        6.0990529E-18
   12.47450        6.0990161E-18
   12.63600        6.0990268E-18
   12.79750        6.0990355E-18
   12.95900        6.0989958E-18
   13.12050        6.0988804E-18
   13.28200        6.0986823E-18
   13.44350        6.0984135E-18
   13.60500        6.0980929E-18
   13.76650        6.0977435E-18
   13.92800        6.0973923E-18
   14.08950        6.0970776E-18
   14.25100        6.0968398E-18
   14.41250        6.0967157E-18
   14.57400        6.0967194E-18
   14.73550        6.0968352E-18
   14.89700        6.0970168E-18
   15.05850        6.0972070E-18
   15.22000        6.0973534E-18
   15.38150        6.0974262E-18
   15.54300        6.0974171E-18
   15.70450        6.0973361E-18
   15.86600        6.0972029E-18
   16.02750        6.0970403E-18
   16.18900        6.0968770E-18
   16.35050        6.0967426E-18
   16.51200        6.0966632E-18
   16.67350        6.0966524E-18
   16.83500        6.0966958E-18
   16.99650        6.0967529E-18
   17.15800        6.0967661E-18
   17.31950        6.0966847E-18
   17.48100        6.0964824E-18
   17.64250        6.0961673E-18
   17.80400        6.0957727E-18
   17.96550        6.0953450E-18
   18.12700        6.0949252E-18
   18.28850        6.0945423E-18
   18.45000        6.0942143E-18
   18.61150        6.0939533E-18
   18.77300        6.0937664E-18
   18.93450        6.0936510E-18
   19.09600        6.0935894E-18
   19.25750        6.0935472E-18
   19.41900        6.0934835E-18
   19.58050        6.0933660E-18
   19.74200        6.0931857E-18
   19.90350        6.0929557E-18
   20.06500        6.0927076E-18
   20.22650        6.0924718E-18
   20.38800        6.0922729E-18
   20.54950        6.0921232E-18
   20.71100        6.0920305E-18
   20.87250        6.0919983E-18
   21.03400        6.0920289E-18
   21.19550        6.0921095E-18
   21.35700        6.0922125E-18
   21.51850        6.0922936E-18
   21.68000        6.0923089E-18
   21.84150        6.0922353E-18
   22.00300        6.0920822E-18
   22.16450        6.0918928E-18
   22.32600        6.0917265E-18
   22.48750        6.0916351E-18
   22.64900        6.0916455E-18
   22.81050        6.0917522E-18
   22.97200        6.0919259E-18
   23.13350        6.0921236E-18
   23.29500        6.0922985E-18
   23.45650        6.0924086E-18
   23.61800        6.0924201E-18
   23.77950        6.0923159E-18
   23.94100        6.0921054E-18
   24.10250        6.0918299E-18
   24.26400        6.0915574E-18
   24.42550        6.0913601E-18
   24.58700        6.0912914E-18
   24.74850        6.0913605E-18
   24.91000        6.0915284E-18
   25.07150        6.0917187E-18
   25.23300        6.0918469E-18
   25.39450        6.0918452E-18
   25.55600        6.0916777E-18
   25.71750        6.0913431E-18
   25.87900        6.0908704E-18
   26.04050        6.0903108E-18
   26.20200        6.0897306E-18
   26.36350        6.0892069E-18
   26.52500        6.0888132E-18
   26.68650        6.0886023E-18
   26.84800        6.0885849E-18
   27.00950        6.0887255E-18
   27.17100        6.0889464E-18
   27.33250        6.0891524E-18
   27.49400        6.0892628E-18
   27.65550        6.0892351E-18
   27.81700        6.0890738E-18
   27.97850        6.0888252E-18
   28.14000        6.0885613E-18
   28.30150        6.0883599E-18
   28.46300        6.0882937E-18
   28.62450        6.0884137E-18
   28.78600        6.0887371E-18
   28.94750        6.0892367E-18
   29.10900        6.0898323E-18
   29.27050        6.0904035E-18
   29.43200        6.0908154E-18
   29.59350        6.0909535E-18
   29.75500        6.0907616E-18
   29.91650        6.0902566E-18
   30.07800        6.0895221E-18
   30.23950        6.0886804E-18
   30.40100        6.0878591E-18
   30.56250        6.0871584E-18
   30.72400        6.0866336E-18
   30.88550        6.0862882E-18
   31.04700        6.0860810E-18
   31.20850        6.0859321E-18
   31.37000        6.0857427E-18
   31.53150        6.0854152E-18
   31.69300        6.0848820E-18
   31.85450        6.0841326E-18
   32.01600        6.0832223E-18
   32.17750        6.0822648E-18
   32.33900        6.0814046E-18
   32.50050        6.0807738E-18
   32.66200        6.0804599E-18
   32.82350        6.0804852E-18
   32.98500        6.0808065E-18
   33.14650        6.0813326E-18
   33.30800        6.0819418E-18
   33.46950        6.0825060E-18
   33.63100        6.0829100E-18
   33.79250        6.0830726E-18
   33.95400        6.0829655E-18
   34.11550        6.0826238E-18
   34.27700        6.0821441E-18
   34.43850        6.0816660E-18
   34.60000        6.0813301E-18
   34.76150        6.0812429E-18
   34.92300        6.0814414E-18
   35.08450        6.0818852E-18
   35.24600        6.0824671E-18
   35.40750        6.0830424E-18
   35.56900        6.0834634E-18
   35.73050        6.0836111E-18
   35.89200        6.0834200E-18
   36.05350        6.0828902E-18
   36.21500        6.0820936E-18
   36.37650        6.0811626E-18
   36.53800        6.0802651E-18
   36.69950        6.0795649E-18
   36.86100        6.0791819E-18
   37.02250        6.0791530E-18
   37.18400        6.0794243E-18
   37.34550        6.0798606E-18
   37.50700        6.0802862E-18
   37.66850        6.0805286E-18
   37.83000        6.0804645E-18
   37.99150        6.0800434E-18
   38.15300        6.0792990E-18
   38.31450        6.0783337E-18
   38.47600        6.0772984E-18
   38.63750        6.0763621E-18
   38.79900        6.0756751E-18
   38.96050        6.0753351E-18
   39.12200        6.0753620E-18
   39.28350        6.0756900E-18
   39.44500        6.0761817E-18
   39.60650        6.0766582E-18
   39.76800        6.0769465E-18
   39.92950        6.0769258E-18
   40.09100        6.0765544E-18
   40.25250        6.0758802E-18
   40.41400        6.0750266E-18
   40.57550        6.0741614E-18
   40.73700        6.0734587E-18
   40.89850        6.0730620E-18
   41.06000        6.0730505E-18
   41.22150        6.0734214E-18
   41.38300        6.0740857E-18
   41.54450        6.0748806E-18
   41.70600        6.0756093E-18
   41.86750        6.0760825E-18
   42.02900        6.0761693E-18
   42.19050        6.0758302E-18
   42.35200        6.0751250E-18
   42.51350        6.0741982E-18
   42.67500        6.0732362E-18
   42.83650        6.0724189E-18
   42.99800        6.0718750E-18
   43.15950        6.0716509E-18
   43.32100        6.0716988E-18
   43.48250        6.0718945E-18
   43.64400        6.0720632E-18
   43.80550        6.0720243E-18
   43.96700        6.0716372E-18
   44.12850        6.0708369E-18
   44.29000        6.0696557E-18
   44.45150        6.0682181E-18
   44.61300        6.0667114E-18
   44.77450        6.0653428E-18
   44.93600        6.0642877E-18
   45.09750        6.0636483E-18
   45.25900        6.0634349E-18
   45.42050        6.0635664E-18
   45.58200        6.0638973E-18
   45.74350        6.0642563E-18
   45.90500        6.0644871E-18
   46.06650        6.0644838E-18
   46.22800        6.0642162E-18
   46.38950        6.0637339E-18
   46.55100        6.0631503E-18
   46.71250        6.0626176E-18
   46.87400        6.0622847E-18
   47.03550        6.0622578E-18
   47.19700        6.0625717E-18
   47.35850        6.0631797E-18
   47.52000        6.0639593E-18
   47.68150        6.0647435E-18
   47.84300        6.0653573E-18
   48.00450        6.0656600E-18
   48.16600        6.0655719E-18
   48.32750        6.0650950E-18
   48.48900        6.0643076E-18
   48.65050        6.0633447E-18
   48.81200        6.0623682E-18
   48.97350        6.0615295E-18
   49.13500        6.0609331E-18
   49.29650        6.0606146E-18
   49.45800        6.0605340E-18
   49.61950        6.0605886E-18
   49.78100        6.0606427E-18
   49.94250        6.0605658E-18
   50.10400        6.0602689E-18
   50.26550        6.0597300E-18
   50.42700        6.0589971E-18
   50.58850        6.0581806E-18
   50.75000        6.0574188E-18
   50.91150        6.0568452E-18
   51.07300        6.0565581E-18
   51.23450        6.0565925E-18
   51.39600        6.0569151E-18
   51.55750        6.0574296E-18
   51.71900        6.0579991E-18
   51.88050        6.0584793E-18
   52.04200        6.0587510E-18
   52.20350        6.0587481E-18
   52.36500        6.0584726E-18
   52.52650        6.0579875E-18
   52.68800        6.0573973E-18
   52.84950        6.0568175E-18
   53.01100        6.0563418E-18
   53.17250        6.0560221E-18
   53.33400        6.0558571E-18
   53.49550        6.0557959E-18
   53.65700        6.0557545E-18
   53.81850        6.0556358E-18
   53.98000        6.0553562E-18
   54.14150        6.0548632E-18
   54.30300        6.0541548E-18
   54.46450        6.0532763E-18
   54.62600        6.0523176E-18
   54.78750        6.0513924E-18
   54.94900        6.0506136E-18
   55.11050        6.0500639E-18
   55.27200        6.0497761E-18
   55.43350        6.0497260E-18
   55.59500        6.0498373E-18
   55.75650        6.0500031E-18
   55.91800        6.0501090E-18
   56.07950        6.0500602E-18
   56.24100        6.0497996E-18
   56.40250        6.0493220E-18
   56.56400        6.0486730E-18
   56.72550        6.0479389E-18
   56.88700        6.0472300E-18
   57.04850        6.0466526E-18
   57.21000        6.0462800E-18
   57.37150        6.0461344E-18
   57.53300        6.0461766E-18
   57.69450        6.0463164E-18
   57.85600        6.0464334E-18
   58.01750        6.0464161E-18
   58.17900        6.0461861E-18
   58.34050        6.0457200E-18
   58.50200        6.0450554E-18
   58.66350        6.0442790E-18
   58.82500        6.0435065E-18
   58.98650        6.0428567E-18
   59.14800        6.0424262E-18
   59.30950        6.0422694E-18
   59.47100        6.0423844E-18
   59.63250        6.0427091E-18
   59.79400        6.0431322E-18
   59.95550        6.0435180E-18
   60.11700        6.0437385E-18
   60.27850        6.0437029E-18
   60.44000        6.0433840E-18
   60.60150        6.0428220E-18
   60.76300        6.0421118E-18
   60.92450        6.0413810E-18
   61.08600        6.0407573E-18
   61.24750        6.0403379E-18
   61.40900        6.0401704E-18
   61.57050        6.0402399E-18
   61.73200        6.0404674E-18
   61.89350        6.0407255E-18
   62.05500        6.0408599E-18
   62.21650        6.0407304E-18
   62.37800        6.0402474E-18
   62.53950        6.0394028E-18
   62.70100        6.0382803E-18
   62.86250        6.0370416E-18
   63.02400        6.0358881E-18
   63.18550        6.0350121E-18
   63.34700        6.0345493E-18
   63.50850        6.0345460E-18
   63.67000        6.0349526E-18
   63.83150        6.0356346E-18
   63.99300        6.0364043E-18
   64.15450        6.0370635E-18
   64.31600        6.0374474E-18
   64.47750        6.0374618E-18
   64.63900        6.0371111E-18
   64.80050        6.0364994E-18
   64.96200        6.0358071E-18
   65.12350        6.0352446E-18
   65.28500        6.0349968E-18
   65.44650        6.0351697E-18
   65.60800        6.0357620E-18
   65.76950        6.0366620E-18
   65.93100        6.0376732E-18
   66.09250        6.0385624E-18
   66.25400        6.0391063E-18
   66.41550        6.0391385E-18
   66.57700        6.0385827E-18
   66.73850        6.0374664E-18
   66.90000        6.0359229E-18
   67.06150        6.0341668E-18
   67.22300        6.0324512E-18
   67.38450        6.0310156E-18
   67.54600        6.0300292E-18
   67.70750        6.0295474E-18
   67.86900        6.0295023E-18
   68.03050        6.0297207E-18
   68.19200        6.0299734E-18
   68.35350        6.0300354E-18
   68.51500        6.0297422E-18
   68.67650        6.0290262E-18
   68.83800        6.0279364E-18
   68.99950        6.0266291E-18
   69.16100        6.0253362E-18
   69.32250        6.0243188E-18
   69.48400        6.0238043E-18
   69.64550        6.0239296E-18
   69.80700        6.0246997E-18
   69.96850        6.0259715E-18
   70.13000        6.0274852E-18
   70.29150        6.0289191E-18
   70.45300        6.0299725E-18
   70.61450        6.0304354E-18
   70.77600        6.0302352E-18
   70.93750        6.0294456E-18
   71.09900        6.0282636E-18
   71.26050        6.0269612E-18
   71.42200        6.0258242E-18
   71.58350        6.0250893E-18
   71.74500        6.0248966E-18
   71.90650        6.0252493E-18
   72.06800        6.0260128E-18
   72.22950        6.0269368E-18
   72.39100        6.0277185E-18
   72.55250        6.0280758E-18
   72.71400        6.0278256E-18
   72.87550        6.0269327E-18
   73.03700        6.0255215E-18
   73.19850        6.0238419E-18
   73.36000        6.0222086E-18
   73.52150        6.0209265E-18
   73.68300        6.0202213E-18
   73.84450        6.0201911E-18
   74.00600        6.0207830E-18
   74.16750        6.0218000E-18
   74.32900        6.0229386E-18
   74.49050        6.0238535E-18
   74.65200        6.0242356E-18
   74.81350        6.0238957E-18
   74.97500        6.0228158E-18
   75.13650        6.0211602E-18
   75.29800        6.0192362E-18
   75.45950        6.0174172E-18
   75.62100        6.0160478E-18
   75.78250        6.0153645E-18
   75.94400        6.0154419E-18
   76.10550        6.0161851E-18
   76.26700        6.0173580E-18
   76.42850        6.0186360E-18
   76.59000        6.0196824E-18
   76.75150        6.0202193E-18
   76.91300        6.0200972E-18
   77.07450        6.0193313E-18
   77.23600        6.0181058E-18
   77.39750        6.0167315E-18
   77.55900        6.0155660E-18
   77.72050        6.0149220E-18
   77.88200        6.0149820E-18
   78.04350        6.0157562E-18
   78.20500        6.0170805E-18
   78.36650        6.0186617E-18
   78.52800        6.0201469E-18
   78.68950        6.0212069E-18
   78.85100        6.0216077E-18
   79.01250        6.0212582E-18
   79.17400        6.0202333E-18
   79.33550        6.0187597E-18
   79.49700        6.0171661E-18
   79.65850        6.0158058E-18
   79.82000        6.0149671E-18
   79.98150        6.0147946E-18
   80.14300        6.0152491E-18
   80.30450        6.0161177E-18
   80.46600        6.0170710E-18
   80.62750        6.0177510E-18
   80.78900        6.0178659E-18
   80.95050        6.0172584E-18
   81.11200        6.0159427E-18
   81.27350        6.0141002E-18
   81.43500        6.0120343E-18
   81.59650        6.0101024E-18
   81.75800        6.0086387E-18
   81.91950        6.0078695E-18
   82.08100        6.0078628E-18
   82.24250        6.0085039E-18
   82.40400        6.0095234E-18
   82.56550        6.0105685E-18
   82.72700        6.0112956E-18
   82.88850        6.0114644E-18
   83.05000        6.0109970E-18
   83.21150        6.0099970E-18
   83.37300        6.0087140E-18
   83.53450        6.0074790E-18
   83.69600        6.0066225E-18
   83.85750        6.0063925E-18
   84.01900        6.0068979E-18
   84.18050        6.0080762E-18
   84.34200        6.0097046E-18
   84.50350        6.0114420E-18
   84.66500        6.0129086E-18
   84.82650        6.0137735E-18
   84.98800        6.0138405E-18
   85.14950        6.0130993E-18
   85.31100        6.0117254E-18
   85.47250        6.0100342E-18
   85.63400        6.0083972E-18
   85.79550        6.0071473E-18
   85.95700        6.0064992E-18
   86.11850        6.0065009E-18
   86.28000        6.0070290E-18
   86.44150        6.0078240E-18
   86.60300        6.0085539E-18
   86.76450        6.0088989E-18
   86.92600        6.0086325E-18
   87.08750        6.0076887E-18
   87.24900        6.0061841E-18
   87.41050        6.0043994E-18
   87.57200        6.0027103E-18
   87.73350        6.0014915E-18
   87.89500        6.0010150E-18
   88.05650        6.0013806E-18
   88.21800        6.0024886E-18
   88.37950        6.0040681E-18
   88.54100        6.0057461E-18
   88.70250        6.0071386E-18
   88.86400        6.0079410E-18
   89.02550        6.0079935E-18
   89.18700        6.0073165E-18
   89.34850        6.0060993E-18
   89.51000        6.0046534E-18
   89.67150        6.0033291E-18
   89.83300        6.0024299E-18
   89.99450        6.0021280E-18
   90.15600        6.0024196E-18
   90.31750        6.0031243E-18
   90.47900        6.0039428E-18
   90.64050        6.0045367E-18
   90.80200        6.0046215E-18
   90.96350        6.0040458E-18
   91.12500        6.0028245E-18
   91.28650        6.0011374E-18
   91.44800        5.9992808E-18
   91.60950        5.9976041E-18
   91.77100        5.9964238E-18
   91.93250        5.9959531E-18
   92.09400        5.9962463E-18
   92.25550        5.9971819E-18
   92.41700        5.9984851E-18
   92.57850        5.9997937E-18
   92.74000        6.0007445E-18
   92.90150        6.0010667E-18
   93.06300        6.0006498E-18
   93.22450        5.9995699E-18
   93.38600        5.9980694E-18
   93.54750        5.9964932E-18
   93.70900        5.9952045E-18
   93.87050        5.9944968E-18
   94.03200        5.9945274E-18
   94.19350        5.9952748E-18
   94.35500        5.9965429E-18
   94.51650        5.9979983E-18
   94.67800        5.9992465E-18
   94.83950        5.9999236E-18
   95.00100        5.9997896E-18
   95.16250        5.9987916E-18
   95.32400        5.9970847E-18
   95.48550        5.9949927E-18
   95.64700        5.9929314E-18
   95.80850        5.9913031E-18
   95.97000        5.9904011E-18
   96.13150        5.9903398E-18
   96.29300        5.9910355E-18
   96.45450        5.9922279E-18
   96.61600        5.9935443E-18
   96.77750        5.9945887E-18
   96.93900        5.9950320E-18
   97.10050        5.9946908E-18
   97.26200        5.9935745E-18
   97.42350        5.9918850E-18
   97.58500        5.9899726E-18
   97.74650        5.9882483E-18
   97.90800        5.9870861E-18
   98.06950        5.9867313E-18
   98.23100        5.9872449E-18
   98.39250        5.9884985E-18
   98.55400        5.9902067E-18
   98.71550        5.9919967E-18
   98.87700        5.9934910E-18
   99.03850        5.9943848E-18
   99.20000        5.9945068E-18
   99.36150        5.9938496E-18
   99.52300        5.9925720E-18
   99.68450        5.9909598E-18
   99.84600        5.9893617E-18
   100.0075        5.9881052E-18
   100.1690        5.9874174E-18
   100.3305        5.9873686E-18
   100.4920        5.9878550E-18
   100.6535        5.9886325E-18
   100.8150        5.9893749E-18
   100.9765        5.9897587E-18
   101.1380        5.9895429E-18
   101.2995        5.9886251E-18
   101.4610        5.9870716E-18
   101.6225        5.9851079E-18
   101.7840        5.9830726E-18
   101.9455        5.9813505E-18
   102.1070        5.9802793E-18
   102.2685        5.9800720E-18
   102.4300        5.9807598E-18
   102.5915        5.9821752E-18
   102.7530        5.9839904E-18
   102.9145        5.9857949E-18
   103.0760        5.9871924E-18
   103.2375        5.9878918E-18
   103.3990        5.9877652E-18
   103.5605        5.9868694E-18
   103.7220        5.9854218E-18
   103.8835        5.9837468E-18
   104.0450        5.9821967E-18
   104.2065        5.9810775E-18
   104.3680        5.9805779E-18
   104.5295        5.9807255E-18
   104.6910        5.9813798E-18
   104.8525        5.9822604E-18
   105.0140        5.9830168E-18
   105.1755        5.9833113E-18
   105.3370        5.9829035E-18
   105.4985        5.9817099E-18
   105.6600        5.9798243E-18
   105.8215        5.9774983E-18
   105.9830        5.9750887E-18
   106.1445        5.9729810E-18
   106.3060        5.9715140E-18
   106.4675        5.9709069E-18
   106.6290        5.9712129E-18
   106.7905        5.9723028E-18
   106.9520        5.9738880E-18
   107.1135        5.9755813E-18
   107.2750        5.9769829E-18
   107.4365        5.9777791E-18
   107.5980        5.9778163E-18
   107.7595        5.9771401E-18
   107.9210        5.9759804E-18
   108.0825        5.9746896E-18
   108.2440        5.9736502E-18
   108.4055        5.9731829E-18
   108.5670        5.9734649E-18
   108.7285        5.9744886E-18
   108.8900        5.9760602E-18
   109.0515        5.9778444E-18
   109.2130        5.9794380E-18
   109.3745        5.9804637E-18
   109.5360        5.9806622E-18
   109.6975        5.9799529E-18
   109.8590        5.9784566E-18
   110.0205        5.9764655E-18
   110.1820        5.9743682E-18
   110.3435        5.9725530E-18
   110.5050        5.9713114E-18
   110.6665        5.9707729E-18
   110.8280        5.9708783E-18
   110.9895        5.9714044E-18
   111.1510        5.9720211E-18
   111.3125        5.9723743E-18
   111.4740        5.9721704E-18
   111.6355        5.9712493E-18
   111.7970        5.9696231E-18
   111.9585        5.9674861E-18
   112.1200        5.9651720E-18
   112.2815        5.9630859E-18
   112.4430        5.9616040E-18
   112.6045        5.9609873E-18
   112.7660        5.9613137E-18
   112.9275        5.9624576E-18
   113.0890        5.9641211E-18
   113.2505        5.9659053E-18
   113.4120        5.9674058E-18
   113.5735        5.9683079E-18
   113.7350        5.9684564E-18
   113.8965        5.9678893E-18
   114.0580        5.9668252E-18
   114.2195        5.9656067E-18
   114.3810        5.9646145E-18
   114.5425        5.9641703E-18
   114.7040        5.9644483E-18
   114.8655        5.9654256E-18
   115.0270        5.9668822E-18
   115.1885        5.9684526E-18
   115.3500        5.9697178E-18
   115.5115        5.9703134E-18
   115.6730        5.9700251E-18
   115.8345        5.9688431E-18
   115.9960        5.9669658E-18
   116.1575        5.9647489E-18
   116.3190        5.9626210E-18
   116.4805        5.9609815E-18
   116.6420        5.9601089E-18