  -30.00000       -8.8884329E-18
  -29.83850       -8.8931768E-18
  -29.67700       -8.9016785E-18
  -29.51550       -8.9122912E-18
  -29.35400       -8.9230851E-18
  -29.19250       -8.9322850E-18
  -29.03100       -8.9386700E-18
  -28.86950       -8.9418357E-18
  -28.70800       -8.9422608E-18
  -28.54650       -8.9411706E-18
  -28.38500       -8.9402102E-18
  -28.22350       -8.9410283E-18
  -28.06200       -8.9448598E-18
  -27.90050       -8.9522159E-18
  -27.73900       -8.9627451E-18
  -27.57750       -8.9753108E-18
  -27.41600       -8.9882512E-18
  -27.25450       -8.9997739E-18
  -27.09300       -9.0083807E-18
  -26.93150       -9.0132213E-18
  -26.77000       -9.0143033E-18
  -26.60850       -9.0124876E-18
  -26.44700       -9.0092947E-18
  -26.28550       -9.0065435E-18
  -26.12400       -9.0059248E-18
  -25.96250       -9.0086024E-18
  -25.80100       -9.0149468E-18
  -25.63950       -9.0244478E-18
  -25.47800       -9.0358472E-18
  -25.31650       -9.0474418E-18
  -25.15500       -9.0574879E-18
  -24.99350       -9.0646190E-18
  -24.83200       -9.0681602E-18
  -24.67050       -9.0682801E-18
  -24.50900       -9.0659458E-18
  -24.34750       -9.0626776E-18
  -24.18600       -9.0601853E-18
  -24.02450       -9.0599554E-18
  -23.86300       -9.0628960E-18
  -23.70150       -9.0691222E-18
  -23.54000       -9.0779366E-18
  -23.37850       -9.0880001E-18
  -23.21700       -9.0976624E-18
  -23.05550       -9.1053626E-18
  -22.89400       -9.1100081E-18
  -22.73250       -9.1112356E-18
  -22.57100       -9.1094961E-18
  -22.40950       -9.1059400E-18
  -22.24800       -9.1021466E-18
  -22.08650       -9.0997337E-18
  -21.92500       -9.0999777E-18
  -21.76350       -9.1035098E-18
  -21.60200       -9.1101611E-18
  -21.44050       -9.1190161E-18
  -21.27900       -9.1286254E-18
  -21.11750       -9.1373621E-18
  -20.95600       -9.1438125E-18
  -20.79450       -9.1471146E-18
  -20.63300       -9.1471609E-18
  -20.47150       -9.1446198E-18
  -20.31000       -9.1407668E-18
  -20.14850       -9.1371777E-18
  -19.98700       -9.1353405E-18
  -19.82550       -9.1363083E-18
  -19.66400       -9.1404492E-18
  -19.50250       -9.1473669E-18
  -19.34100       -9.1560043E-18
  -19.17950       -9.1649064E-18
  -19.01800       -9.1725760E-18
  -18.85650       -9.1778369E-18
  -18.69500       -9.1801158E-18
  -18.53350       -9.1795765E-18
  -18.37200       -9.1770718E-18
  -18.21050       -9.1739243E-18
  -18.04900       -9.1715975E-18
  -17.88750       -9.1713270E-18
  -17.72600       -9.1738193E-18
  -17.56450       -9.1790735E-18
  -17.40300       -9.1863866E-18
  -17.24150       -9.1945203E-18
  -17.08000       -9.2020063E-18
  -16.91850       -9.2075013E-18
  -16.75700       -9.2101143E-18
  -16.59550       -9.2096271E-18
  -16.43400       -9.2065450E-18
  -16.27250       -9.2019807E-18
  -16.11100       -9.1973873E-18
  -15.94950       -9.1942043E-18
  -15.78800       -9.1935145E-18
  -15.62650       -9.1957851E-18
  -15.46500       -9.2007606E-18
  -15.30350       -9.2075343E-18
  -15.14200       -9.2147788E-18
  -14.98050       -9.2210736E-18
  -14.81900       -9.2252542E-18
  -14.65750       -9.2266960E-18
  -14.49600       -9.2254585E-18
  -14.33450       -9.2222689E-18
  -14.17300       -9.2183415E-18
  -14.01150       -9.2150683E-18
  -13.85000       -9.2136745E-18
  -13.68850       -9.2149111E-18
  -13.52700       -9.2188626E-18
  -13.36550       -9.2249184E-18
  -13.20400       -9.2319205E-18
  -13.04250       -9.2384469E-18
  -12.88100       -9.2431618E-18
  -12.71950       -9.2451487E-18
  -12.55800       -9.2441363E-18
  -12.39650       -9.2405695E-18
  -12.23500       -9.2355129E-18
  -12.07350       -9.2303943E-18
  -11.91200       -9.2266670E-18
  -11.75050       -9.2254585E-18
  -11.58900       -9.2273064E-18
  -11.42750       -9.2320214E-18
  -11.26600       -9.2387339E-18
  -11.10450       -9.2461049E-18
  -10.94300       -9.2526496E-18
  -10.78150       -9.2570990E-18
  -10.62000       -9.2587079E-18
  -10.45850       -9.2574365E-18
  -10.29700       -9.2539557E-18
  -10.13550       -9.2494807E-18
  -9.974000       -9.2454680E-18
  -9.812500       -9.2432570E-18
  -9.651000       -9.2437400E-18
  -9.489500       -9.2471397E-18
  -9.328000       -9.2529507E-18
  -9.166500       -9.2600545E-18
  -9.005000       -9.2669904E-18
  -8.843500       -9.2723084E-18
  -8.682000       -9.2749314E-18
  -8.520500       -9.2744226E-18
  -8.359000       -9.2711098E-18
  -8.197500       -9.2660160E-18
  -8.036000       -9.2606228E-18
  -7.874500       -9.2565167E-18
  -7.713000       -9.2550112E-18
  -7.551500       -9.2568269E-18
  -7.390000       -9.2619190E-18
  -7.228500       -9.2694778E-18
  -7.067000       -9.2781226E-18
  -6.905500       -9.2862216E-18
  -6.744000       -9.2922749E-18
  -6.582500       -9.2952759E-18
  -6.421000       -9.2949409E-18
  -6.259500       -9.2917810E-18
  -6.098000       -9.2869759E-18
  -5.936500       -9.2820865E-18
  -5.775000       -9.2786752E-18
  -5.613500       -9.2779233E-18
  -5.452000       -9.2803420E-18
  -5.290500       -9.2856434E-18
  -5.129000       -9.2928100E-18
  -4.967500       -9.3003415E-18
  -4.806000       -9.3066140E-18
  -4.644500       -9.3102801E-18
  -4.483000       -9.3105969E-18
  -4.321500       -9.3076166E-18
  -4.160000       -9.3021894E-18
  -3.998500       -9.2957705E-18
  -3.837000       -9.2900870E-18
  -3.675500       -9.2867303E-18
  -3.514000       -9.2867774E-18
  -3.352500       -9.2905336E-18
  -3.191000       -9.2974497E-18
  -3.029500       -9.3062542E-18
  -2.868000       -9.3152490E-18
  -2.706500       -9.3227118E-18
  -2.545000       -9.3273035E-18
  -2.383500       -9.3283846E-18
  -2.222000       -9.3261611E-18
  -2.060500       -9.3216373E-18
  -1.899000       -9.3163715E-18
  -1.737500       -9.3121073E-18
  -1.576000       -9.3103554E-18
  -1.414500       -9.3120288E-18
  -1.253000       -9.3172210E-18
  -1.091500       -9.3251776E-18
 -0.9300000       -9.3344743E-18
 -0.7685000       -9.3433549E-18
 -0.6070000       -9.3501535E-18
 -0.4455000       -9.3536947E-18
 -0.2840000       -9.3535756E-18
 -0.1225000       -9.3502677E-18
  3.9000001E-02   -9.3449969E-18
  0.2005000       -9.3394572E-18
  0.3620000       -9.3354032E-18
  0.5235000       -9.3342328E-18
  0.6850000       -9.3366490E-18
  0.8465000       -9.3424922E-18
   1.008000       -9.3507656E-18
   1.169500       -9.3598745E-18
   1.331000       -9.3679975E-18
   1.492500       -9.3735197E-18
   1.654000       -9.3754231E-18
   1.815500       -9.3735214E-18
   1.977000       -9.3685144E-18
   2.138500       -9.3618159E-18
   2.300000       -9.3552167E-18
   2.461500       -9.3504662E-18
   2.623000       -9.3488565E-18
   2.784500       -9.3509294E-18
   2.946000       -9.3563549E-18
   3.107500       -9.3640187E-18
   3.269000       -9.3722971E-18
   3.430500       -9.3794473E-18
   3.592000       -9.3840282E-18
   3.753500       -9.3852409E-18
   3.915000       -9.3831274E-18
   4.076500       -9.3785506E-18
   4.238000       -9.3729854E-18
   4.399500       -9.3681588E-18
   4.561000       -9.3656276E-18
   4.722500       -9.3664043E-18
   4.884000       -9.3707106E-18
   5.045500       -9.3779261E-18
   5.207000       -9.3867372E-18
   5.368500       -9.3954516E-18
   5.530000       -9.4023941E-18
   5.691500       -9.4063075E-18
   5.853000       -9.4066442E-18
   6.014500       -9.4036944E-18
   6.176000       -9.3985130E-18
   6.337500       -9.3926673E-18
   6.499000       -9.3878639E-18
   6.660500       -9.3855395E-18
   6.822000       -9.3865263E-18
   6.983500       -9.3908582E-18
   7.145000       -9.3977784E-18
   7.306500       -9.4059270E-18
   7.468000       -9.4136785E-18
   7.629500       -9.4195325E-18
   7.791000       -9.4224698E-18
   7.952500       -9.4221885E-18
   8.114000       -9.4191652E-18
   8.275500       -9.4145330E-18
   8.437000       -9.4098007E-18
   8.598500       -9.4064862E-18
   8.760000       -9.4057450E-18
   8.921500       -9.4080959E-18
   9.083000       -9.4132914E-18
   9.244500       -9.4203845E-18
   9.406000       -9.4279606E-18
   9.567500       -9.4344813E-18
   9.729000       -9.4386569E-18
   9.890500       -9.4397587E-18
   10.05200       -9.4377908E-18
   10.21350       -9.4334845E-18
   10.37500       -9.4281236E-18
   10.53650       -9.4232349E-18
   10.69800       -9.4202281E-18
   10.85950       -9.4200561E-18
   11.02100       -9.4230025E-18
   11.18250       -9.4286132E-18
   11.34400       -9.4358130E-18
   11.50550       -9.4431700E-18
   11.66700       -9.4492407E-18
   11.82850       -9.4529200E-18
   11.99000       -9.4537000E-18
   12.15150       -9.4517859E-18
   12.31300       -9.4480330E-18
   12.47450       -9.4437316E-18
   12.63600       -9.4402823E-18
   12.79750       -9.4388521E-18
   12.95900       -9.4400937E-18
   13.12050       -9.4439905E-18
   13.28200       -9.4498627E-18
   13.44350       -9.4565389E-18
   13.60500       -9.4626435E-18
   13.76650       -9.4669365E-18
   13.92800       -9.4686207E-18
   14.08950       -9.4675346E-18
   14.25100       -9.4642027E-18
   14.41250       -9.4597028E-18
   14.57400       -9.4554139E-18
   14.73550       -9.4526710E-18
   14.89700       -9.4524518E-18
   15.05850       -9.4551360E-18
   15.22000       -9.4604200E-18
   15.38150       -9.4673898E-18
   15.54300       -9.4747459E-18
   15.70450       -9.4811144E-18
   15.86600       -9.4853727E-18
   16.02750       -9.4869171E-18
   16.18900       -9.4858037E-18
   16.35050       -9.4827307E-18
   16.51200       -9.4788595E-18
   16.67350       -9.4755318E-18
   16.83500       -9.4739328E-18
   16.99650       -9.4748047E-18
   17.15800       -9.4782565E-18
   17.31950       -9.4837457E-18
   17.48100       -9.4902084E-18
   17.64250       -9.4963271E-18
   17.80400       -9.5008534E-18
   17.96550       -9.5029181E-18
   18.12700       -9.5022464E-18
   18.28850       -9.4992272E-18
   18.45000       -9.4948324E-18
   18.61150       -9.4903805E-18
   18.77300       -9.4872281E-18
   18.93450       -9.4864348E-18
   19.09600       -9.4885061E-18
   19.25750       -9.4932607E-18
   19.41900       -9.4998724E-18
   19.58050       -9.5070606E-18
   19.74200       -9.5134017E-18
   19.90350       -9.5176708E-18
   20.06500       -9.5191391E-18
   20.22650       -9.5177461E-18
   20.38800       -9.5141173E-18
   20.54950       -9.5094098E-18
   20.71100       -9.5050381E-18
   20.87250       -9.5023316E-18
   21.03400       -9.5022166E-18
   21.19550       -9.5049877E-18
   21.35700       -9.5102328E-18
   21.51850       -9.5169247E-18
   21.68000       -9.5236712E-18
   21.84150       -9.5290495E-18
   22.00300       -9.5319620E-18
   22.16450       -9.5319091E-18
   22.32600       -9.5291182E-18
   22.48750       -9.5244975E-18
   22.64900       -9.5194220E-18
   22.81050       -9.5154027E-18
   22.97200       -9.5137293E-18
   23.13350       -9.5151512E-18
   23.29500       -9.5196933E-18
   23.45650       -9.5266399E-18
   23.61800       -9.5346934E-18
   23.77950       -9.5422720E-18
   23.94100       -9.5478886E-18
   24.10250       -9.5505049E-18
   24.26400       -9.5497911E-18
   24.42550       -9.5462119E-18
   24.58700       -9.5409212E-18
   24.74850       -9.5354916E-18
   24.91000       -9.5315360E-18
   25.07150       -9.5303192E-18
   25.23300       -9.5324542E-18
   25.39450       -9.5377548E-18
   25.55600       -9.5452738E-18
   25.71750       -9.5535283E-18
   25.87900       -9.5608497E-18
   26.04050       -9.5657838E-18
   26.20200       -9.5674456E-18
   26.36350       -9.5657383E-18
   26.52500       -9.5613915E-18
   26.68650       -9.5557914E-18
   26.84800       -9.5506522E-18
   27.00950       -9.5476015E-18
   27.17100       -9.5477810E-18
   27.33250       -9.5515612E-18
   27.49400       -9.5584392E-18
   27.65550       -9.5671544E-18
   27.81700       -9.5759730E-18
   27.97850       -9.5831033E-18
   28.14000       -9.5871135E-18
   28.30150       -9.5872806E-18
   28.46300       -9.5837675E-18
   28.62450       -9.5775918E-18
   28.78600       -9.5703995E-18
   28.94750       -9.5640740E-18
   29.10900       -9.5602905E-18
   29.27050       -9.5601118E-18
   29.43200       -9.5637307E-18
   29.59350       -9.5704185E-18
   29.75500       -9.5786994E-18
   29.91650       -9.5867048E-18
   30.07800       -9.5926250E-18
   30.23950       -9.5951454E-18
   30.40100       -9.5937690E-18
   30.56250       -9.5889357E-18
   30.72400       -9.5819279E-18
   30.88550       -9.5745684E-18
   31.04700       -9.5687848E-18
   31.20850       -9.5661469E-18
   31.37000       -9.5674845E-18
   31.53150       -9.5726767E-18
   31.69300       -9.5806747E-18
   31.85450       -9.5897480E-18
   32.01600       -9.5978949E-18
   32.17750       -9.6033328E-18
   32.33900       -9.6049268E-18
   32.50050       -9.6024676E-18
   32.66200       -9.5967270E-18
   32.82350       -9.5892765E-18
   32.98500       -9.5821132E-18
   33.14650       -9.5771865E-18
   33.30800       -9.5759316E-18
   33.46950       -9.5789285E-18
   33.63100       -9.5857585E-18
   33.79250       -9.5951007E-18
   33.95400       -9.6050509E-18
   34.11550       -9.6135824E-18
   34.27700       -9.6190302E-18
   34.43850       -9.6205001E-18
   34.60000       -9.6180806E-18
   34.76150       -9.6128173E-18
   34.92300       -9.6064529E-18
   35.08450       -9.6009993E-18
   35.24600       -9.5982448E-18
   35.40750       -9.5993185E-18
   35.56900       -9.6044106E-18
   35.73050       -9.6127271E-18
   35.89200       -9.6226781E-18
   36.05350       -9.6322560E-18
   36.21500       -9.6395211E-18
   36.37650       -9.6430689E-18
   36.53800       -9.6423733E-18
   36.69950       -9.6379073E-18
   36.86100       -9.6310368E-18
   37.02250       -9.6236724E-18
   37.18400       -9.6178093E-18
   37.34550       -9.6150349E-18
   37.50700       -9.6161500E-18
   37.66850       -9.6209741E-18
   37.83000       -9.6284014E-18
   37.99150       -9.6366740E-18
   38.15300       -9.6438159E-18
   38.31450       -9.6481114E-18
   38.47600       -9.6485209E-18
   38.63750       -9.6449309E-18
   38.79900       -9.6381795E-18
   38.96050       -9.6298522E-18
   39.12200       -9.6218906E-18
   39.28350       -9.6161260E-18
   39.44500       -9.6138331E-18
   39.60650       -9.6154312E-18
   39.76800       -9.6203934E-18
   39.92950       -9.6273972E-18
   40.09100       -9.6346631E-18
   40.25250       -9.6403996E-18
   40.41400       -9.6432484E-18
   40.57550       -9.6426115E-18
   40.73700       -9.6387941E-18
   40.89850       -9.6329202E-18
   41.06000       -9.6266560E-18
   41.22150       -9.6217980E-18
   41.38300       -9.6198334E-18
   41.54450       -9.6215738E-18
   41.70600       -9.6269579E-18
   41.86750       -9.6350618E-18
   42.02900       -9.6443271E-18
   42.19050       -9.6529380E-18
   42.35200       -9.6592626E-18
   42.51350       -9.6622397E-18
   42.67500       -9.6616242E-18
   42.83650       -9.6580260E-18
   42.99800       -9.6527461E-18
   43.15950       -9.6474480E-18
   43.32100       -9.6437422E-18
   43.48250       -9.6428026E-18
   43.64400       -9.6450806E-18
   43.80550       -9.6502058E-18
   43.96700       -9.6570847E-18
   44.12850       -9.6641794E-18
   44.29000       -9.6698919E-18
   44.45150       -9.6729665E-18
   44.61300       -9.6728028E-18
   44.77450       -9.6696040E-18
   44.93600       -9.6643283E-18
   45.09750       -9.6584462E-18
   45.25900       -9.6535783E-18
   45.42050       -9.6510959E-18
   45.58200       -9.6517899E-18
   45.74350       -9.6556826E-18
   45.90500       -9.6620262E-18
   46.06650       -9.6694866E-18
   46.22800       -9.6764672E-18
   46.38950       -9.6814923E-18
   46.55100       -9.6835660E-18
   46.71250       -9.6824080E-18
   46.87400       -9.6785177E-18
   47.03550       -9.6730451E-18
   47.19700       -9.6675030E-18
   47.35850       -9.6633903E-18
   47.52000       -9.6618219E-18
   47.68150       -9.6632604E-18
   47.84300       -9.6674095E-18
   48.00450       -9.6732949E-18
   48.16600       -9.6795128E-18
   48.32750       -9.6845768E-18
   48.48900       -9.6872834E-18
   48.65050       -9.6870063E-18
   48.81200       -9.6838531E-18
   48.97350       -9.6786443E-18
   49.13500       -9.6727118E-18
   49.29650       -9.6675832E-18
   49.45800       -9.6646062E-18
   49.61950       -9.6646219E-18
   49.78100       -9.6677570E-18
   49.94250       -9.6733967E-18
   50.10400       -9.6803375E-18
   50.26550       -9.6870832E-18
   50.42700       -9.6922059E-18
   50.58850       -9.6946933E-18
   50.75000       -9.6941812E-18
   50.91150       -9.6910388E-18
   51.07300       -9.6862742E-18
   51.23450       -9.6812863E-18
   51.39600       -9.6775260E-18
   51.55750       -9.6761379E-18
   51.71900       -9.6776897E-18
   51.88050       -9.6820209E-18
   52.04200       -9.6882859E-18
   52.20350       -9.6951606E-18
   52.36500       -9.7011602E-18
   52.52650       -9.7050057E-18
   52.68800       -9.7059330E-18
   52.84950       -9.7038700E-18
   53.01100       -9.6994529E-18
   53.17250       -9.6938694E-18
   53.33400       -9.6885738E-18
   53.49550       -9.6849400E-18
   53.65700       -9.6839407E-18
   53.81850       -9.6859144E-18
   53.98000       -9.6904887E-18
   54.14150       -9.6966694E-18
   54.30300       -9.7030784E-18
   54.46450       -9.7082863E-18
   54.62600       -9.7111608E-18
   54.78750       -9.7111335E-18
   54.94900       -9.7083434E-18
   55.11050       -9.7035946E-18
   55.27200       -9.6981707E-18
   55.43350       -9.6935269E-18
   55.59500       -9.6909478E-18
   55.75650       -9.6912530E-18
   55.91800       -9.6946056E-18
   56.07950       -9.7004744E-18
   56.24100       -9.7077569E-18
   56.40250       -9.7150295E-18
   56.56400       -9.7208785E-18
   56.72550       -9.7242269E-18
   56.88700       -9.7245925E-18
   57.04850       -9.7221970E-18
   57.21000       -9.7179155E-18
   57.37150       -9.7130649E-18
   57.53300       -9.7090953E-18
   57.69450       -9.7072408E-18
   57.85600       -9.7082326E-18
   58.01750       -9.7121228E-18
   58.17900       -9.7182712E-18
   58.34050       -9.7254925E-18
   58.50200       -9.7323225E-18
   58.66350       -9.7373592E-18
   58.82500       -9.7395935E-18
   58.98650       -9.7386472E-18
   59.14800       -9.7348785E-18
   59.30950       -9.7293025E-18
   59.47100       -9.7233633E-18
   59.63250       -9.7185946E-18
   59.79400       -9.7162546E-18
   59.95550       -9.7170271E-18
   60.11700       -9.7208562E-18
   60.27850       -9.7269591E-18
   60.44000       -9.7340017E-18
   60.60150       -9.7404173E-18
   60.76300       -9.7447683E-18
   60.92450       -9.7460852E-18
   61.08600       -9.7441008E-18
   61.24750       -9.7393238E-18
   61.40900       -9.7329264E-18
   61.57050       -9.7264769E-18
   61.73200       -9.7215700E-18
   61.89350       -9.7194491E-18
   62.05500       -9.7207015E-18
   62.21650       -9.7251178E-18
   62.37800       -9.7317369E-18
   62.53950       -9.7390773E-18
   62.70100       -9.7454888E-18
   62.86250       -9.7495477E-18
   63.02400       -9.7503964E-18
   63.18550       -9.7479505E-18
   63.34700       -9.7429262E-18
   63.50850       -9.7366727E-18
   63.67000       -9.7308559E-18
   63.83150       -9.7270642E-18
   63.99300       -9.7264198E-18
   64.15450       -9.7293025E-18
   64.31600       -9.7352524E-18
   64.47750       -9.7430643E-18
   64.63900       -9.7510780E-18
   64.80050       -9.7575689E-18
   64.96200       -9.7611647E-18
   65.12350       -9.7611705E-18
   65.28500       -9.7577302E-18
   65.44650       -9.7517952E-18
   65.60800       -9.7448924E-18
   65.76950       -9.7387597E-18
   65.93100       -9.7349323E-18
   66.09250       -9.7343748E-18
   66.25400       -9.7372501E-18
   66.41550       -9.7428848E-18
   66.57700       -9.7499299E-18
   66.73850       -9.7566962E-18
   66.90000       -9.7615683E-18
   67.06150       -9.7634022E-18
   67.22300       -9.7618115E-18
   67.38450       -9.7572653E-18
   67.54600       -9.7509771E-18
   67.70750       -9.7446120E-18
   67.86900       -9.7398921E-18
   68.03050       -9.7381823E-18
   68.19200       -9.7401626E-18
   68.35350       -9.7456674E-18
   68.51500       -9.7537250E-18
   68.67650       -9.7627835E-18
   68.83800       -9.7710793E-18
   68.99950       -9.7770573E-18
   69.16100       -9.7797390E-18
   69.32250       -9.7789474E-18
   69.48400       -9.7753442E-18
   69.64550       -9.7702546E-18
   69.80700       -9.7653403E-18
   69.96850       -9.7621871E-18
   70.13000       -9.7619182E-18
   70.29150       -9.7649209E-18
   70.45300       -9.7707558E-18
   70.61450       -9.7782608E-18
   70.77600       -9.7858329E-18
   70.93750       -9.7918142E-18
   71.09900       -9.7948913E-18
   71.26050       -9.7944099E-18
   71.42200       -9.7905403E-18
   71.58350       -9.7842323E-18
   71.74500       -9.7769928E-18
   71.90650       -9.7705234E-18
   72.06800       -9.7663081E-18
   72.22950       -9.7652584E-18
   72.39100       -9.7675025E-18
   72.55250       -9.7723581E-18
   72.71400       -9.7785115E-18
   72.87550       -9.7843448E-18
   73.03700       -9.7883342E-18
   73.19850       -9.7894261E-18
   73.36000       -9.7872994E-18
   73.52150       -9.7824422E-18
   73.68300       -9.7760423E-18
   73.84450       -9.7696995E-18
   74.00600       -9.7650350E-18
   74.16750       -9.7632988E-18
   74.32900       -9.7650557E-18
   74.49050       -9.7700453E-18
   74.65200       -9.7772393E-18
   74.81350       -9.7850942E-18
   74.97500       -9.7919267E-18
   75.13650       -9.7963256E-18
   75.29800       -9.7974920E-18
   75.45950       -9.7954348E-18
   75.62100       -9.7909564E-18
   75.78250       -9.7854540E-18
   75.94400       -9.7805728E-18
   76.10550       -9.7777984E-18
   76.26700       -9.7780904E-18
   76.42850       -9.7816374E-18
   76.59000       -9.7878048E-18
   76.75150       -9.7952884E-18
   76.91300       -9.8024294E-18
   77.07450       -9.8076241E-18
   77.23600       -9.8097202E-18
   77.39750       -9.8083049E-18
   77.55900       -9.8038050E-18
   77.72050       -9.7973819E-18
   77.88200       -9.7906487E-18
   78.04350       -9.7852687E-18
   78.20500       -9.7825580E-18
   78.36650       -9.7831627E-18
   78.52800       -9.7869057E-18
   78.68950       -9.7928382E-18
   78.85100       -9.7994656E-18
   79.01250       -9.8051235E-18
   79.17400       -9.8083876E-18
   79.33550       -9.8084265E-18
   79.49700       -9.8052187E-18
   79.65850       -9.7995583E-18
   79.82000       -9.7928672E-18
   79.98150       -9.7868420E-18
   80.14300       -9.7830370E-18
   80.30450       -9.7824861E-18
   80.46600       -9.7854466E-18
   80.62750       -9.7913419E-18
   80.78900       -9.7988990E-18
   80.95050       -9.8064611E-18
   81.11200       -9.8123870E-18
   81.27350       -9.8154501E-18
   81.43500       -9.8151366E-18
   81.59650       -9.8117708E-18
   81.75800       -9.8064421E-18
   81.91950       -9.8007337E-18
   82.08100       -9.7963356E-18
   82.24250       -9.7946283E-18
   82.40400       -9.7963389E-18
   82.56550       -9.8013615E-18
   82.72700       -9.8087805E-18
   82.88850       -9.8170937E-18
   83.05000       -9.8245755E-18
   83.21150       -9.8296891E-18
   83.37300       -9.8314577E-18
   83.53450       -9.8296966E-18
   83.69600       -9.8250553E-18
   83.85750       -9.8188663E-18
   84.01900       -9.8128204E-18
   84.18050       -9.8085638E-18
   84.34200       -9.8072949E-18
   84.50350       -9.8094720E-18
   84.66500       -9.8147039E-18
   84.82650       -9.8218400E-18
   84.98800       -9.8292507E-18
   85.14950       -9.8352263E-18
   85.31100       -9.8383853E-18
   85.47250       -9.8380122E-18
   85.63400       -9.8342254E-18
   85.79550       -9.8279554E-18
   85.95700       -9.8207184E-18
   86.11850       -9.8142589E-18
   86.28000       -9.8101329E-18
   86.44150       -9.8093339E-18
   86.60300       -9.8120495E-18
   86.76450       -9.8176164E-18
   86.92600       -9.8246797E-18
   87.08750       -9.8315180E-18
   87.24900       -9.8364654E-18
   87.41050       -9.8383092E-18
   87.57200       -9.8365911E-18
   87.73350       -9.8317091E-18
   87.89500       -9.8248261E-18
   88.05650       -9.8175800E-18
   88.21800       -9.8116938E-18
   88.37950       -9.8085572E-18
   88.54100       -9.8088955E-18
   88.70250       -9.8125905E-18
   88.86400       -9.8187108E-18
   89.02550       -9.8257336E-18
   89.18700       -9.8319126E-18
   89.34850       -9.8357036E-18
   89.51000       -9.8361387E-18
   89.67150       -9.8330632E-18
   89.83300       -9.8271720E-18
   89.99450       -9.8198465E-18
   90.15600       -9.8128213E-18
   90.31750       -9.8077722E-18
   90.47900       -9.8059193E-18
   90.64050       -9.8077424E-18
   90.80200       -9.8128742E-18
   90.96350       -9.8201964E-18
   91.12500       -9.8281067E-18
   91.28650       -9.8349045E-18
   91.44800       -9.8392001E-18
   91.60950       -9.8402423E-18
   91.77100       -9.8380941E-18
   91.93250       -9.8336149E-18
   92.09400       -9.8282424E-18
   92.25550       -9.8236441E-18
   92.41700       -9.8213106E-18
   92.57850       -9.8221949E-18
   92.74000       -9.8264805E-18
   92.90150       -9.8335405E-18
   93.06300       -9.8420795E-18
   93.22450       -9.8504472E-18
   93.38600       -9.8570175E-18
   93.54750       -9.8605794E-18
   93.70900       -9.8606100E-18
   93.87050       -9.8574005E-18
   94.03200       -9.8519759E-18
   94.19350       -9.8458539E-18
   94.35500       -9.8406741E-18
   94.51650       -9.8378104E-18
   94.67800       -9.8380412E-18
   94.83950       -9.8413706E-18
   95.00100       -9.8470302E-18
   95.16250       -9.8536691E-18
   95.32400       -9.8596819E-18
   95.48550       -9.8635953E-18
   95.64700       -9.8644225E-18
   95.80850       -9.8618996E-18
   95.97000       -9.8565477E-18
   96.13150       -9.8495555E-18
   96.29300       -9.8424964E-18
   96.45450       -9.8369617E-18
   96.61600       -9.8341832E-18
   96.77750       -9.8347465E-18
   96.93900       -9.8384523E-18
   97.10050       -9.8443716E-18
   97.26200       -9.8510643E-18
   97.42350       -9.8569323E-18
   97.58500       -9.8606017E-18
   97.74650       -9.8612486E-18
   97.90800       -9.8588001E-18
   98.06950       -9.8539454E-18
   98.23100       -9.8479673E-18
   98.39250       -9.8424368E-18
   98.55400       -9.8388278E-18
   98.71550       -9.8381628E-18
   98.87700       -9.8407659E-18
   99.03850       -9.8461740E-18
   99.20000       -9.8532472E-18
   99.36150       -9.8604338E-18
   99.52300       -9.8661422E-18
   99.68450       -9.8691225E-18
   99.84600       -9.8687660E-18
   100.0075       -9.8652538E-18
   100.1690       -9.8595123E-18
   100.3305       -9.8529850E-18
   100.4920       -9.8472891E-18
   100.6535       -9.8438157E-18
   100.8150       -9.8434005E-18
   100.9765       -9.8461219E-18
   101.1380       -9.8512885E-18
   101.2995       -9.8576114E-18
   101.4610       -9.8635217E-18
   101.6225       -9.8675575E-18
   101.7840       -9.8687254E-18
   101.9455       -9.8667435E-18
   102.1070       -9.8621179E-18
   102.2685       -9.8560125E-18
   102.4300       -9.8499642E-18
   102.5915       -9.8455065E-18
   102.7530       -9.8437860E-18
   102.9145       -9.8452831E-18
   103.0760       -9.8496970E-18
   103.2375       -9.8560208E-18
   103.3990       -9.8627904E-18
   103.5605       -9.8684500E-18
   103.7220       -9.8717265E-18
   103.8835       -9.8719415E-18
   104.0450       -9.8691738E-18
   104.2065       -9.8642322E-18
   104.3680       -9.8584552E-18
   104.5295       -9.8533779E-18
   104.6910       -9.8503521E-18
   104.8525       -9.8502165E-18
   105.0140       -9.8530909E-18
   105.1755       -9.8583493E-18
   105.3370       -9.8647798E-18
   105.4985       -9.8708836E-18
   105.6600       -9.8752453E-18
   105.8215       -9.8768806E-18
   105.9830       -9.8754711E-18
   106.1445       -9.8714419E-18
   106.3060       -9.8658568E-18
   106.4675       -9.8601550E-18
   106.6290       -9.8558057E-18
   106.7905       -9.8539512E-18
   106.9520       -9.8551316E-18
   107.1135       -9.8591533E-18
   107.2750       -9.8651404E-18
   107.4365       -9.8717480E-18
   107.5980       -9.8774894E-18
   107.7595       -9.8811001E-18
   107.9210       -9.8818412E-18
   108.0825       -9.8796748E-18
   108.2440       -9.8752668E-18
   108.4055       -9.8698206E-18
   108.5670       -9.8647765E-18
   108.7285       -9.8614645E-18
   108.8900       -9.8607762E-18
   109.0515       -9.8629501E-18
   109.2130       -9.8675178E-18
   109.3745       -9.8734164E-18
   109.5360       -9.8792530E-18
   109.6975       -9.8836503E-18
   109.8590       -9.8855817E-18
   110.0205       -9.8846305E-18
   110.1820       -9.8810918E-18
   110.3435       -9.8759004E-18
   110.5050       -9.8704038E-18
   110.6665       -9.8660272E-18
   110.8280       -9.8639295E-18
   110.9895       -9.8647211E-18
   111.1510       -9.8683127E-18
   111.3125       -9.8739408E-18
   111.4740       -9.8803498E-18
   111.6355       -9.8860995E-18
   111.7970       -9.8899137E-18
   111.9585       -9.8909882E-18
   112.1200       -9.8891932E-18
   112.2815       -9.8851020E-18
   112.4430       -9.8798494E-18
   112.6045       -9.8748606E-18
   112.7660       -9.8714965E-18
   112.9275       -9.8707247E-18
   113.0890       -9.8728787E-18
   113.2505       -9.8775771E-18
   113.4120       -9.8838116E-18
   113.5735       -9.8901900E-18
   113.7350       -9.8952680E-18
   113.8965       -9.8978951E-18
   114.0580       -9.8974898E-18
   114.2195       -9.8941794E-18
   114.3810       -9.8887722E-18
   114.5425       -9.8825592E-18
   114.7040       -9.8769989E-18
   114.8655       -9.8733692E-18
   115.0270       -9.8724486E-18
   115.1885       -9.8743329E-18
   115.3500       -9.8784084E-18
   115.5115       -9.8835080E-18
   115.6730       -9.8881973E-18
   115.8345       -9.8911280E-18
   115.9960       -9.8913745E-18
   116.1575       -9.8886646E-18
   116.3190       -9.8834542E-18
   116.4805       -9.8768318E-18
   116.6420       -9.8702574E-18