  -30.00000        1.0339476E-17
  -29.83850        1.0350588E-17
  -29.67700        1.0369956E-17
  -29.51550        1.0392898E-17
  -29.35400        1.0414174E-17
  -29.19250        1.0429414E-17
  -29.03100        1.0436292E-17
  -28.86950        1.0435118E-17
  -28.70800        1.0428690E-17
  -28.54650        1.0421460E-17
  -28.38500        1.0418214E-17
  -28.22350        1.0422687E-17
  -28.06200        1.0436459E-17
  -27.90050        1.0458474E-17
  -27.73900        1.0485294E-17
  -27.57750        1.0512044E-17
  -27.41600        1.0533758E-17
  -27.25450        1.0546765E-17
  -27.09300        1.0549727E-17
  -26.93150        1.0544022E-17
  -26.77000        1.0533373E-17
  -26.60850        1.0522823E-17
  -26.44700        1.0517337E-17
  -26.28550        1.0520420E-17
  -26.12400        1.0533143E-17
  -25.96250        1.0553849E-17
  -25.80100        1.0578624E-17
  -25.63950        1.0602396E-17
  -25.47800        1.0620370E-17
  -25.31650        1.0629380E-17
  -25.15500        1.0628797E-17
  -24.99350        1.0620711E-17
  -24.83200        1.0609364E-17
  -24.67050        1.0599955E-17
  -24.50900        1.0597180E-17
  -24.34750        1.0603903E-17
  -24.18600        1.0620325E-17
  -24.02450        1.0643905E-17
  -23.86300        1.0670049E-17
  -23.70150        1.0693382E-17
  -23.54000        1.0709235E-17
  -23.37850        1.0714965E-17
  -23.21700        1.0710689E-17
  -23.05550        1.0699262E-17
  -22.89400        1.0685479E-17
  -22.73250        1.0674739E-17
  -22.57100        1.0671523E-17
  -22.40950        1.0678135E-17
  -22.24800        1.0694056E-17
  -22.08650        1.0716095E-17
  -21.92500        1.0739300E-17
  -21.76350        1.0758371E-17
  -21.60200        1.0769186E-17
  -21.44050        1.0770002E-17
  -21.27900        1.0761974E-17
  -21.11750        1.0748867E-17
  -20.95600        1.0736004E-17
  -20.79450        1.0728763E-17
  -20.63300        1.0731043E-17
  -20.47150        1.0744120E-17
  -20.31000        1.0766246E-17
  -20.14850        1.0793094E-17
  -19.98700        1.0818937E-17
  -19.82550        1.0838237E-17
  -19.66400        1.0847199E-17
  -19.50250        1.0844835E-17
  -19.34100        1.0833255E-17
  -19.17950        1.0817092E-17
  -19.01800        1.0802197E-17
  -18.85650        1.0794005E-17
  -18.69500        1.0796003E-17
  -18.53350        1.0808759E-17
  -18.37200        1.0829763E-17
  -18.21050        1.0854158E-17
  -18.04900        1.0876134E-17
  -17.88750        1.0890593E-17
  -17.72600        1.0894618E-17
  -17.56450        1.0888317E-17
  -17.40300        1.0874791E-17
  -17.24150        1.0859254E-17
  -17.08000        1.0847515E-17
  -16.91850        1.0844299E-17
  -16.75700        1.0851849E-17
  -16.59550        1.0869248E-17
  -16.43400        1.0892637E-17
  -16.27250        1.0916287E-17
  -16.11100        1.0934223E-17
  -15.94950        1.0941945E-17
  -15.78800        1.0937734E-17
  -15.62650        1.0923187E-17
  -15.46500        1.0902815E-17
  -15.30350        1.0882796E-17
  -15.14200        1.0869263E-17
  -14.98050        1.0866575E-17
  -14.81900        1.0876092E-17
  -14.65750        1.0895793E-17
  -14.49600        1.0920845E-17
  -14.33450        1.0944969E-17
  -14.17300        1.0962218E-17
  -14.01150        1.0968644E-17
  -13.85000        1.0963404E-17
  -13.68850        1.0948962E-17
  -13.52700        1.0930355E-17
  -13.36550        1.0913704E-17
  -13.20400        1.0904441E-17
  -13.04250        1.0905711E-17
  -12.88100        1.0917464E-17
  -12.71950        1.0936458E-17
  -12.55800        1.0957201E-17
  -12.39650        1.0973561E-17
  -12.23500        1.0980565E-17
  -12.07350        1.0975890E-17
  -11.91200        1.0960594E-17
  -11.75050        1.0938883E-17
  -11.58900        1.0916967E-17
  -11.42750        1.0901326E-17
  -11.26600        1.0896881E-17
  -11.10450        1.0905600E-17
  -10.94300        1.0925913E-17
  -10.78150        1.0953152E-17
  -10.62000        1.0980842E-17
  -10.45850        1.1002515E-17
  -10.29700        1.1013512E-17
  -10.13550        1.1012269E-17
  -9.974000        1.1000706E-17
  -9.812500        1.0983631E-17
  -9.651000        1.0967314E-17
  -9.489500        1.0957648E-17
  -9.328000        1.0958437E-17
  -9.166500        1.0970280E-17
  -9.005000        1.0990406E-17
  -8.843500        1.1013474E-17
  -8.682000        1.1033138E-17
  -8.520500        1.1043893E-17
  -8.359000        1.1042704E-17
  -8.197500        1.1029911E-17
  -8.036000        1.1009174E-17
  -7.874500        1.0986450E-17
  -7.713000        1.0968308E-17
  -7.551500        1.0960057E-17
  -7.390000        1.0964231E-17
  -7.228500        1.0979865E-17
  -7.067000        1.1002774E-17
  -6.905500        1.1026758E-17
  -6.744000        1.1045380E-17
  -6.582500        1.1053817E-17
  -6.421000        1.1050241E-17
  -6.259500        1.1036338E-17
  -6.098000        1.1016812E-17
  -5.936500        1.0998023E-17
  -5.775000        1.0986140E-17
  -5.613500        1.0985358E-17
  -5.452000        1.0996681E-17
  -5.290500        1.1017624E-17
  -5.129000        1.1042931E-17
  -4.967500        1.1066085E-17
  -4.806000        1.1081182E-17
  -4.644500        1.1084635E-17
  -4.483000        1.1076196E-17
  -4.321500        1.1059028E-17
  -4.160000        1.1038784E-17
  -3.998500        1.1021970E-17
  -3.837000        1.1014074E-17
  -3.675500        1.1017987E-17
  -3.514000        1.1033182E-17
  -3.352500        1.1055883E-17
  -3.191000        1.1080174E-17
  -3.029500        1.1099715E-17
  -2.868000        1.1109591E-17
  -2.706500        1.1107721E-17
  -2.545000        1.1095459E-17
  -2.383500        1.1077182E-17
  -2.222000        1.1059016E-17
  -2.060500        1.1047048E-17
  -1.899000        1.1045559E-17
  -1.737500        1.1055776E-17
  -1.576000        1.1075525E-17
  -1.414500        1.1099848E-17
  -1.253000        1.1122438E-17
  -1.091500        1.1137452E-17
 -0.9300000        1.1141175E-17
 -0.7685000        1.1133083E-17
 -0.6070000        1.1115964E-17
 -0.4455000        1.1095103E-17
 -0.2840000        1.1076743E-17
 -0.1225000        1.1066309E-17
  3.9000001E-02    1.1066862E-17
  0.2005000        1.1078265E-17
  0.3620000        1.1097275E-17
  0.5235000        1.1118541E-17
  0.6850000        1.1136177E-17
  0.8465000        1.1145493E-17
   1.008000        1.1144343E-17
   1.169500        1.1133725E-17
   1.331000        1.1117457E-17
   1.492500        1.1101042E-17
   1.654000        1.1090043E-17
   1.815500        1.1088460E-17
   1.977000        1.1097573E-17
   2.138500        1.1115585E-17
   2.300000        1.1138144E-17
   2.461500        1.1159613E-17
   2.623000        1.1174694E-17
   2.784500        1.1179937E-17
   2.946000        1.1174705E-17
   3.107500        1.1161327E-17
   3.269000        1.1144396E-17
   3.430500        1.1129434E-17
   3.592000        1.1121312E-17
   3.753500        1.1122883E-17
   3.915000        1.1134209E-17
   4.076500        1.1152607E-17
   4.238000        1.1173464E-17
   4.399500        1.1191593E-17
   4.561000        1.1202720E-17
   4.722500        1.1204676E-17
   4.884000        1.1197955E-17
   5.045500        1.1185500E-17
   5.207000        1.1171787E-17
   5.368500        1.1161497E-17
   5.530000        1.1158144E-17
   5.691500        1.1163088E-17
   5.853000        1.1175179E-17
   6.014500        1.1191135E-17
   6.176000        1.1206525E-17
   6.337500        1.1217068E-17
   6.499000        1.1219865E-17
   6.660500        1.1214215E-17
   6.822000        1.1201790E-17
   6.983500        1.1186134E-17
   7.145000        1.1171652E-17
   7.306500        1.1162376E-17
   7.468000        1.1160861E-17
   7.629500        1.1167537E-17
   7.791000        1.1180656E-17
   7.952500        1.1196859E-17
   8.114000        1.1212163E-17
   8.275500        1.1223086E-17
   8.437000        1.1227590E-17
   8.598500        1.1225580E-17
   8.760000        1.1218843E-17
   8.921500        1.1210449E-17
   9.083000        1.1203824E-17
   9.244500        1.1201751E-17
   9.406000        1.1205586E-17
   9.567500        1.1214904E-17
   9.729000        1.1227657E-17
   9.890500        1.1240782E-17
   10.05200        1.1251076E-17
   10.21350        1.1256082E-17
   10.37500        1.1254750E-17
   10.53650        1.1247691E-17
   10.69800        1.1236979E-17
   10.85950        1.1225565E-17
   11.02100        1.1216480E-17
   11.18250        1.1212048E-17
   11.34400        1.1213321E-17
   11.50550        1.1219871E-17
   11.66700        1.1229986E-17
   11.82850        1.1241186E-17
   11.99000        1.1250923E-17
   12.15150        1.1257257E-17
   12.31300        1.1259339E-17
   12.47450        1.1257587E-17
   12.63600        1.1253508E-17
   12.79750        1.1249247E-17
   12.95900        1.1246982E-17
   13.12050        1.1248323E-17
   13.28200        1.1253882E-17
   13.44350        1.1263114E-17
   13.60500        1.1274454E-17
   13.76650        1.1285728E-17
   13.92800        1.1294698E-17
   14.08950        1.1299634E-17
   14.25100        1.1299745E-17
   14.41250        1.1295373E-17
   14.57400        1.1287911E-17
   14.73550        1.1279454E-17
   14.89700        1.1272284E-17
   15.05850        1.1268308E-17
   15.22000        1.1268595E-17
   15.38150        1.1273121E-17
   15.54300        1.1280787E-17
   15.70450        1.1289716E-17
   15.86600        1.1297743E-17
   16.02750        1.1302989E-17
   16.18900        1.1304359E-17
   16.35050        1.1301842E-17
   16.51200        1.1296533E-17
   16.67350        1.1290350E-17
   16.83500        1.1285527E-17
   16.99650        1.1284003E-17
   17.15800        1.1286874E-17
   17.31950        1.1294053E-17
   17.48100        1.1304244E-17
   17.64250        1.1315259E-17
   17.80400        1.1324576E-17
   17.96550        1.1330034E-17
   18.12700        1.1330444E-17
   18.28850        1.1325959E-17
   18.45000        1.1318090E-17
   18.61150        1.1309337E-17
   18.77300        1.1302535E-17
   18.93450        1.1300081E-17
   19.09600        1.1303255E-17
   19.25750        1.1311831E-17
   19.41900        1.1324098E-17
   19.58050        1.1337304E-17
   19.74200        1.1348401E-17
   19.90350        1.1354899E-17
   20.06500        1.1355578E-17
   20.22650        1.1350866E-17
   20.38800        1.1342741E-17
   20.54950        1.1334189E-17
   20.71100        1.1328356E-17
   20.87250        1.1327632E-17
   21.03400        1.1332926E-17
   21.19550        1.1343355E-17
   21.35700        1.1356445E-17
   21.51850        1.1368801E-17
   21.68000        1.1377070E-17
   21.84150        1.1378919E-17
   22.00300        1.1373743E-17
   22.16450        1.1362899E-17
   22.32600        1.1349380E-17
   22.48750        1.1337012E-17
   22.64900        1.1329382E-17
   22.81050        1.1328836E-17
   22.97200        1.1335782E-17
   23.13350        1.1348568E-17
   23.29500        1.1363927E-17
   23.45650        1.1377902E-17
   23.61800        1.1386971E-17
   23.77950        1.1389070E-17
   23.94100        1.1384191E-17
   24.10250        1.1374395E-17
   24.26400        1.1363221E-17
   24.42550        1.1354657E-17
   24.58700        1.1351974E-17
   24.74850        1.1356745E-17
   24.91000        1.1368358E-17
   25.07150        1.1384159E-17
   25.23300        1.1400185E-17
   25.39450        1.1412298E-17
   25.55600        1.1417389E-17
   25.71750        1.1414283E-17
   25.87900        1.1404121E-17
   26.04050        1.1390050E-17
   26.20200        1.1376364E-17
   26.36350        1.1367281E-17
   26.52500        1.1365749E-17
   26.68650        1.1372606E-17
   26.84800        1.1386340E-17
   27.00950        1.1403523E-17
   27.17100        1.1419788E-17
   27.33250        1.1431087E-17
   27.49400        1.1434839E-17
   27.65550        1.1430662E-17
   27.81700        1.1420468E-17
   27.97850        1.1407887E-17
   28.14000        1.1397203E-17
   28.30150        1.1392102E-17
   28.46300        1.1394590E-17
   28.62450        1.1404412E-17
   28.78600        1.1419119E-17
   28.94750        1.1434785E-17
   29.10900        1.1447143E-17
   29.27050        1.1452833E-17
   29.43200        1.1450382E-17
   29.59350        1.1440633E-17
   29.75500        1.1426517E-17
   29.91650        1.1412203E-17
   30.07800        1.1401908E-17
   30.23950        1.1398675E-17
   30.40100        1.1403509E-17
   30.56250        1.1415094E-17
   30.72400        1.1430188E-17
   30.88550        1.1444575E-17
   31.04700        1.1454290E-17
   31.20850        1.1456789E-17
   31.37000        1.1451682E-17
   31.53150        1.1440858E-17
   31.69300        1.1427944E-17
   31.85450        1.1417247E-17
   32.01600        1.1412518E-17
   32.17750        1.1415851E-17
   32.33900        1.1427073E-17
   32.50050        1.1443773E-17
   32.66200        1.1461986E-17
   32.82350        1.1477308E-17
   32.98500        1.1486142E-17
   33.14650        1.1486715E-17
   33.30800        1.1479552E-17
   33.46950        1.1467318E-17
   33.63100        1.1454021E-17
   33.79250        1.1443861E-17
   33.95400        1.1440020E-17
   34.11550        1.1443759E-17
   34.27700        1.1454087E-17
   34.43850        1.1468065E-17
   34.60000        1.1481690E-17
   34.76150        1.1491075E-17
   34.92300        1.1493589E-17
   35.08450        1.1488631E-17
   35.24600        1.1477805E-17
   35.40750        1.1464454E-17
   35.56900        1.1452688E-17
   35.73050        1.1446189E-17
   35.89200        1.1447128E-17
   36.05350        1.1455527E-17
   36.21500        1.1469230E-17
   36.37650        1.1484514E-17
   36.53800        1.1497145E-17
   36.69950        1.1503586E-17
   36.86100        1.1502013E-17
   37.02250        1.1492845E-17
   37.18400        1.1478636E-17
   37.34550        1.1463368E-17
   37.50700        1.1451334E-17
   37.66850        1.1445947E-17
   37.83000        1.1448805E-17
   37.99150        1.1459261E-17
   38.15300        1.1474647E-17
   38.31450        1.1491041E-17
   38.47600        1.1504393E-17
   38.63750        1.1511658E-17
   38.79900        1.1511619E-17
   38.96050        1.1505193E-17
   39.12200        1.1495101E-17
   39.28350        1.1485043E-17
   39.44500        1.1478606E-17
   39.60650        1.1478218E-17
   39.76800        1.1484461E-17
   39.92950        1.1495922E-17
   40.09100        1.1509630E-17
   40.25250        1.1521932E-17
   40.41400        1.1529559E-17
   40.57550        1.1530568E-17
   40.73700        1.1524901E-17
   40.89850        1.1514381E-17
   41.06000        1.1502185E-17
   41.22150        1.1491926E-17
   41.38300        1.1486634E-17
   41.54450        1.1487911E-17
   41.70600        1.1495515E-17
   41.86750        1.1507463E-17
   42.02900        1.1520637E-17
   42.19050        1.1531689E-17
   42.35200        1.1537993E-17
   42.51350        1.1538366E-17
   42.67500        1.1533351E-17
   42.83650        1.1525011E-17
   42.99800        1.1516281E-17
   43.15950        1.1510104E-17
   43.32100        1.1508569E-17
   43.48250        1.1512342E-17
   43.64400        1.1520507E-17
   43.80550        1.1530870E-17
   43.96700        1.1540634E-17
   44.12850        1.1547208E-17
   44.29000        1.1548961E-17
   44.45150        1.1545657E-17
   44.61300        1.1538495E-17
   44.77450        1.1529728E-17
   44.93600        1.1522003E-17
   45.09750        1.1517598E-17
   45.25900        1.1517800E-17
   45.42050        1.1522580E-17
   45.58200        1.1530656E-17
   45.74350        1.1539903E-17
   45.90500        1.1547992E-17
   46.06650        1.1553057E-17
   46.22800        1.1554199E-17
   46.38950        1.1551704E-17
   46.55100        1.1546900E-17
   46.71250        1.1541735E-17
   46.87400        1.1538191E-17
   47.03550        1.1537715E-17
   47.19700        1.1540818E-17
   47.35850        1.1546967E-17
   47.52000        1.1554759E-17
   47.68150        1.1562345E-17
   47.84300        1.1567950E-17
   48.00450        1.1570356E-17
   48.16600        1.1569200E-17
   48.32750        1.1565047E-17
   48.48900        1.1559188E-17
   48.65050        1.1553278E-17
   48.81200        1.1548885E-17
   48.97350        1.1547107E-17
   49.13500        1.1548334E-17
   49.29650        1.1552205E-17
   49.45800        1.1557772E-17
   49.61950        1.1563782E-17
   49.78100        1.1569019E-17
   49.94250        1.1572597E-17
   50.10400        1.1574134E-17
   50.26550        1.1573795E-17
   50.42700        1.1572184E-17
   50.58850        1.1570153E-17
   50.75000        1.1568573E-17
   50.91150        1.1568128E-17
   51.07300        1.1569178E-17
   51.23450        1.1571708E-17
   51.39600        1.1575360E-17
   51.55750        1.1579538E-17
   51.71900        1.1583544E-17
   51.88050        1.1586725E-17
   52.04200        1.1588606E-17
   52.20350        1.1588978E-17
   52.36500        1.1587950E-17
   52.52650        1.1585928E-17
   52.68800        1.1583549E-17
   52.84950        1.1581548E-17
   53.01100        1.1580601E-17
   53.17250        1.1581152E-17
   53.33400        1.1583280E-17
   53.49550        1.1586635E-17
   53.65700        1.1590482E-17
   53.81850        1.1593849E-17
   53.98000        1.1595763E-17
   54.14150        1.1595525E-17
   54.30300        1.1592950E-17
   54.46450        1.1588483E-17
   54.62600        1.1583171E-17
   54.78750        1.1578449E-17
   54.94900        1.1575788E-17
   55.11050        1.1576303E-17
   55.27200        1.1580406E-17
   55.43350        1.1587637E-17
   55.59500        1.1596712E-17
   55.75650        1.1605830E-17
   55.91800        1.1613122E-17
   56.07950        1.1617181E-17
   56.24100        1.1617468E-17
   56.40250        1.1614503E-17
   56.56400        1.1609750E-17
   56.72550        1.1605217E-17
   56.88700        1.1602872E-17
   57.04850        1.1604041E-17
   57.21000        1.1608961E-17
   57.37150        1.1616642E-17
   57.53300        1.1625094E-17
   57.69450        1.1631871E-17
   57.85600        1.1634782E-17
   58.01750        1.1632577E-17
   58.17900        1.1625388E-17
   58.34050        1.1614774E-17
   58.50200        1.1603356E-17
   58.66350        1.1594117E-17
   58.82500        1.1589557E-17
   58.98650        1.1590960E-17
   59.14800        1.1597990E-17
   59.30950        1.1608746E-17
   59.47100        1.1620277E-17
   59.63250        1.1629427E-17
   59.79400        1.1633755E-17
   59.95550        1.1632264E-17
   60.11700        1.1625717E-17
   60.27850        1.1616438E-17
   60.44000        1.1607624E-17
   60.60150        1.1602393E-17
   60.76300        1.1602831E-17
   60.92450        1.1609314E-17
   61.08600        1.1620350E-17
   61.24750        1.1632978E-17
   61.40900        1.1643620E-17
   61.57050        1.1649160E-17
   61.73200        1.1647901E-17
   61.89350        1.1640141E-17
   62.05500        1.1628153E-17
   62.21650        1.1615581E-17
   62.37800        1.1606399E-17
   62.53950        1.1603740E-17
   62.70100        1.1608951E-17
   62.86250        1.1621127E-17
   63.02400        1.1637323E-17
   63.18550        1.1653343E-17
   63.34700        1.1664935E-17
   63.50850        1.1669015E-17
   63.67000        1.1664578E-17
   63.83150        1.1653022E-17
   63.99300        1.1637769E-17
   64.15450        1.1623306E-17
   64.31600        1.1613904E-17
   64.47750        1.1612382E-17
   64.63900        1.1619303E-17
   64.80050        1.1632796E-17
   64.96200        1.1649108E-17
   65.12350        1.1663697E-17
   65.28500        1.1672557E-17
   65.44650        1.1673393E-17
   65.60800        1.1666296E-17
   65.76950        1.1653718E-17
   65.93100        1.1639755E-17
   66.09250        1.1628942E-17
   66.25400        1.1624913E-17
   66.41550        1.1629321E-17
   66.57700        1.1641335E-17
   66.73850        1.1657860E-17
   66.90000        1.1674422E-17
   67.06150        1.1686463E-17
   67.22300        1.1690666E-17
   67.38450        1.1685919E-17
   67.54600        1.1673638E-17
   67.70750        1.1657365E-17
   67.86900        1.1641743E-17
   68.03050        1.1631164E-17
   68.19200        1.1628508E-17
   68.35350        1.1634314E-17
   68.51500        1.1646643E-17
   68.67650        1.1661659E-17
   68.83800        1.1674768E-17
   68.99950        1.1681979E-17
   69.16100        1.1681081E-17
   69.32250        1.1672308E-17
   69.48400        1.1658284E-17
   69.64550        1.1643268E-17
   69.80700        1.1631920E-17
   69.96850        1.1627957E-17
   70.13000        1.1633060E-17
   70.29150        1.1646390E-17
   70.45300        1.1664817E-17
   70.61450        1.1683817E-17
   70.77600        1.1698762E-17
   70.93750        1.1706239E-17
   71.09900        1.1705009E-17
   71.26050        1.1696328E-17
   71.42200        1.1683548E-17
   71.58350        1.1671102E-17
   71.74500        1.1663190E-17
   71.90650        1.1662524E-17
   72.06800        1.1669524E-17
   72.22950        1.1682180E-17
   72.39100        1.1696633E-17
   72.55250        1.1708300E-17
   72.71400        1.1713220E-17
   72.87550        1.1709236E-17
   73.03700        1.1696666E-17
   73.19850        1.1678260E-17
   73.36000        1.1658466E-17
   73.52150        1.1642205E-17
   73.68300        1.1633498E-17
   73.84450        1.1634355E-17
   74.00600        1.1644220E-17
   74.16750        1.1660147E-17
   74.32900        1.1677648E-17
   74.49050        1.1691961E-17
   74.65200        1.1699404E-17
   74.81350        1.1698385E-17
   74.97500        1.1689827E-17
   75.13650        1.1676862E-17
   75.29800        1.1663892E-17
   75.45950        1.1655298E-17
   75.62100        1.1654158E-17
   75.78250        1.1661342E-17
   75.94400        1.1675252E-17
   76.10550        1.1692267E-17
   76.26700        1.1707765E-17
   76.42850        1.1717443E-17
   76.59000        1.1718536E-17
   76.75150        1.1710609E-17
   76.91300        1.1695685E-17
   77.07450        1.1677681E-17
   77.23600        1.1661318E-17
   77.39750        1.1650817E-17
   77.55900        1.1648729E-17
   77.72050        1.1655269E-17
   77.88200        1.1668290E-17
   78.04350        1.1683929E-17
   78.20500        1.1697718E-17
   78.36650        1.1705853E-17
   78.52800        1.1706248E-17
   78.68950        1.1699089E-17
   78.85100        1.1686737E-17
   79.01250        1.1673012E-17
   79.17400        1.1662072E-17
   79.33550        1.1657217E-17
   79.49700        1.1659944E-17
   79.65850        1.1669527E-17
   79.82000        1.1683245E-17
   79.98150        1.1697168E-17
   80.14300        1.1707287E-17
   80.30450        1.1710669E-17
   80.46600        1.1706294E-17
   80.62750        1.1695361E-17
   80.78900        1.1680962E-17
   80.95050        1.1667220E-17
   81.11200        1.1658150E-17
   81.27350        1.1656535E-17
   81.43500        1.1663152E-17
   81.59650        1.1676550E-17
   81.75800        1.1693437E-17
   81.91950        1.1709570E-17
   82.08100        1.1720903E-17
   82.24250        1.1724663E-17
   82.40400        1.1720083E-17
   82.56550        1.1708572E-17
   82.72700        1.1693299E-17
   82.88850        1.1678302E-17
   83.05000        1.1667382E-17
   83.21150        1.1663074E-17
   83.37300        1.1665998E-17
   83.53450        1.1674737E-17
   83.69600        1.1686294E-17
   83.85750        1.1696974E-17
   84.01900        1.1703458E-17
   84.18050        1.1703750E-17
   84.34200        1.1697744E-17
   84.50350        1.1687259E-17
   84.66500        1.1675510E-17
   84.82650        1.1666196E-17
   84.98800        1.1662438E-17
   85.14950        1.1665871E-17
   85.31100        1.1676155E-17
   85.47250        1.1691024E-17
   85.63400        1.1706890E-17
   85.79550        1.1719803E-17
   85.95700        1.1726541E-17
   86.11850        1.1725483E-17
   86.28000        1.1717064E-17
   86.44150        1.1703657E-17
   86.60300        1.1688920E-17
   86.76450        1.1676790E-17
   86.92600        1.1670411E-17
   87.08750        1.1671270E-17
   87.24900        1.1678815E-17
   87.41050        1.1690629E-17
   87.57200        1.1703139E-17
   87.73350        1.1712644E-17
   87.89500        1.1716378E-17
   88.05650        1.1713310E-17
   88.21800        1.1704455E-17
   88.37950        1.1692594E-17
   88.54100        1.1681502E-17
   88.70250        1.1674860E-17
   88.86400        1.1675199E-17
   89.02550        1.1683136E-17
   89.18700        1.1697153E-17
   89.34850        1.1713955E-17
   89.51000        1.1729350E-17
   89.67150        1.1739378E-17
   89.83300        1.1741400E-17
   89.99450        1.1734835E-17
   90.15600        1.1721336E-17
   90.31750        1.1704358E-17
   90.47900        1.1688232E-17
   90.64050        1.1676988E-17
   90.80200        1.1673276E-17
   90.96350        1.1677658E-17
   91.12500        1.1688481E-17
   91.28650        1.1702372E-17
   91.44800        1.1715204E-17
   91.60950        1.1723270E-17
   91.77100        1.1724336E-17
   91.93250        1.1718276E-17
   92.09400        1.1707100E-17
   92.25550        1.1694374E-17
   92.41700        1.1684193E-17
   92.57850        1.1679983E-17
   92.74000        1.1683484E-17
   92.90150        1.1694211E-17
   93.06300        1.1709545E-17
   93.22450        1.1725427E-17
   93.38600        1.1737507E-17
   93.54750        1.1742367E-17
   93.70900        1.1738537E-17
   93.87050        1.1726945E-17
   94.03200        1.1710724E-17
   94.19350        1.1694363E-17
   94.35500        1.1682472E-17
   94.51650        1.1678490E-17
   94.67800        1.1683693E-17
   94.83950        1.1696806E-17
   95.00100        1.1714328E-17
   95.16250        1.1731492E-17
   95.32400        1.1743606E-17
   95.48550        1.1747377E-17
   95.64700        1.1741869E-17
   95.80850        1.1728790E-17
   95.97000        1.1712027E-17
   96.13150        1.1696555E-17
   96.29300        1.1687006E-17
   96.45450        1.1686329E-17
   96.61600        1.1694901E-17
   96.77750        1.1710380E-17
   96.93900        1.1728334E-17
   97.10050        1.1743497E-17
   97.26200        1.1751286E-17
   97.42350        1.1749155E-17
   97.58500        1.1737388E-17
   97.74650        1.1719089E-17
   97.90800        1.1699347E-17
   98.06950        1.1683825E-17
   98.23100        1.1677138E-17
   98.39250        1.1681504E-17
   98.55400        1.1696063E-17
   98.71550        1.1717051E-17
   98.87700        1.1738839E-17
   99.03850        1.1755494E-17
   99.20000        1.1762478E-17
   99.36150        1.1757956E-17
   99.52300        1.1743353E-17
   99.68450        1.1722968E-17
   99.84600        1.1702768E-17
   100.0075        1.1688667E-17
   100.1690        1.1684815E-17
   100.3305        1.1692369E-17
   100.4920        1.1709123E-17
   100.6535        1.1730109E-17
   100.8150        1.1749023E-17
   100.9765        1.1760052E-17
   101.1380        1.1759595E-17
   101.2995        1.1747366E-17
   101.4610        1.1726538E-17
   101.6225        1.1702896E-17
   101.7840        1.1683202E-17
   101.9455        1.1673253E-17
   102.1070        1.1676198E-17
   102.2685        1.1691579E-17
   102.4300        1.1715422E-17
   102.5915        1.1741329E-17
   102.7530        1.1762297E-17
   102.9145        1.1772717E-17
   103.0760        1.1769989E-17
   103.2375        1.1755283E-17
   103.3990        1.1733197E-17
   103.5605        1.1710432E-17
   103.7220        1.1693837E-17
   103.8835        1.1688405E-17
   104.0450        1.1695807E-17
   104.2065        1.1713885E-17
   104.3680        1.1737271E-17
   104.5295        1.1758954E-17
   104.6910        1.1772342E-17
   104.8525        1.1773214E-17
   105.0140        1.1760991E-17
   105.1755        1.1738949E-17
   105.3370        1.1713289E-17
   105.4985        1.1691354E-17
   105.6600        1.1679479E-17
   105.8215        1.1681129E-17
   105.9830        1.1695859E-17
   106.1445        1.1719411E-17
   106.3060        1.1744929E-17
   106.4675        1.1764941E-17
   106.6290        1.1773534E-17
   106.7905        1.1768088E-17
   106.9520        1.1750059E-17
   107.1135        1.1724578E-17
   107.2750        1.1698976E-17
   107.4365        1.1680672E-17
   107.5980        1.1675026E-17
   107.7595        1.1683790E-17
   107.9210        1.1704606E-17
   108.0825        1.1731695E-17
   108.2440        1.1757539E-17
   108.4055        1.1775054E-17
   108.5670        1.1779635E-17
   108.7285        1.1770458E-17
   108.8900        1.1750671E-17
   109.0515        1.1726432E-17
   109.2130        1.1705062E-17
   109.3745        1.1692871E-17
   109.5360        1.1693305E-17
   109.6975        1.1705932E-17
   109.8590        1.1726604E-17
   110.0205        1.1748689E-17
   110.1820        1.1765079E-17
   110.3435        1.1770305E-17
   110.5050        1.1762203E-17
   110.6665        1.1742591E-17
   110.8280        1.1716797E-17
   110.9895        1.1692129E-17
   111.1510        1.1675782E-17
   111.3125        1.1672752E-17
   111.4740        1.1684388E-17
   111.6355        1.1707986E-17
   111.7970        1.1737552E-17
   111.9585        1.1765501E-17
   112.1200        1.1784798E-17
   112.2815        1.1790926E-17
   112.4430        1.1783104E-17
   112.6045        1.1764425E-17
   112.7660        1.1740873E-17
   112.9275        1.1719526E-17
   113.0890        1.1706476E-17
   113.2505        1.1705066E-17
   113.4120        1.1714974E-17
   113.5735        1.1732372E-17
   113.7350        1.1751145E-17
   113.8965        1.1764747E-17
   114.0580        1.1768201E-17
   114.2195        1.1759605E-17
   114.3810        1.1740736E-17
   114.5425        1.1716573E-17
   114.7040        1.1693861E-17
   114.8655        1.1679171E-17
   115.0270        1.1676997E-17
   115.1885        1.1688452E-17
   115.3500        1.1710934E-17
   115.5115        1.1738850E-17
   115.6730        1.1765188E-17
   115.8345        1.1783465E-17
   115.9960        1.1789514E-17
   116.1575        1.1782577E-17
   116.3190        1.1765418E-17
   116.4805        1.1743443E-17
   116.6420        1.1723097E-17