  -30.00000        1.0339476E-17
  -29.83850        1.0350588E-17
  -29.67700        1.0369956E-17
  -29.51550        1.0392898E-17
  -29.35400        1.0414174E-17
  -29.19250        1.0429414E-17
  -29.03100        1.0436292E-17
  -28.86950        1.0435118E-17
  -28.70800        1.0428690E-17
  -28.54650        1.0421460E-17
  -28.38500        1.0418214E-17
  -28.22350        1.0422687E-17
  -28.06200        1.0436459E-17
  -27.90050        1.0458474E-17
  -27.73900        1.0485294E-17
  -27.57750        1.0512044E-17
  -27.41600        1.0533758E-17
  -27.25450        1.0546765E-17
  -27.09300        1.0549727E-17
  -26.93150        1.0544022E-17
  -26.77000        1.0533373E-17
  -26.60850        1.0522823E-17
  -26.44700        1.0517337E-17
  -26.28550        1.0520420E-17
  -26.12400        1.0533143E-17
  -25.96250        1.0553849E-17
  -25.80100        1.0578624E-17
  -25.63950        1.0602397E-17
  -25.47800        1.0620370E-17
  -25.31650        1.0629381E-17
  -25.15500        1.0628797E-17
  -24.99350        1.0620711E-17
  -24.83200        1.0609363E-17
  -24.67050        1.0599954E-17
  -24.50900        1.0597180E-17
  -24.34750        1.0603904E-17
  -24.18600        1.0620325E-17
  -24.02450        1.0643905E-17
  -23.86300        1.0670049E-17
  -23.70150        1.0693382E-17
  -23.54000        1.0709236E-17
  -23.37850        1.0714966E-17
  -23.21700        1.0710691E-17
  -23.05550        1.0699264E-17
  -22.89400        1.0685482E-17
  -22.73250        1.0674742E-17
  -22.57100        1.0671526E-17
  -22.40950        1.0678137E-17
  -22.24800        1.0694058E-17
  -22.08650        1.0716098E-17
  -21.92500        1.0739302E-17
  -21.76350        1.0758371E-17
  -21.60200        1.0769186E-17
  -21.44050        1.0770000E-17
  -21.27900        1.0761971E-17
  -21.11750        1.0748864E-17
  -20.95600        1.0736001E-17
  -20.79450        1.0728762E-17
  -20.63300        1.0731042E-17
  -20.47150        1.0744119E-17
  -20.31000        1.0766245E-17
  -20.14850        1.0793093E-17
  -19.98700        1.0818935E-17
  -19.82550        1.0838237E-17
  -19.66400        1.0847197E-17
  -19.50250        1.0844832E-17
  -19.34100        1.0833252E-17
  -19.17950        1.0817089E-17
  -19.01800        1.0802195E-17
  -18.85650        1.0794004E-17
  -18.69500        1.0796005E-17
  -18.53350        1.0808762E-17
  -18.37200        1.0829767E-17
  -18.21050        1.0854161E-17
  -18.04900        1.0876136E-17
  -17.88750        1.0890593E-17
  -17.72600        1.0894616E-17
  -17.56450        1.0888314E-17
  -17.40300        1.0874790E-17
  -17.24150        1.0859254E-17
  -17.08000        1.0847516E-17
  -16.91850        1.0844301E-17
  -16.75700        1.0851853E-17
  -16.59550        1.0869252E-17
  -16.43400        1.0892639E-17
  -16.27250        1.0916286E-17
  -16.11100        1.0934222E-17
  -15.94950        1.0941942E-17
  -15.78800        1.0937730E-17
  -15.62650        1.0923183E-17
  -15.46500        1.0902812E-17
  -15.30350        1.0882796E-17
  -15.14200        1.0869265E-17
  -14.98050        1.0866578E-17
  -14.81900        1.0876096E-17
  -14.65750        1.0895795E-17
  -14.49600        1.0920845E-17
  -14.33450        1.0944968E-17
  -14.17300        1.0962214E-17
  -14.01150        1.0968640E-17
  -13.85000        1.0963400E-17
  -13.68850        1.0948960E-17
  -13.52700        1.0930354E-17
  -13.36550        1.0913706E-17
  -13.20400        1.0904443E-17
  -13.04250        1.0905714E-17
  -12.88100        1.0917466E-17
  -12.71950        1.0936457E-17
  -12.55800        1.0957198E-17
  -12.39650        1.0973558E-17
  -12.23500        1.0980562E-17
  -12.07350        1.0975888E-17
  -11.91200        1.0960595E-17
  -11.75050        1.0938887E-17
  -11.58900        1.0916973E-17
  -11.42750        1.0901331E-17
  -11.26600        1.0896886E-17
  -11.10450        1.0905601E-17
  -10.94300        1.0925914E-17
  -10.78150        1.0953151E-17
  -10.62000        1.0980840E-17
  -10.45850        1.1002513E-17
  -10.29700        1.1013511E-17
  -10.13550        1.1012269E-17
  -9.974000        1.1000706E-17
  -9.812500        1.0983632E-17
  -9.651000        1.0967315E-17
  -9.489500        1.0957648E-17
  -9.328000        1.0958437E-17
  -9.166500        1.0970279E-17
  -9.005000        1.0990406E-17
  -8.843500        1.1013476E-17
  -8.682000        1.1033140E-17
  -8.520500        1.1043897E-17
  -8.359000        1.1042708E-17
  -8.197500        1.1029916E-17
  -8.036000        1.1009178E-17
  -7.874500        1.0986452E-17
  -7.713000        1.0968308E-17
  -7.551500        1.0960055E-17
  -7.390000        1.0964228E-17
  -7.228500        1.0979861E-17
  -7.067000        1.1002773E-17
  -6.905500        1.1026758E-17
  -6.744000        1.1045383E-17
  -6.582500        1.1053823E-17
  -6.421000        1.1050248E-17
  -6.259500        1.1036345E-17
  -6.098000        1.1016818E-17
  -5.936500        1.0998026E-17
  -5.775000        1.0986140E-17
  -5.613500        1.0985355E-17
  -5.452000        1.0996675E-17
  -5.290500        1.1017618E-17
  -5.129000        1.1042927E-17
  -4.967500        1.1066083E-17
  -4.806000        1.1081183E-17
  -4.644500        1.1084636E-17
  -4.483000        1.1076198E-17
  -4.321500        1.1059029E-17
  -4.160000        1.1038782E-17
  -3.998500        1.1021964E-17
  -3.837000        1.1014065E-17
  -3.675500        1.1017976E-17
  -3.514000        1.1033172E-17
  -3.352500        1.1055876E-17
  -3.191000        1.1080170E-17
  -3.029500        1.1099714E-17
  -2.868000        1.1109591E-17
  -2.706500        1.1107721E-17
  -2.545000        1.1095457E-17
  -2.383500        1.1077177E-17
  -2.222000        1.1059009E-17
  -2.060500        1.1047041E-17
  -1.899000        1.1045553E-17
  -1.737500        1.1055774E-17
  -1.576000        1.1075527E-17
  -1.414500        1.1099854E-17
  -1.253000        1.1122448E-17
  -1.091500        1.1137461E-17
 -0.9300000        1.1141182E-17
 -0.7685000        1.1133087E-17
 -0.6070000        1.1115964E-17
 -0.4455000        1.1095099E-17
 -0.2840000        1.1076742E-17
 -0.1225000        1.1066310E-17
  3.9000001E-02    1.1066868E-17
  0.2005000        1.1078274E-17
  0.3620000        1.1097289E-17
  0.5235000        1.1118556E-17
  0.6850000        1.1136190E-17
  0.8465000        1.1145501E-17
   1.008000        1.1144345E-17
   1.169500        1.1133720E-17
   1.331000        1.1117448E-17
   1.492500        1.1101030E-17
   1.654000        1.1090030E-17
   1.815500        1.1088450E-17
   1.977000        1.1097568E-17
   2.138500        1.1115584E-17
   2.300000        1.1138145E-17
   2.461500        1.1159615E-17
   2.623000        1.1174696E-17
   2.784500        1.1179937E-17
   2.946000        1.1174705E-17
   3.107500        1.1161326E-17
   3.269000        1.1144396E-17
   3.430500        1.1129435E-17
   3.592000        1.1121316E-17
   3.753500        1.1122888E-17
   3.915000        1.1134217E-17
   4.076500        1.1152615E-17
   4.238000        1.1173469E-17
   4.399500        1.1191594E-17
   4.561000        1.1202716E-17
   4.722500        1.1204668E-17
   4.884000        1.1197944E-17
   5.045500        1.1185489E-17
   5.207000        1.1171778E-17
   5.368500        1.1161490E-17
   5.530000        1.1158141E-17
   5.691500        1.1163089E-17
   5.853000        1.1175181E-17
   6.014500        1.1191137E-17
   6.176000        1.1206525E-17
   6.337500        1.1217067E-17
   6.499000        1.1219864E-17
   6.660500        1.1214214E-17
   6.822000        1.1201789E-17
   6.983500        1.1186136E-17
   7.145000        1.1171659E-17
   7.306500        1.1162385E-17
   7.468000        1.1160874E-17
   7.629500        1.1167551E-17
   7.791000        1.1180669E-17
   7.952500        1.1196871E-17
   8.114000        1.1212170E-17
   8.275500        1.1223088E-17
   8.437000        1.1227587E-17
   8.598500        1.1225573E-17
   8.760000        1.1218832E-17
   8.921500        1.1210436E-17
   9.083000        1.1203812E-17
   9.244500        1.1201740E-17
   9.406000        1.1205577E-17
   9.567500        1.1214896E-17
   9.729000        1.1227649E-17
   9.890500        1.1240774E-17
   10.05200        1.1251068E-17
   10.21350        1.1256074E-17
   10.37500        1.1254743E-17
   10.53650        1.1247685E-17
   10.69800        1.1236976E-17
   10.85950        1.1225566E-17
   11.02100        1.1216485E-17
   11.18250        1.1212056E-17
   11.34400        1.1213331E-17
   11.50550        1.1219882E-17
   11.66700        1.1229997E-17
   11.82850        1.1241196E-17
   11.99000        1.1250931E-17
   12.15150        1.1257262E-17
   12.31300        1.1259343E-17
   12.47450        1.1257587E-17
   12.63600        1.1253506E-17
   12.79750        1.1249245E-17
   12.95900        1.1246980E-17
   13.12050        1.1248320E-17
   13.28200        1.1253880E-17
   13.44350        1.1263110E-17
   13.60500        1.1274450E-17
   13.76650        1.1285723E-17
   13.92800        1.1294693E-17
   14.08950        1.1299630E-17
   14.25100        1.1299742E-17
   14.41250        1.1295372E-17
   14.57400        1.1287912E-17
   14.73550        1.1279456E-17
   14.89700        1.1272287E-17
   15.05850        1.1268312E-17
   15.22000        1.1268597E-17
   15.38150        1.1273120E-17
   15.54300        1.1280784E-17
   15.70450        1.1289712E-17
   15.86600        1.1297740E-17
   16.02750        1.1302985E-17
   16.18900        1.1304356E-17
   16.35050        1.1301842E-17
   16.51200        1.1296536E-17
   16.67350        1.1290355E-17
   16.83500        1.1285534E-17
   16.99650        1.1284011E-17
   17.15800        1.1286881E-17
   17.31950        1.1294059E-17
   17.48100        1.1304249E-17
   17.64250        1.1315262E-17
   17.80400        1.1324578E-17
   17.96550        1.1330036E-17
   18.12700        1.1330446E-17
   18.28850        1.1325963E-17
   18.45000        1.1318094E-17
   18.61150        1.1309341E-17
   18.77300        1.1302536E-17
   18.93450        1.1300080E-17
   19.09600        1.1303251E-17
   19.25750        1.1311824E-17
   19.41900        1.1324090E-17
   19.58050        1.1337297E-17
   19.74200        1.1348397E-17
   19.90350        1.1354897E-17
   20.06500        1.1355580E-17
   20.22650        1.1350870E-17
   20.38800        1.1342745E-17
   20.54950        1.1334190E-17
   20.71100        1.1328353E-17
   20.87250        1.1327626E-17
   21.03400        1.1332919E-17
   21.19550        1.1343349E-17
   21.35700        1.1356441E-17
   21.51850        1.1368801E-17
   21.68000        1.1377074E-17
   21.84150        1.1378926E-17
   22.00300        1.1373751E-17
   22.16450        1.1362905E-17
   22.32600        1.1349382E-17
   22.48750        1.1337007E-17
   22.64900        1.1329373E-17
   22.81050        1.1328822E-17
   22.97200        1.1335766E-17
   23.13350        1.1348552E-17
   23.29500        1.1363912E-17
   23.45650        1.1377891E-17
   23.61800        1.1386964E-17
   23.77950        1.1389067E-17
   23.94100        1.1384191E-17
   24.10250        1.1374395E-17
   24.26400        1.1363220E-17
   24.42550        1.1354655E-17
   24.58700        1.1351970E-17
   24.74850        1.1356742E-17
   24.91000        1.1368358E-17
   25.07150        1.1384162E-17
   25.23300        1.1400189E-17
   25.39450        1.1412307E-17
   25.55600        1.1417398E-17
   25.71750        1.1414293E-17
   25.87900        1.1404128E-17
   26.04050        1.1390056E-17
   26.20200        1.1376369E-17
   26.36350        1.1367286E-17
   26.52500        1.1365754E-17
   26.68650        1.1372613E-17
   26.84800        1.1386347E-17
   27.00950        1.1403529E-17
   27.17100        1.1419792E-17
   27.33250        1.1431089E-17
   27.49400        1.1434838E-17
   27.65550        1.1430658E-17
   27.81700        1.1420462E-17
   27.97850        1.1407880E-17
   28.14000        1.1397197E-17
   28.30150        1.1392098E-17
   28.46300        1.1394588E-17
   28.62450        1.1404412E-17
   28.78600        1.1419119E-17
   28.94750        1.1434783E-17
   29.10900        1.1447137E-17
   29.27050        1.1452823E-17
   29.43200        1.1450367E-17
   29.59350        1.1440614E-17
   29.75500        1.1426496E-17
   29.91650        1.1412184E-17
   30.07800        1.1401893E-17
   30.23950        1.1398665E-17
   30.40100        1.1403506E-17
   30.56250        1.1415097E-17
   30.72400        1.1430197E-17
   30.88550        1.1444585E-17
   31.04700        1.1454300E-17
   31.20850        1.1456795E-17
   31.37000        1.1451683E-17
   31.53150        1.1440855E-17
   31.69300        1.1427936E-17
   31.85450        1.1417238E-17
   32.01600        1.1412510E-17
   32.17750        1.1415844E-17
   32.33900        1.1427067E-17
   32.50050        1.1443767E-17
   32.66200        1.1461979E-17
   32.82350        1.1477296E-17
   32.98500        1.1486128E-17
   33.14650        1.1486697E-17
   33.30800        1.1479532E-17
   33.46950        1.1467298E-17
   33.63100        1.1454004E-17
   33.79250        1.1443849E-17
   33.95400        1.1440010E-17
   34.11550        1.1443754E-17
   34.27700        1.1454082E-17
   34.43850        1.1468058E-17
   34.60000        1.1481676E-17
   34.76150        1.1491053E-17
   34.92300        1.1493560E-17
   35.08450        1.1488596E-17
   35.24600        1.1477765E-17
   35.40750        1.1464416E-17
   35.56900        1.1452656E-17
   35.73050        1.1446165E-17
   35.89200        1.1447113E-17
   36.05350        1.1455518E-17
   36.21500        1.1469223E-17
   36.37650        1.1484506E-17
   36.53800        1.1497132E-17
   36.69950        1.1503566E-17
   36.86100        1.1501987E-17
   37.02250        1.1492814E-17
   37.18400        1.1478605E-17
   37.34550        1.1463339E-17
   37.50700        1.1451311E-17
   37.66850        1.1445932E-17
   37.83000        1.1448795E-17
   37.99150        1.1459255E-17
   38.15300        1.1474639E-17
   38.31450        1.1491028E-17
   38.47600        1.1504372E-17
   38.63750        1.1511628E-17
   38.79900        1.1511584E-17
   38.96050        1.1505155E-17
   39.12200        1.1495063E-17
   39.28350        1.1485009E-17
   39.44500        1.1478578E-17
   39.60650        1.1478195E-17
   39.76800        1.1484440E-17
   39.92950        1.1495900E-17
   40.09100        1.1509604E-17
   40.25250        1.1521898E-17
   40.41400        1.1529518E-17
   40.57550        1.1530525E-17
   40.73700        1.1524858E-17
   40.89850        1.1514344E-17
   41.06000        1.1502156E-17
   41.22150        1.1491904E-17
   41.38300        1.1486618E-17
   41.54450        1.1487897E-17
   41.70600        1.1495497E-17
   41.86750        1.1507436E-17
   42.02900        1.1520597E-17
   42.19050        1.1531639E-17
   42.35200        1.1537937E-17
   42.51350        1.1538309E-17
   42.67500        1.1533301E-17
   42.83650        1.1524971E-17
   42.99800        1.1516254E-17
   43.15950        1.1510087E-17
   43.32100        1.1508557E-17
   43.48250        1.1512330E-17
   43.64400        1.1520488E-17
   43.80550        1.1530842E-17
   43.96700        1.1540594E-17
   44.12850        1.1547161E-17
   44.29000        1.1548911E-17
   44.45150        1.1545612E-17
   44.61300        1.1538461E-17
   44.77450        1.1529709E-17
   44.93600        1.1521996E-17
   45.09750        1.1517602E-17
   45.25900        1.1517807E-17
   45.42050        1.1522584E-17
   45.58200        1.1530650E-17
   45.74350        1.1539885E-17
   45.90500        1.1547962E-17
   46.06650        1.1553019E-17
   46.22800        1.1554161E-17
   46.38950        1.1551671E-17
   46.55100        1.1546876E-17
   46.71250        1.1541721E-17
   46.87400        1.1538185E-17
   47.03550        1.1537711E-17
   47.19700        1.1540812E-17
   47.35850        1.1546953E-17
   47.52000        1.1554735E-17
   47.68150        1.1562313E-17
   47.84300        1.1567915E-17
   48.00450        1.1570321E-17
   48.16600        1.1569174E-17
   48.32750        1.1565034E-17
   48.48900        1.1559191E-17
   48.65050        1.1553293E-17
   48.81200        1.1548908E-17
   48.97350        1.1547134E-17
   49.13500        1.1548357E-17
   49.29650        1.1552222E-17
   49.45800        1.1557779E-17
   49.61950        1.1563781E-17
   49.78100        1.1569015E-17
   49.94250        1.1572594E-17
   50.10400        1.1574138E-17
   50.26550        1.1573807E-17
   50.42700        1.1572204E-17
   50.58850        1.1570179E-17
   50.75000        1.1568600E-17
   50.91150        1.1568151E-17
   51.07300        1.1569195E-17
   51.23450        1.1571716E-17
   51.39600        1.1575361E-17
   51.55750        1.1579537E-17
   51.71900        1.1583546E-17
   51.88050        1.1586737E-17
   52.04200        1.1588628E-17
   52.20350        1.1589010E-17
   52.36500        1.1587989E-17
   52.52650        1.1585970E-17
   52.68800        1.1583587E-17
   52.84950        1.1581580E-17
   53.01100        1.1580624E-17
   53.17250        1.1581165E-17
   53.33400        1.1583287E-17
   53.49550        1.1586644E-17
   53.65700        1.1590499E-17
   53.81850        1.1593878E-17
   53.98000        1.1595807E-17
   54.14150        1.1595587E-17
   54.30300        1.1593027E-17
   54.46450        1.1588570E-17
   54.62600        1.1583265E-17
   54.78750        1.1578543E-17
   54.94900        1.1575879E-17
   55.11050        1.1576389E-17
   55.27200        1.1580488E-17
   55.43350        1.1587715E-17
   55.59500        1.1596791E-17
   55.75650        1.1605911E-17
   55.91800        1.1613206E-17
   56.07950        1.1617269E-17
   56.24100        1.1617555E-17
   56.40250        1.1614585E-17
   56.56400        1.1609823E-17
   56.72550        1.1605279E-17
   56.88700        1.1602924E-17
   57.04850        1.1604087E-17
   57.21000        1.1609006E-17
   57.37150        1.1616694E-17
   57.53300        1.1625160E-17
   57.69450        1.1631954E-17
   57.85600        1.1634886E-17
   58.01750        1.1632701E-17
   58.17900        1.1625525E-17
   58.34050        1.1614918E-17
   58.50200        1.1603501E-17
   58.66350        1.1594259E-17
   58.82500        1.1589693E-17
   58.98650        1.1591092E-17
   59.14800        1.1598121E-17
   59.30950        1.1608878E-17
   59.47100        1.1620414E-17
   59.63250        1.1629569E-17
   59.79400        1.1633900E-17
   59.95550        1.1632409E-17
   60.11700        1.1625859E-17
   60.27850        1.1616571E-17
   60.44000        1.1607746E-17
   60.60150        1.1602505E-17
   60.76300        1.1602933E-17
   60.92450        1.1609411E-17
   61.08600        1.1620450E-17
   61.24750        1.1633087E-17
   61.40900        1.1643742E-17
   61.57050        1.1649295E-17
   61.73200        1.1648049E-17
   61.89350        1.1640299E-17
   62.05500        1.1628317E-17
   62.21650        1.1615747E-17
   62.37800        1.1606562E-17
   62.53950        1.1603903E-17
   62.70100        1.1609114E-17
   62.86250        1.1621295E-17
   63.02400        1.1637498E-17
   63.18550        1.1653526E-17
   63.34700        1.1665128E-17
   63.50850        1.1669216E-17
   63.67000        1.1664783E-17
   63.83150        1.1653224E-17
   63.99300        1.1637962E-17
   64.15450        1.1623487E-17
   64.31600        1.1614071E-17
   64.47750        1.1612538E-17
   64.63900        1.1619451E-17
   64.80050        1.1632942E-17
   64.96200        1.1649260E-17
   65.12350        1.1663860E-17
   65.28500        1.1672734E-17
   65.44650        1.1673584E-17
   65.60800        1.1666501E-17
   65.76950        1.1653933E-17
   65.93100        1.1639976E-17
   66.09250        1.1629166E-17
   66.25400        1.1625138E-17
   66.41550        1.1629548E-17
   66.57700        1.1641565E-17
   66.73850        1.1658093E-17
   66.90000        1.1674658E-17
   67.06150        1.1686704E-17
   67.22300        1.1690908E-17
   67.38450        1.1686157E-17
   67.54600        1.1673869E-17
   67.70750        1.1657587E-17
   67.86900        1.1641952E-17
   68.03050        1.1631360E-17
   68.19200        1.1628694E-17
   68.35350        1.1634496E-17
   68.51500        1.1646826E-17
   68.67650        1.1661848E-17
   68.83800        1.1674968E-17
   68.99950        1.1682191E-17
   69.16100        1.1681306E-17
   69.32250        1.1672544E-17
   69.48400        1.1658528E-17
   69.64550        1.1643516E-17
   69.80700        1.1632171E-17
   69.96850        1.1628209E-17
   70.13000        1.1633314E-17
   70.29150        1.1646648E-17
   70.45300        1.1665079E-17
   70.61450        1.1684083E-17
   70.77600        1.1699031E-17
   70.93750        1.1706510E-17
   71.09900        1.1705277E-17
   71.26050        1.1696589E-17
   71.42200        1.1683797E-17
   71.58350        1.1671340E-17
   71.74500        1.1663415E-17
   71.90650        1.1662739E-17
   72.06800        1.1669733E-17
   72.22950        1.1682391E-17
   72.39100        1.1696851E-17
   72.55250        1.1708527E-17
   72.71400        1.1713460E-17
   72.87550        1.1709490E-17
   73.03700        1.1696933E-17
   73.19850        1.1678538E-17
   73.36000        1.1658753E-17
   73.52150        1.1642501E-17
   73.68300        1.1633803E-17
   73.84450        1.1634670E-17
   74.00600        1.1644547E-17
   74.16750        1.1660488E-17
   74.32900        1.1677999E-17
   74.49050        1.1692324E-17
   74.65200        1.1699771E-17
   74.81350        1.1698750E-17
   74.97500        1.1690184E-17
   75.13650        1.1677204E-17
   75.29800        1.1664214E-17
   75.45950        1.1655599E-17
   75.62100        1.1654438E-17
   75.78250        1.1661604E-17
   75.94400        1.1675501E-17
   76.10550        1.1692509E-17
   76.26700        1.1708007E-17
   76.42850        1.1717690E-17
   76.59000        1.1718793E-17
   76.75150        1.1710879E-17
   76.91300        1.1695968E-17
   77.07450        1.1677977E-17
   77.23600        1.1661627E-17
   77.39750        1.1651137E-17
   77.55900        1.1649062E-17
   77.72050        1.1655616E-17
   77.88200        1.1668653E-17
   78.04350        1.1684308E-17
   78.20500        1.1698113E-17
   78.36650        1.1706262E-17
   78.52800        1.1706665E-17
   78.68950        1.1699507E-17
   78.85100        1.1687149E-17
   79.01250        1.1673409E-17
   79.17400        1.1662451E-17
   79.33550        1.1657577E-17
   79.49700        1.1660286E-17
   79.65850        1.1669857E-17
   79.82000        1.1683571E-17
   79.98150        1.1697497E-17
   80.14300        1.1707625E-17
   80.30450        1.1711018E-17
   80.46600        1.1706657E-17
   80.62750        1.1695737E-17
   80.78900        1.1681347E-17
   80.95050        1.1667612E-17
   81.11200        1.1658546E-17
   81.27350        1.1656934E-17
   81.43500        1.1663556E-17
   81.59650        1.1676962E-17
   81.75800        1.1693858E-17
   81.91950        1.1710002E-17
   82.08100        1.1721343E-17
   82.24250        1.1725107E-17
   82.40400        1.1720526E-17
   82.56550        1.1709008E-17
   82.72700        1.1693720E-17
   82.88850        1.1678703E-17
   83.05000        1.1667762E-17
   83.21150        1.1663435E-17
   83.37300        1.1666345E-17
   83.53450        1.1675076E-17
   83.69600        1.1686632E-17
   83.85750        1.1697318E-17
   84.01900        1.1703812E-17
   84.18050        1.1704116E-17
   84.34200        1.1698124E-17
   84.50350        1.1687649E-17
   84.66500        1.1675910E-17
   84.82650        1.1666605E-17
   84.98800        1.1662856E-17
   85.14950        1.1666301E-17
   85.31100        1.1676599E-17
   85.47250        1.1691484E-17
   85.63400        1.1707367E-17
   85.79550        1.1720298E-17
   85.95700        1.1727050E-17
   86.11850        1.1726000E-17
   86.28000        1.1717583E-17
   86.44150        1.1704171E-17
   86.60300        1.1689422E-17
   86.76450        1.1677278E-17
   86.92600        1.1670884E-17
   87.08750        1.1671730E-17
   87.24900        1.1679266E-17
   87.41050        1.1691074E-17
   87.57200        1.1703581E-17
   87.73350        1.1713083E-17
   87.89500        1.1716815E-17
   88.05650        1.1713743E-17
   88.21800        1.1704881E-17
   88.37950        1.1693016E-17
   88.54100        1.1681920E-17
   88.70250        1.1675279E-17
   88.86400        1.1675623E-17
   89.02550        1.1683572E-17
   89.18700        1.1697605E-17
   89.34850        1.1714427E-17
   89.51000        1.1729840E-17
   89.67150        1.1739881E-17
   89.83300        1.1741911E-17
   89.99450        1.1735345E-17
   90.15600        1.1721838E-17
   90.31750        1.1704850E-17
   90.47900        1.1688711E-17
   90.64050        1.1677458E-17
   90.80200        1.1673741E-17
   90.96350        1.1678123E-17
   91.12500        1.1688951E-17
   91.28650        1.1702850E-17
   91.44800        1.1715688E-17
   91.60950        1.1723756E-17
   91.77100        1.1724819E-17
   91.93250        1.1718753E-17
   92.09400        1.1707568E-17
   92.25550        1.1694835E-17
   92.41700        1.1684652E-17
   92.57850        1.1680444E-17
   92.74000        1.1683954E-17
   92.90150        1.1694697E-17
   93.06300        1.1710046E-17
   93.22450        1.1725946E-17
   93.38600        1.1738036E-17
   93.54750        1.1742904E-17
   93.70900        1.1739073E-17
   93.87050        1.1727477E-17
   94.03200        1.1711247E-17
   94.19350        1.1694876E-17
   94.35500        1.1682980E-17
   94.51650        1.1678995E-17
   94.67800        1.1684198E-17
   94.83950        1.1697315E-17
   95.00100        1.1714841E-17
   95.16250        1.1732009E-17
   95.32400        1.1744125E-17
   95.48550        1.1747896E-17
   95.64700        1.1742385E-17
   95.80850        1.1729302E-17
   95.97000        1.1712534E-17
   96.13150        1.1697057E-17
   96.29300        1.1687505E-17
   96.45450        1.1686825E-17
   96.61600        1.1695394E-17
   96.77750        1.1710871E-17
   96.93900        1.1728822E-17
   97.10050        1.1743981E-17
   97.26200        1.1751767E-17
   97.42350        1.1749634E-17
   97.58500        1.1737867E-17
   97.74650        1.1719569E-17
   97.90800        1.1699833E-17
   98.06950        1.1684317E-17
   98.23100        1.1677639E-17
   98.39250        1.1682014E-17
   98.55400        1.1696580E-17
   98.71550        1.1717574E-17
   98.87700        1.1739364E-17
   99.03850        1.1756017E-17
   99.20000        1.1762997E-17
   99.36150        1.1758468E-17
   99.52300        1.1743856E-17
   99.68450        1.1723460E-17
   99.84600        1.1703248E-17
   100.0075        1.1689136E-17
   100.1690        1.1685274E-17
   100.3305        1.1692819E-17
   100.4920        1.1709565E-17
   100.6535        1.1730545E-17
   100.8150        1.1749455E-17
   100.9765        1.1760483E-17
   101.1380        1.1760028E-17
   101.2995        1.1747801E-17
   101.4610        1.1726978E-17
   101.6225        1.1703344E-17
   101.7840        1.1683659E-17
   101.9455        1.1673722E-17
   102.1070        1.1676681E-17
   102.2685        1.1692076E-17
   102.4300        1.1715931E-17
   102.5915        1.1741849E-17
   102.7530        1.1762822E-17
   102.9145        1.1773241E-17
   103.0760        1.1770509E-17
   103.2375        1.1755793E-17
   103.3990        1.1733696E-17
   103.5605        1.1710920E-17
   103.7220        1.1694314E-17
   103.8835        1.1688875E-17
   104.0450        1.1696272E-17
   104.2065        1.1714347E-17
   104.3680        1.1737732E-17
   104.5295        1.1759415E-17
   104.6910        1.1772801E-17
   104.8525        1.1773671E-17
   105.0140        1.1761447E-17
   105.1755        1.1739404E-17
   105.3370        1.1713747E-17
   105.4985        1.1691816E-17
   105.6600        1.1679947E-17
   105.8215        1.1681607E-17
   105.9830        1.1696345E-17
   106.1445        1.1719904E-17
   106.3060        1.1745427E-17
   106.4675        1.1765440E-17
   106.6290        1.1774031E-17
   106.7905        1.1768581E-17
   106.9520        1.1750549E-17
   107.1135        1.1725065E-17
   107.2750        1.1699462E-17
   107.4365        1.1681161E-17
   107.5980        1.1675519E-17
   107.7595        1.1684288E-17
   107.9210        1.1705108E-17
   108.0825        1.1732197E-17
   108.2440        1.1758036E-17
   108.4055        1.1775544E-17
   108.5670        1.1780115E-17
   108.7285        1.1770927E-17
   108.8900        1.1751130E-17
   109.0515        1.1726885E-17
   109.2130        1.1705512E-17
   109.3745        1.1693324E-17
   109.5360        1.1693762E-17
   109.6975        1.1706397E-17
   109.8590        1.1727074E-17
   110.0205        1.1749164E-17
   110.1820        1.1765555E-17
   110.3435        1.1770778E-17
   110.5050        1.1762670E-17
   110.6665        1.1743054E-17
   110.8280        1.1717253E-17
   110.9895        1.1692581E-17
   111.1510        1.1676231E-17
   111.3125        1.1673199E-17
   111.4740        1.1684834E-17
   111.6355        1.1708431E-17
   111.7970        1.1737997E-17
   111.9585        1.1765946E-17
   112.1200        1.1785245E-17
   112.2815        1.1791375E-17
   112.4430        1.1783559E-17
   112.6045        1.1764890E-17
   112.7660        1.1741349E-17
   112.9275        1.1720015E-17
   113.0890        1.1706978E-17
   113.2505        1.1705578E-17
   113.4120        1.1715492E-17
   113.5735        1.1732895E-17
   113.7350        1.1751669E-17
   113.8965        1.1765271E-17
   114.0580        1.1768725E-17
   114.2195        1.1760130E-17
   114.3810        1.1741265E-17
   114.5425        1.1717106E-17
   114.7040        1.1694397E-17
   114.8655        1.1679709E-17
   115.0270        1.1677533E-17
   115.1885        1.1688981E-17
   115.3500        1.1711452E-17
   115.5115        1.1739355E-17
   115.6730        1.1765678E-17
   115.8345        1.1783946E-17
   115.9960        1.1789990E-17
   116.1575        1.1783053E-17
   116.3190        1.1765900E-17
   116.4805        1.1743935E-17
   116.6420        1.1723598E-17