  -30.00000       -1.4038536E-19
  -29.83850       -1.5163292E-19
  -29.67700       -1.7303097E-19
  -29.51550       -2.0273438E-19
  -29.35400       -2.3831469E-19
  -29.19250       -2.7697928E-19
  -29.03100       -3.1581828E-19
  -28.86950       -3.5205983E-19
  -28.70800       -3.8330482E-19
  -28.54650       -4.0772459E-19
  -28.38500       -4.2420270E-19
  -28.22350       -4.3241389E-19
  -28.06200       -4.3283464E-19
  -27.90050       -4.2668582E-19
  -27.73900       -4.1581483E-19
  -27.57750       -4.0252493E-19
  -27.41600       -3.8936800E-19
  -27.25450       -3.7891575E-19
  -27.09300       -3.7352499E-19
  -26.93150       -3.7511953E-19
  -26.77000       -3.8500664E-19
  -26.60850       -4.0374644E-19
  -26.44700       -4.3108510E-19
  -26.28550       -4.6596304E-19
  -26.12400       -5.0660330E-19
  -25.96250       -5.5066385E-19
  -25.80100       -5.9545077E-19
  -25.63950       -6.3816586E-19
  -25.47800       -6.7616644E-19
  -25.31650       -7.0721197E-19
  -25.15500       -7.2966889E-19
  -24.99350       -7.4265997E-19
  -24.83200       -7.4614152E-19
  -24.67050       -7.4090030E-19
  -24.50900       -7.2847791E-19
  -24.34750       -7.1102770E-19
  -24.18600       -6.9112176E-19
  -24.02450       -6.7152347E-19
  -23.86300       -6.5494822E-19
  -23.70150       -6.4383370E-19
  -23.54000       -6.4013140E-19
  -23.37850       -6.4514391E-19
  -23.21700       -6.5941174E-19
  -23.05550       -6.8266864E-19
  -22.89400       -7.1385920E-19
  -22.73250       -7.5122532E-19
  -22.57100       -7.9245557E-19
  -22.40950       -8.3488404E-19
  -22.24800       -8.7572226E-19
  -22.08650       -9.1231032E-19
  -21.92500       -9.4235662E-19
  -21.76350       -9.6415221E-19
  -21.60200       -9.7672784E-19
  -21.44050       -9.7994919E-19
  -21.27900       -9.7453198E-19
  -21.11750       -9.6197610E-19
  -20.95600       -9.4443078E-19
  -20.79450       -9.2449335E-19
  -20.63300       -9.0497302E-19
  -20.47150       -8.8863300E-19
  -20.31000       -8.7794169E-19
  -20.14850       -8.7485072E-19
  -19.98700       -8.8062062E-19
  -19.82550       -8.9571439E-19
  -19.66400       -9.1975650E-19
  -19.50250       -9.5156511E-19
  -19.34100       -9.8925724E-19
  -19.17950       -1.0304105E-18
  -19.01800       -1.0722750E-18
  -18.85650       -1.1120113E-18
  -18.69500       -1.1469414E-18
  -18.53350       -1.1747878E-18
  -18.37200       -1.1938807E-18
  -18.21050       -1.2033134E-18
  -18.04900       -1.2030346E-18
  -17.88750       -1.1938614E-18
  -17.72600       -1.1774130E-18
  -17.56450       -1.1559724E-18
  -17.40300       -1.1322799E-18
  -17.24150       -1.1092854E-18
  -17.08000       -1.0898763E-18
  -16.91850       -1.0766105E-18
  -16.75700       -1.0714811E-18
  -16.59550       -1.0757337E-18
  -16.43400       -1.0897532E-18
  -16.27250       -1.1130316E-18
  -16.11100       -1.1442196E-18
  -15.94950       -1.1812530E-18
  -15.78800       -1.2215446E-18
  -15.62650       -1.2622213E-18
  -15.46500       -1.3003833E-18
  -15.30350       -1.3333652E-18
  -15.14200       -1.3589724E-18
  -14.98050       -1.3756769E-18
  -14.81900       -1.3827537E-18
  -14.65750       -1.3803477E-18
  -14.49600       -1.3694627E-18
  -14.33450       -1.3518769E-18
  -14.17300       -1.3299899E-18
  -14.01150       -1.3066111E-18
  -13.85000       -1.2847109E-18
  -13.68850       -1.2671529E-18
  -13.52700       -1.2564345E-18
  -13.36550       -1.2544504E-18
  -13.20400       -1.2623161E-18
  -13.04250       -1.2802520E-18
  -12.88100       -1.3075578E-18
  -12.71950       -1.3426627E-18
  -12.55800       -1.3832672E-18
  -12.39650       -1.4265481E-18
  -12.23500       -1.4694188E-18
  -12.07350       -1.5088108E-18
  -11.91200       -1.5419559E-18
  -11.75050       -1.5666428E-18
  -11.58900       -1.5814160E-18
  -11.42750       -1.5857086E-18
  -11.26600       -1.5798880E-18
  -11.10450       -1.5652221E-18
  -10.94300       -1.5437608E-18
  -10.78150       -1.5181507E-18
  -10.62000       -1.4913989E-18
  -10.45850       -1.4666046E-18
  -10.29700       -1.4466898E-18
  -10.13550       -1.4341394E-18
  -9.974000       -1.4307829E-18
  -9.812500       -1.4376317E-18
  -9.651000       -1.4547839E-18
  -9.489500       -1.4814056E-18
  -9.328000       -1.5158020E-18
  -9.166500       -1.5555563E-18
  -9.005000       -1.5977444E-18
  -8.843500       -1.6391935E-18
  -8.682000       -1.6767733E-18
  -8.520500       -1.7076877E-18
  -8.359000       -1.7297369E-18
  -8.197500       -1.7415308E-18
  -8.036000       -1.7426210E-18
  -7.874500       -1.7335484E-18
  -7.713000       -1.7157914E-18
  -7.551500       -1.6916253E-18
  -7.390000       -1.6639018E-18
  -7.228500       -1.6357793E-18
  -7.067000       -1.6104264E-18
  -6.905500       -1.5907245E-18
  -6.744000       -1.5790063E-18
  -6.582500       -1.5768451E-18
  -6.421000       -1.5849206E-18
  -6.259500       -1.6029618E-18
  -6.098000       -1.6297768E-18
  -5.936500       -1.6633658E-18
  -5.775000       -1.7011013E-18
  -5.613500       -1.7399601E-18
  -5.452000       -1.7767993E-18
  -5.290500       -1.8086348E-18
  -5.129000       -1.8329179E-18
  -4.967500       -1.8477718E-18
  -4.806000       -1.8521726E-18
  -4.644500       -1.8460543E-18
  -4.483000       -1.8303272E-18
  -4.321500       -1.8068017E-18
  -4.160000       -1.7780287E-18
  -3.998500       -1.7470646E-18
  -3.837000       -1.7171845E-18
  -3.675500       -1.6915745E-18
  -3.514000       -1.6730333E-18
  -3.352500       -1.6637064E-18
  -3.191000       -1.6648904E-18
  -3.029500       -1.6769131E-18
  -2.868000       -1.6991092E-18
  -2.706500       -1.7298815E-18
  -2.545000       -1.7668493E-18
  -2.383500       -1.8070650E-18
  -2.222000       -1.8472711E-18
  -2.060500       -1.8841894E-18
  -1.899000       -1.9148090E-18
  -1.737500       -1.9366490E-18
  -1.576000       -1.9479795E-18
  -1.414500       -1.9479833E-18
  -1.253000       -1.9368355E-18
  -1.091500       -1.9157050E-18
 -0.9300000       -1.8866579E-18
 -0.7685000       -1.8524861E-18
 -0.6070000       -1.8164562E-18
 -0.4455000       -1.7820128E-18
 -0.2840000       -1.7524531E-18
 -0.1225000       -1.7306123E-18
  3.9000001E-02   -1.7185889E-18
  0.2005000       -1.7175339E-18
  0.3620000       -1.7275379E-18
  0.5235000       -1.7476223E-18
  0.6850000       -1.7758383E-18
  0.8465000       -1.8094601E-18
   1.008000       -1.8452578E-18
   1.169500       -1.8798151E-18
   1.331000       -1.9098595E-18
   1.492500       -1.9325785E-18
   1.654000       -1.9458785E-18
   1.815500       -1.9485788E-18
   1.977000       -1.9405117E-18
   2.138500       -1.9225321E-18
   2.300000       -1.8964336E-18
   2.461500       -1.8647825E-18
   2.623000       -1.8306859E-18
   2.784500       -1.7975106E-18
   2.946000       -1.7685847E-18
   3.107500       -1.7468969E-18
   3.269000       -1.7348256E-18
   3.430500       -1.7339164E-18
   3.592000       -1.7447332E-18
   3.753500       -1.7667931E-18
   3.915000       -1.7985961E-18
   4.076500       -1.8377530E-18
   4.238000       -1.8811946E-18
   4.399500       -1.9254523E-18
   4.561000       -1.9669788E-18
   4.722500       -2.0024808E-18
   4.884000       -2.0292316E-18
   5.045500       -2.0453257E-18
   5.207000       -2.0498605E-18
   5.368500       -2.0430156E-18
   5.530000       -2.0260327E-18
   5.691500       -2.0010899E-18
   5.853000       -1.9710905E-18
   6.014500       -1.9393853E-18
   6.176000       -1.9094546E-18
   6.337500       -1.8845834E-18
   6.499000       -1.8675544E-18
   6.660500       -1.8603925E-18
   6.822000       -1.8641735E-18
   6.983500       -1.8789255E-18
   7.145000       -1.9036174E-18
   7.306500       -1.9362491E-18
   7.468000       -1.9740279E-18
   7.629500       -2.0136202E-18
   7.791000       -2.0514582E-18
   7.952500       -2.0840735E-18
   8.114000       -2.1084288E-18
   8.275500       -2.1222152E-18
   8.437000       -2.1240879E-18
   8.598500       -2.1138086E-18
   8.760000       -2.0922857E-18
   8.921500       -2.0615010E-18
   9.083000       -2.0243260E-18
   9.244500       -1.9842524E-18
   9.406000       -1.9450509E-18
   9.567500       -1.9104108E-18
   9.729000       -1.8835773E-18
   9.890500       -1.8670420E-18
   10.05200       -1.8623055E-18
   10.21350       -1.8697462E-18
   10.37500       -1.8885946E-18
   10.53650       -1.9170256E-18
   10.69800       -1.9523491E-18
   10.85950       -1.9912777E-18
   11.02100       -2.0302509E-18
   11.18250       -2.0657721E-18
   11.34400       -2.0947365E-18
   11.50550       -2.1147139E-18
   11.66700       -2.1241667E-18
   11.82850       -2.1225812E-18
   11.99000       -2.1105065E-18
   12.15150       -2.0894950E-18
   12.31300       -2.0619528E-18
   12.47450       -2.0309153E-18
   12.63600       -1.9997615E-18
   12.79750       -1.9718981E-18
   12.95900       -1.9504387E-18
   13.12050       -1.9379067E-18
   13.28200       -1.9359918E-18
   13.44350       -1.9453832E-18
   13.60500       -1.9656979E-18
   13.76650       -1.9955116E-18
   13.92800       -2.0324922E-18
   14.08950       -2.0736202E-18
   14.25100       -2.1154801E-18
   14.41250       -2.1545884E-18
   14.57400       -2.1877252E-18
   14.73550       -2.2122420E-18
   14.89700       -2.2263035E-18
   15.05850       -2.2290541E-18
   15.22000       -2.2206834E-18
   15.38150       -2.2023938E-18
   15.54300       -2.1762748E-18
   15.70450       -2.1450965E-18
   15.86600       -2.1120483E-18
   16.02750       -2.0804411E-18
   16.18900       -2.0534058E-18
   16.35050       -2.0336134E-18
   16.51200       -2.0230346E-18
   16.67350       -2.0227664E-18
   16.83500       -2.0329339E-18
   16.99650       -2.0526836E-18
   17.15800       -2.0802614E-18
   17.31950       -2.1131793E-18
   17.48100       -2.1484499E-18
   17.64250       -2.1828786E-18
   17.80400       -2.2133730E-18
   17.96550       -2.2372514E-18
   18.12700       -2.2525143E-18
   18.28850       -2.2580422E-18
   18.45000       -2.2537115E-18
   18.61150       -2.2403976E-18
   18.77300       -2.2198798E-18
   18.93450       -2.1946495E-18
   19.09600       -2.1676458E-18
   19.25750       -2.1419509E-18
   19.41900       -2.1204761E-18
   19.58050       -2.1056726E-18
   19.74200       -2.0993002E-18
   19.90350       -2.1022679E-18
   20.06500       -2.1145679E-18
   20.22650       -2.1352913E-18
   20.38800       -2.1627332E-18
   20.54950       -2.1945660E-18
   20.71100       -2.2280652E-18
   20.87250       -2.2603610E-18
   21.03400       -2.2887085E-18
   21.19550       -2.3107359E-18
   21.35700       -2.3246652E-18
   21.51850       -2.3294802E-18
   21.68000       -2.3250256E-18
   21.84150       -2.3120283E-18
   22.00300       -2.2920356E-18
   22.16450       -2.2672690E-18
   22.32600       -2.2404119E-18
   22.48750       -2.2143443E-18
   22.64900       -2.1918531E-18
   22.81050       -2.1753510E-18
   22.97200       -2.1666346E-18
   23.13350       -2.1667063E-18
   23.29500       -2.1756850E-18
   23.45650       -2.1928107E-18
   23.61800       -2.2165423E-18
   23.77950       -2.2447328E-18
   23.94100       -2.2748650E-18
   24.10250       -2.3043083E-18
   24.26400       -2.3305799E-18
   24.42550       -2.3515758E-18
   24.58700       -2.3657543E-18
   24.74850       -2.3722580E-18
   24.91000       -2.3709664E-18
   25.07150       -2.3624818E-18
   25.23300       -2.3480566E-18
   25.39450       -2.3294645E-18
   25.55600       -2.3088317E-18
   25.71750       -2.2884438E-18
   25.87900       -2.2705386E-18
   26.04050       -2.2571015E-18
   26.20200       -2.2496848E-18
   26.36350       -2.2492623E-18
   26.52500       -2.2561355E-18
   26.68650       -2.2699077E-18
   26.84800       -2.2895249E-18
   27.00950       -2.3133818E-18
   27.17100       -2.3394924E-18
   27.33250       -2.3656911E-18
   27.49400       -2.3898549E-18
   27.65550       -2.4101177E-18
   27.81700       -2.4250427E-18
   27.97850       -2.4337515E-18
   28.14000       -2.4359807E-18
   28.30150       -2.4320804E-18
   28.46300       -2.4229456E-18
   28.62450       -2.4099059E-18
   28.78600       -2.3945826E-18
   28.94750       -2.3787316E-18
   29.10900       -2.3640882E-18
   29.27050       -2.3522241E-18
   29.43200       -2.3444271E-18
   29.59350       -2.3416031E-18
   29.75500       -2.3442108E-18
   29.91650       -2.3522279E-18
   30.07800       -2.3651501E-18
   30.23950       -2.3820339E-18
   30.40100       -2.4015727E-18
   30.56250       -2.4222121E-18
   30.72400       -2.4422958E-18
   30.88550       -2.4602277E-18
   31.04700       -2.4746341E-18
   31.20850       -2.4845056E-18
   31.37000       -2.4893037E-18
   31.53150       -2.4890092E-18
   31.69300       -2.4841131E-18
   31.85450       -2.4755440E-18
   32.01600       -2.4645495E-18
   32.17750       -2.4525419E-18
   32.33900       -2.4409364E-18
   32.50050       -2.4310003E-18
   32.66200       -2.4237354E-18
   32.82350       -2.4197982E-18
   32.98500       -2.4194735E-18
   33.14650       -2.4226859E-18
   33.30800       -2.4290504E-18
   33.46950       -2.4379430E-18
   33.63100       -2.4485820E-18
   33.79250       -2.4601112E-18
   33.95400       -2.4716734E-18
   34.11550       -2.4824761E-18
   34.27700       -2.4918442E-18
   34.43850       -2.4992615E-18
   34.60000       -2.5044004E-18
   34.76150       -2.5071408E-18
   34.92300       -2.5075724E-18
   35.08450       -2.5059836E-18
   35.24600       -2.5028349E-18
   35.40750       -2.4987133E-18
   35.56900       -2.4942755E-18
   35.73050       -2.4901861E-18
   35.89200       -2.4870552E-18
   36.05350       -2.4853853E-18
   36.21500       -2.4855303E-18
   36.37650       -2.4876770E-18
   36.53800       -2.4918421E-18
   36.69950       -2.4978906E-18
   36.86100       -2.5055646E-18
   37.02250       -2.5145195E-18
   37.18400       -2.5243619E-18
   37.34550       -2.5346822E-18
   37.50700       -2.5450817E-18
   37.66850       -2.5551926E-18
   37.83000       -2.5646898E-18
   37.99150       -2.5733018E-18
   38.15300       -2.5808149E-18
   38.31450       -2.5870789E-18
   38.47600       -2.5920143E-18
   38.63750       -2.5956146E-18
   38.79900       -2.5979487E-18
   38.96050       -2.5991595E-18
   39.12200       -2.5994544E-18
   39.28350       -2.5990910E-18
   39.44500       -2.5983584E-18
   39.60650       -2.5975506E-18
   39.76800       -2.5969433E-18
   39.92950       -2.5967708E-18
   40.09100       -2.5972090E-18
   40.25250       -2.5983658E-18
   40.41400       -2.6002799E-18
   40.57550       -2.6029304E-18
   40.73700       -2.6062472E-18
   40.89850       -2.6101273E-18
   41.06000       -2.6144468E-18
   41.22150       -2.6190691E-18
   41.38300       -2.6238446E-18
   41.54450       -2.6286055E-18
   41.70600       -2.6331541E-18
   41.86750       -2.6372567E-18
   42.02900       -2.6406376E-18
   42.19050       -2.6429943E-18
   42.35200       -2.6440183E-18
   42.51350       -2.6434382E-18
   42.67500       -2.6410725E-18
   42.83650       -2.6368824E-18
   42.99800       -2.6310210E-18
   43.15950       -2.6238614E-18
   43.32100       -2.6159982E-18
   43.48250       -2.6082123E-18
   43.64400       -2.6014040E-18
   43.80550       -2.5964957E-18
   43.96700       -2.5943207E-18
   44.12850       -2.5955097E-18
   44.29000       -2.6003980E-18
   44.45150       -2.6089597E-18
   44.61300       -2.6207913E-18
   44.77450       -2.6351416E-18
   44.93600       -2.6509869E-18
   45.09750       -2.6671401E-18
   45.25900       -2.6823842E-18
   45.42050       -2.6956073E-18
   45.58200       -2.7059216E-18
   45.74350       -2.7127560E-18
   45.90500       -2.7159084E-18
   46.06650       -2.7155564E-18
   46.22800       -2.7122258E-18
   46.38950       -2.7067262E-18
   46.55100       -2.7000594E-18
   46.71250       -2.6933164E-18
   46.87400       -2.6875727E-18
   47.03550       -2.6837867E-18
   47.19700       -2.6827202E-18
   47.35850       -2.6848709E-18
   47.52000       -2.6904353E-18
   47.68150       -2.6992920E-18
   47.84300       -2.7110110E-18
   48.00450       -2.7248868E-18
   48.16600       -2.7399907E-18
   48.32750       -2.7552464E-18
   48.48900       -2.7695144E-18
   48.65050       -2.7816893E-18
   48.81200       -2.7907974E-18
   48.97350       -2.7960907E-18
   49.13500       -2.7971241E-18
   49.29650       -2.7938112E-18
   49.45800       -2.7864530E-18
   49.61950       -2.7757284E-18
   49.78100       -2.7626511E-18
   49.94250       -2.7484908E-18
   50.10400       -2.7346678E-18
   50.26550       -2.7226240E-18
   50.42700       -2.7136901E-18
   50.58850       -2.7089526E-18
   50.75000       -2.7091404E-18
   50.91150       -2.7145396E-18
   51.07300       -2.7249501E-18
   51.23450       -2.7396844E-18
   51.39600       -2.7576171E-18
   51.55750       -2.7772790E-18
   51.71900       -2.7969909E-18
   51.88050       -2.8150255E-18
   52.04200       -2.8297791E-18
   52.20350       -2.8399393E-18
   52.36500       -2.8446278E-18
   52.52650       -2.8435024E-18
   52.68800       -2.8368021E-18
   52.84950       -2.8253338E-18
   53.01100       -2.8103974E-18
   53.17250       -2.7936547E-18
   53.33400       -2.7769632E-18
   53.49550       -2.7621871E-18
   53.65700       -2.7510106E-18
   53.81850       -2.7447753E-18
   53.98000       -2.7443516E-18
   54.14150       -2.7500637E-18
   54.30300       -2.7616657E-18
   54.46450       -2.7783731E-18
   54.62600       -2.7989370E-18
   54.78750       -2.8217612E-18
   54.94900       -2.8450404E-18
   55.11050       -2.8669168E-18
   55.27200       -2.8856405E-18
   55.43350       -2.8997236E-18
   55.59500       -2.9080757E-18
   55.75650       -2.9101116E-18
   55.91800       -2.9058185E-18
   56.07950       -2.8957736E-18
   56.24100       -2.8811067E-18
   56.40250       -2.8634048E-18
   56.56400       -2.8445670E-18
   56.72550       -2.8266217E-18
   56.88700       -2.8115238E-18
   57.04850       -2.8009583E-18
   57.21000       -2.7961693E-18
   57.37150       -2.7978418E-18
   57.53300       -2.8060419E-18
   57.69450       -2.8202239E-18
   57.85600       -2.8392999E-18
   58.01750       -2.8617587E-18
   58.17900       -2.8858162E-18
   58.34050       -2.9095784E-18
   58.50200       -2.9312011E-18
   58.66350       -2.9490345E-18
   58.82500       -2.9617425E-18
   58.98650       -2.9683997E-18
   59.14800       -2.9685575E-18
   59.30950       -2.9622864E-18
   59.47100       -2.9501901E-18
   59.63250       -2.9333868E-18
   59.79400       -2.9134509E-18
   59.95550       -2.8923172E-18
   60.11700       -2.8721351E-18
   60.27850       -2.8550894E-18
   60.44000       -2.8431916E-18
   60.60150       -2.8380658E-18
   60.76300       -2.8407539E-18
   60.92450       -2.8515701E-18
   61.08600       -2.8700227E-18
   61.24750       -2.8948257E-18
   61.40900       -2.9240041E-18
   61.57050       -2.9550808E-18
   61.73200       -2.9853271E-18
   61.89350       -3.0120454E-18
   62.05500       -3.0328501E-18
   62.21650       -3.0459127E-18
   62.37800       -3.0501458E-18
   62.53950       -3.0453051E-18
   62.70100       -3.0320070E-18
   62.86250       -3.0116604E-18
   63.02400       -2.9863317E-18
   63.18550       -2.9585541E-18
   63.34700       -2.9310992E-18
   63.50850       -2.9067329E-18
   63.67000       -2.8879702E-18
   63.83150       -2.8768450E-18
   63.99300       -2.8747138E-18
   64.15450       -2.8821080E-18
   64.31600       -2.8986530E-18
   64.47750       -2.9230698E-18
   64.63900       -2.9532687E-18
   64.80050       -2.9865319E-18
   64.96200       -3.0197802E-18
   65.12350       -3.0498933E-18
   65.28500       -3.0740482E-18
   65.44650       -3.0900397E-18
   65.60800       -3.0965254E-18
   65.76950       -3.0931728E-18
   65.93100       -3.0806824E-18
   66.09250       -3.0606808E-18
   66.25400       -3.0355132E-18
   66.41550       -3.0079534E-18
   66.57700       -2.9808917E-18
   66.73850       -2.9570332E-18
   66.90000       -2.9386495E-18
   67.06150       -2.9274058E-18
   67.22300       -2.9242694E-18
   67.38450       -2.9294943E-18
   67.54600       -2.9426632E-18
   67.70750       -2.9627670E-18
   67.86900       -2.9883033E-18
   68.03050       -3.0173872E-18
   68.19200       -3.0478671E-18
   68.35350       -3.0774587E-18
   68.51500       -3.1038904E-18
   68.67650       -3.1250805E-18
   68.83800       -3.1393173E-18
   68.99950       -3.1454465E-18
   69.16100       -3.1430256E-18
   69.32250       -3.1324261E-18
   69.48400       -3.1148501E-18
   69.64550       -3.0922549E-18
   69.80700       -3.0671735E-18
   69.96850       -3.0424592E-18
   70.13000       -3.0209767E-18
   70.29150       -3.0052857E-18
   70.45300       -2.9973588E-18
   70.61450       -2.9983695E-18
   70.77600       -3.0085756E-18
   70.93750       -3.0273088E-18
   71.09900       -3.0530635E-18
   71.26050       -3.0836671E-18
   71.42200       -3.1165045E-18
   71.58350       -3.1487716E-18
   71.74500       -3.1777291E-18
   71.90650       -3.2009381E-18
   72.06800       -3.2164653E-18
   72.22950       -3.2230404E-18
   72.39100       -3.2201680E-18
   72.55250       -3.2081815E-18
   72.71400       -3.1882361E-18
   72.87550       -3.1622321E-18
   73.03700       -3.1326719E-18
   73.19850       -3.1024546E-18
   73.36000       -3.0746146E-18
   73.52150       -3.0520324E-18
   73.68300       -3.0371438E-18
   73.84450       -3.0316792E-18
   74.00600       -3.0364690E-18
   74.16750       -3.0513376E-18
   74.32900       -3.0751064E-18
   74.49050       -3.1057059E-18
   74.65200       -3.1403844E-18
   74.81350       -3.1759891E-18
   74.97500       -3.2092829E-18
   75.13650       -3.2372673E-18
   75.29800       -3.2574662E-18
   75.45950       -3.2681515E-18
   75.62100       -3.2684888E-18
   75.78250       -3.2585939E-18
   75.94400       -3.2395052E-18
   76.10550       -3.2130770E-18
   76.26700       -3.1818067E-18
   76.42850       -3.1486192E-18
   76.59000       -3.1166122E-18
   76.75150       -3.0887923E-18
   76.91300       -3.0678131E-18
   77.07450       -3.0557373E-18
   77.23600       -3.0538414E-18
   77.39750       -3.0624861E-18
   77.55900       -3.0810627E-18
   77.72050       -3.1080338E-18
   77.88200       -3.1410651E-18
   78.04350       -3.1772421E-18
   78.20500       -3.2133491E-18
   78.36650       -3.2461901E-18
   78.52800       -3.2729006E-18
   78.68950       -3.2912359E-18
   78.85100       -3.2997856E-18
   79.01250       -3.2981017E-18
   79.17400       -3.2867279E-18
   79.33550       -3.2671320E-18
   79.49700       -3.2415486E-18
   79.65850       -3.2127585E-18
   79.82000       -3.1838281E-18
   79.98150       -3.1578290E-18
   80.14300       -3.1375670E-18
   80.30450       -3.1253344E-18
   80.46600       -3.1227092E-18
   80.62750       -3.1304053E-18
   80.78900       -3.1481981E-18
   80.95050       -3.1749196E-18
   81.11200       -3.2085416E-18
   81.27350       -3.2463396E-18
   81.43500       -3.2851317E-18
   81.59650       -3.3215741E-18
   81.75800       -3.3524888E-18
   81.91950       -3.3751874E-18
   82.08100       -3.3877556E-18
   82.24250       -3.3892586E-18
   82.40400       -3.3798449E-18
   82.56550       -3.3607321E-18
   82.72700       -3.3340731E-18
   82.88850       -3.3027227E-18
   83.05000       -3.2699370E-18
   83.21150       -3.2390377E-18
   83.37300       -3.2130896E-18
   83.53450       -3.1946172E-18
   83.69600       -3.1853940E-18
   83.85750       -3.1863125E-18
   84.01900       -3.1973411E-18
   84.18050       -3.2175609E-18
   84.34200       -3.2452669E-18
   84.50350       -3.2781246E-18
   84.66500       -3.3133662E-18
   84.82650       -3.3480144E-18
   84.98800       -3.3791207E-18
   85.14950       -3.4040101E-18
   85.31100       -3.4205143E-18
   85.47250       -3.4271757E-18
   85.63400       -3.4234032E-18
   85.79550       -3.4095572E-18
   85.95700       -3.3869493E-18
   86.11850       -3.3577457E-18
   86.28000       -3.3247811E-18
   86.44150       -3.2912929E-18
   86.60300       -3.2606027E-18
   86.76450       -3.2357850E-18
   86.92600       -3.2193543E-18
   87.08750       -3.2130061E-18
   87.24900       -3.2174501E-18
   87.41050       -3.2323391E-18
   87.57200       -3.2563106E-18
   87.73350       -3.2871283E-18
   87.89500       -3.3219069E-18
   88.05650       -3.3573985E-18
   88.21800       -3.3903079E-18
   88.37950       -3.4176084E-18
   88.54100       -3.4368273E-18
   88.70250       -3.4462797E-18
   88.86400       -3.4452221E-18
   89.02550       -3.4339187E-18
   89.18700       -3.4136094E-18
   89.34850       -3.3863850E-18
   89.51000       -3.3549803E-18
   89.67150       -3.3225089E-18
   89.83300       -3.2921619E-18
   89.99450       -3.2669070E-18
   90.15600       -3.2492130E-18
   90.31750       -3.2408328E-18
   90.47900       -3.2426580E-18
   90.64050       -3.2546546E-18
   90.80200       -3.2758873E-18
   90.96350       -3.3046190E-18
   91.12500       -3.3384724E-18
   91.28650       -3.3746421E-18
   91.44800       -3.4101356E-18
   91.60950       -3.4420263E-18
   91.77100       -3.4677026E-18
   91.93250       -3.4850972E-18
   92.09400       -3.4928748E-18
   92.25550       -3.4905669E-18
   92.41700       -3.4786353E-18
   92.57850       -3.4584545E-18
   92.74000       -3.4322036E-18
   92.90150       -3.4026780E-18
   93.06300       -3.3730273E-18
   93.22450       -3.3464471E-18
   93.38600       -3.3258589E-18
   93.54750       -3.3136125E-18
   93.70900       -3.3112379E-18
   93.87050       -3.3192924E-18
   94.03200       -3.3373042E-18
   94.19350       -3.3638259E-18
   94.35500       -3.3965901E-18
   94.51650       -3.4327423E-18
   94.67800       -3.4691272E-18
   94.83950       -3.5025991E-18
   95.00100       -3.5303155E-18
   95.16250       -3.5499982E-18
   95.32400       -3.5601337E-18
   95.48550       -3.5600919E-18
   95.64700       -3.5501715E-18
   95.80850       -3.5315566E-18
   95.97000       -3.5061945E-18
   96.13150       -3.4766132E-18
   96.29300       -3.4456812E-18
   96.45450       -3.4163494E-18
   96.61600       -3.3913799E-18
   96.77750       -3.3730990E-18
   96.93900       -3.3631931E-18
   97.10050       -3.3625647E-18
   97.26200       -3.3712619E-18
   97.42350       -3.3884858E-18
   97.58500       -3.4126738E-18
   97.74650       -3.4416475E-18
   97.90800       -3.4728078E-18
   98.06950       -3.5033676E-18
   98.23100       -3.5305901E-18
   98.39250       -3.5520306E-18
   98.55400       -3.5657515E-18
   98.71550       -3.5705011E-18
   98.87700       -3.5658449E-18
   99.03850       -3.5522271E-18
   99.20000       -3.5309627E-18
   99.36150       -3.5041439E-18
   99.52300       -3.4744667E-18
   99.68450       -3.4449821E-18
   99.84600       -3.4187966E-18
   100.0075       -3.3987460E-18
   100.1690       -3.3870811E-18
   100.3305       -3.3852135E-18
   100.4920       -3.3935436E-18
   100.6535       -3.4114103E-18
   100.8150       -3.4371658E-18
   100.9765       -3.4683669E-18
   101.1380       -3.5020606E-18
   101.2995       -3.5351210E-18
   101.4610       -3.5645876E-18
   101.6225       -3.5879708E-18
   101.7840       -3.6034738E-18
   101.9455       -3.6101268E-18
   102.1070       -3.6078161E-18
   102.2685       -3.5972323E-18
   102.4300       -3.5797457E-18
   102.5915       -3.5572493E-18
   102.7530       -3.5319793E-18
   102.9145       -3.5063338E-18
   103.0760       -3.4826988E-18
   103.2375       -3.4632816E-18
   103.3990       -3.4499557E-18
   103.5605       -3.4441071E-18
   103.7220       -3.4465047E-18
   103.8835       -3.4572024E-18
   104.0450       -3.4754854E-18
   104.2065       -3.4998905E-18
   104.3680       -3.5283062E-18
   104.5295       -3.5581546E-18
   104.6910       -3.5866456E-18
   104.8525       -3.6110685E-18
   105.0140       -3.6290969E-18
   105.1755       -3.6390479E-18
   105.3370       -3.6400716E-18
   105.4985       -3.6322444E-18
   105.6600       -3.6165416E-18
   105.8215       -3.5947185E-18
   105.9830       -3.5691007E-18
   106.1445       -3.5423336E-18
   106.3060       -3.5171120E-18
   106.4675       -3.4959267E-18
   106.6290       -3.4808525E-18
   106.7905       -3.4733847E-18
   106.9520       -3.4743364E-18
   107.1135       -3.4837878E-18
   107.2750       -3.5010866E-18
   107.4365       -3.5248978E-18
   107.5980       -3.5533024E-18
   107.7595       -3.5839366E-18
   107.9210       -3.6141796E-18
   108.0825       -3.6413789E-18
   108.2440       -3.6630970E-18
   108.4055       -3.6773613E-18
   108.5670       -3.6828856E-18
   108.7285       -3.6792324E-18
   108.8900       -3.6668896E-18
   109.0515       -3.6472449E-18
   109.2130       -3.6224510E-18
   109.3745       -3.5951941E-18
   109.5360       -3.5683972E-18
   109.6975       -3.5448966E-18
   109.8590       -3.5271304E-18
   110.0205       -3.5168887E-18
   110.1820       -3.5151479E-18
   110.3435       -3.5220089E-18
   110.5050       -3.5367422E-18
   110.6665       -3.5579147E-18
   110.8280       -3.5835822E-18
   110.9895       -3.6115098E-18
   111.1510       -3.6393953E-18
   111.3125       -3.6650644E-18
   111.4740       -3.6866381E-18
   111.6355       -3.7026507E-18
   111.7970       -3.7121322E-18
   111.9585       -3.7146547E-18
   112.1200       -3.7103447E-18
   112.2815       -3.6998722E-18
   112.4430       -3.6844064E-18
   112.6045       -3.6655371E-18
   112.7660       -3.6451604E-18
   112.9275       -3.6253258E-18
   113.0890       -3.6080572E-18
   113.2505       -3.5951606E-18
   113.4120       -3.5880386E-18
   113.5735       -3.5875406E-18
   113.7350       -3.5938682E-18
   113.8965       -3.6065521E-18
   114.0580       -3.6245090E-18
   114.2195       -3.6461604E-18
   114.3810       -3.6696118E-18
   114.5425       -3.6928498E-18
   114.7040       -3.7139376E-18
   114.8655       -3.7311834E-18
   115.0270       -3.7432702E-18
   115.1885       -3.7493322E-18
   115.3500       -3.7489910E-18
   115.5115       -3.7423603E-18
   115.6730       -3.7300246E-18
   115.8345       -3.7130028E-18
   115.9960       -3.6927005E-18
   116.1575       -3.6708435E-18
   116.3190       -3.6493802E-18
   116.4805       -3.6303510E-18
   116.6420       -3.6157156E-18