  -30.00000       -1.4038536E-19
  -29.83850       -1.5163292E-19
  -29.67700       -1.7303097E-19
  -29.51550       -2.0273438E-19
  -29.35400       -2.3831469E-19
  -29.19250       -2.7697928E-19
  -29.03100       -3.1581828E-19
  -28.86950       -3.5205983E-19
  -28.70800       -3.8330482E-19
  -28.54650       -4.0772459E-19
  -28.38500       -4.2420270E-19
  -28.22350       -4.3241389E-19
  -28.06200       -4.3283464E-19
  -27.90050       -4.2668582E-19
  -27.73900       -4.1581483E-19
  -27.57750       -4.0252493E-19
  -27.41600       -3.8936800E-19
  -27.25450       -3.7891575E-19
  -27.09300       -3.7352499E-19
  -26.93150       -3.7511953E-19
  -26.77000       -3.8500664E-19
  -26.60850       -4.0374644E-19
  -26.44700       -4.3108510E-19
  -26.28550       -4.6596304E-19
  -26.12400       -5.0660330E-19
  -25.96250       -5.5066385E-19
  -25.80100       -5.9545077E-19
  -25.63950       -6.3816545E-19
  -25.47800       -6.7616602E-19
  -25.31650       -7.0721120E-19
  -25.15500       -7.2966863E-19
  -24.99350       -7.4265966E-19
  -24.83200       -7.4614162E-19
  -24.67050       -7.4090081E-19
  -24.50900       -7.2847889E-19
  -24.34750       -7.1102905E-19
  -24.18600       -6.9112305E-19
  -24.02450       -6.7152388E-19
  -23.86300       -6.5494863E-19
  -23.70150       -6.4383370E-19
  -23.54000       -6.4013140E-19
  -23.37850       -6.4514323E-19
  -23.21700       -6.5941055E-19
  -23.05550       -6.8266745E-19
  -22.89400       -7.1385816E-19
  -22.73250       -7.5122506E-19
  -22.57100       -7.9245598E-19
  -22.40950       -8.3488502E-19
  -22.24800       -8.7572340E-19
  -22.08650       -9.1231094E-19
  -21.92500       -9.4235734E-19
  -21.76350       -9.6415242E-19
  -21.60200       -9.7672670E-19
  -21.44050       -9.7994743E-19
  -21.27900       -9.7452898E-19
  -21.11750       -9.6197300E-19
  -20.95600       -9.4442798E-19
  -20.79450       -9.2449169E-19
  -20.63300       -9.0497312E-19
  -20.47150       -8.8863538E-19
  -20.31000       -8.7794603E-19
  -20.14850       -8.7485568E-19
  -19.98700       -8.8062620E-19
  -19.82550       -8.9571935E-19
  -19.66400       -9.1976001E-19
  -19.50250       -9.5156666E-19
  -19.34100       -9.8925642E-19
  -19.17950       -1.0304077E-18
  -19.01800       -1.0722699E-18
  -18.85650       -1.1120042E-18
  -18.69500       -1.1469333E-18
  -18.53350       -1.1747801E-18
  -18.37200       -1.1938740E-18
  -18.21050       -1.2033084E-18
  -18.04900       -1.2030317E-18
  -17.88750       -1.1938607E-18
  -17.72600       -1.1774147E-18
  -17.56450       -1.1559763E-18
  -17.40300       -1.1322859E-18
  -17.24150       -1.1092923E-18
  -17.08000       -1.0898827E-18
  -16.91850       -1.0766162E-18
  -16.75700       -1.0714862E-18
  -16.59550       -1.0757382E-18
  -16.43400       -1.0897568E-18
  -16.27250       -1.1130347E-18
  -16.11100       -1.1442218E-18
  -15.94950       -1.1812538E-18
  -15.78800       -1.2215451E-18
  -15.62650       -1.2622212E-18
  -15.46500       -1.3003823E-18
  -15.30350       -1.3333624E-18
  -15.14200       -1.3589679E-18
  -14.98050       -1.3756708E-18
  -14.81900       -1.3827471E-18
  -14.65750       -1.3803407E-18
  -14.49600       -1.3694568E-18
  -14.33450       -1.3518722E-18
  -14.17300       -1.3299868E-18
  -14.01150       -1.3066096E-18
  -13.85000       -1.2847111E-18
  -13.68850       -1.2671549E-18
  -13.52700       -1.2564377E-18
  -13.36550       -1.2544549E-18
  -13.20400       -1.2623205E-18
  -13.04250       -1.2802560E-18
  -12.88100       -1.3075604E-18
  -12.71950       -1.3426635E-18
  -12.55800       -1.3832667E-18
  -12.39650       -1.4265467E-18
  -12.23500       -1.4694172E-18
  -12.07350       -1.5088090E-18
  -11.91200       -1.5419544E-18
  -11.75050       -1.5666416E-18
  -11.58900       -1.5814154E-18
  -11.42750       -1.5857076E-18
  -11.26600       -1.5798876E-18
  -11.10450       -1.5652218E-18
  -10.94300       -1.5437600E-18
  -10.78150       -1.5181496E-18
  -10.62000       -1.4913966E-18
  -10.45850       -1.4666019E-18
  -10.29700       -1.4466872E-18
  -10.13550       -1.4341373E-18
  -9.974000       -1.4307825E-18
  -9.812500       -1.4376332E-18
  -9.651000       -1.4547867E-18
  -9.489500       -1.4814106E-18
  -9.328000       -1.5158086E-18
  -9.166500       -1.5555639E-18
  -9.005000       -1.5977517E-18
  -8.843500       -1.6391994E-18
  -8.682000       -1.6767778E-18
  -8.520500       -1.7076900E-18
  -8.359000       -1.7297368E-18
  -8.197500       -1.7415279E-18
  -8.036000       -1.7426156E-18
  -7.874500       -1.7335418E-18
  -7.713000       -1.7157848E-18
  -7.551500       -1.6916192E-18
  -7.390000       -1.6638974E-18
  -7.228500       -1.6357777E-18
  -7.067000       -1.6104276E-18
  -6.905500       -1.5907288E-18
  -6.744000       -1.5790138E-18
  -6.582500       -1.5768548E-18
  -6.421000       -1.5849308E-18
  -6.259500       -1.6029710E-18
  -6.098000       -1.6297847E-18
  -5.936500       -1.6633715E-18
  -5.775000       -1.7011035E-18
  -5.613500       -1.7399587E-18
  -5.452000       -1.7767933E-18
  -5.290500       -1.8086252E-18
  -5.129000       -1.8329061E-18
  -4.967500       -1.8477594E-18
  -4.806000       -1.8521610E-18
  -4.644500       -1.8460448E-18
  -4.483000       -1.8303212E-18
  -4.321500       -1.8068009E-18
  -4.160000       -1.7780336E-18
  -3.998500       -1.7470749E-18
  -3.837000       -1.7171989E-18
  -3.675500       -1.6915914E-18
  -3.514000       -1.6730502E-18
  -3.352500       -1.6637209E-18
  -3.191000       -1.6649007E-18
  -3.029500       -1.6769180E-18
  -2.868000       -1.6991071E-18
  -2.706500       -1.7298723E-18
  -2.545000       -1.7668348E-18
  -2.383500       -1.8070464E-18
  -2.222000       -1.8472511E-18
  -2.060500       -1.8841716E-18
  -1.899000       -1.9147953E-18
  -1.737500       -1.9366412E-18
  -1.576000       -1.9479795E-18
  -1.414500       -1.9479903E-18
  -1.253000       -1.9368490E-18
  -1.091500       -1.9157222E-18
 -0.9300000       -1.8866766E-18
 -0.7685000       -1.8525026E-18
 -0.6070000       -1.8164684E-18
 -0.4455000       -1.7820186E-18
 -0.2840000       -1.7524516E-18
 -0.1225000       -1.7306046E-18
  3.9000001E-02   -1.7185750E-18
  0.2005000       -1.7175156E-18
  0.3620000       -1.7275173E-18
  0.5235000       -1.7476031E-18
  0.6850000       -1.7758226E-18
  0.8465000       -1.8094501E-18
   1.008000       -1.8452551E-18
   1.169500       -1.8798196E-18
   1.331000       -1.9098711E-18
   1.492500       -1.9325950E-18
   1.654000       -1.9458977E-18
   1.815500       -1.9485987E-18
   1.977000       -1.9405295E-18
   2.138500       -1.9225456E-18
   2.300000       -1.8964422E-18
   2.461500       -1.8647856E-18
   2.623000       -1.8306826E-18
   2.784500       -1.7975021E-18
   2.946000       -1.7685723E-18
   3.107500       -1.7468828E-18
   3.269000       -1.7348118E-18
   3.430500       -1.7339056E-18
   3.592000       -1.7447268E-18
   3.753500       -1.7667914E-18
   3.915000       -1.7985992E-18
   4.076500       -1.8377598E-18
   4.238000       -1.8812048E-18
   4.399500       -1.9254645E-18
   4.561000       -1.9669910E-18
   4.722500       -2.0024928E-18
   4.884000       -2.0292413E-18
   5.045500       -2.0453331E-18
   5.207000       -2.0498652E-18
   5.368500       -2.0430182E-18
   5.530000       -2.0260337E-18
   5.691500       -2.0010901E-18
   5.853000       -1.9710914E-18
   6.014500       -1.9393866E-18
   6.176000       -1.9094561E-18
   6.337500       -1.8845854E-18
   6.499000       -1.8675563E-18
   6.660500       -1.8603933E-18
   6.822000       -1.8641729E-18
   6.983500       -1.8789226E-18
   7.145000       -1.9036123E-18
   7.306500       -1.9362423E-18
   7.468000       -1.9740202E-18
   7.629500       -2.0136124E-18
   7.791000       -2.0514499E-18
   7.952500       -2.0840656E-18
   8.114000       -2.1084213E-18
   8.275500       -2.1222092E-18
   8.437000       -2.1240832E-18
   8.598500       -2.1138061E-18
   8.760000       -2.0922857E-18
   8.921500       -2.0615032E-18
   9.083000       -2.0243304E-18
   9.244500       -1.9842580E-18
   9.406000       -1.9450575E-18
   9.567500       -1.9104168E-18
   9.729000       -1.8835823E-18
   9.890500       -1.8670449E-18
   10.05200       -1.8623066E-18
   10.21350       -1.8697454E-18
   10.37500       -1.8885923E-18
   10.53650       -1.9170219E-18
   10.69800       -1.9523446E-18
   10.85950       -1.9912737E-18
   11.02100       -2.0302478E-18
   11.18250       -2.0657698E-18
   11.34400       -2.0947350E-18
   11.50550       -2.1147129E-18
   11.66700       -2.1241659E-18
   11.82850       -2.1225806E-18
   11.99000       -2.1105054E-18
   12.15150       -2.0894934E-18
   12.31300       -2.0619514E-18
   12.47450       -2.0309139E-18
   12.63600       -1.9997604E-18
   12.79750       -1.9718975E-18
   12.95900       -1.9504381E-18
   13.12050       -1.9379059E-18
   13.28200       -1.9359914E-18
   13.44350       -1.9453832E-18
   13.60500       -1.9656982E-18
   13.76650       -1.9955124E-18
   13.92800       -2.0324934E-18
   14.08950       -2.0736219E-18
   14.25100       -2.1154819E-18
   14.41250       -2.1545896E-18
   14.57400       -2.1877263E-18
   14.73550       -2.2122426E-18
   14.89700       -2.2263039E-18
   15.05850       -2.2290536E-18
   15.22000       -2.2206813E-18
   15.38150       -2.2023903E-18
   15.54300       -2.1762702E-18
   15.70450       -2.1450915E-18
   15.86600       -2.1120436E-18
   16.02750       -2.0804366E-18
   16.18900       -2.0534025E-18
   16.35050       -2.0336107E-18
   16.51200       -2.0230321E-18
   16.67350       -2.0227641E-18
   16.83500       -2.0329318E-18
   16.99650       -2.0526818E-18
   17.15800       -2.0802604E-18
   17.31950       -2.1131789E-18
   17.48100       -2.1484515E-18
   17.64250       -2.1828817E-18
   17.80400       -2.2133769E-18
   17.96550       -2.2372566E-18
   18.12700       -2.2525195E-18
   18.28850       -2.2580476E-18
   18.45000       -2.2537158E-18
   18.61150       -2.2403995E-18
   18.77300       -2.2198786E-18
   18.93450       -2.1946452E-18
   19.09600       -2.1676384E-18
   19.25750       -2.1419418E-18
   19.41900       -2.1204665E-18
   19.58050       -2.1056648E-18
   19.74200       -2.0992959E-18
   19.90350       -2.1022694E-18
   20.06500       -2.1145752E-18
   20.22650       -2.1353043E-18
   20.38800       -2.1627512E-18
   20.54950       -2.1945881E-18
   20.71100       -2.2280887E-18
   20.87250       -2.2603843E-18
   21.03400       -2.2887287E-18
   21.19550       -2.3107514E-18
   21.35700       -2.3246747E-18
   21.51850       -2.3294829E-18
   21.68000       -2.3250215E-18
   21.84150       -2.3120186E-18
   22.00300       -2.2920215E-18
   22.16450       -2.2672528E-18
   22.32600       -2.2403964E-18
   22.48750       -2.2143311E-18
   22.64900       -2.1918440E-18
   22.81050       -2.1753477E-18
   22.97200       -2.1666373E-18
   23.13350       -2.1667148E-18
   23.29500       -2.1756982E-18
   23.45650       -2.1928266E-18
   23.61800       -2.2165587E-18
   23.77950       -2.2447473E-18
   23.94100       -2.2748753E-18
   24.10250       -2.3043120E-18
   24.26400       -2.3305756E-18
   24.42550       -2.3515632E-18
   24.58700       -2.3657341E-18
   24.74850       -2.3722312E-18
   24.91000       -2.3709343E-18
   25.07150       -2.3624483E-18
   25.23300       -2.3480250E-18
   25.39450       -2.3294370E-18
   25.55600       -2.3088116E-18
   25.71750       -2.2884322E-18
   25.87900       -2.2705351E-18
   26.04050       -2.2571056E-18
   26.20200       -2.2496951E-18
   26.36350       -2.2492755E-18
   26.52500       -2.2561502E-18
   26.68650       -2.2699215E-18
   26.84800       -2.2895361E-18
   27.00950       -2.3133899E-18
   27.17100       -2.3394971E-18
   27.33250       -2.3656935E-18
   27.49400       -2.3898567E-18
   27.65550       -2.4101193E-18
   27.81700       -2.4250456E-18
   27.97850       -2.4337556E-18
   28.14000       -2.4359867E-18
   28.30150       -2.4320874E-18
   28.46300       -2.4229526E-18
   28.62450       -2.4099117E-18
   28.78600       -2.3945861E-18
   28.94750       -2.3787314E-18
   29.10900       -2.3640843E-18
   29.27050       -2.3522167E-18
   29.43200       -2.3444176E-18
   29.59350       -2.3415928E-18
   29.75500       -2.3442011E-18
   29.91650       -2.3522196E-18
   30.07800       -2.3651447E-18
   30.23950       -2.3820306E-18
   30.40100       -2.4015708E-18
   30.56250       -2.4222109E-18
   30.72400       -2.4422944E-18
   30.88550       -2.4602252E-18
   31.04700       -2.4746291E-18
   31.20850       -2.4844988E-18
   31.37000       -2.4892956E-18
   31.53150       -2.4890007E-18
   31.69300       -2.4841055E-18
   31.85450       -2.4755388E-18
   32.01600       -2.4645476E-18
   32.17750       -2.4525440E-18
   32.33900       -2.4409432E-18
   32.50050       -2.4310114E-18
   32.66200       -2.4237490E-18
   32.82350       -2.4198139E-18
   32.98500       -2.4194892E-18
   33.14650       -2.4227008E-18
   33.30800       -2.4290638E-18
   33.46950       -2.4379552E-18
   33.63100       -2.4485930E-18
   33.79250       -2.4601212E-18
   33.95400       -2.4716823E-18
   34.11550       -2.4824832E-18
   34.27700       -2.4918487E-18
   34.43850       -2.4992623E-18
   34.60000       -2.5043966E-18
   34.76150       -2.5071317E-18
   34.92300       -2.5075585E-18
   35.08450       -2.5059666E-18
   35.24600       -2.5028165E-18
   35.40750       -2.4986947E-18
   35.56900       -2.4942589E-18
   35.73050       -2.4901739E-18
   35.89200       -2.4870490E-18
   36.05350       -2.4853864E-18
   36.21500       -2.4855388E-18
   36.37650       -2.4876921E-18
   36.53800       -2.4918622E-18
   36.69950       -2.4979134E-18
   36.86100       -2.5055880E-18
   37.02250       -2.5145420E-18
   37.18400       -2.5243819E-18
   37.34550       -2.5346983E-18
   37.50700       -2.5450935E-18
   37.66850       -2.5552000E-18
   37.83000       -2.5646935E-18
   37.99150       -2.5733028E-18
   38.15300       -2.5808141E-18
   38.31450       -2.5870773E-18
   38.47600       -2.5920124E-18
   38.63750       -2.5956134E-18
   38.79900       -2.5979491E-18
   38.96050       -2.5991613E-18
   39.12200       -2.5994583E-18
   39.28350       -2.5990974E-18
   39.44500       -2.5983675E-18
   39.60650       -2.5975626E-18
   39.76800       -2.5969583E-18
   39.92950       -2.5967888E-18
   40.09100       -2.5972295E-18
   40.25250       -2.5983879E-18
   40.41400       -2.6003022E-18
   40.57550       -2.6029509E-18
   40.73700       -2.6062641E-18
   40.89850       -2.6101395E-18
   41.06000       -2.6144532E-18
   41.22150       -2.6190693E-18
   41.38300       -2.6238388E-18
   41.54450       -2.6285949E-18
   41.70600       -2.6331409E-18
   41.86750       -2.6372423E-18
   42.02900       -2.6406246E-18
   42.19050       -2.6429839E-18
   42.35200       -2.6440121E-18
   42.51350       -2.6434374E-18
   42.67500       -2.6410773E-18
   42.83650       -2.6368921E-18
   42.99800       -2.6310355E-18
   43.15950       -2.6238800E-18
   43.32100       -2.6160189E-18
   43.48250       -2.6082339E-18
   43.64400       -2.6014241E-18
   43.80550       -2.5965131E-18
   43.96700       -2.5943343E-18
   44.12850       -2.5955193E-18
   44.29000       -2.6004027E-18
   44.45150       -2.6089612E-18
   44.61300       -2.6207913E-18
   44.77450       -2.6351425E-18
   44.93600       -2.6509910E-18
   45.09750       -2.6671498E-18
   45.25900       -2.6824009E-18
   45.42050       -2.6956311E-18
   45.58200       -2.7059510E-18
   45.74350       -2.7127884E-18
   45.90500       -2.7159412E-18
   46.06650       -2.7155862E-18
   46.22800       -2.7122502E-18
   46.38950       -2.7067428E-18
   46.55100       -2.7000679E-18
   46.71250       -2.6933179E-18
   46.87400       -2.6875683E-18
   47.03550       -2.6837801E-18
   47.19700       -2.6827136E-18
   47.35850       -2.6848668E-18
   47.52000       -2.6904353E-18
   47.68150       -2.6992973E-18
   47.84300       -2.7110214E-18
   48.00450       -2.7249013E-18
   48.16600       -2.7400081E-18
   48.32750       -2.7552648E-18
   48.48900       -2.7695318E-18
   48.65050       -2.7817048E-18
   48.81200       -2.7908096E-18
   48.97350       -2.7960992E-18
   49.13500       -2.7971286E-18
   49.29650       -2.7938127E-18
   49.45800       -2.7864522E-18
   49.61950       -2.7757263E-18
   49.78100       -2.7626484E-18
   49.94250       -2.7484881E-18
   50.10400       -2.7346657E-18
   50.26550       -2.7226232E-18
   50.42700       -2.7136909E-18
   50.58850       -2.7089549E-18
   50.75000       -2.7091441E-18
   50.91150       -2.7145456E-18
   51.07300       -2.7249586E-18
   51.23450       -2.7396958E-18
   51.39600       -2.7576320E-18
   51.55750       -2.7772974E-18
   51.71900       -2.7970126E-18
   51.88050       -2.8150497E-18
   52.04200       -2.8298045E-18
   52.20350       -2.8399654E-18
   52.36500       -2.8446537E-18
   52.52650       -2.8435264E-18
   52.68800       -2.8368231E-18
   52.84950       -2.8253514E-18
   53.01100       -2.8104109E-18
   53.17250       -2.7936640E-18
   53.33400       -2.7769690E-18
   53.49550       -2.7621891E-18
   53.65700       -2.7510102E-18
   53.81850       -2.7447732E-18
   53.98000       -2.7443489E-18
   54.14150       -2.7500610E-18
   54.30300       -2.7616643E-18
   54.46450       -2.7783731E-18
   54.62600       -2.7989397E-18
   54.78750       -2.8217672E-18
   54.94900       -2.8450495E-18
   55.11050       -2.8669288E-18
   55.27200       -2.8856547E-18
   55.43350       -2.8997400E-18
   55.59500       -2.9080939E-18
   55.75650       -2.9101316E-18
   55.91800       -2.9058404E-18
   56.07950       -2.8957974E-18
   56.24100       -2.8811334E-18
   56.40250       -2.8634350E-18
   56.56400       -2.8446015E-18
   56.72550       -2.8266612E-18
   56.88700       -2.8115681E-18
   57.04850       -2.8010062E-18
   57.21000       -2.7962204E-18
   57.37150       -2.7978948E-18
   57.53300       -2.8060948E-18
   57.69450       -2.8202756E-18
   57.85600       -2.8393502E-18
   58.01750       -2.8618075E-18
   58.17900       -2.8858646E-18
   58.34050       -2.9096277E-18
   58.50200       -2.9312533E-18
   58.66350       -2.9490906E-18
   58.82500       -2.9618046E-18
   58.98650       -2.9684679E-18
   59.14800       -2.9686323E-18
   59.30950       -2.9623681E-18
   59.47100       -2.9502782E-18
   59.63250       -2.9334807E-18
   59.79400       -2.9135493E-18
   59.95550       -2.8924192E-18
   60.11700       -2.8722395E-18
   60.27850       -2.8551959E-18
   60.44000       -2.8432994E-18
   60.60150       -2.8381748E-18
   60.76300       -2.8408650E-18
   60.92450       -2.8516839E-18
   61.08600       -2.8701397E-18
   61.24750       -2.8949473E-18
   61.40900       -2.9241308E-18
   61.57050       -2.9552132E-18
   61.73200       -2.9854644E-18
   61.89350       -3.0121869E-18
   62.05500       -3.0329948E-18
   62.21650       -3.0460599E-18
   62.37800       -3.0502941E-18
   62.53950       -3.0454540E-18
   62.70100       -3.0321559E-18
   62.86250       -3.0118103E-18
   63.02400       -2.9864847E-18
   63.18550       -2.9587121E-18
   63.34700       -2.9312640E-18
   63.50850       -2.9069056E-18
   63.67000       -2.8881514E-18
   63.83150       -2.8770345E-18
   63.99300       -2.8749105E-18
   64.15450       -2.8823098E-18
   64.31600       -2.8988576E-18
   64.47750       -2.9232745E-18
   64.63900       -2.9534711E-18
   64.80050       -2.9867310E-18
   64.96200       -3.0199754E-18
   65.12350       -3.0500852E-18
   65.28500       -3.0742393E-18
   65.44650       -3.0902324E-18
   65.60800       -3.0967229E-18
   65.76950       -3.0933786E-18
   65.93100       -3.0808983E-18
   66.09250       -3.0609093E-18
   66.25400       -3.0357549E-18
   66.41550       -3.0082079E-18
   66.57700       -2.9811581E-18
   66.73850       -2.9573090E-18
   66.90000       -2.9389326E-18
   67.06150       -2.9276931E-18
   67.22300       -2.9245587E-18
   67.38450       -2.9297844E-18
   67.54600       -2.9429533E-18
   67.70750       -2.9630569E-18
   67.86900       -2.9885951E-18
   68.03050       -3.0176825E-18
   68.19200       -3.0481680E-18
   68.35350       -3.0777662E-18
   68.51500       -3.1042066E-18
   68.67650       -3.1254039E-18
   68.83800       -3.1396469E-18
   68.99950       -3.1457788E-18
   69.16100       -3.1433573E-18
   69.32250       -3.1327538E-18
   69.48400       -3.1151715E-18
   69.64550       -3.0925686E-18
   69.80700       -3.0674800E-18
   69.96850       -3.0427599E-18
   70.13000       -3.0212749E-18
   70.29150       -3.0055862E-18
   70.45300       -2.9976666E-18
   70.61450       -2.9986892E-18
   70.77600       -3.0089106E-18
   70.93750       -3.0276616E-18
   71.09900       -3.0534351E-18
   71.26050       -3.0840569E-18
   71.42200       -3.1169115E-18
   71.58350       -3.1491928E-18
   71.74500       -3.1781613E-18
   71.90650       -3.2013778E-18
   72.06800       -3.2169079E-18
   72.22950       -3.2234823E-18
   72.39100       -3.2206062E-18
   72.55250       -3.2086146E-18
   72.71400       -3.1886628E-18
   72.87550       -3.1626519E-18
   73.03700       -3.1330857E-18
   73.19850       -3.1028630E-18
   73.36000       -3.0750189E-18
   73.52150       -3.0524340E-18
   73.68300       -3.0375447E-18
   73.84450       -3.0320812E-18
   74.00600       -3.0368733E-18
   74.16750       -3.0517451E-18
   74.32900       -3.0755187E-18
   74.49050       -3.1061246E-18
   74.65200       -3.1408110E-18
   74.81350       -3.1764240E-18
   74.97500       -3.2097275E-18
   75.13650       -3.2377216E-18
   75.29800       -3.2579305E-18
   75.45950       -3.2686251E-18
   75.62100       -3.2689715E-18
   75.78250       -3.2590850E-18
   75.94400       -3.2400036E-18
   76.10550       -3.2135810E-18
   76.26700       -3.1823152E-18
   76.42850       -3.1491306E-18
   76.59000       -3.1171245E-18
   76.75150       -3.0893035E-18
   76.91300       -3.0683218E-18
   77.07450       -3.0562419E-18
   77.23600       -3.0543410E-18
   77.39750       -3.0629812E-18
   77.55900       -3.0815538E-18
   77.72050       -3.1085241E-18
   77.88200       -3.1415569E-18
   78.04350       -3.1777386E-18
   78.20500       -3.2138543E-18
   78.36650       -3.2467064E-18
   78.52800       -3.2734306E-18
   78.68950       -3.2917806E-18
   78.85100       -3.3003452E-18
   79.01250       -3.2986759E-18
   79.17400       -3.2873171E-18
   79.33550       -3.2677348E-18
   79.49700       -3.2421636E-18
   79.65850       -3.2133855E-18
   79.82000       -3.1844652E-18
   79.98150       -3.1584748E-18
   80.14300       -3.1382180E-18
   80.30450       -3.1259865E-18
   80.46600       -3.1233567E-18
   80.62750       -3.1310428E-18
   80.78900       -3.1488191E-18
   80.95050       -3.1755185E-18
   81.11200       -3.2091152E-18
   81.27350       -3.2468866E-18
   81.43500       -3.2856534E-18
   81.59650       -3.3220738E-18
   81.75800       -3.3529719E-18
   81.91950       -3.3756608E-18
   82.08100       -3.3882259E-18
   82.24250       -3.3897324E-18
   82.40400       -3.3803280E-18
   82.56550       -3.3612292E-18
   82.72700       -3.3345869E-18
   82.88850       -3.3032550E-18
   83.05000       -3.2704879E-18
   83.21150       -3.2396070E-18
   83.37300       -3.2136755E-18
   83.53450       -3.1952176E-18
   83.69600       -3.1860061E-18
   83.85750       -3.1869329E-18
   84.01900       -3.1979669E-18
   84.18050       -3.2181884E-18
   84.34200       -3.2458931E-18
   84.50350       -3.2787473E-18
   84.66500       -3.3139841E-18
   84.82650       -3.3486267E-18
   84.98800       -3.3797274E-18
   85.14950       -3.4046123E-18
   85.31100       -3.4211129E-18
   85.47250       -3.4277730E-18
   85.63400       -3.4240012E-18
   85.79550       -3.4101577E-18
   85.95700       -3.3875542E-18
   86.11850       -3.3583566E-18
   86.28000       -3.3253994E-18
   86.44150       -3.2919193E-18
   86.60300       -3.2612384E-18
   86.76450       -3.2364304E-18
   86.92600       -3.2200090E-18
   87.08750       -3.2136701E-18
   87.24900       -3.2181216E-18
   87.41050       -3.2330174E-18
   87.57200       -3.2569943E-18
   87.73350       -3.2878161E-18
   87.89500       -3.3225986E-18
   88.05650       -3.3580933E-18
   88.21800       -3.3910058E-18
   88.37950       -3.4183082E-18
   88.54100       -3.4375281E-18
   88.70250       -3.4469799E-18
   88.86400       -3.4459197E-18
   89.02550       -3.4346102E-18
   89.18700       -3.4142910E-18
   89.34850       -3.3870521E-18
   89.51000       -3.3556300E-18
   89.67150       -3.3231383E-18
   89.83300       -3.2927699E-18
   89.99450       -3.2674935E-18
   90.15600       -3.2497800E-18
   90.31750       -3.2413840E-18
   90.47900       -3.2431975E-18
   90.64050       -3.2551875E-18
   90.80200       -3.2764186E-18
   90.96350       -3.3051521E-18
   91.12500       -3.3390115E-18
   91.28650       -3.3751914E-18
   91.44800       -3.4106973E-18
   91.60950       -3.4426025E-18
   91.77100       -3.4682951E-18
   91.93250       -3.4857068E-18
   92.09400       -3.4935018E-18
   92.25550       -3.4912101E-18
   92.41700       -3.4792933E-18
   92.57850       -3.4591250E-18
   92.74000       -3.4328827E-18
   92.90150       -3.4033612E-18
   93.06300       -3.3737087E-18
   93.22450       -3.3471216E-18
   93.38600       -3.3265223E-18
   93.54750       -3.3142602E-18
   93.70900       -3.3118674E-18
   93.87050       -3.3199032E-18
   94.03200       -3.3378973E-18
   94.19350       -3.3644045E-18
   94.35500       -3.3971590E-18
   94.51650       -3.4333066E-18
   94.67800       -3.4696943E-18
   94.83950       -3.5031752E-18
   95.00100       -3.5309081E-18
   95.16250       -3.5506136E-18
   95.32400       -3.5607755E-18
   95.48550       -3.5607627E-18
   95.64700       -3.5508713E-18
   95.80850       -3.5322829E-18
   95.97000       -3.5069435E-18
   96.13150       -3.4773780E-18
   96.29300       -3.4464561E-18
   96.45450       -3.4171272E-18
   96.61600       -3.3921540E-18
   96.77750       -3.3738646E-18
   96.93900       -3.3639467E-18
   97.10050       -3.3633042E-18
   97.26200       -3.3719858E-18
   97.42350       -3.3891945E-18
   97.58500       -3.4133684E-18
   97.74650       -3.4423287E-18
   97.90800       -3.4734770E-18
   98.06950       -3.5040252E-18
   98.23100       -3.5312378E-18
   98.39250       -3.5526696E-18
   98.55400       -3.5663826E-18
   98.71550       -3.5711261E-18
   98.87700       -3.5664657E-18
   99.03850       -3.5528474E-18
   99.20000       -3.5315864E-18
   99.36150       -3.5047762E-18
   99.52300       -3.4751119E-18
   99.68450       -3.4456455E-18
   99.84600       -3.4194817E-18
   100.0075       -3.3994538E-18
   100.1690       -3.3878117E-18
   100.3305       -3.3859637E-18
   100.4920       -3.3943086E-18
   100.6535       -3.4121827E-18
   100.8150       -3.4379367E-18
   100.9765       -3.4691281E-18
   101.1380       -3.5028034E-18
   101.2995       -3.5358389E-18
   101.4610       -3.5652783E-18
   101.6225       -3.5886325E-18
   101.7840       -3.6041095E-18
   101.9455       -3.6107410E-18
   102.1070       -3.6084166E-18
   102.2685       -3.5978258E-18
   102.4300       -3.5803429E-18
   102.5915       -3.5578585E-18
   102.7530       -3.5326076E-18
   102.9145       -3.5069869E-18
   103.0760       -3.4833800E-18
   103.2375       -3.4639936E-18
   103.3990       -3.4506970E-18
   103.5605       -3.4448749E-18
   103.7220       -3.4472959E-18
   103.8835       -3.4580108E-18
   104.0450       -3.4763051E-18
   104.2065       -3.5007156E-18
   104.3680       -3.5291313E-18
   104.5295       -3.5589744E-18
   104.6910       -3.5874554E-18
   104.8525       -3.6118659E-18
   105.0140       -3.6298782E-18
   105.1755       -3.6398118E-18
   105.3370       -3.6408189E-18
   105.4985       -3.6329739E-18
   105.6600       -3.6172554E-18
   105.8215       -3.5954191E-18
   105.9830       -3.5697926E-18
   106.1445       -3.5430226E-18
   106.3060       -3.5178035E-18
   106.4675       -3.4966269E-18
   106.6290       -3.4815668E-18
   106.7905       -3.4741180E-18
   106.9520       -3.4750912E-18
   107.1135       -3.4845649E-18
   107.2750       -3.5018840E-18
   107.4365       -3.5257126E-18
   107.5980       -3.5541287E-18
   107.7595       -3.5847675E-18
   107.9210       -3.6150088E-18
   108.0825       -3.6422007E-18
   108.2440       -3.6639076E-18
   108.4055       -3.6781595E-18
   108.5670       -3.6836718E-18
   108.7285       -3.6800091E-18
   108.8900       -3.6676622E-18
   109.0515       -3.6480191E-18
   109.2130       -3.6232318E-18
   109.3745       -3.5959857E-18
   109.5360       -3.5692029E-18
   109.6975       -3.5457163E-18
   109.8590       -3.5279629E-18
   110.0205       -3.5177295E-18
   110.1820       -3.5159920E-18
   110.3435       -3.5228493E-18
   110.5050       -3.5375719E-18
   110.6665       -3.5587275E-18
   110.8280       -3.5843729E-18
   110.9895       -3.6122754E-18
   111.1510       -3.6401332E-18
   111.3125       -3.6657758E-18
   111.4740       -3.6873259E-18
   111.6355       -3.7033194E-18
   111.7970       -3.7127878E-18
   111.9585       -3.7153028E-18
   112.1200       -3.7109928E-18
   112.2815       -3.7005265E-18
   112.4430       -3.6850718E-18
   112.6045       -3.6662175E-18
   112.7660       -3.6458577E-18
   112.9275       -3.6260405E-18
   113.0890       -3.6087888E-18
   113.2505       -3.5959076E-18
   113.4120       -3.5887979E-18
   113.5735       -3.5883091E-18
   113.7350       -3.5946412E-18
   113.8965       -3.6073251E-18
   114.0580       -3.6252766E-18
   114.2195       -3.6469181E-18
   114.3810       -3.6703546E-18
   114.5425       -3.6935748E-18
   114.7040       -3.7146423E-18
   114.8655       -3.7318683E-18
   115.0270       -3.7439369E-18
   115.1885       -3.7499848E-18
   115.3500       -3.7496370E-18
   115.5115       -3.7430076E-18
   115.6730       -3.7306822E-18
   115.8345       -3.7136795E-18
   115.9960       -3.6934049E-18
   116.1575       -3.6715814E-18
   116.3190       -3.6501557E-18
   116.4805       -3.6311637E-18
   116.6420       -3.6165639E-18