  -30.00000        1.3100889E-18
  -29.83850        1.2977197E-18
  -29.67700        1.2798967E-18
  -29.51550        1.2656245E-18
  -29.35400        1.2601164E-18
  -29.19250        1.2615546E-18
  -29.03100        1.2626629E-18
  -28.86950        1.2559818E-18
  -28.70800        1.2392214E-18
  -28.54650        1.2170422E-18
  -28.38500        1.1980390E-18
  -28.22350        1.1889909E-18
  -28.06200        1.1902896E-18
  -27.90050        1.1956666E-18
  -27.73900        1.1964021E-18
  -27.57750        1.1871610E-18
  -27.41600        1.1695098E-18
  -27.25450        1.1507342E-18
  -27.09300        1.1387966E-18
  -26.93150        1.1368845E-18
  -26.77000        1.1412567E-18
  -26.60850        1.1438439E-18
  -26.44700        1.1377977E-18
  -26.28550        1.1221947E-18
  -26.12400        1.1026819E-18
  -25.96250        1.0876235E-18
  -25.80100        1.0823965E-18
  -25.63950        1.0857296E-18
  -25.47800        1.0905850E-18
  -25.31650        1.0889824E-18
  -25.15500        1.0774594E-18
  -24.99350        1.0594519E-18
  -24.83200        1.0429563E-18
  -24.67050        1.0350757E-18
  -24.50900        1.0371823E-18
  -24.34750        1.0439862E-18
  -24.18600        1.0471628E-18
  -24.02450        1.0410476E-18
  -23.86300        1.0265076E-18
  -23.70150        1.0103389E-18
  -23.54000        1.0005860E-18
  -23.37850        1.0009815E-18
  -23.21700        1.0083100E-18
  -23.05550        1.0145137E-18
  -22.89400        1.0121361E-18
  -22.73250        9.9939310E-19
  -22.57100        9.8142167E-19
  -22.40950        9.6683072E-19
  -22.24800        9.6189421E-19
  -22.08650        9.6632511E-19
  -21.92500        9.7351331E-19
  -21.76350        9.7507068E-19
  -21.60200        9.6659518E-19
  -21.44050        9.5072893E-19
  -21.27900        9.3540096E-19
  -21.11750        9.2843869E-19
  -20.95600        9.3220401E-19
  -20.79450        9.4190426E-19
  -20.63300        9.4875579E-19
  -20.47150        9.4587048E-19
  -20.31000        9.3288344E-19
  -20.14850        9.1618721E-19
  -19.98700        9.0460523E-19
  -19.82550        9.0344087E-19
  -19.66400        9.1093151E-19
  -19.50250        9.1951248E-19
  -19.34100        9.2102508E-19
  -19.17950        9.1231435E-19
  -19.01800        8.9740556E-19
  -18.85650        8.8477389E-19
  -18.69500        8.8155823E-19
  -18.53350        8.8865947E-19
  -18.37200        9.0006618E-19
  -18.21050        9.0687957E-19
  -18.04900        9.0330377E-19
  -17.88750        8.9054813E-19
  -17.72600        8.7598592E-19
  -17.56450        8.6814932E-19
  -17.40300        8.7096876E-19
  -17.24150        8.8117348E-19
  -17.08000        8.9060086E-19
  -16.91850        8.9182705E-19
  -16.75700        8.8324816E-19
  -16.59550        8.7013962E-19
  -16.43400        8.6097115E-19
  -16.27250        8.6150184E-19
  -16.11100        8.7072092E-19
  -15.94950        8.8143094E-19
  -15.78800        8.8511314E-19
  -15.62650        8.7775247E-19
  -15.46500        8.6265182E-19
  -15.30350        8.4828395E-19
  -15.14200        8.4262185E-19
  -14.98050        8.4780538E-19
  -14.81900        8.5877023E-19
  -14.65750        8.6676932E-19
  -14.49600        8.6538162E-19
  -14.33450        8.5488072E-19
  -14.17300        8.4196362E-19
  -14.01150        8.3502415E-19
  -13.85000        8.3821396E-19
  -13.68850        8.4840214E-19
  -13.52700        8.5716927E-19
  -13.36550        8.5653705E-19
  -13.20400        8.4452033E-19
  -13.04250        8.2669206E-19
  -12.88100        8.1262058E-19
  -12.71950        8.0954145E-19
  -12.55800        8.1754463E-19
  -12.39650        8.2955219E-19
  -12.23500        8.3612321E-19
  -12.07350        8.3183836E-19
  -11.91200        8.1891418E-19
  -11.75050        8.0558282E-19
  -11.58900        8.0033721E-19
  -11.42750        8.0598685E-19
  -11.26600        8.1761205E-19
  -11.10450        8.2586576E-19
  -10.94300        8.2340128E-19
  -10.78150        8.1003879E-19
  -10.62000        7.9309291E-19
  -10.45850        7.8255928E-19
  -10.29700        7.8439035E-19
  -10.13550        7.9641068E-19
  -9.974000        8.0968533E-19
  -9.812500        8.1444668E-19
  -9.651000        8.0659534E-19
  -9.489500        7.9036715E-19
  -9.328000        7.7536002E-19
  -9.166500        7.6995946E-19
  -9.005000        7.7564711E-19
  -8.843500        7.8609641E-19
  -8.682000        7.9166179E-19
  -8.520500        7.8618011E-19
  -8.359000        7.7138273E-19
  -8.197500        7.5583949E-19
  -8.036000        7.4910619E-19
  -7.874500        7.5506871E-19
  -7.713000        7.6907102E-19
  -7.551500        7.8085152E-19
  -7.390000        7.8135258E-19
  -7.228500        7.6877809E-19
  -7.067000        7.4976447E-19
  -6.905500        7.3484782E-19
  -6.744000        7.3132729E-19
  -6.582500        7.3840485E-19
  -6.421000        7.4793919E-19
  -6.259500        7.5026993E-19
  -6.098000        7.4107587E-19
  -5.936500        7.2449022E-19
  -5.775000        7.1027259E-19
  -5.613500        7.0696108E-19
  -5.452000        7.1575349E-19
  -5.290500        7.2941738E-19
  -5.129000        7.3707252E-19
  -4.967500        7.3162523E-19
  -4.806000        7.1473016E-19
  -4.644500        6.9580779E-19
  -4.483000        6.8571308E-19
  -4.321500        6.8936224E-19
  -4.160000        7.0239328E-19
  -3.998500        7.1418857E-19
  -3.837000        7.1520078E-19
  -3.675500        7.0353800E-19
  -3.514000        6.8623291E-19
  -3.352500        6.7428108E-19
  -3.191000        6.7487402E-19
  -3.029500        6.8623571E-19
  -2.868000        6.9871388E-19
  -2.706500        7.0145118E-19
  -2.545000        6.9005950E-19
  -2.383500        6.6993926E-19
  -2.222000        6.5284863E-19
  -2.060500        6.4898151E-19
  -1.899000        6.5997179E-19
  -1.737500        6.7766343E-19
  -1.576000        6.8956149E-19
  -1.414500        6.8726617E-19
  -1.253000        6.7210389E-19
  -1.091500        6.5407999E-19
 -0.9300000        6.4486091E-19
 -0.7685000        6.4964661E-19
 -0.6070000        6.6356418E-19
 -0.4455000        6.7510749E-19
 -0.2840000        6.7424970E-19
 -0.1225000        6.5958426E-19
  3.9000001E-02    6.3949292E-19
  0.2005000        6.2646658E-19
  0.3620000        6.2846469E-19
  0.5235000        6.4329361E-19
  0.6850000        6.5994517E-19
  0.8465000        6.6601827E-19
   1.008000        6.5614070E-19
   1.169500        6.3558495E-19
   1.331000        6.1658348E-19
   1.492500        6.0990482E-19
   1.654000        6.1751597E-19
   1.815500        6.3139994E-19
   1.977000        6.3932526E-19
   2.138500        6.3350475E-19
   2.300000        6.1609389E-19
   2.461500        5.9769176E-19
   2.623000        5.8988121E-19
   2.784500        5.9704294E-19
   2.946000        6.1318330E-19
   3.107500        6.2601959E-19
   3.269000        6.2551253E-19
   3.430500        6.1089470E-19
   3.592000        5.9128737E-19
   3.753500        5.7943857E-19
   3.915000        5.8292659E-19
   4.076500        5.9893418E-19
   4.238000        6.1622050E-19
   4.399500        6.2290521E-19
   4.561000        6.1462596E-19
   4.722500        5.9739553E-19
   4.884000        5.8317515E-19
   5.045500        5.8130862E-19
   5.207000        5.9183268E-19
   5.368500        6.0538009E-19
   5.530000        6.0976932E-19
   5.691500        5.9867243E-19
   5.853000        5.7627900E-19
   6.014500        5.5464414E-19
   6.176000        5.4550933E-19
   6.337500        5.5226889E-19
   6.499000        5.6766283E-19
   6.660500        5.7881400E-19
   6.822000        5.7613011E-19
   6.983500        5.5989229E-19
   7.145000        5.3997870E-19
   7.306500        5.2893309E-19
   7.468000        5.3322906E-19
   7.629500        5.4880678E-19
   7.791000        5.6397650E-19
   7.952500        5.6763641E-19
   8.114000        5.5705419E-19
   8.275500        5.3977102E-19
   8.437000        5.2829560E-19
   8.598500        5.3128317E-19
   8.760000        5.4734608E-19
   8.921500        5.6581232E-19
   9.083000        5.7392665E-19
   9.244500        5.6551335E-19
   9.406000        5.4513518E-19
   9.567500        5.2489599E-19
   9.729000        5.1615305E-19
   9.890500        5.2187709E-19
   10.05200        5.3491780E-19
   10.21350        5.4328395E-19
   10.37500        5.3868602E-19
   10.53650        5.2236471E-19
   10.69800        5.0417723E-19
   10.85950        4.9563587E-19
   11.02100        5.0180100E-19
   11.18250        5.1769171E-19
   11.34400        5.3168843E-19
   11.50550        5.3354127E-19
   11.66700        5.2139014E-19
   11.82850        5.0295099E-19
   11.99000        4.9007851E-19
   12.15150        4.9053180E-19
   12.31300        5.0266520E-19
   12.47450        5.1668146E-19
   12.63600        5.2150662E-19
   12.79750        5.1246005E-19
   12.95900        4.9439127E-19
   13.12050        4.7817667E-19
   13.28200        4.7308749E-19
   13.44350        4.8039977E-19
   13.60500        4.9268242E-19
   13.76650        4.9919363E-19
   13.92800        4.9356311E-19
   14.08950        4.7835224E-19
   14.25100        4.6331896E-19
   14.41250        4.5860449E-19
   14.57400        4.6761838E-19
   14.73550        4.8456809E-19
   14.89700        4.9834799E-19
   15.05850        5.0007049E-19
   15.22000        4.8902013E-19
   15.38150        4.7293586E-19
   15.54300        4.6249607E-19
   15.70450        4.6387896E-19
   15.86600        4.7457011E-19
   16.02750        4.8529446E-19
   16.18900        4.8665548E-19
   16.35050        4.7581735E-19
   16.51200        4.5855951E-19
   16.67350        4.4529128E-19
   16.83500        4.4381254E-19
   16.99650        4.5386832E-19
   17.15800        4.6726869E-19
   17.31950        4.7349493E-19
   17.48100        4.6689600E-19
   17.64250        4.5051746E-19
   17.80400        4.3395084E-19
   17.96550        4.2672159E-19
   18.12700        4.3180164E-19
   18.28850        4.4369611E-19
   18.45000        4.5236843E-19
   18.61150        4.5022629E-19
   18.77300        4.3732481E-19
   18.93450        4.2122040E-19
   19.09600        4.1164294E-19
   19.25750        4.1372671E-19
   19.41900        4.2449606E-19
   19.58050        4.3502028E-19
   19.74200        4.3668498E-19
   19.90350        4.2721270E-19
   20.06500        4.1226439E-19
   20.22650        4.0154159E-19
   20.38800        4.0210984E-19
   20.54950        4.1355993E-19
   20.71100        4.2831919E-19
   20.87250        4.3684209E-19
   21.03400        4.3405548E-19
   21.19550        4.2262048E-19
   21.35700        4.1081731E-19
   21.51850        4.0661177E-19
   21.68000        4.1207476E-19
   21.84150        4.2202054E-19
   22.00300        4.2777043E-19
   22.16450        4.2334920E-19
   22.32600        4.0977447E-19
   22.48750        3.9443572E-19
   22.64900        3.8602092E-19
   22.81050        3.8853397E-19
   22.97200        3.9857028E-19
   23.13350        4.0773428E-19
   23.29500        4.0848223E-19
   23.45650        3.9932465E-19
   23.61800        3.8577607E-19
   23.77950        3.7642891E-19
   23.94100        3.7692759E-19
   24.10250        3.8605178E-19
   24.26400        3.9663553E-19
   24.42550        4.0063586E-19
   24.58700        3.9477779E-19
   24.74850        3.8282020E-19
   24.91000        3.7285419E-19
   25.07150        3.7154906E-19
   25.23300        3.7939303E-19
   25.39450        3.9027625E-19
   25.55600        3.9572458E-19
   25.71750        3.9081929E-19
   25.87900        3.7766862E-19
   26.04050        3.6398788E-19
   26.20200        3.5778534E-19
   26.36350        3.6185494E-19
   26.52500        3.7191462E-19
   26.68650        3.7967776E-19
   26.84800        3.7869337E-19
   27.00950        3.6885759E-19
   27.17100        3.5644738E-19
   27.33250        3.4966987E-19
   27.49400        3.5285827E-19
   27.65550        3.6339988E-19
   27.81700        3.7354476E-19
   27.97850        3.7582339E-19
   28.14000        3.6826613E-19
   28.30150        3.5576529E-19
   28.46300        3.4662848E-19
   28.62450        3.4674214E-19
   28.78600        3.5545199E-19
   28.94750        3.6602719E-19
   29.10900        3.7037552E-19
   29.27050        3.6468889E-19
   29.43200        3.5206482E-19
   29.59350        3.4028460E-19
   29.75500        3.3635281E-19
   29.91650        3.4163262E-19
   30.07800        3.5100349E-19
   30.23950        3.5658135E-19
   30.40100        3.5335261E-19
   30.56250        3.4272414E-19
   30.72400        3.3150367E-19
   30.88550        3.2704876E-19
   31.04700        3.3203606E-19
   31.20850        3.4255051E-19
   31.37000        3.5082237E-19
   31.53150        3.5066006E-19
   31.69300        3.4173295E-19
   31.85450        3.2969444E-19
   32.01600        3.2209281E-19
   32.17750        3.2299736E-19
   32.33900        3.3015710E-19
   32.50050        3.3668208E-19
   32.66200        3.3602093E-19
   32.82350        3.2667539E-19
   32.98500        3.1330947E-19
   33.14650        3.0346943E-19
   33.30800        3.0227449E-19
   33.46950        3.0885314E-19
   33.63100        3.1704990E-19
   33.79250        3.1987684E-19
   33.95400        3.1451454E-19
   34.11550        3.0430713E-19
   34.27700        2.9633223E-19
   34.43850        2.9629664E-19
   34.60000        3.0440091E-19
   34.76150        3.1512733E-19
   34.92300        3.2109600E-19
   35.08450        3.1824962E-19
   35.24600        3.0867167E-19
   35.40750        2.9905050E-19
   35.56900        2.9588302E-19
   35.73050        3.0085003E-19
   35.89200        3.0963854E-19
   36.05350        3.1504983E-19
   36.21500        3.1215480E-19
   36.37650        3.0182740E-19
   36.53800        2.9013174E-19
   36.69950        2.8401280E-19
   36.86100        2.8635240E-19
   37.02250        2.9392064E-19
   37.18400        2.9968193E-19
   37.34550        2.9781627E-19
   37.50700        2.8788809E-19
   37.66850        2.7519927E-19
   37.83000        2.6707284E-19
   37.99150        2.6770576E-19
   38.15300        2.7523117E-19
   38.31450        2.8306868E-19
   38.47600        2.8459136E-19
   38.63750        2.7779868E-19
   38.79900        2.6668181E-19
   38.96050        2.5834306E-19
   39.12200        2.5792463E-19
   39.28350        2.6495983E-19
   39.44500        2.7373430E-19
   39.60650        2.7738383E-19
   39.76800        2.7280967E-19
   39.92950        2.6290698E-19
   40.09100        2.5452363E-19
   40.25250        2.5358990E-19
   40.41400        2.6087511E-19
   40.57550        2.7137880E-19
   40.73700        2.7778558E-19
   40.89850        2.7554389E-19
   41.06000        2.6598727E-19
   41.22150        2.5531092E-19
   41.38300        2.5015668E-19
   41.54450        2.5295033E-19
   41.70600        2.6028851E-19
   41.86750        2.6549667E-19
   42.02900        2.6351053E-19
   42.19050        2.5458696E-19
   42.35200        2.4419700E-19
   42.51350        2.3917028E-19
   42.67500        2.4282983E-19
   42.83650        2.5257360E-19
   42.99800        2.6163087E-19
   43.15950        2.6376368E-19
   43.32100        2.5758836E-19
   43.48250        2.4747577E-19
   43.64400        2.4039678E-19
   43.80550        2.4096309E-19
   43.96700        2.4817432E-19
   44.12850        2.5617321E-19
   44.29000        2.5845085E-19
   44.45150        2.5251464E-19
   44.61300        2.4168602E-19
   44.77450        2.3274316E-19
   44.93600        2.3108304E-19
   45.09750        2.3684497E-19
   45.25900        2.4476796E-19
   45.42050        2.4791347E-19
   45.58200        2.4263319E-19
   45.74350        2.3126207E-19
   45.90500        2.2060315E-19
   46.06650        2.1723182E-19
   46.22800        2.2291732E-19
   46.38950        2.3337567E-19
   46.55100        2.4124368E-19
   46.71250        2.4119434E-19
   46.87400        2.3359648E-19
   47.03550        2.2414325E-19
   47.19700        2.1971701E-19
   47.35850        2.2342278E-19
   47.52000        2.3230388E-19
   47.68150        2.3938426E-19
   47.84300        2.3861263E-19
   48.00450        2.2922260E-19
   48.16600        2.1641644E-19
   48.32750        2.0784454E-19
   48.48900        2.0831436E-19
   48.65050        2.1643603E-19
   48.81200        2.2555995E-19
   48.97350        2.2838157E-19
   49.13500        2.2199964E-19
   49.29650        2.0990719E-19
   49.45800        1.9952654E-19
   49.61950        1.9702094E-19
   49.78100        2.0302047E-19
   49.94250        2.1225302E-19
   50.10400        2.1733124E-19
   50.26550        2.1402025E-19
   50.42700        2.0427768E-19
   50.58850        1.9491073E-19
   50.75000        1.9279022E-19
   50.91150        1.9995768E-19
   51.07300        2.1207581E-19
   51.23450        2.2131447E-19
   51.39600        2.2167691E-19
   51.55750        2.1306186E-19
   51.71900        2.0124551E-19
   51.88050        1.9382160E-19
   52.04200        1.9494714E-19
   52.20350        2.0256871E-19
   52.36500        2.1003261E-19
   52.52650        2.1090404E-19
   52.68800        2.0358417E-19
   52.84950        1.9245974E-19
   53.01100        1.8479078E-19
   53.17250        1.8553235E-19
   53.33400        1.9375871E-19
   53.49550        2.0320925E-19
   53.65700        2.0660048E-19
   53.81850        2.0068066E-19
   53.98000        1.8849669E-19
   54.14150        1.7728157E-19
   54.30300        1.7344888E-19
   54.46450        1.7819395E-19
   54.62600        1.8676495E-19
   54.78750        1.9189141E-19
   54.94900        1.8895052E-19
   55.11050        1.7923191E-19
   55.27200        1.6901770E-19
   55.43350        1.6513189E-19
   55.59500        1.7009168E-19
   55.75650        1.8027486E-19
   55.91800        1.8839342E-19
   56.07950        1.8856073E-19
   56.24100        1.8040593E-19
   56.40250        1.6936125E-19
   56.56400        1.6291040E-19
   56.72550        1.6540441E-19
   56.88700        1.7504083E-19
   57.04850        1.8510632E-19
   57.21000        1.8861049E-19
   57.37150        1.8309272E-19
   57.53300        1.7227868E-19
   57.69450        1.6345146E-19
   57.85600        1.6238069E-19
   58.01750        1.6933540E-19
   58.17900        1.7893368E-19
   58.34050        1.8391607E-19
   58.50200        1.8021333E-19
   58.66350        1.6979472E-19
   58.82500        1.5932816E-19
   58.98650        1.5558750E-19
   59.14800        1.6077464E-19
   59.30950        1.7097929E-19
   59.47100        1.7882333E-19
   59.63250        1.7846184E-19
   59.79400        1.6951319E-19
   59.95550        1.5724869E-19
   60.11700        1.4895330E-19
   60.27850        1.4897244E-19
   60.44000        1.5584344E-19
   60.60150        1.6342937E-19
   60.76300        1.6523045E-19
   60.92450        1.5888419E-19
   61.08600        1.4777102E-19
   61.24750        1.3866146E-19
   61.40900        1.3704793E-19
   61.57050        1.4338142E-19
   61.73200        1.5277241E-19
   61.89350        1.5833117E-19
   62.05500        1.5584295E-19
   62.21650        1.4658481E-19
   62.37800        1.3638732E-19
   62.53950        1.3162400E-19
   62.70100        1.3488567E-19
   62.86250        1.4328663E-19
   63.02400        1.5052515E-19
   63.18550        1.5125321E-19
   63.34700        1.4474717E-19
   63.50850        1.3537810E-19
   63.67000        1.2958038E-19
   63.83150        1.3141491E-19
   63.99300        1.3976539E-19
   64.15450        1.4908055E-19
   64.31600        1.5314980E-19
   64.47750        1.4932395E-19
   64.63900        1.4029279E-19
   64.80050        1.3220887E-19
   64.96200        1.3044145E-19
   65.12350        1.3586701E-19
   65.28500        1.4424001E-19
   65.44650        1.4909222E-19
   65.60800        1.4618617E-19
   65.76950        1.3648629E-19
   65.93100        1.2558597E-19
   66.09250        1.1995804E-19
   66.25400        1.2255876E-19
   66.41550        1.3079434E-19
   66.57700        1.3825110E-19
   66.73850        1.3904963E-19
   66.90000        1.3186762E-19
   67.06150        1.2086967E-19
   67.22300        1.1288396E-19
   67.38450        1.1271447E-19
   67.54600        1.1979254E-19
   67.70750        1.2848192E-19
   67.86900        1.3188223E-19
   68.03050        1.2656362E-19
   68.19200        1.1499785E-19
   68.35350        1.0397785E-19
   68.51500        1.0005132E-19
   68.67650        1.0504845E-19
   68.83800        1.1477630E-19
   68.99950        1.2181139E-19
   69.16100        1.2053778E-19
   69.32250        1.1100131E-19
   69.48400        9.8931616E-20
   69.64550        9.1875875E-20
   69.80700        9.4057764E-20
   69.96850        1.0347599E-19
   70.13000        1.1325482E-19
   70.29150        1.1635155E-19
   70.45300        1.1040274E-19
   70.61450        9.9370545E-20
   70.77600        9.0819727E-20
   70.93750        9.0670834E-20
   71.09900        9.9030580E-20
   71.26050        1.1000395E-19
   71.42200        1.1566284E-19
   71.58350        1.1147943E-19
   71.74500        9.9483817E-20
   71.90650        8.6954506E-20
   72.06800        8.1496445E-20
   72.22950        8.5889659E-20
   72.39100        9.6241734E-20
   72.55250        1.0473974E-19
   72.71400        1.0509881E-19
   72.87550        9.6945820E-20
   73.03700        8.6081074E-20
   73.19850        8.0426041E-20
   73.36000        8.4459134E-20
   73.52150        9.6010233E-20
   73.68300        1.0766795E-19
   73.84450        1.1185370E-19
   74.00600        1.0606370E-19
   74.16750        9.4625126E-20
   74.32900        8.5726381E-20
   74.49050        8.5756153E-20
   74.65200        9.4863722E-20
   74.81350        1.0683564E-19
   74.97500        1.1338555E-19
   75.13650        1.0989202E-19
   75.29800        9.8602262E-20
   75.45950        8.7063752E-20
   75.62100        8.2866495E-20
   75.78250        8.8347012E-20
   75.94400        9.8948095E-20
   76.10550        1.0640252E-19
   76.26700        1.0454652E-19
   76.42850        9.3727531E-20
   76.59000        8.0723839E-20
   76.75150        7.4187102E-20
   76.91300        7.8729202E-20
   77.07450        9.1731551E-20
   77.23600        1.0508724E-19
   77.39750        1.1068973E-19
   77.55900        1.0590161E-19
   77.72050        9.5243527E-20
   77.88200        8.7160396E-20
   78.04350        8.8111259E-20
   78.20500        9.8071832E-20
   78.36650        1.1055611E-19
   78.52800        1.1713170E-19
   78.68950        1.1330397E-19
   78.85100        1.0168770E-19
   79.01250        9.0272747E-20
   79.17400        8.6966060E-20
   79.33550        9.4158098E-20
   79.49700        1.0705805E-19
   79.65850        1.1693251E-19
   79.82000        1.1703922E-19
   79.98150        1.0719136E-19
   80.14300        9.3843640E-20
   80.30450        8.5672867E-20
   80.46600        8.7698083E-20
   80.62750        9.7957255E-20
   80.78900        1.0898655E-19
   80.95050        1.1303331E-19
   81.11200        1.0739463E-19
   81.27350        9.6216738E-20
   81.43500        8.7549100E-20
   81.59650        8.7716972E-20
   81.75800        9.6909404E-20
   81.91950        1.0901718E-19
   82.08100        1.1581489E-19
   82.24250        1.1260796E-19
   82.40400        1.0144934E-19
   82.56550        8.9724682E-20
   82.72700        8.5094861E-20
   82.88850        9.0269264E-20
   83.05000        1.0119867E-19
   83.21150        1.0990388E-19
   83.37300        1.0998288E-19
   83.53450        1.0100078E-19
   83.69600        8.8745862E-20
   83.85750        8.1196366E-20
   84.01900        8.2984459E-20
   84.18050        9.2180859E-20
   84.34200        1.0162145E-19
   84.50350        1.0386489E-19
   84.66500        9.6376338E-20
   84.82650        8.3360322E-20
   84.98800        7.2961640E-20
   85.14950        7.1741187E-20
   85.31100        8.0203885E-20
   85.47250        9.2446112E-20
   85.63400        1.0017918E-19
   85.79550        9.8368532E-20
   85.95700        8.8633029E-20
   86.11850        7.8065041E-20
   86.28000        7.4289698E-20
   86.44150        8.0155087E-20
   86.60300        9.1715305E-20
   86.76450        1.0091308E-19
   86.92600        1.0112975E-19
   87.08750        9.1795987E-20
   87.24900        7.8869022E-20
   87.41050        7.0815378E-20
   87.57200        7.2828800E-20
   87.73350        8.3246546E-20
   87.89500        9.4633663E-20
   88.05650        9.8820844E-20
   88.21800        9.2471626E-20
   88.37950        7.9363256E-20
   88.54100        6.7814257E-20
   88.70250        6.5010567E-20
   88.86400        7.2113457E-20
   89.02550        8.3496160E-20
   89.18700        9.0641359E-20
   89.34850        8.8018932E-20
   89.51000        7.6907854E-20
   89.67150        6.4531462E-20
   89.83300        5.9092678E-20
   89.99450        6.4117651E-20
   90.15600        7.5998569E-20
   90.31750        8.6423856E-20
   90.47900        8.8040199E-20
   90.64050        7.9458084E-20
   90.80200        6.6164788E-20
   90.96350        5.6741268E-20
   91.12500        5.6995329E-20
   91.28650        6.6043884E-20
   91.44800        7.7041651E-20
   91.60950        8.2018977E-20
   91.77100        7.7461367E-20
   91.93250        6.6758193E-20
   92.09400        5.7828565E-20
   92.25550        5.7570013E-20
   92.41700        6.6992569E-20
   92.57850        8.0414738E-20
   92.74000        8.9297113E-20
   92.90150        8.8063160E-20
   93.06300        7.7891553E-20
   93.22450        6.5860637E-20
   93.38600        6.0041318E-20
   93.54750        6.3955796E-20
   93.70900        7.4222335E-20
   93.87050        8.3012150E-20
   94.03200        8.3595054E-20
   94.19350        7.5088464E-20
   94.35500        6.3118501E-20
   94.51650        5.5915658E-20
   94.67800        5.8565247E-20
   94.83950        6.9414393E-20
   95.00100        8.1144473E-20
   95.16250        8.5771670E-20
   95.32400        8.0121490E-20
   95.48550        6.7979648E-20
   95.64700        5.7438950E-20
   95.80850        5.5286897E-20
   95.97000        6.2325784E-20
   96.13150        7.2874412E-20
   96.29300        7.8775583E-20
   96.45450        7.5125028E-20
   96.61600        6.3737491E-20
   96.77750        5.1935100E-20
   96.93900        4.7503461E-20
   97.10050        5.3309551E-20
   97.26200        6.5302866E-20
   97.42350        7.5283459E-20
   97.58500        7.6516404E-20
   97.74650        6.8315509E-20
   97.90800        5.6455109E-20
   98.06950        4.9143731E-20
   98.23100        5.1377419E-20
   98.39250        6.1559544E-20
   98.55400        7.2698326E-20
   98.71550        7.7301644E-20
   98.87700        7.2561162E-20
   99.03850        6.2232132E-20
   99.20000        5.3947227E-20
   99.36150        5.3852027E-20
   99.52300        6.2296659E-20
   99.68450        7.3557967E-20
   99.84600        7.9754978E-20
   100.0075        7.6240119E-20
   100.1690        6.4758697E-20
   100.3305        5.2226258E-20
   100.4920        4.6018345E-20
   100.6535        4.9029263E-20
   100.8150        5.7875113E-20
   100.9765        6.5409430E-20
   101.1380        6.5740476E-20
   101.2995        5.8266525E-20
   101.4610        4.7979170E-20
   101.6225        4.1895713E-20
   101.7840        4.4155502E-20
   101.9455        5.3182191E-20
   102.1070        6.2839541E-20
   102.2685        6.6727070E-20
   102.4300        6.2605792E-20
   102.5915        5.3909322E-20
   102.7530        4.7327068E-20
   102.9145        4.8170188E-20
   103.0760        5.6725390E-20
   103.2375        6.8073656E-20
   103.3990        7.5450129E-20
   103.5605        7.4796553E-20
   103.7220        6.7390068E-20
   103.8835        5.8798363E-20
   104.0450        5.4946054E-20
   104.2065        5.8046307E-20
   104.3680        6.5171615E-20
   104.5295        7.0397917E-20
   104.6910        6.8988860E-20
   104.8525        6.0715929E-20
   105.0140        5.0050204E-20
   105.1755        4.3129847E-20
   105.3370        4.3610716E-20
   105.4985        5.0230517E-20
   105.6600        5.7726046E-20
   105.8215        6.0425227E-20
   105.9830        5.6063988E-20
   106.1445        4.7234181E-20
   106.3060        3.9546342E-20
   106.4675        3.7798635E-20
   106.6290        4.2786644E-20
   106.7905        5.0885482E-20
   106.9520        5.6638136E-20
   107.1135        5.6533711E-20
   107.2750        5.1390964E-20
   107.4365        4.5742038E-20
   107.5980        4.4671886E-20
   107.7595        5.0273243E-20
   107.9210        6.0132353E-20
   108.0825        6.8848414E-20
   108.2440        7.1547892E-20
   108.4055        6.7027182E-20
   108.5670        5.8439186E-20
   108.7285        5.1103696E-20
   108.8900        4.8964498E-20
   109.0515        5.2072115E-20
   109.2130        5.6760378E-20
   109.3745        5.8331510E-20
   109.5360        5.4380333E-20
   109.6975        4.6494123E-20
   109.8590        3.9183268E-20
   110.0205        3.6798109E-20
   110.1820        4.0543876E-20
   110.3435        4.7620575E-20
   110.5050        5.3072887E-20
   110.6665        5.3094849E-20
   110.8280        4.7555874E-20
   110.9895        4.0057552E-20
   111.1510        3.5496256E-20
   111.3125        3.6794910E-20
   111.4740        4.3003049E-20
   111.6355        5.0029693E-20
   111.7970        5.3473020E-20
   111.9585        5.1596593E-20
   112.1200        4.6438908E-20
   112.2815        4.2307028E-20
   112.4430        4.2716508E-20
   112.6045        4.7888827E-20
   112.7660        5.4536063E-20
   112.9275        5.8077753E-20
   113.0890        5.5788350E-20
   113.2505        4.8715655E-20
   113.4120        4.1048886E-20
   113.5735        3.7354769E-20
   113.7350        3.9551948E-20
   113.8965        4.5673136E-20
   114.0580        5.1245600E-20
   114.2195        5.2334612E-20
   114.3810        4.8180237E-20
   114.5425        4.1639432E-20
   114.7040        3.7152636E-20
   114.8655        3.7651116E-20
   115.0270        4.2530822E-20
   115.1885        4.8080468E-20
   115.3500        5.0058793E-20
   115.5115        4.6650689E-20
   115.6730        3.9766808E-20
   115.8345        3.3797495E-20
   115.9960        3.2673893E-20
   116.1575        3.7232149E-20
   116.3190        4.4675747E-20
   116.4805        5.0478015E-20
   116.6420        5.1420038E-20