  -30.00000        7.4230394E-18
  -29.83850        7.4113348E-18
  -29.67700        7.3902318E-18
  -29.51550        7.3635916E-18
  -29.35400        7.3359927E-18
  -29.19250        7.3117497E-18
  -29.03100        7.2940149E-18
  -28.86950        7.2841492E-18
  -28.70800        7.2814906E-18
  -28.54650        7.2835677E-18
  -28.38500        7.2866977E-18
  -28.22350        7.2868491E-18
  -28.06200        7.2805675E-18
  -27.90050        7.2657924E-18
  -27.73900        7.2423617E-18
  -27.57750        7.2121001E-18
  -27.41600        7.1784504E-18
  -27.25450        7.1457221E-18
  -27.09300        7.1181390E-18
  -26.93150        7.0988855E-18
  -26.77000        7.0894019E-18
  -26.60850        7.0890710E-18
  -26.44700        7.0953708E-18
  -26.28550        7.1044376E-18
  -26.12400        7.1119062E-18
  -25.96250        7.1138434E-18
  -25.80100        7.1075717E-18
  -25.63950        7.0922218E-18
  -25.47800        7.0689201E-18
  -25.31650        7.0405453E-18
  -25.15500        7.0111043E-18
  -24.99350        6.9848463E-18
  -24.83200        6.9653025E-18
  -24.67050        6.9544664E-18
  -24.50900        6.9523364E-18
  -24.34750        6.9569223E-18
  -24.18600        6.9647243E-18
  -24.02450        6.9715626E-18
  -23.86300        6.9735321E-18
  -23.70150        6.9678733E-18
  -23.54000        6.9535524E-18
  -23.37850        6.9314538E-18
  -23.21700        6.9041689E-18
  -23.05550        6.8754405E-18
  -22.89400        6.8493661E-18
  -22.73250        6.8295162E-18
  -22.57100        6.8181408E-18
  -22.40950        6.8156303E-18
  -22.24800        6.8203837E-18
  -22.08650        6.8291423E-18
  -21.92500        6.8377260E-18
  -21.76350        6.8420071E-18
  -21.60200        6.8388770E-18
  -21.44050        6.8269511E-18
  -21.27900        6.8068622E-18
  -21.11750        6.7810716E-18
  -20.95600        6.7532957E-18
  -20.79450        6.7276816E-18
  -20.63300        6.7079294E-18
  -20.47150        6.6965143E-18
  -20.31000        6.6941671E-18
  -20.14850        6.6996964E-18
  -19.98700        6.7102157E-18
  -19.82550        6.7217470E-18
  -19.66400        6.7301086E-18
  -19.50250        6.7318758E-18
  -19.34100        6.7251947E-18
  -19.17950        6.7102194E-18
  -19.01800        6.6890568E-18
  -18.85650        6.6652415E-18
  -18.69500        6.6428848E-18
  -18.53350        6.6257254E-18
  -18.37200        6.6163009E-18
  -18.21050        6.6154121E-18
  -18.04900        6.6219588E-18
  -17.88750        6.6331684E-18
  -17.72600        6.6451583E-18
  -17.56450        6.6537503E-18
  -17.40300        6.6553831E-18
  -17.24150        6.6479468E-18
  -17.08000        6.6313246E-18
  -16.91850        6.6074861E-18
  -16.75700        6.5800696E-18
  -16.59550        6.5535435E-18
  -16.43400        6.5321539E-18
  -16.27250        6.5189513E-18
  -16.11100        6.5151268E-18
  -15.94950        6.5198115E-18
  -15.78800        6.5303370E-18
  -15.62650        6.5428580E-18
  -15.46500        6.5531841E-18
  -15.30350        6.5576559E-18
  -15.14200        6.5539116E-18
  -14.98050        6.5414258E-18
  -14.81900        6.5216777E-18
  -14.65750        6.4978966E-18
  -14.49600        6.4743650E-18
  -14.33450        6.4554238E-18
  -14.17300        6.4444016E-18
  -14.01150        6.4427762E-18
  -13.85000        6.4497915E-18
  -13.68850        6.4626517E-18
  -13.52700        6.4772192E-18
  -13.36550        6.4889986E-18
  -13.20400        6.4941503E-18
  -13.04250        6.4902981E-18
  -12.88100        6.4769925E-18
  -12.71950        6.4557836E-18
  -12.55800        6.4299119E-18
  -12.39650        6.4036783E-18
  -12.23500        6.3815694E-18
  -12.07350        6.3672856E-18
  -11.91200        6.3628706E-18
  -11.75050        6.3681724E-18
  -11.58900        6.3808278E-18
  -11.42750        6.3968061E-18
  -11.26600        6.4114000E-18
  -11.10450        6.4203819E-18
  -10.94300        6.4209982E-18
  -10.78150        6.4125523E-18
  -10.62000        6.3964611E-18
  -10.45850        6.3758379E-18
  -10.29700        6.3547534E-18
  -10.13550        6.3373603E-18
  -9.974000        6.3270255E-18
  -9.812500        6.3256185E-18
  -9.651000        6.3330552E-18
  -9.489500        6.3472273E-18
  -9.328000        6.3643884E-18
  -9.166500        6.3799771E-18
  -9.005000        6.3897171E-18
  -8.843500        6.3907039E-18
  -8.682000        6.3821575E-18
  -8.520500        6.3656019E-18
  -8.359000        6.3444352E-18
  -8.197500        6.3230389E-18
  -8.036000        6.3057235E-18
  -7.874500        6.2957825E-18
  -7.713000        6.2948598E-18
  -7.551500        6.3026928E-18
  -7.390000        6.3172073E-18
  -7.228500        6.3349209E-18
  -7.067000        6.3516209E-18
  -6.905500        6.3632329E-18
  -6.744000        6.3667629E-18
  -6.582500        6.3610809E-18
  -6.421000        6.3472952E-18
  -6.259500        6.3285409E-18
  -6.098000        6.3091824E-18
  -5.936500        6.2936500E-18
  -5.775000        6.2852818E-18
  -5.613500        6.2855213E-18
  -5.452000        6.2936786E-18
  -5.290500        6.3072451E-18
  -5.129000        6.3225877E-18
  -4.967500        6.3357833E-18
  -4.806000        6.3434107E-18
  -4.644500        6.3432089E-18
  -4.483000        6.3345421E-18
  -4.321500        6.3186197E-18
  -4.160000        6.2983728E-18
  -3.998500        6.2779075E-18
  -3.837000        6.2615798E-18
  -3.675500        6.2528861E-18
  -3.514000        6.2534949E-18
  -3.352500        6.2627639E-18
  -3.191000        6.2779150E-18
  -3.029500        6.2948072E-18
  -2.868000        6.3090438E-18
  -2.706500        6.3170361E-18
  -2.545000        6.3167528E-18
  -2.383500        6.3080285E-18
  -2.222000        6.2924688E-18
  -2.060500        6.2730607E-18
  -1.899000        6.2535793E-18
  -1.737500        6.2378554E-18
  -1.576000        6.2289587E-18
  -1.414500        6.2284297E-18
  -1.253000        6.2357850E-18
  -1.091500        6.2484959E-18
 -0.9300000        6.2625526E-18
 -0.7685000        6.2734999E-18
 -0.6070000        6.2776379E-18
 -0.4455000        6.2729903E-18
 -0.2840000        6.2597542E-18
 -0.1225000        6.2401331E-18
  3.9000001E-02    6.2176908E-18
  0.2005000        6.1964828E-18
  0.3620000        6.1801993E-18
  0.5235000        6.1714771E-18
  0.6850000        6.1714200E-18
  0.8465000        6.1793560E-18
   1.008000        6.1928841E-18
   1.169500        6.2082788E-18
   1.331000        6.2212754E-18
   1.492500        6.2281046E-18
   1.654000        6.2265065E-18
   1.815500        6.2163781E-18
   1.977000        6.1998097E-18
   2.138500        6.1804690E-18
   2.300000        6.1625609E-18
   2.461500        6.1497144E-18
   2.623000        6.1441475E-18
   2.784500        6.1462882E-18
   2.946000        6.1548462E-18
   3.107500        6.1672035E-18
   3.269000        6.1799698E-18
   3.430500        6.1896254E-18
   3.592000        6.1931951E-18
   3.753500        6.1889120E-18
   3.915000        6.1767251E-18
   4.076500        6.1584701E-18
   4.238000        6.1375499E-18
   4.399500        6.1181268E-18
   4.561000        6.1040354E-18
   4.722500        6.0977513E-18
   4.884000        6.0997746E-18
   5.045500        6.1086010E-18
   5.207000        6.1212507E-18
   5.368500        6.1341158E-18
   5.530000        6.1438381E-18
   5.691500        6.1479914E-18
   5.853000        6.1454792E-18
   6.014500        6.1366520E-18
   6.176000        6.1231983E-18
   6.337500        6.1078160E-18
   6.499000        6.0936779E-18
   6.660500        6.0837211E-18
   6.822000        6.0798970E-18
   6.983500        6.0825916E-18
   7.145000        6.0904361E-18
   7.306500        6.1006253E-18
   7.468000        6.1096673E-18
   7.629500        6.1143408E-18
   7.791000        6.1125355E-18
   7.952500        6.1037360E-18
   8.114000        6.0890448E-18
   8.275500        6.0708125E-18
   8.437000        6.0520421E-18
   8.598500        6.0357322E-18
   8.760000        6.0242931E-18
   8.921500        6.0190939E-18
   9.083000        6.0201862E-18
   9.244500        6.0262659E-18
   9.406000        6.0349087E-18
   9.567500        6.0431011E-18
   9.729000        6.0479674E-18
   9.890500        6.0475146E-18
   10.05200        6.0411548E-18
   10.21350        6.0298406E-18
   10.37500        6.0157546E-18
   10.53650        6.0016673E-18
   10.69800        5.9901918E-18
   10.85950        5.9831454E-18
   11.02100        5.9811925E-18
   11.18250        5.9837915E-18
   11.34400        5.9893981E-18
   11.50550        5.9958303E-18
   11.66700        6.0007185E-18
   11.82850        6.0019779E-18
   11.99000        5.9982576E-18
   12.15150        5.9892897E-18
   12.31300        5.9760263E-18
   12.47450        5.9604919E-18
   12.63600        5.9453280E-18
   12.79750        5.9331312E-18
   12.95900        5.9257747E-18
   13.12050        5.9239267E-18
   13.28200        5.9269269E-18
   13.44350        5.9330332E-18
   13.60500        5.9399356E-18
   13.76650        5.9453503E-18
   13.92800        5.9475159E-18
   14.08950        5.9454938E-18
   14.25100        5.9392623E-18
   14.41250        5.9296479E-18
   14.57400        5.9181452E-18
   14.73550        5.9066395E-18
   14.89700        5.8970488E-18
   15.05850        5.8909036E-18
   15.22000        5.8889465E-18
   15.38150        5.8908871E-18
   15.54300        5.8954176E-18
   15.70450        5.9005349E-18
   15.86600        5.9040922E-18
   16.02750        5.9043892E-18
   16.18900        5.9006118E-18
   16.35050        5.8929778E-18
   16.51200        5.8825801E-18
   16.67350        5.8710323E-18
   16.83500        5.8600605E-18
   16.99650        5.8511663E-18
   17.15800        5.8453946E-18
   17.31950        5.8431993E-18
   17.48100        5.8443702E-18
   17.64250        5.8480375E-18
   17.80400        5.8527905E-18
   17.96550        5.8569537E-18
   18.12700        5.8589869E-18
   18.28850        5.8579028E-18
   18.45000        5.8535453E-18
   18.61150        5.8466077E-18
   18.77300        5.8383768E-18
   18.93450        5.8303081E-18
   19.09600        5.8236050E-18
   19.25750        5.8189559E-18
   19.41900        5.8164760E-18
   19.58050        5.8158068E-18
   19.74200        5.8162688E-18
   19.90350        5.8169988E-18
   20.06500        5.8170600E-18
   20.22650        5.8155723E-18
   20.38800        5.8119046E-18
   20.54950        5.8058802E-18
   20.71100        5.7979165E-18
   20.87250        5.7889755E-18
   21.03400        5.7803112E-18
   21.19550        5.7730837E-18
   21.35700        5.7680078E-18
   21.51850        5.7651895E-18
   21.68000        5.7641961E-18
   21.84150        5.7643007E-18
   22.00300        5.7647462E-18
   22.16450        5.7649100E-18
   22.32600        5.7643371E-18
   22.48750        5.7627072E-18
   22.64900        5.7598294E-18
   22.81050        5.7557179E-18
   22.97200        5.7506882E-18
   23.13350        5.7453711E-18
   23.29500        5.7405755E-18
   23.45650        5.7370129E-18
   23.61800        5.7350082E-18
   23.77950        5.7343618E-18
   23.94100        5.7344300E-18
   24.10250        5.7343949E-18
   24.26400        5.7335644E-18
   24.42550        5.7315630E-18
   24.58700        5.7283382E-18
   24.74850        5.7240233E-18
   24.91000        5.7188042E-18
   25.07150        5.7128704E-18
   25.23300        5.7064746E-18
   25.39450        5.7000110E-18
   25.55600        5.6940057E-18
   25.71750        5.6889839E-18
   25.87900        5.6852595E-18
   26.04050        5.6827895E-18
   26.20200        5.6811720E-18
   26.36350        5.6798208E-18
   26.52500        5.6782057E-18
   26.68650        5.6760360E-18
   26.84800        5.6732914E-18
   27.00950        5.6701283E-18
   27.17100        5.6667364E-18
   27.33250        5.6632701E-18
   27.49400        5.6598742E-18
   27.65550        5.6567578E-18
   27.81700        5.6542295E-18
   27.97850        5.6526231E-18
   28.14000        5.6521450E-18
   28.30150        5.6527281E-18
   28.46300        5.6539925E-18
   28.62450        5.6553507E-18
   28.78600        5.6561990E-18
   28.94750        5.6560960E-18
   29.10900        5.6548465E-18
   29.27050        5.6524717E-18
   29.43200        5.6491241E-18
   29.59350        5.6450292E-18
   29.75500        5.6404780E-18
   29.91650        5.6358524E-18
   30.07800        5.6316082E-18
   30.23950        5.6281770E-18
   30.40100        5.6258075E-18
   30.56250        5.6244154E-18
   30.72400        5.6235477E-18
   30.88550        5.6224848E-18
   31.04700        5.6204607E-18
   31.20850        5.6168893E-18
   31.37000        5.6115213E-18
   31.53150        5.6044779E-18
   31.69300        5.5961895E-18
   31.85450        5.5872899E-18
   32.01600        5.5785073E-18
   32.17750        5.5705709E-18
   32.33900        5.5641032E-18
   32.50050        5.5594954E-18
   32.66200        5.5567859E-18
   32.82350        5.5555985E-18
   32.98500        5.5551878E-18
   33.14650        5.5546154E-18
   33.30800        5.5529991E-18
   33.46950        5.5497628E-18
   33.63100        5.5447864E-18
   33.79250        5.5384287E-18
   33.95400        5.5314192E-18
   34.11550        5.5246727E-18
   34.27700        5.5190839E-18
   34.43850        5.5153367E-18
   34.60000        5.5137630E-18
   34.76150        5.5142622E-18
   34.92300        5.5163062E-18
   35.08450        5.5190396E-18
   35.24600        5.5214670E-18
   35.40750        5.5226854E-18
   35.56900        5.5221014E-18
   35.73050        5.5195616E-18
   35.89200        5.5153674E-18
   36.05350        5.5101768E-18
   36.21500        5.5048382E-18
   36.37650        5.5001989E-18
   36.53800        5.4969328E-18
   36.69950        5.4954017E-18
   36.86100        5.4955775E-18
   37.02250        5.4970296E-18
   37.18400        5.4990045E-18
   37.34550        5.5005985E-18
   37.50700        5.5009810E-18
   37.66850        5.4996182E-18
   37.83000        5.4964100E-18
   37.99150        5.4916943E-18
   38.15300        5.4861294E-18
   38.31450        5.4805000E-18
   38.47600        5.4755204E-18
   38.63750        5.4716889E-18
   38.79900        5.4692065E-18
   38.96050        5.4679513E-18
   39.12200        5.4674881E-18
   39.28350        5.4671282E-18
   39.44500        5.4660480E-18
   39.60650        5.4634742E-18
   39.76800        5.4589069E-18
   39.92950        5.4523015E-18
   40.09100        5.4441264E-18
   40.25250        5.4352640E-18
   40.41400        5.4267705E-18
   40.57550        5.4195902E-18
   40.73700        5.4143334E-18
   40.89850        5.4111732E-18
   41.06000        5.4098725E-18
   41.22150        5.4098915E-18
   41.38300        5.4105077E-18
   41.54450        5.4109383E-18
   41.70600        5.4104565E-18
   41.86750        5.4085341E-18
   42.02900        5.4049863E-18
   42.19050        5.4000770E-18
   42.35200        5.3945039E-18
   42.51350        5.3892285E-18
   42.67500        5.3851906E-18
   42.83650        5.3830007E-18
   42.99800        5.3827442E-18
   43.15950        5.3839652E-18
   43.32100        5.3858305E-18
   43.48250        5.3873789E-18
   43.64400        5.3877648E-18
   43.80550        5.3864111E-18
   43.96700        5.3830747E-18
   44.12850        5.3778544E-18
   44.29000        5.3711815E-18
   44.45150        5.3637877E-18
   44.61300        5.3566161E-18
   44.77450        5.3506509E-18
   44.93600        5.3466713E-18
   45.09750        5.3450149E-18
   45.25900        5.3454450E-18
   45.42050        5.3471982E-18
   45.58200        5.3492008E-18
   45.74350        5.3503804E-18
   45.90500        5.3499465E-18
   46.06650        5.3475547E-18
   46.22800        5.3433237E-18
   46.38950        5.3377369E-18
   46.55100        5.3315062E-18
   46.71250        5.3254239E-18
   46.87400        5.3202309E-18
   47.03550        5.3164825E-18
   47.19700        5.3144171E-18
   47.35850        5.3138604E-18
   47.52000        5.3142140E-18
   47.68150        5.3145742E-18
   47.84300        5.3139621E-18
   48.00450        5.3116063E-18
   48.16600        5.3071701E-18
   48.32750        5.3008467E-18
   48.48900        5.2932958E-18
   48.65050        5.2854537E-18
   48.81200        5.2783007E-18
   48.97350        5.2726548E-18
   49.13500        5.2690392E-18
   49.29650        5.2676218E-18
   49.45800        5.2682153E-18
   49.61950        5.2703147E-18
   49.78100        5.2731805E-18
   49.94250        5.2759652E-18
   50.10400        5.2778793E-18
   50.26550        5.2783702E-18
   50.42700        5.2772543E-18
   50.58850        5.2747620E-18
   50.75000        5.2714566E-18
   50.91150        5.2680614E-18
   51.07300        5.2652395E-18
   51.23450        5.2634036E-18
   51.39600        5.2626198E-18
   51.55750        5.2626153E-18
   51.71900        5.2628845E-18
   51.88050        5.2628328E-18
   52.04200        5.2619167E-18
   52.20350        5.2597475E-18
   52.36500        5.2561467E-18
   52.52650        5.2511779E-18
   52.68800        5.2451411E-18
   52.84950        5.2385505E-18
   53.01100        5.2320601E-18
   53.17250        5.2263356E-18
   53.33400        5.2218791E-18
   53.49550        5.2188678E-18
   53.65700        5.2170649E-18
   53.81850        5.2158663E-18
   53.98000        5.2144870E-18
   54.14150        5.2122259E-18
   54.30300        5.2087017E-18
   54.46450        5.2039661E-18
   54.62600        5.1984521E-18
   54.78750        5.1927971E-18
   54.94900        5.1876243E-18
   55.11050        5.1833850E-18
   55.27200        5.1803021E-18
   55.43350        5.1783947E-18
   55.59500        5.1775187E-18
   55.75650        5.1773859E-18
   55.91800        5.1775559E-18
   56.07950        5.1774525E-18
   56.24100        5.1764512E-18
   56.40250        5.1740486E-18
   56.56400        5.1700434E-18
   56.72550        5.1646428E-18
   56.88700        5.1584224E-18
   57.04850        5.1521408E-18
   57.21000        5.1464994E-18
   57.37150        5.1419586E-18
   57.53300        5.1386743E-18
   57.69450        5.1365629E-18
   57.85600        5.1354044E-18
   58.01750        5.1349102E-18
   58.17900        5.1347208E-18
   58.34050        5.1343837E-18
   58.50200        5.1333911E-18
   58.66350        5.1313099E-18
   58.82500        5.1279821E-18
   58.98650        5.1236742E-18
   59.14800        5.1190734E-18
   59.30950        5.1150893E-18
   59.47100        5.1125399E-18
   59.63250        5.1118587E-18
   59.79400        5.1129622E-18
   59.95550        5.1153168E-18
   60.11700        5.1181436E-18
   60.27850        5.1206488E-18
   60.44000        5.1221737E-18
   60.60150        5.1222626E-18
   60.76300        5.1206810E-18
   60.92450        5.1174488E-18
   61.08600        5.1128931E-18
   61.24750        5.1076579E-18
   61.40900        5.1026022E-18
   61.57050        5.0985568E-18
   61.73200        5.0960190E-18
   61.89350        5.0949280E-18
   62.05500        5.0946496E-18
   62.21650        5.0942075E-18
   62.37800        5.0926528E-18
   62.53950        5.0894119E-18
   62.70100        5.0844505E-18
   62.86250        5.0782156E-18
   63.02400        5.0714154E-18
   63.18550        5.0647818E-18
   63.34700        5.0589175E-18
   63.50850        5.0542419E-18
   63.67000        5.0509948E-18
   63.83150        5.0492143E-18
   63.99300        5.0486799E-18
   64.15450        5.0488697E-18
   64.31600        5.0490157E-18
   64.47750        5.0482920E-18
   64.63900        5.0460900E-18
   64.80050        5.0422527E-18
   64.96200        5.0371494E-18
   65.12350        5.0315354E-18
   65.28500        5.0262654E-18
   65.44650        5.0219942E-18
   65.60800        5.0189982E-18
   65.76950        5.0171693E-18
   65.93100        5.0161473E-18
   66.09250        5.0154852E-18
   66.25400        5.0147589E-18
   66.41550        5.0136054E-18
   66.57700        5.0117190E-18
   66.73850        5.0088731E-18
   66.90000        5.0049870E-18
   67.06150        5.0002146E-18
   67.22300        4.9949769E-18
   67.38450        4.9898951E-18
   67.54600        4.9856210E-18
   67.70750        4.9826242E-18
   67.86900        4.9810356E-18
   68.03050        4.9806025E-18
   68.19200        4.9807775E-18
   68.35350        4.9808829E-18
   68.51500        4.9802882E-18
   68.67650        4.9785346E-18
   68.83800        4.9753963E-18
   68.99950        4.9708923E-18
   69.16100        4.9652707E-18
   69.32250        4.9589862E-18
   69.48400        4.9526484E-18
   69.64550        4.9469321E-18
   69.80700        4.9424389E-18
   69.96850        4.9395351E-18
   70.13000        4.9382348E-18
   70.29150        4.9381603E-18
   70.45300        4.9386392E-18
   70.61450        4.9388932E-18
   70.77600        4.9382753E-18
   70.93750        4.9364555E-18
   71.09900        4.9335016E-18
   71.26050        4.9298269E-18
   71.42200        4.9260343E-18
   71.58350        4.9227350E-18
   71.74500        4.9203970E-18
   71.90650        4.9192630E-18
   72.06800        4.9193366E-18
   72.22950        4.9204069E-18
   72.39100        4.9220853E-18
   72.55250        4.9238534E-18
   72.71400        4.9251330E-18
   72.87550        4.9254006E-18
   73.03700        4.9243265E-18
   73.19850        4.9219017E-18
   73.36000        4.9184788E-18
   73.52150        4.9146911E-18
   73.68300        4.9112575E-18
   73.84450        4.9087495E-18
   74.00600        4.9074078E-18
   74.16750        4.9070910E-18
   74.32900        4.9073602E-18
   74.49050        4.9076481E-18
   74.65200        4.9074281E-18
   74.81350        4.9063217E-18
   74.97500        4.9041301E-18
   75.13650        4.9008268E-18
   75.29800        4.8965498E-18
   75.45950        4.8916049E-18
   75.62100        4.8864611E-18
   75.78250        4.8816858E-18
   75.94400        4.8778175E-18
   76.10550        4.8751978E-18
   76.26700        4.8738516E-18
   76.42850        4.8734723E-18
   76.59000        4.8735348E-18
   76.75150        4.8734884E-18
   76.91300        4.8729371E-18
   77.07450        4.8717290E-18
   77.23600        4.8699440E-18
   77.39750        4.8678032E-18
   77.55900        4.8655810E-18
   77.72050        4.8635470E-18
   77.88200        4.8619447E-18
   78.04350        4.8609600E-18
   78.20500        4.8606572E-18
   78.36650        4.8608896E-18
   78.52800        4.8612453E-18
   78.68950        4.8610836E-18
   78.85100        4.8596948E-18
   79.01250        4.8565197E-18
   79.17400        4.8513481E-18
   79.33550        4.8444019E-18
   79.49700        4.8362645E-18
   79.65850        4.8277036E-18
   79.82000        4.8194744E-18
   79.98150        4.8121658E-18
   80.14300        4.8061353E-18
   80.30450        4.8015051E-18
   80.46600        4.7981716E-18
   80.62750        4.7958203E-18
   80.78900        4.7939550E-18
   80.95050        4.7919781E-18
   81.11200        4.7893360E-18
   81.27350        4.7856960E-18
   81.43500        4.7810800E-18
   81.59650        4.7758791E-18
   81.75800        4.7707299E-18
   81.91950        4.7662900E-18
   82.08100        4.7630181E-18
   82.24250        4.7610374E-18
   82.40400        4.7601440E-18
   82.56550        4.7599161E-18
   82.72700        4.7598731E-18
   82.88850        4.7595993E-18
   83.05000        4.7588089E-18
   83.21150        4.7573601E-18
   83.37300        4.7552529E-18
   83.53450        4.7526320E-18
   83.69600        4.7497910E-18
   83.85750        4.7471453E-18
   84.01900        4.7451563E-18
   84.18050        4.7442096E-18
   84.34200        4.7444921E-18
   84.50350        4.7459202E-18
   84.66500        4.7481598E-18
   84.82650        4.7507257E-18
   84.98800        4.7531324E-18
   85.14950        4.7550279E-18
   85.31100        4.7562625E-18
   85.47250        4.7568878E-18
   85.63400        4.7570925E-18
   85.79550        4.7571215E-18
   85.95700        4.7571984E-18
   86.11850        4.7574772E-18
   86.28000        4.7580144E-18
   86.44150        4.7587564E-18
   86.60300        4.7595352E-18
   86.76450        4.7600795E-18
   86.92600        4.7600522E-18
   87.08750        4.7591191E-18
   87.24900        4.7570355E-18
   87.41050        4.7537305E-18
   87.57200        4.7493563E-18
   87.73350        4.7442712E-18
   87.89500        4.7389645E-18
   88.05650        4.7339418E-18
   88.21800        4.7296070E-18
   88.37950        4.7261791E-18
   88.54100        4.7236670E-18
   88.70250        4.7218886E-18
   88.86400        4.7205254E-18
   89.02550        4.7191853E-18
   89.18700        4.7174731E-18
   89.34850        4.7150598E-18
   89.51000        4.7117560E-18
   89.67150        4.7075717E-18
   89.83300        4.7027393E-18
   89.99450        4.6976617E-18
   90.15600        4.6927925E-18
   90.31750        4.6884820E-18
   90.47900        4.6848429E-18
   90.64050        4.6817091E-18
   90.80200        4.6787064E-18
   90.96350        4.6754047E-18
   91.12500        4.6714785E-18
   91.28650        4.6668136E-18
   91.44800        4.6615102E-18
   91.60950        4.6558072E-18
   91.77100        4.6499921E-18
   91.93250        4.6443367E-18
   92.09400        4.6390824E-18
   92.25550        4.6344465E-18
   92.41700        4.6306042E-18
   92.57850        4.6276371E-18
   92.74000        4.6254645E-18
   92.90150        4.6238222E-18
   93.06300        4.6223212E-18
   93.22450        4.6205854E-18
   93.38600        4.6184029E-18
   93.54750        4.6158093E-18
   93.70900        4.6130597E-18
   93.87050        4.6105029E-18
   94.03200        4.6084300E-18
   94.19350        4.6069820E-18
   94.35500        4.6061511E-18
   94.51650        4.6058484E-18
   94.67800        4.6059724E-18
   94.83950        4.6064261E-18
   95.00100        4.6070747E-18
   95.16250        4.6077008E-18
   95.32400        4.6080102E-18
   95.48550        4.6077215E-18
   95.64700        4.6066846E-18
   95.80850        4.6049682E-18
   95.97000        4.6028465E-18
   96.13150        4.6006859E-18
   96.29300        4.5987979E-18
   96.45450        4.5973412E-18
   96.61600        4.5963151E-18
   96.77750        4.5956401E-18
   96.93900        4.5952385E-18
   97.10050        4.5950673E-18
   97.26200        4.5950797E-18
   97.42350        4.5951620E-18
   97.58500        4.5951161E-18
   97.74650        4.5947232E-18
   97.90800        4.5938555E-18
   98.06950        4.5925713E-18
   98.23100        4.5911113E-18
   98.39250        4.5897986E-18
   98.55400        4.5888878E-18
   98.71550        4.5884544E-18
   98.87700        4.5883824E-18
   99.03850        4.5884379E-18
   99.20000        4.5883626E-18
   99.36150        4.5879329E-18
   99.52300        4.5869436E-18
   99.68450        4.5851746E-18
   99.84600        4.5823912E-18
   100.0075        4.5784215E-18
   100.1690        4.5732761E-18
   100.3305        4.5672327E-18
   100.4920        4.5608113E-18
   100.6535        4.5546273E-18
   100.8150        4.5491902E-18
   100.9765        4.5447462E-18
   101.1380        4.5412443E-18
   101.2995        4.5384269E-18
   101.4610        4.5359814E-18
   101.6225        4.5336603E-18
   101.7840        4.5313206E-18
   101.9455        4.5288991E-18
   102.1070        4.5263757E-18
   102.2685        4.5237755E-18
   102.4300        4.5212054E-18
   102.5915        4.5188844E-18
   102.7530        4.5171051E-18
   102.9145        4.5161307E-18
   103.0760        4.5160550E-18
   103.2375        4.5167287E-18
   103.3990        4.5177797E-18
   103.5605        4.5187442E-18
   103.7220        4.5192281E-18
   103.8835        4.5190308E-18
   104.0450        4.5181713E-18
   104.2065        4.5168425E-18
   104.3680        4.5153254E-18
   104.5295        4.5139167E-18
   104.6910        4.5128728E-18
   104.8525        4.5123612E-18
   105.0140        4.5123939E-18
   105.1755        4.5127661E-18
   105.3370        4.5130403E-18
   105.4985        4.5126251E-18
   105.6600        4.5109335E-18
   105.8215        4.5075834E-18
   105.9830        4.5025302E-18
   106.1445        4.4960819E-18
   106.3060        4.4887858E-18
   106.4675        4.4812568E-18
   106.6290        4.4740334E-18
   106.7905        4.4675069E-18
   106.9520        4.4619210E-18
   107.1135        4.4573802E-18
   107.2750        4.4538320E-18
   107.4365        4.4510254E-18
   107.5980        4.4485095E-18
   107.7595        4.4457231E-18
   107.9210        4.4421816E-18
   108.0825        4.4376904E-18
   108.2440        4.4324763E-18
   108.4055        4.4271492E-18
   108.5670        4.4225063E-18
   108.7285        4.4192670E-18
   108.8900        4.4178505E-18
   109.0515        4.4182938E-18
   109.2130        4.4202944E-18
   109.3745        4.4233239E-18
   109.5360        4.4267307E-18
   109.6975        4.4298074E-18
   109.8590        4.4318637E-18
   110.0205        4.4323282E-18
   110.1820        4.4309046E-18
   110.3435        4.4277187E-18
   110.5050        4.4233558E-18
   110.6665        4.4187331E-18
   110.8280        4.4148284E-18
   110.9895        4.4123766E-18
   111.1510        4.4116648E-18
   111.3125        4.4125098E-18
   111.4740        4.4144015E-18
   111.6355        4.4167131E-18
   111.7970        4.4188700E-18
   111.9585        4.4204317E-18
   112.1200        4.4210930E-18
   112.2815        4.4206848E-18
   112.4430        4.4192075E-18
   112.6045        4.4168831E-18
   112.7660        4.4141550E-18
   112.9275        4.4115999E-18
   113.0890        4.4097441E-18
   113.2505        4.4088772E-18
   113.4120        4.4089517E-18
   113.5735        4.4096316E-18
   113.7350        4.4104414E-18
   113.8965        4.4109348E-18
   114.0580        4.4107868E-18
   114.2195        4.4097871E-18
   114.3810        4.4077841E-18
   114.5425        4.4046627E-18
   114.7040        4.4004048E-18
   114.8655        4.3951936E-18
   115.0270        4.3894794E-18
   115.1885        4.3839187E-18
   115.3500        4.3791864E-18
   115.5115        4.3757371E-18
   115.6730        4.3736426E-18
   115.8345        4.3725838E-18
   115.9960        4.3719953E-18
   116.1575        4.3712777E-18
   116.3190        4.3699662E-18
   116.4805        4.3678003E-18
   116.6420        4.3647161E-18