  -30.00000        9.2178915E-18
  -29.83850        9.2168922E-18
  -29.67700        9.2154463E-18
  -29.51550        9.2142395E-18
  -29.35400        9.2136108E-18
  -29.19250        9.2133420E-18
  -29.03100        9.2128763E-18
  -28.86950        9.2117885E-18
  -28.70800        9.2101441E-18
  -28.54650        9.2084699E-18
  -28.38500        9.2073598E-18
  -28.22350        9.2070174E-18
  -28.06200        9.2070893E-18
  -27.90050        9.2069131E-18
  -27.73900        9.2060049E-18
  -27.57750        9.2044076E-18
  -27.41600        9.2026565E-18
  -27.25450        9.2013776E-18
  -27.09300        9.2008325E-18
  -26.93150        9.2007531E-18
  -26.77000        9.2005744E-18
  -26.60850        9.1998796E-18
  -26.44700        9.1987174E-18
  -26.28550        9.1975445E-18
  -26.12400        9.1968488E-18
  -25.96250        9.1967496E-18
  -25.80100        9.1968827E-18
  -25.63950        9.1966735E-18
  -25.47800        9.1957694E-18
  -25.31650        9.1943218E-18
  -25.15500        9.1928841E-18
  -24.99350        9.1920173E-18
  -24.83200        9.1918882E-18
  -24.67050        9.1921736E-18
  -24.50900        9.1923175E-18
  -24.34750        9.1919511E-18
  -24.18600        9.1911396E-18
  -24.02450        9.1902868E-18
  -23.86300        9.1897723E-18
  -23.70150        9.1896342E-18
  -23.54000        9.1895274E-18
  -23.37850        9.1890105E-18
  -23.21700        9.1879227E-18
  -23.05550        9.1865529E-18
  -22.89400        9.1854668E-18
  -22.73250        9.1851103E-18
  -22.57100        9.1854925E-18
  -22.40950        9.1861832E-18
  -22.24800        9.1866290E-18
  -22.08650        9.1865289E-18
  -21.92500        9.1860086E-18
  -21.76350        9.1854470E-18
  -21.60200        9.1851293E-18
  -21.44050        9.1849920E-18
  -21.27900        9.1846843E-18
  -21.11750        9.1838828E-18
  -20.95600        9.1826147E-18
  -20.79450        9.1813169E-18
  -20.63300        9.1805699E-18
  -20.47150        9.1806882E-18
  -20.31000        9.1814856E-18
  -20.14850        9.1823889E-18
  -19.98700        9.1828198E-18
  -19.82550        9.1825651E-18
  -19.66400        9.1818587E-18
  -19.50250        9.1811390E-18
  -19.34100        9.1806741E-18
  -19.17950        9.1803664E-18
  -19.01800        9.1798825E-18
  -18.85650        9.1790057E-18
  -18.69500        9.1779089E-18
  -18.53350        9.1771181E-18
  -18.37200        9.1771636E-18
  -18.21050        9.1781661E-18
  -18.04900        9.1796881E-18
  -17.88750        9.1809694E-18
  -17.72600        9.1813938E-18
  -17.56450        9.1808561E-18
  -17.40300        9.1797766E-18
  -17.24150        9.1787526E-18
  -17.08000        9.1781339E-18
  -16.91850        9.1778311E-18
  -16.75700        9.1774961E-18
  -16.59550        9.1768964E-18
  -16.43400        9.1761983E-18
  -16.27250        9.1758765E-18
  -16.11100        9.1763455E-18
  -15.94950        9.1775656E-18
  -15.78800        9.1789594E-18
  -15.62650        9.1797361E-18
  -15.46500        9.1793937E-18
  -15.30350        9.1780611E-18
  -15.14200        9.1764133E-18
  -14.98050        9.1752329E-18
  -14.81900        9.1749252E-18
  -14.65750        9.1753297E-18
  -14.49600        9.1759402E-18
  -14.33450        9.1763381E-18
  -14.17300        9.1764985E-18
  -14.01150        9.1767293E-18
  -13.85000        9.1773100E-18
  -13.68850        9.1781380E-18
  -13.52700        9.1786707E-18
  -13.36550        9.1782637E-18
  -13.20400        9.1766482E-18
  -13.04250        9.1742031E-18
  -12.88100        9.1717943E-18
  -12.71950        9.1702847E-18
  -12.55800        9.1700424E-18
  -12.39650        9.1707835E-18
  -12.23500        9.1718382E-18
  -12.07350        9.1726331E-18
  -11.91200        9.1730219E-18
  -11.75050        9.1732452E-18
  -11.58900        9.1735910E-18
  -11.42750        9.1740534E-18
  -11.26600        9.1742751E-18
  -11.10450        9.1738350E-18
  -10.94300        9.1726463E-18
  -10.78150        9.1711475E-18
  -10.62000        9.1701036E-18
  -10.45850        9.1701392E-18
  -10.29700        9.1713187E-18
  -10.13550        9.1730856E-18
  -9.974000        9.1745952E-18
  -9.812500        9.1752056E-18
  -9.651000        9.1747962E-18
  -9.489500        9.1737002E-18
  -9.328000        9.1723668E-18
  -9.166500        9.1710176E-18
  -9.005000        9.1695759E-18
  -8.843500        9.1678876E-18
  -8.682000        9.1660297E-18
  -8.520500        9.1644275E-18
  -8.359000        9.1636466E-18
  -8.197500        9.1640023E-18
  -8.036000        9.1652762E-18
  -7.874500        9.1667758E-18
  -7.713000        9.1677106E-18
  -7.551500        9.1676411E-18
  -7.390000        9.1666948E-18
  -7.228500        9.1654160E-18
  -7.067000        9.1643869E-18
  -6.905500        9.1638997E-18
  -6.744000        9.1638981E-18
  -6.582500        9.1641942E-18
  -6.421000        9.1647302E-18
  -6.259500        9.1656600E-18
  -6.098000        9.1671572E-18
  -5.936500        9.1691350E-18
  -5.775000        9.1711020E-18
  -5.613500        9.1723378E-18
  -5.452000        9.1722791E-18
  -5.290500        9.1708754E-18
  -5.129000        9.1686378E-18
  -4.967500        9.1663507E-18
  -4.806000        9.1646376E-18
  -4.644500        9.1636723E-18
  -4.483000        9.1632165E-18
  -4.321500        9.1628997E-18
  -4.160000        9.1625084E-18
  -3.998500        9.1620593E-18
  -3.837000        9.1616225E-18
  -3.675500        9.1610873E-18
  -3.514000        9.1600947E-18
  -3.352500        9.1582551E-18
  -3.191000        9.1554873E-18
  -3.029500        9.1522390E-18
  -2.868000        9.1493538E-18
  -2.706500        9.1476647E-18
  -2.545000        9.1475439E-18
  -2.383500        9.1487251E-18
  -2.222000        9.1505011E-18
  -2.060500        9.1521554E-18
  -1.899000        9.1533160E-18
  -1.737500        9.1540141E-18
  -1.576000        9.1544558E-18
  -1.414500        9.1547271E-18
  -1.253000        9.1547073E-18
  -1.091500        9.1542498E-18
 -0.9300000        9.1534847E-18
 -0.7685000        9.1529412E-18
 -0.6070000        9.1533466E-18
 -0.4455000        9.1551879E-18
 -0.2840000        9.1583287E-18
 -0.1225000        9.1619790E-18
  3.9000001E-02    9.1650652E-18
  0.2005000        9.1667717E-18
  0.3620000        9.1669123E-18
  0.5235000        9.1659048E-18
  0.6850000        9.1644027E-18
  0.8465000        9.1628815E-18
   1.008000        9.1614703E-18
   1.169500        9.1601121E-18
   1.331000        9.1588647E-18
   1.492500        9.1580516E-18
   1.654000        9.1580987E-18
   1.815500        9.1591567E-18
   1.977000        9.1608160E-18
   2.138500        9.1621726E-18
   2.300000        9.1622652E-18
   2.461500        9.1606183E-18
   2.623000        9.1575354E-18
   2.784500        9.1539380E-18
   2.946000        9.1508617E-18
   3.107500        9.1489468E-18
   3.269000        9.1482346E-18
   3.430500        9.1483636E-18
   3.592000        9.1489518E-18
   3.753500        9.1498426E-18
   3.915000        9.1510495E-18
   4.076500        9.1524739E-18
   4.238000        9.1536758E-18
   4.399500        9.1539579E-18
   4.561000        9.1527436E-18
   4.722500        9.1500180E-18
   4.884000        9.1464810E-18
   5.045500        9.1432756E-18
   5.207000        9.1414228E-18
   5.368500        9.1413218E-18
   5.530000        9.1426255E-18
   5.691500        9.1445239E-18
   5.853000        9.1462303E-18
   6.014500        9.1473181E-18
   6.176000        9.1477250E-18
   6.337500        9.1475174E-18
   6.499000        9.1466514E-18
   6.660500        9.1449863E-18
   6.822000        9.1425361E-18
   6.983500        9.1397370E-18
   7.145000        9.1374672E-18
   7.306500        9.1367186E-18
   7.468000        9.1380867E-18
   7.629500        9.1414046E-18
   7.791000        9.1457729E-18
   7.952500        9.1499766E-18
   8.114000        9.1530256E-18
   8.275500        9.1544864E-18
   8.437000        9.1544707E-18
   8.598500        9.1533524E-18
   8.760000        9.1514895E-18
   8.921500        9.1491602E-18
   9.083000        9.1466960E-18
   9.244500        9.1446306E-18
   9.406000        9.1436437E-18
   9.567500        9.1442550E-18
   9.729000        9.1464619E-18
   9.890500        9.1495763E-18
   10.05200        9.1524466E-18
   10.21350        9.1539504E-18
   10.37500        9.1534938E-18
   10.53650        9.1512091E-18
   10.69800        9.1477796E-18
   10.85950        9.1440482E-18
   11.02100        9.1406824E-18
   11.18250        9.1380900E-18
   11.34400        9.1365358E-18
   11.50550        9.1362752E-18
   11.66700        9.1375110E-18
   11.82850        9.1401729E-18
   11.99000        9.1437124E-18
   12.15150        9.1471328E-18
   12.31300        9.1493347E-18
   12.47450        9.1496143E-18
   12.63600        9.1480121E-18
   12.79750        9.1452791E-18
   12.95900        9.1424948E-18
   13.12050        9.1405617E-18
   13.28200        9.1398908E-18
   13.44350        9.1404252E-18
   13.60500        9.1418843E-18
   13.76650        9.1440011E-18
   13.92800        9.1465389E-18
   14.08950        9.1491412E-18
   14.25100        9.1511868E-18
   14.41250        9.1518932E-18
   14.57400        9.1506698E-18
   14.73550        9.1475224E-18
   14.89700        9.1432169E-18
   15.05850        9.1390239E-18
   15.22000        9.1361693E-18
   15.38150        9.1353016E-18
   15.54300        9.1362893E-18
   15.70450        9.1384383E-18
   15.86600        9.1409364E-18
   16.02750        9.1432020E-18
   16.18900        9.1449449E-18
   16.35050        9.1459673E-18
   16.51200        9.1459797E-18
   16.67350        9.1446355E-18
   16.83500        9.1418223E-18
   16.99650        9.1379742E-18
   17.15800        9.1341188E-18
   17.31950        9.1315222E-18
   17.48100        9.1311012E-18
   17.64250        9.1329615E-18
   17.80400        9.1363546E-18
   17.96550        9.1400860E-18
   18.12700        9.1431019E-18
   18.28850        9.1448944E-18
   18.45000        9.1454991E-18
   18.61150        9.1451889E-18
   18.77300        9.1441525E-18
   18.93450        9.1424270E-18
   19.09600        9.1401183E-18
   19.25750        9.1376715E-18
   19.41900        9.1359071E-18
   19.58050        9.1356912E-18
   19.74200        9.1374308E-18
   19.90350        9.1407312E-18
   20.06500        9.1444875E-18
   20.22650        9.1473967E-18
   20.38800        9.1485754E-18
   20.54950        9.1479079E-18
   20.71100        9.1459375E-18
   20.87250        9.1434187E-18
   21.03400        9.1408909E-18
   21.19550        9.1385425E-18
   21.35700        9.1364076E-18
   21.51850        9.1346589E-18
   21.68000        9.1337010E-18
   21.84150        9.1339492E-18
   22.00300        9.1354414E-18
   22.16450        9.1376136E-18
   22.32600        9.1394632E-18
   22.48750        9.1400372E-18
   22.64900        9.1389594E-18
   22.81050        9.1366342E-18
   22.97200        9.1339972E-18
   23.13350        9.1319946E-18
   23.29500        9.1311310E-18
   23.45650        9.1313676E-18
   23.61800        9.1323701E-18
   23.77950        9.1338607E-18
   23.94100        9.1357863E-18
   24.10250        9.1381819E-18
   24.26400        9.1408843E-18
   24.42550        9.1433848E-18
   24.58700        9.1449829E-18
   24.74850        9.1451947E-18
   24.91000        9.1440987E-18
   25.07150        9.1423831E-18
   25.23300        9.1409992E-18
   25.39450        9.1406510E-18
   25.55600        9.1414550E-18
   25.71750        9.1429737E-18
   25.87900        9.1445594E-18
   26.04050        9.1457489E-18
   26.20200        9.1464231E-18
   26.36350        9.1466671E-18
   26.52500        9.1464975E-18
   26.68650        9.1457266E-18
   26.84800        9.1440855E-18
   27.00950        9.1415262E-18
   27.17100        9.1384267E-18
   27.33250        9.1355076E-18
   27.49400        9.1334595E-18
   27.65550        9.1325413E-18
   27.81700        9.1324272E-18
   27.97850        9.1324247E-18
   28.14000        9.1319118E-18
   28.30150        9.1307000E-18
   28.46300        9.1290804E-18
   28.62450        9.1275526E-18
   28.78600        9.1264855E-18
   28.94750        9.1259437E-18
   29.10900        9.1258180E-18
   29.27050        9.1260802E-18
   29.43200        9.1269405E-18
   29.59350        9.1287040E-18
   29.75500        9.1314511E-18
   29.91650        9.1347664E-18
   30.07800        9.1377898E-18
   30.23950        9.1395988E-18
   30.40100        9.1396981E-18
   30.56250        9.1382902E-18
   30.72400        9.1361396E-18
   30.88550        9.1341303E-18
   31.04700        9.1328308E-18
   31.20850        9.1323387E-18
   31.37000        9.1324677E-18
   31.53150        9.1330649E-18
   31.69300        9.1341783E-18
   31.85450        9.1359212E-18
   32.01600        9.1381562E-18
   32.17750        9.1403028E-18
   32.33900        9.1414840E-18
   32.50050        9.1409761E-18
   32.66200        9.1386782E-18
   32.82350        9.1352619E-18
   32.98500        9.1318680E-18
   33.14650        9.1295370E-18
   33.30800        9.1287371E-18
   33.46950        9.1292789E-18
   33.63100        9.1306231E-18
   33.79250        9.1323097E-18
   33.95400        9.1341725E-18
   34.11550        9.1362057E-18
   34.27700        9.1382431E-18
   34.43850        9.1397618E-18
   34.60000        9.1400447E-18
   34.76150        9.1386285E-18
   34.92300        9.1357218E-18
   35.08450        9.1322526E-18
   35.24600        9.1294659E-18
   35.40750        9.1282929E-18
   35.56900        9.1289042E-18
   35.73050        9.1307141E-18
   35.89200        9.1328135E-18
   36.05350        9.1344935E-18
   36.21500        9.1355026E-18
   36.37650        9.1359162E-18
   36.53800        9.1357847E-18
   36.69950        9.1349071E-18
   36.86100        9.1329491E-18
   37.02250        9.1298249E-18
   37.18400        9.1260322E-18
   37.34550        9.1226135E-18
   37.50700        9.1207135E-18
   37.66850        9.1209790E-18
   37.83000        9.1232000E-18
   37.99150        9.1264409E-18
   38.15300        9.1295593E-18
   38.31450        9.1317745E-18
   38.47600        9.1329144E-18
   38.63750        9.1332395E-18
   38.79900        9.1330492E-18
   38.96050        9.1324040E-18
   39.12200        9.1311914E-18
   39.28350        9.1294253E-18
   39.44500        9.1275179E-18
   39.60650        9.1262117E-18
   39.76800        9.1261993E-18
   39.92950        9.1276477E-18
   40.09100        9.1300052E-18
   40.25250        9.1322435E-18
   40.41400        9.1333999E-18
   40.57550        9.1330666E-18
   40.73700        9.1315173E-18
   40.89850        9.1294204E-18
   41.06000        9.1273872E-18
   41.22150        9.1256873E-18
   41.38300        9.1242968E-18
   41.54450        9.1231801E-18
   41.70600        9.1225275E-18
   41.86750        9.1227028E-18
   42.02900        9.1239403E-18
   42.19050        9.1260240E-18
   42.35200        9.1282449E-18
   42.51350        9.1297140E-18
   42.67500        9.1298505E-18
   42.83650        9.1287106E-18
   42.99800        9.1269281E-18
   43.15950        9.1253184E-18
   43.32100        9.1244267E-18
   43.48250        9.1243266E-18
   43.64400        9.1247584E-18
   43.80550        9.1254565E-18
   43.96700        9.1263681E-18
   44.12850        9.1275931E-18
   44.29000        9.1291110E-18
   44.45150        9.1305644E-18
   44.61300        9.1313096E-18
   44.77450        9.1307687E-18
   44.93600        9.1288281E-18
   45.09750        9.1259867E-18
   45.25900        9.1231255E-18
   45.42050        9.1210352E-18
   45.58200        9.1200219E-18
   45.74350        9.1198491E-18
   45.90500        9.1200269E-18
   46.06650        9.1202039E-18
   46.22800        9.1203561E-18
   46.38950        9.1206572E-18
   46.55100        9.1211651E-18
   46.71250        9.1216217E-18
   46.87400        9.1215539E-18
   47.03550        9.1206374E-18
   47.19700        9.1190227E-18
   47.35850        9.1173601E-18
   47.52000        9.1164527E-18
   47.68150        9.1167595E-18
   47.84300        9.1181103E-18
   48.00450        9.1198218E-18
   48.16600        9.1211527E-18
   48.32750        9.1217516E-18
   48.48900        9.1218053E-18
   48.65050        9.1217896E-18
   48.81200        9.1220518E-18
   48.97350        9.1225564E-18
   49.13500        9.1229907E-18
   49.29650        9.1231222E-18
   49.45800        9.1231048E-18
   49.61950        9.1234465E-18
   49.78100        9.1246368E-18
   49.94250        9.1266932E-18
   50.10400        9.1289985E-18
   50.26550        9.1305685E-18
   50.42700        9.1306198E-18
   50.58850        9.1290324E-18
   50.75000        9.1264028E-18
   50.91150        9.1236607E-18
   51.07300        9.1215241E-18
   51.23450        9.1201866E-18
   51.39600        9.1194107E-18
   51.55750        9.1189143E-18
   51.71900        9.1187042E-18
   51.88050        9.1190690E-18
   52.04200        9.1202494E-18
   52.20350        9.1220552E-18
   52.36500        9.1237724E-18
   52.52650        9.1244978E-18
   52.68800        9.1236880E-18
   52.84950        9.1215431E-18
   53.01100        9.1189425E-18
   53.17250        9.1169506E-18
   53.33400        9.1162285E-18
   53.49550        9.1167322E-18
   53.65700        9.1178771E-18
   53.81850        9.1189971E-18
   53.98000        9.1197457E-18
   54.14150        9.1201601E-18
   54.30300        9.1203834E-18
   54.46450        9.1203363E-18
   54.62600        9.1196356E-18
   54.78750        9.1178738E-18
   54.94900        9.1150506E-18
   55.11050        9.1118064E-18
   55.27200        9.1092388E-18
   55.43350        9.1083694E-18
   55.59500        9.1096069E-18
   55.75650        9.1125492E-18
   55.91800        9.1162550E-18
   56.07950        9.1197614E-18
   56.24100        9.1225076E-18
   56.40250        9.1244077E-18
   56.56400        9.1255897E-18
   56.72550        9.1260951E-18
   56.88700        9.1257890E-18
   57.04850        9.1245706E-18
   57.21000        9.1226772E-18
   57.37150        9.1207929E-18
   57.53300        9.1197994E-18
   57.69450        9.1203040E-18
   57.85600        9.1222479E-18
   58.01750        9.1248833E-18
   58.17900        9.1271539E-18
   58.34050        9.1282143E-18
   58.50200        9.1277825E-18
   58.66350        9.1261075E-18
   58.82500        9.1236682E-18
   58.98650        9.1208499E-18
   59.14800        9.1178655E-18
   59.30950        9.1149166E-18
   59.47100        9.1124028E-18
   59.63250        9.1109312E-18
   59.79400        9.1110462E-18
   59.95550        9.1128495E-18
   60.11700        9.1157992E-18
   60.27850        9.1188730E-18
   60.44000        9.1210377E-18
   60.60150        9.1217268E-18
   60.76300        9.1210336E-18
   60.92450        9.1195265E-18
   61.08600        9.1178531E-18
   61.24750        9.1164328E-18
   61.40900        9.1154294E-18
   61.57050        9.1149447E-18
   61.73200        9.1152094E-18
   61.89350        9.1165494E-18
   62.05500        9.1191120E-18
   62.21650        9.1225672E-18
   62.37800        9.1260595E-18
   62.53950        9.1285096E-18
   62.70100        9.1291234E-18
   62.86250        9.1277776E-18
   63.02400        9.1250313E-18
   63.18550        9.1217764E-18
   63.34700        9.1187638E-18
   63.50850        9.1163418E-18
   63.67000        9.1145328E-18
   63.83150        9.1133251E-18
   63.99300        9.1128925E-18
   64.15450        9.1135302E-18
   64.31600        9.1153484E-18
   64.47750        9.1179829E-18
   64.63900        9.1206092E-18
   64.80050        9.1222975E-18
   64.96200        9.1225200E-18
   65.12350        9.1214422E-18
   65.28500        9.1197986E-18
   65.44650        9.1184329E-18
   65.60800        9.1178076E-18
   65.76950        9.1178307E-18
   65.93100        9.1180690E-18
   66.09250        9.1181666E-18
   66.25400        9.1181136E-18
   66.41550        9.1181732E-18
   66.57700        9.1185413E-18
   66.73850        9.1190359E-18
   66.90000        9.1191054E-18
   67.06150        9.1181815E-18
   67.22300        9.1161400E-18
   67.38450        9.1135062E-18
   67.54600        9.1112331E-18
   67.70750        9.1101777E-18
   67.86900        9.1106252E-18
   68.03050        9.1121943E-18
   68.19200        9.1141498E-18
   68.35350        9.1158960E-18
   68.51500        9.1172765E-18
   68.67650        9.1184917E-18
   68.83800        9.1197366E-18
   68.99950        9.1208822E-18
   69.16100        9.1214770E-18
   69.32250        9.1210733E-18
   69.48400        9.1196497E-18
   69.64550        9.1177629E-18
   69.80700        9.1163054E-18
   69.96850        9.1160035E-18
   70.13000        9.1170044E-18
   70.29150        9.1188465E-18
   70.45300        9.1208086E-18
   70.61450        9.1223844E-18
   70.77600        9.1235358E-18
   70.93750        9.1245607E-18
   71.09900        9.1257179E-18
   71.26050        9.1269049E-18
   71.42200        9.1276684E-18
   71.58350        9.1275212E-18
   71.74500        9.1263217E-18
   71.90650        9.1244159E-18
   72.06800        9.1224282E-18
   72.22950        9.1208458E-18
   72.39100        9.1197175E-18
   72.55250        9.1186827E-18
   72.71400        9.1173063E-18
   72.87550        9.1154617E-18
   73.03700        9.1134607E-18
   73.19850        9.1118494E-18
   73.36000        9.1110206E-18
   73.52150        9.1109337E-18
   73.68300        9.1111612E-18
   73.84450        9.1111984E-18
   74.00600        9.1108022E-18
   74.16750        9.1101115E-18
   74.32900        9.1094605E-18
   74.49050        9.1090692E-18
   74.65200        9.1088567E-18
   74.81350        9.1085390E-18
   74.97500        9.1079261E-18
   75.13650        9.1071783E-18
   75.29800        9.1068003E-18
   75.45950        9.1073562E-18
   75.62100        9.1091056E-18
   75.78250        9.1118196E-18
   75.94400        9.1149067E-18
   76.10550        9.1177522E-18
   76.26700        9.1200195E-18
   76.42850        9.1217053E-18
   76.59000        9.1229518E-18
   76.75150        9.1237939E-18
   76.91300        9.1240735E-18
   77.07450        9.1235879E-18
   77.23600        9.1223579E-18
   77.39750        9.1207672E-18
   77.55900        9.1194305E-18
   77.72050        9.1188540E-18
   77.88200        9.1191236E-18
   78.04350        9.1198482E-18
   78.20500        9.1204066E-18
   78.36650        9.1203230E-18
   78.52800        9.1195182E-18
   78.68950        9.1182658E-18
   78.85100        9.1169200E-18
   79.01250        9.1156652E-18
   79.17400        9.1144592E-18
   79.33550        9.1132283E-18
   79.49700        9.1121108E-18
   79.65850        9.1115260E-18
   79.82000        9.1119594E-18
   79.98150        9.1136072E-18
   80.14300        9.1161375E-18
   80.30450        9.1187655E-18
   80.46600        9.1206299E-18
   80.62750        9.1212238E-18
   80.78900        9.1205993E-18
   80.95050        9.1192245E-18
   81.11200        9.1176256E-18
   81.27350        9.1160904E-18
   81.43500        9.1146370E-18
   81.59650        9.1132374E-18
   81.75800        9.1120752E-18
   81.91950        9.1115872E-18
   82.08100        9.1122200E-18
   82.24250        9.1140621E-18
   82.40400        9.1166553E-18
   82.56550        9.1191426E-18
   82.72700        9.1207060E-18
   82.88850        9.1210022E-18
   83.05000        9.1203065E-18
   83.21150        9.1192725E-18
   83.37300        9.1185008E-18
   83.53450        9.1182104E-18
   83.69600        9.1182377E-18
   83.85750        9.1183122E-18
   84.01900        9.1183643E-18
   84.18050        9.1186008E-18
   84.34200        9.1192849E-18
   84.50350        9.1204008E-18
   84.66500        9.1214861E-18
   84.82650        9.1218144E-18
   84.98800        9.1208144E-18
   85.14950        9.1184635E-18
   85.31100        9.1153533E-18
   85.47250        9.1123821E-18
   85.63400        9.1102794E-18
   85.79550        9.1092793E-18
   85.95700        9.1091445E-18
   86.11850        9.1094754E-18
   86.28000        9.1100495E-18
   86.44150        9.1109188E-18
   86.60300        9.1122225E-18
   86.76450        9.1138884E-18
   86.92600        9.1154940E-18
   87.08750        9.1164328E-18
   87.24900        9.1162905E-18
   87.41050        9.1151573E-18
   87.57200        9.1136295E-18
   87.73350        9.1124863E-18
   87.89500        9.1122531E-18
   88.05650        9.1129454E-18
   88.21800        9.1141481E-18
   88.37950        9.1153484E-18
   88.54100        9.1162674E-18
   88.70250        9.1169423E-18
   88.86400        9.1175487E-18
   89.02550        9.1181211E-18
   89.18700        9.1184296E-18
   89.34850        9.1181194E-18
   89.51000        9.1170027E-18
   89.67150        9.1152789E-18
   89.83300        9.1134765E-18
   89.99450        9.1121695E-18
   90.15600        9.1116352E-18
   90.31750        9.1117253E-18
   90.47900        9.1120272E-18
   90.64050        9.1121894E-18
   90.80200        9.1121703E-18
   90.96350        9.1122332E-18
   91.12500        9.1127113E-18
   91.28650        9.1137312E-18
   91.44800        9.1151176E-18
   91.60950        9.1165263E-18
   91.77100        9.1177042E-18
   91.93250        9.1186472E-18
   92.09400        9.1195306E-18
   92.25550        9.1204843E-18
   92.41700        9.1213942E-18
   92.57850        9.1219145E-18
   92.74000        9.1216953E-18
   92.90150        9.1206705E-18
   93.06300        9.1191675E-18
   93.22450        9.1177662E-18
   93.38600        9.1169754E-18
   93.54750        9.1169696E-18
   93.70900        9.1175578E-18
   93.87050        9.1183808E-18
   94.03200        9.1191766E-18
   94.19350        9.1199045E-18
   94.35500        9.1206407E-18
   94.51650        9.1213686E-18
   94.67800        9.1218484E-18
   94.83950        9.1217168E-18
   95.00100        9.1207424E-18
   95.16250        9.1190558E-18
   95.32400        9.1171549E-18
   95.48550        9.1156437E-18
   95.64700        9.1148876E-18
   95.80850        9.1148082E-18
   95.97000        9.1149695E-18
   96.13150        9.1148818E-18
   96.29300        9.1142945E-18
   96.45450        9.1132771E-18
   96.61600        9.1120471E-18
   96.77750        9.1107071E-18
   96.93900        9.1091230E-18
   97.10050        9.1070509E-18
   97.26200        9.1044255E-18
   97.42350        9.1015584E-18
   97.58500        9.0990877E-18
   97.74650        9.0976550E-18
   97.90800        9.0975549E-18
   98.06950        9.0985715E-18
   98.23100        9.1001506E-18
   98.39250        9.1017537E-18
   98.55400        9.1031615E-18
   98.71550        9.1044974E-18
   98.87700        9.1059921E-18
   99.03850        9.1076870E-18
   99.20000        9.1093124E-18
   99.36150        9.1104539E-18
   99.52300        9.1108692E-18
   99.68450        9.1107079E-18
   99.84600        9.1104448E-18
   100.0075        9.1105648E-18
   100.1690        9.1112191E-18
   100.3305        9.1121141E-18
   100.4920        9.1127163E-18
   100.6535        9.1126269E-18
   100.8150        9.1118577E-18
   100.9765        9.1108088E-18
   101.1380        9.1099833E-18
   101.2995        9.1096508E-18
   101.4610        9.1097144E-18
   101.6225        9.1098642E-18
   101.7840        9.1098873E-18
   101.9455        9.1098741E-18
   102.1070        9.1101628E-18
   102.2685        9.1110611E-18
   102.4300        9.1125575E-18
   102.5915        9.1142631E-18
   102.7530        9.1156304E-18
   102.9145        9.1163046E-18
   103.0760        9.1163435E-18
   103.2375        9.1161565E-18
   103.3990        9.1162045E-18
   103.5605        9.1166776E-18
   103.7220        9.1173865E-18
   103.8835        9.1179201E-18
   104.0450        9.1179441E-18
   104.2065        9.1173998E-18
   104.3680        9.1164684E-18
   104.5295        9.1153575E-18
   104.6910        9.1140902E-18
   104.8525        9.1124822E-18
   105.0140        9.1103365E-18
   105.1755        9.1076953E-18
   105.3370        9.1049573E-18
   105.4985        9.1027363E-18
   105.6600        9.1015568E-18
   105.8215        9.1015808E-18
   105.9830        9.1025560E-18
   106.1445        9.1039995E-18
   106.3060        9.1054718E-18
   106.4675        9.1067523E-18
   106.6290        9.1078070E-18
   106.7905        9.1086292E-18
   106.9520        9.1091098E-18
   107.1135        9.1090643E-18
   107.2750        9.1084067E-18
   107.4365        9.1073148E-18
   107.5980        9.1062395E-18
   107.7595        9.1057183E-18
   107.9210        9.1061038E-18
   108.0825        9.1073967E-18
   108.2440        9.1092835E-18
   108.4055        9.1113556E-18
   108.5670        9.1133309E-18
   108.7285        9.1151292E-18
   108.8900        9.1167802E-18
   109.0515        9.1182485E-18
   109.2130        9.1193552E-18
   109.3745        9.1198639E-18
   109.5360        9.1196580E-18
   109.6975        9.1188746E-18
   109.8590        9.1178522E-18
   110.0205        9.1169324E-18
   110.1820        9.1162450E-18
   110.3435        9.1156445E-18
   110.5050        9.1148380E-18
   110.6665        9.1136237E-18
   110.8280        9.1120421E-18
   110.9895        9.1103456E-18
   111.1510        9.1088021E-18
   111.3125        9.1075050E-18
   111.4740        9.1063354E-18
   111.6355        9.1051070E-18
   111.7970        9.1037794E-18
   111.9585        9.1025668E-18
   112.1200        9.1018355E-18
   112.2815        9.1018670E-18
   112.4430        9.1026611E-18
   112.6045        9.1039242E-18
   112.7660        9.1052717E-18
   112.9275        9.1064769E-18
   113.0890        9.1075977E-18
   113.2505        9.1088715E-18
   113.4120        9.1104688E-18
   113.5735        9.1122936E-18
   113.7350        9.1139835E-18
   113.8965        9.1151168E-18
   114.0580        9.1154733E-18
   114.2195        9.1151556E-18
   114.3810        9.1144815E-18
   114.5425        9.1137403E-18
   114.7040        9.1129984E-18
   114.8655        9.1121133E-18
   115.0270        9.1109378E-18
   115.1885        9.1095515E-18
   115.3500        9.1083273E-18
   115.5115        9.1077590E-18
   115.6730        9.1081610E-18
   115.8345        9.1094497E-18
   115.9960        9.1111653E-18
   116.1575        9.1127237E-18
   116.3190        9.1137230E-18
   116.4805        9.1140993E-18
   116.6420        9.1140472E-18