  -30.00000       -3.0912682E-18
  -29.83850       -3.1068455E-18
  -29.67700       -3.1348979E-18
  -29.51550       -3.1702826E-18
  -29.35400       -3.2070084E-18
  -29.19250       -3.2396179E-18
  -29.03100       -3.2644238E-18
  -28.86950       -3.2802931E-18
  -28.70800       -3.2887973E-18
  -28.54650       -3.2936930E-18
  -28.38500       -3.2998737E-18
  -28.22350       -3.3120504E-18
  -28.06200       -3.3334905E-18
  -27.90050       -3.3651337E-18
  -27.73900       -3.4052993E-18
  -27.57750       -3.4500539E-18
  -27.41600       -3.4941499E-18
  -27.25450       -3.5323015E-18
  -27.09300       -3.5604786E-18
  -26.93150       -3.5769010E-18
  -26.77000       -3.5824878E-18
  -26.60850       -3.5806469E-18
  -26.44700       -3.5764593E-18
  -26.28550       -3.5754555E-18
  -26.12400       -3.5822893E-18
  -25.96250       -3.5996253E-18
  -25.80100       -3.6275208E-18
  -25.63950       -3.6634394E-18
  -25.47800       -3.7028997E-18
  -25.31650       -3.7405856E-18
  -25.15500       -3.7716512E-18
  -24.99350       -3.7928932E-18
  -24.83200       -3.8035109E-18
  -24.67050       -3.8052674E-18
  -24.50900       -3.8020174E-18
  -24.34750       -3.7987277E-18
  -24.18600       -3.8002303E-18
  -24.02450       -3.8100241E-18
  -23.86300       -3.8294173E-18
  -23.70150       -3.8572205E-18
  -23.54000       -3.8900662E-18
  -23.37850       -3.9232684E-18
  -23.21700       -3.9520018E-18
  -23.05550       -3.9725121E-18
  -22.89400       -3.9830508E-18
  -22.73250       -3.9843102E-18
  -22.57100       -3.9792491E-18
  -22.40950       -3.9723533E-18
  -22.24800       -3.9685260E-18
  -22.08650       -3.9718703E-18
  -21.92500       -3.9846800E-18
  -21.76350       -4.0068778E-18
  -21.60200       -4.0360433E-18
  -21.44050       -4.0680213E-18
  -21.27900       -4.0979553E-18
  -21.11750       -4.1214899E-18
  -20.95600       -4.1358427E-18
  -20.79450       -4.1404811E-18
  -20.63300       -4.1372365E-18
  -20.47150       -4.1298398E-18
  -20.31000       -4.1229850E-18
  -20.14850       -4.1211673E-18
  -19.98700       -4.1275808E-18
  -19.82550       -4.1433493E-18
  -19.66400       -4.1672764E-18
  -19.50250       -4.1961793E-18
  -19.34100       -4.2257142E-18
  -19.17950       -4.2514829E-18
  -19.01800       -4.2701429E-18
  -18.85650       -4.2802428E-18
  -18.69500       -4.2825667E-18
  -18.53350       -4.2799107E-18
  -18.37200       -4.2763451E-18
  -18.21050       -4.2761553E-18
  -18.04900       -4.2827243E-18
  -17.88750       -4.2976471E-18
  -17.72600       -4.3202924E-18
  -17.56450       -4.3479326E-18
  -17.40300       -4.3764004E-18
  -17.24150       -4.4011150E-18
  -17.08000       -4.4182210E-18
  -16.91850       -4.4255528E-18
  -16.75700       -4.4231821E-18
  -16.59550       -4.4134155E-18
  -16.43400       -4.4002365E-18
  -16.27250       -4.3883350E-18
  -16.11100       -4.3819686E-18
  -15.94950       -4.3839377E-18
  -15.78800       -4.3949343E-18
  -15.62650       -4.4134209E-18
  -15.46500       -4.4360687E-18
  -15.30350       -4.4586408E-18
  -15.14200       -4.4770965E-18
  -14.98050       -4.4886356E-18
  -14.81900       -4.4924220E-18
  -14.65750       -4.4897957E-18
  -14.49600       -4.4839319E-18
  -14.33450       -4.4790122E-18
  -14.17300       -4.4791379E-18
  -14.01150       -4.4872472E-18
  -13.85000       -4.5043115E-18
  -13.68850       -4.5290322E-18
  -13.52700       -4.5581027E-18
  -13.36550       -4.5869845E-18
  -13.20400       -4.6110058E-18
  -13.04250       -4.6265047E-18
  -12.88100       -4.6317395E-18
  -12.71950       -4.6273290E-18
  -12.55800       -4.6161178E-18
  -12.39650       -4.6024933E-18
  -12.23500       -4.5913198E-18
  -12.07350       -4.5867541E-18
  -11.91200       -4.5912383E-18
  -11.75050       -4.6049157E-18
  -11.58900       -4.6256225E-18
  -11.42750       -4.6494557E-18
  -11.26600       -4.6717722E-18
  -11.10450       -4.6883762E-18
  -10.94300       -4.6965863E-18
  -10.78150       -4.6959209E-18
  -10.62000       -4.6882240E-18
  -10.45850       -4.6771993E-18
  -10.29700       -4.6674679E-18
  -10.13550       -4.6633829E-18
  -9.974000       -4.6679010E-18
  -9.812500       -4.6817914E-18
  -9.651000       -4.7033862E-18
  -9.489500       -4.7289436E-18
  -9.328000       -4.7535348E-18
  -9.166500       -4.7722390E-18
  -9.005000       -4.7813612E-18
  -8.843500       -4.7793516E-18
  -8.682000       -4.7672152E-18
  -8.520500       -4.7482913E-18
  -8.359000       -4.7274667E-18
  -8.197500       -4.7100020E-18
  -8.036000       -4.7002714E-18
  -7.874500       -4.7007202E-18
  -7.713000       -4.7112944E-18
  -7.551500       -4.7294879E-18
  -7.390000       -4.7509896E-18
  -7.228500       -4.7707753E-18
  -7.067000       -4.7843709E-18
  -6.905500       -4.7889750E-18
  -6.744000       -4.7841645E-18
  -6.582500       -4.7720045E-18
  -6.421000       -4.7565358E-18
  -6.259500       -4.7427678E-18
  -6.098000       -4.7354204E-18
  -5.936500       -4.7377407E-18
  -5.775000       -4.7506740E-18
  -5.613500       -4.7726129E-18
  -5.452000       -4.7997713E-18
  -5.290500       -4.8271068E-18
  -5.129000       -4.8495527E-18
  -4.967500       -4.8632649E-18
  -4.806000       -4.8665720E-18
  -4.644500       -4.8603938E-18
  -4.483000       -4.8480257E-18
  -4.321500       -4.8343371E-18
  -4.160000       -4.8245818E-18
  -3.998500       -4.8231069E-18
  -3.837000       -4.8322870E-18
  -3.675500       -4.8519358E-18
  -3.514000       -4.8793461E-18
  -3.352500       -4.9099452E-18
  -3.191000       -4.9384035E-18
  -3.029500       -4.9599176E-18
  -2.868000       -4.9713567E-18
  -2.706500       -4.9719908E-18
  -2.545000       -4.9636251E-18
  -2.383500       -4.9501131E-18
  -2.222000       -4.9363703E-18
  -2.060500       -4.9271435E-18
  -1.899000       -4.9258291E-18
  -1.737500       -4.9336422E-18
  -1.576000       -4.9493380E-18
  -1.414500       -4.9695506E-18
  -1.253000       -4.9896647E-18
  -1.091500       -5.0050023E-18
 -0.9300000       -5.0120184E-18
 -0.7685000       -5.0092184E-18
 -0.6070000       -4.9975606E-18
 -0.4455000       -4.9802493E-18
 -0.2840000       -4.9619744E-18
 -0.1225000       -4.9477866E-18
  3.9000001E-02   -4.9418872E-18
  0.2005000       -4.9466236E-18
  0.3620000       -4.9619430E-18
  0.5235000       -4.9854238E-18
  0.6850000       -5.0128812E-18
  0.8465000       -5.0393882E-18
   1.008000       -5.0604619E-18
   1.169500       -5.0731210E-18
   1.331000       -5.0765559E-18
   1.492500       -5.0722541E-18
   1.654000       -5.0635551E-18
   1.815500       -5.0547626E-18
   1.977000       -5.0500340E-18
   2.138500       -5.0523348E-18
   2.300000       -5.0627118E-18
   2.461500       -5.0800615E-18
   2.623000       -5.1014379E-18
   2.784500       -5.1228255E-18
   2.946000       -5.1401648E-18
   3.107500       -5.1503884E-18
   3.269000       -5.1521999E-18
   3.430500       -5.1464047E-18
   3.592000       -5.1357125E-18
   3.753500       -5.1240663E-18
   3.915000       -5.1156642E-18
   4.076500       -5.1139230E-18
   4.238000       -5.1206471E-18
   4.399500       -5.1355967E-18
   4.561000       -5.1565691E-18
   4.722500       -5.1799518E-18
   4.884000       -5.2016099E-18
   5.045500       -5.2178863E-18
   5.207000       -5.2264654E-18
   5.368500       -5.2268947E-18
   5.530000       -5.2206396E-18
   5.691500       -5.2106688E-18
   5.853000       -5.2006743E-18
   6.014500       -5.1941301E-18
   6.176000       -5.1934278E-18
   6.337500       -5.1993025E-18
   6.499000       -5.2106973E-18
   6.660500       -5.2250869E-18
   6.822000       -5.2391755E-18
   6.983500       -5.2497803E-18
   7.145000       -5.2546768E-18
   7.306500       -5.2531887E-18
   7.468000       -5.2463790E-18
   7.629500       -5.2368002E-18
   7.791000       -5.2278621E-18
   7.952500       -5.2229834E-18
   8.114000       -5.2247333E-18
   8.275500       -5.2341818E-18
   8.437000       -5.2506208E-18
   8.598500       -5.2717304E-18
   8.760000       -5.2941458E-18
   8.921500       -5.3142835E-18
   9.083000       -5.3292186E-18
   9.244500       -5.3373846E-18
   9.406000       -5.3389277E-18
   9.567500       -5.3356289E-18
   9.729000       -5.3304189E-18
   9.890500       -5.3266151E-18
   10.05200       -5.3270746E-18
   10.21350       -5.3334708E-18
   10.37500       -5.3458764E-18
   10.53650       -5.3627596E-18
   10.69800       -5.3813860E-18
   10.85950       -5.3985339E-18
   11.02100       -5.4113362E-18
   11.18250       -5.4180380E-18
   11.34400       -5.4184669E-18
   11.50550       -5.4140944E-18
   11.66700       -5.4076726E-18
   11.82850       -5.4025383E-18
   11.99000       -5.4017595E-18
   12.15150       -5.4073491E-18
   12.31300       -5.4197378E-18
   12.47450       -5.4376380E-18
   12.63600       -5.4583386E-18
   12.79750       -5.4783564E-18
   12.95900       -5.4942829E-18
   13.12050       -5.5036255E-18
   13.28200       -5.5054259E-18
   13.44350       -5.5005071E-18
   13.60500       -5.4912753E-18
   13.76650       -5.4811237E-18
   13.92800       -5.4735947E-18
   14.08950       -5.4715003E-18
   14.25100       -5.4762355E-18
   14.41250       -5.4874500E-18
   14.57400       -5.5031615E-18
   14.73550       -5.5202713E-18
   14.89700       -5.5353599E-18
   15.05850       -5.5455545E-18
   15.22000       -5.5492611E-18
   15.38150       -5.5465711E-18
   15.54300       -5.5392493E-18
   15.70450       -5.5302976E-18
   15.86600       -5.5231950E-18
   16.02750       -5.5210137E-18
   16.18900       -5.5256178E-18
   16.35050       -5.5371689E-18
   16.51200       -5.5540496E-18
   16.67350       -5.5732456E-18
   16.83500       -5.5910746E-18
   16.99650       -5.6040928E-18
   17.15800       -5.6099472E-18
   17.31950       -5.6079677E-18
   17.48100       -5.5993522E-18
   17.64250       -5.5869044E-18
   17.80400       -5.5743834E-18
   17.96550       -5.5656202E-18
   18.12700       -5.5636123E-18
   18.28850       -5.5698157E-18
   18.45000       -5.5838112E-18
   18.61150       -5.6034220E-18
   18.77300       -5.6252641E-18
   18.93450       -5.6455838E-18
   19.09600       -5.6611782E-18
   19.25750       -5.6701643E-18
   19.41900       -5.6724101E-18
   19.58050       -5.6695261E-18
   19.74200       -5.6644253E-18
   19.90350       -5.6605669E-18
   20.06500       -5.6610698E-18
   20.22650       -5.6679094E-18
   20.38800       -5.6813949E-18
   20.54950       -5.7000582E-18
   20.71100       -5.7209747E-18
   20.87250       -5.7404548E-18
   21.03400       -5.7549300E-18
   21.19550       -5.7618225E-18
   21.35700       -5.7601835E-18
   21.51850       -5.7509364E-18
   21.68000       -5.7366754E-18
   21.84150       -5.7210702E-18
   22.00300       -5.7080223E-18
   22.16450       -5.7007849E-18
   22.32600       -5.7012489E-18
   22.48750       -5.7095588E-18
   22.64900       -5.7241415E-18
   22.81050       -5.7421356E-18
   22.97200       -5.7601119E-18
   23.13350       -5.7749139E-18
   23.29500       -5.7844116E-18
   23.45650       -5.7879941E-18
   23.61800       -5.7866739E-18
   23.77950       -5.7827866E-18
   23.94100       -5.7793620E-18
   24.10250       -5.7793372E-18
   24.26400       -5.7847958E-18
   24.42550       -5.7964400E-18
   24.58700       -5.8134043E-18
   24.74850       -5.8334514E-18
   24.91000       -5.8535031E-18
   25.07150       -5.8703656E-18
   25.23300       -5.8814820E-18
   25.39450       -5.8855369E-18
   25.55600       -5.8827625E-18
   25.71750       -5.8748795E-18
   25.87900       -5.8646857E-18
   26.04050       -5.8553882E-18
   26.20200       -5.8498457E-18
   26.36350       -5.8499127E-18
   26.52500       -5.8560388E-18
   26.68650       -5.8672144E-18
   26.84800       -5.8812703E-18
   27.00950       -5.8954386E-18
   27.17100       -5.9070357E-18
   27.33250       -5.9140974E-18
   27.49400       -5.9158241E-18
   27.65550       -5.9127325E-18
   27.81700       -5.9064906E-18
   27.97850       -5.8994786E-18
   28.14000       -5.8941830E-18
   28.30150       -5.8925791E-18
   28.46300       -5.8956541E-18
   28.62450       -5.9031873E-18
   28.78600       -5.9138418E-18
   28.94750       -5.9255360E-18
   29.10900       -5.9359928E-18
   29.27050       -5.9433171E-18
   29.43200       -5.9464629E-18
   29.59350       -5.9454756E-18
   29.75500       -5.9414605E-18
   29.91650       -5.9362997E-18
   30.07800       -5.9321911E-18
   30.23950       -5.9311174E-18
   30.40100       -5.9343802E-18
   30.56250       -5.9423046E-18
   30.72400       -5.9541834E-18
   30.88550       -5.9684737E-18
   31.04700       -5.9831988E-18
   31.20850       -5.9964329E-18
   31.37000       -6.0067623E-18
   31.53150       -6.0135849E-18
   31.69300       -6.0171930E-18
   31.85450       -6.0186265E-18
   32.01600       -6.0193495E-18
   32.17750       -6.0208438E-18
   32.33900       -6.0242274E-18
   32.50050       -6.0299816E-18
   32.66200       -6.0378597E-18
   32.82350       -6.0469831E-18
   32.98500       -6.0561024E-18
   33.14650       -6.0639614E-18
   33.30800       -6.0696553E-18
   33.46950       -6.0728970E-18
   33.63100       -6.0741134E-18
   33.79250       -6.0743388E-18
   33.95400       -6.0749422E-18
   34.11550       -6.0772596E-18
   34.27700       -6.0822359E-18
   34.43850       -6.0901714E-18
   34.60000       -6.1006320E-18
   34.76150       -6.1125434E-18
   34.92300       -6.1244374E-18
   35.08450       -6.1347916E-18
   35.24600       -6.1423802E-18
   35.40750       -6.1465554E-18
   35.56900       -6.1473912E-18
   35.73050       -6.1456525E-18
   35.89200       -6.1425874E-18
   36.05350       -6.1396029E-18
   36.21500       -6.1379002E-18
   36.37650       -6.1381690E-18
   36.53800       -6.1404293E-18
   36.69950       -6.1440540E-18
   36.86100       -6.1479678E-18
   37.02250       -6.1509580E-18
   37.18400       -6.1520226E-18
   37.34550       -6.1506615E-18
   37.50700       -6.1470447E-18
   37.66850       -6.1420216E-18
   37.83000       -6.1369572E-18
   37.99150       -6.1334338E-18
   38.15300       -6.1328842E-18
   38.31450       -6.1362355E-18
   38.47600       -6.1436619E-18
   38.63750       -6.1545141E-18
   38.79900       -6.1674495E-18
   38.96050       -6.1807328E-18
   39.12200       -6.1926347E-18
   39.28350       -6.2018247E-18
   39.44500       -6.2076646E-18
   39.60650       -6.2103314E-18
   39.76800       -6.2107491E-18
   39.92950       -6.2103521E-18
   40.09100       -6.2107309E-18
   40.25250       -6.2132468E-18
   40.41400       -6.2186946E-18
   40.57550       -6.2271033E-18
   40.73700       -6.2377177E-18
   40.89850       -6.2491845E-18
   41.06000       -6.2598919E-18
   41.22150       -6.2683871E-18
   41.38300       -6.2737522E-18
   41.54450       -6.2758524E-18
   41.70600       -6.2753797E-18
   41.86750       -6.2736926E-18
   42.02900       -6.2724878E-18
   42.19050       -6.2733928E-18
   42.35200       -6.2775688E-18
   42.51350       -6.2854134E-18
   42.67500       -6.2964368E-18
   42.83650       -6.3093408E-18
   42.99800       -6.3222907E-18
   43.15950       -6.3333266E-18
   43.32100       -6.3408196E-18
   43.48250       -6.3438661E-18
   43.64400       -6.3425124E-18
   43.80550       -6.3377574E-18
   43.96700       -6.3313215E-18
   44.12850       -6.3252500E-18
   44.29000       -6.3214441E-18
   44.45150       -6.3212381E-18
   44.61300       -6.3251098E-18
   44.77450       -6.3325970E-18
   44.93600       -6.3424260E-18
   45.09750       -6.3528220E-18
   45.25900       -6.3619358E-18
   45.42050       -6.3682956E-18
   45.58200       -6.3711647E-18
   45.74350       -6.3707292E-18
   45.90500       -6.3680561E-18
   46.06650       -6.3648260E-18
   46.22800       -6.3629119E-18
   46.38950       -6.3639099E-18
   46.55100       -6.3687394E-18
   46.71250       -6.3774111E-18
   46.87400       -6.3890198E-18
   47.03550       -6.4019470E-18
   47.19700       -6.4142290E-18
   47.35850       -6.4240071E-18
   47.52000       -6.4299545E-18
   47.68150       -6.4315861E-18
   47.84300       -6.4293858E-18
   48.00450       -6.4247064E-18
   48.16600       -6.4194629E-18
   48.32750       -6.4156898E-18
   48.48900       -6.4150665E-18
   48.65050       -6.4185328E-18
   48.81200       -6.4260837E-18
   48.97350       -6.4367961E-18
   49.13500       -6.4490715E-18
   49.29650       -6.4610250E-18
   49.45800       -6.4709252E-18
   49.61950       -6.4775860E-18
   49.78100       -6.4806230E-18
   49.94250       -6.4805200E-18
   50.10400       -6.4784943E-18
   50.26550       -6.4761852E-18
   50.42700       -6.4752406E-18
   50.58850       -6.4768982E-18
   50.75000       -6.4816644E-18
   50.91150       -6.4891831E-18
   51.07300       -6.4983239E-18
   51.23450       -6.5074663E-18
   51.39600       -6.5149121E-18
   51.55750       -6.5193082E-18
   51.71900       -6.5199836E-18
   51.88050       -6.5171224E-18
   52.04200       -6.5117362E-18
   52.20350       -6.5054504E-18
   52.36500       -6.5001486E-18
   52.52650       -6.4975558E-18
   52.68800       -6.4988570E-18
   52.84950       -6.5044289E-18
   53.01100       -6.5137619E-18
   53.17250       -6.5255927E-18
   53.33400       -6.5382130E-18
   53.49550       -6.5498824E-18
   53.65700       -6.5592325E-18
   53.81850       -6.5655666E-18
   53.98000       -6.5689804E-18
   54.14150       -6.5702898E-18
   54.30300       -6.5707919E-18
   54.46450       -6.5719231E-18
   54.62600       -6.5749022E-18
   54.78750       -6.5804290E-18
   54.94900       -6.5885122E-18
   55.11050       -6.5984636E-18
   55.27200       -6.6090623E-18
   55.43350       -6.6188507E-18
   55.59500       -6.6265021E-18
   55.75650       -6.6311476E-18
   55.91800       -6.6325984E-18
   56.07950       -6.6313895E-18
   56.24100       -6.6286478E-18
   56.40250       -6.6258242E-18
   56.56400       -6.6243618E-18
   56.72550       -6.6253813E-18
   56.88700       -6.6294535E-18
   57.04850       -6.6364982E-18
   57.21000       -6.6458263E-18
   57.37150       -6.6563108E-18
   57.53300       -6.6666431E-18
   57.69450       -6.6756263E-18
   57.85600       -6.6824257E-18
   58.01750       -6.6867312E-18
   58.17900       -6.6887760E-18
   58.34050       -6.6892256E-18
   58.50200       -6.6889654E-18
   58.66350       -6.6888558E-18
   58.82500       -6.6895250E-18
   58.98650       -6.6912410E-18
   59.14800       -6.6938942E-18
   59.30950       -6.6970701E-18
   59.47100       -6.7001919E-18
   59.63250       -6.7026850E-18
   59.79400       -6.7041400E-18
   59.95550       -6.7044209E-18
   60.11700       -6.7037136E-18
   60.27850       -6.7024820E-18
   60.44000       -6.7013549E-18
   60.60150       -6.7009649E-18
   60.76300       -6.7017909E-18
   60.92450       -6.7040453E-18
   61.08600       -6.7076469E-18
   61.24750       -6.7122704E-18
   61.40900       -6.7174548E-18
   61.57050       -6.7227347E-18
   61.73200       -6.7277457E-18
   61.89350       -6.7322931E-18
   62.05500       -6.7363653E-18
   62.21650       -6.7401054E-18
   62.37800       -6.7437442E-18
   62.53950       -6.7475174E-18
   62.70100       -6.7515805E-18
   62.86250       -6.7559484E-18
   63.02400       -6.7604806E-18
   63.18550       -6.7649258E-18
   63.34700       -6.7690125E-18
   63.50850       -6.7725603E-18
   63.67000       -6.7755721E-18
   63.83150       -6.7782687E-18
   63.99300       -6.7810596E-18
   64.15450       -6.7844494E-18
   64.31600       -6.7889149E-18
   64.47750       -6.7947879E-18
   64.63900       -6.8021626E-18
   64.80050       -6.8108575E-18
   64.96200       -6.8204255E-18
   65.12350       -6.8302226E-18
   65.28500       -6.8395222E-18
   65.44650       -6.8476592E-18
   65.60800       -6.8541745E-18
   65.76950       -6.8589184E-18
   65.93100       -6.8620832E-18
   66.09250       -6.8641478E-18
   66.25400       -6.8657509E-18
   66.41550       -6.8675239E-18
   66.57700       -6.8699356E-18
   66.73850       -6.8731835E-18
   66.90000       -6.8771614E-18
   67.06150       -6.8814958E-18
   67.22300       -6.8856446E-18
   67.38450       -6.8890323E-18
   67.54600       -6.8912007E-18
   67.70750       -6.8919390E-18
   67.86900       -6.8913691E-18
   68.03050       -6.8899500E-18
   68.19200       -6.8883945E-18
   68.35350       -6.8875128E-18
   68.51500       -6.8880140E-18
   68.67650       -6.8903239E-18
   68.83800       -6.8944718E-18
   68.99950       -6.9000694E-18
   69.16100       -6.9063923E-18
   69.32250       -6.9125370E-18
   69.48400       -6.9176151E-18
   69.64550       -6.9209445E-18
   69.80700       -6.9222055E-18
   69.96850       -6.9215219E-18
   70.13000       -6.9194539E-18
   70.29150       -6.9168971E-18
   70.45300       -6.9148916E-18
   70.61450       -6.9143928E-18
   70.77600       -6.9160513E-18
   70.93750       -6.9200652E-18
   71.09900       -6.9261396E-18
   71.26050       -6.9335718E-18
   71.42200       -6.9414284E-18
   71.58350       -6.9487729E-18
   71.74500       -6.9548808E-18
   71.90650       -6.9594072E-18
   72.06800       -6.9624586E-18
   72.22950       -6.9645704E-18
   72.39100       -6.9665772E-18
   72.55250       -6.9694069E-18
   72.71400       -6.9738415E-18
   72.87550       -6.9802877E-18
   73.03700       -6.9886331E-18
   73.19850       -6.9982176E-18
   73.36000       -7.0079536E-18
   73.52150       -7.0165480E-18
   73.68300       -7.0227890E-18
   73.84450       -7.0258174E-18
   74.00600       -7.0253235E-18
   74.16750       -7.0216178E-18
   74.32900       -7.0155810E-18
   74.49050       -7.0084887E-18
   74.65200       -7.0017571E-18
   74.81350       -6.9966592E-18
   74.97500       -6.9940635E-18
   75.13650       -6.9942612E-18
   75.29800       -6.9969281E-18
   75.45950       -7.0012319E-18
   75.62100       -7.0060643E-18
   75.78250       -7.0103433E-18
   75.94400       -7.0133038E-18
   76.10550       -7.0146934E-18
   76.26700       -7.0148390E-18
   76.42850       -7.0145644E-18
   76.59000       -7.0149763E-18
   76.75150       -7.0171948E-18
   76.91300       -7.0220595E-18
   77.07450       -7.0299020E-18
   77.23600       -7.0404187E-18
   77.39750       -7.0526916E-18
   77.55900       -7.0653549E-18
   77.72050       -7.0768817E-18
   77.88200       -7.0859286E-18
   78.04350       -7.0916535E-18
   78.20500       -7.0939324E-18
   78.36650       -7.0934021E-18
   78.52800       -7.0913358E-18
   78.68950       -7.0893688E-18
   78.85100       -7.0891504E-18
   79.01250       -7.0919893E-18
   79.17400       -7.0985803E-18
   79.33550       -7.1088522E-18
   79.49700       -7.1219870E-18
   79.65850       -7.1365835E-18
   79.82000       -7.1509541E-18
   79.98150       -7.1634858E-18
   80.14300       -7.1729835E-18
   80.30450       -7.1789186E-18
   80.46600       -7.1815151E-18
   80.62750       -7.1816607E-18
   80.78900       -7.1806598E-18
   80.95050       -7.1799021E-18
   81.11200       -7.1805225E-18
   81.27350       -7.1831446E-18
   81.43500       -7.1877512E-18
   81.59650       -7.1937094E-18
   81.75800       -7.1999405E-18
   81.91950       -7.2051882E-18
   82.08100       -7.2083397E-18
   82.24250       -7.2087037E-18
   82.40400       -7.2062081E-18
   82.56550       -7.2014328E-18
   82.72700       -7.1954961E-18
   82.88850       -7.1897894E-18
   83.05000       -7.1856526E-18
   83.21150       -7.1840603E-18
   83.37300       -7.1853987E-18
   83.53450       -7.1893948E-18
   83.69600       -7.1951942E-18
   83.85750       -7.2015734E-18
   84.01900       -7.2072181E-18
   84.18050       -7.2110198E-18
   84.34200       -7.2123118E-18
   84.50350       -7.2110074E-18
   84.66500       -7.2075977E-18
   84.82650       -7.2030201E-18
   84.98800       -7.1984160E-18
   85.14950       -7.1948517E-18
   85.31100       -7.1930625E-18
   85.47250       -7.1932925E-18
   85.63400       -7.1952761E-18
   85.79550       -7.1983449E-18
   85.95700       -7.2016445E-18
   86.11850       -7.2043717E-18
   86.28000       -7.2059971E-18
   86.44150       -7.2064066E-18
   86.60300       -7.2059285E-18
   86.76450       -7.2052667E-18
   86.92600       -7.2053329E-18
   87.08750       -7.2070228E-18
   87.24900       -7.2109974E-18
   87.41050       -7.2175041E-18
   87.57200       -7.2263011E-18
   87.73350       -7.2366971E-18
   87.89500       -7.2477061E-18
   88.05650       -7.2582708E-18
   88.21800       -7.2674939E-18
   88.37950       -7.2748186E-18
   88.54100       -7.2801175E-18
   88.70250       -7.2836785E-18
   88.86400       -7.2860997E-18
   89.02550       -7.2881271E-18
   89.18700       -7.2904721E-18
   89.34850       -7.2936593E-18
   89.51000       -7.2979159E-18
   89.67150       -7.3031520E-18
   89.83300       -7.3090084E-18
   89.99450       -7.3149922E-18
   90.15600       -7.3206270E-18
   90.31750       -7.3256058E-18
   90.47900       -7.3298732E-18
   90.64050       -7.3336319E-18
   90.80200       -7.3372633E-18
   90.96350       -7.3411982E-18
   91.12500       -7.3457816E-18
   91.28650       -7.3511665E-18
   91.44800       -7.3572637E-18
   91.60950       -7.3637636E-18
   91.77100       -7.3702099E-18
   91.93250       -7.3761068E-18
   92.09400       -7.3810492E-18
   92.25550       -7.3848220E-18
   92.41700       -7.3874665E-18
   92.57850       -7.3892615E-18
   92.74000       -7.3906520E-18
   92.90150       -7.3921111E-18
   93.06300       -7.3939979E-18
   93.22450       -7.3964356E-18
   93.38600       -7.3992762E-18
   93.54750       -7.4021374E-18
   93.70900       -7.4045130E-18
   93.87050       -7.4059259E-18
   94.03200       -7.4060681E-18
   94.19350       -7.4049109E-18
   94.35500       -7.4027379E-18
   94.51650       -7.4001091E-18
   94.67800       -7.3977608E-18
   94.83950       -7.3964414E-18
   95.00100       -7.3967450E-18
   95.16250       -7.3989527E-18
   95.32400       -7.4029464E-18
   95.48550       -7.4082138E-18
   95.64700       -7.4139570E-18
   95.80850       -7.4192790E-18
   95.97000       -7.4233901E-18
   96.13150       -7.4257972E-18
   96.29300       -7.4264135E-18
   96.45450       -7.4255681E-18
   96.61600       -7.4239212E-18
   96.77750       -7.4223057E-18
   96.93900       -7.4215323E-18
   97.10050       -7.4221957E-18
   97.26200       -7.4245374E-18
   97.42350       -7.4283822E-18
   97.58500       -7.4331740E-18
   97.74650       -7.4381181E-18
   97.90800       -7.4423797E-18
   98.06950       -7.4453104E-18
   98.23100       -7.4466240E-18
   98.39250       -7.4464825E-18
   98.55400       -7.4454585E-18
   98.71550       -7.4444005E-18
   98.87700       -7.4442210E-18
   99.03850       -7.4456727E-18
   99.20000       -7.4491618E-18
   99.36150       -7.4546435E-18
   99.52300       -7.4616133E-18
   99.68450       -7.4692101E-18
   99.84600       -7.4764050E-18
   100.0075       -7.4822316E-18
   100.1690       -7.4860292E-18
   100.3305       -7.4876033E-18
   100.4920       -7.4872973E-18
   100.6535       -7.4859167E-18
   100.8150       -7.4845477E-18
   100.9765       -7.4843021E-18
   101.1380       -7.4860573E-18
   101.2995       -7.4902594E-18
   101.4610       -7.4968181E-18
   101.6225       -7.5051371E-18
   101.7840       -7.5142477E-18
   101.9455       -7.5230232E-18
   102.1070       -7.5304323E-18
   102.2685       -7.5357783E-18
   102.4300       -7.5388579E-18
   102.5915       -7.5400127E-18
   102.7530       -7.5400449E-18
   102.9145       -7.5400209E-18
   103.0760       -7.5409937E-18
   103.2375       -7.5437325E-18
   103.3990       -7.5485202E-18
   103.5605       -7.5550649E-18
   103.7220       -7.5625591E-18
   103.8835       -7.5698607E-18
   104.0450       -7.5757469E-18
   104.2065       -7.5791995E-18
   104.3680       -7.5796512E-18
   104.5295       -7.5771365E-18
   104.6910       -7.5723174E-18
   104.8525       -7.5663741E-18
   105.0140       -7.5607691E-18
   105.1755       -7.5569393E-18
   105.3370       -7.5559864E-18
   105.4985       -7.5584456E-18
   105.6600       -7.5641763E-18
   105.8215       -7.5724208E-18
   105.9830       -7.5819888E-18
   106.1445       -7.5915394E-18
   106.3060       -7.5998724E-18
   106.4675       -7.6061830E-18
   106.6290       -7.6102171E-18
   106.7905       -7.6122992E-18
   106.9520       -7.6132339E-18
   107.1135       -7.6141041E-18
   107.2750       -7.6159933E-18
   107.4365       -7.6197239E-18
   107.5980       -7.6256383E-18
   107.7595       -7.6335147E-18
   107.9210       -7.6426079E-18
   108.0825       -7.6518285E-18
   108.2440       -7.6599894E-18
   108.4055       -7.6660775E-18
   108.5670       -7.6694681E-18
   108.7285       -7.6700521E-18
   108.8900       -7.6682480E-18
   109.0515       -7.6649029E-18
   109.2130       -7.6611136E-18
   109.3745       -7.6579918E-18
   109.5360       -7.6564383E-18
   109.6975       -7.6569562E-18
   109.8590       -7.6595618E-18
   110.0205       -7.6638094E-18
   110.1820       -7.6689213E-18
   110.3435       -7.6739936E-18
   110.5050       -7.6782164E-18
   110.6665       -7.6810569E-18
   110.8280       -7.6823547E-18
   110.9895       -7.6823283E-18
   111.1510       -7.6814829E-18
   111.3125       -7.6804671E-18
   111.4740       -7.6798955E-18
   111.6355       -7.6801917E-18
   111.7970       -7.6814746E-18
   111.9585       -7.6835219E-18
   112.1200       -7.6858215E-18
   112.2815       -7.6877091E-18
   112.4430       -7.6885520E-18
   112.6045       -7.6879349E-18
   112.7660       -7.6857958E-18
   112.9275       -7.6824739E-18
   113.0890       -7.6786539E-18
   113.2505       -7.6752178E-18
   113.4120       -7.6730622E-18
   113.5735       -7.6729025E-18
   113.7350       -7.6751235E-18
   113.8965       -7.6796920E-18
   114.0580       -7.6861680E-18
   114.2195       -7.6937855E-18
   114.3810       -7.7016148E-18
   114.5425       -7.7087583E-18
   114.7040       -7.7145403E-18
   114.8655       -7.7186440E-18
   115.0270       -7.7211561E-18
   115.1885       -7.7225160E-18
   115.3500       -7.7233730E-18
   115.5115       -7.7244136E-18
   115.6730       -7.7261837E-18
   115.8345       -7.7289755E-18
   115.9960       -7.7327764E-18
   116.1575       -7.7373068E-18
   116.3190       -7.7421103E-18
   116.4805       -7.7466904E-18
   116.6420       -7.7506484E-18