  -30.00000       -3.0912682E-18
  -29.83850       -3.1068455E-18
  -29.67700       -3.1348979E-18
  -29.51550       -3.1702826E-18
  -29.35400       -3.2070084E-18
  -29.19250       -3.2396179E-18
  -29.03100       -3.2644238E-18
  -28.86950       -3.2802931E-18
  -28.70800       -3.2887973E-18
  -28.54650       -3.2936930E-18
  -28.38500       -3.2998737E-18
  -28.22350       -3.3120504E-18
  -28.06200       -3.3334905E-18
  -27.90050       -3.3651337E-18
  -27.73900       -3.4052993E-18
  -27.57750       -3.4500539E-18
  -27.41600       -3.4941499E-18
  -27.25450       -3.5323015E-18
  -27.09300       -3.5604786E-18
  -26.93150       -3.5769010E-18
  -26.77000       -3.5824878E-18
  -26.60850       -3.5806469E-18
  -26.44700       -3.5764593E-18
  -26.28550       -3.5754555E-18
  -26.12400       -3.5822889E-18
  -25.96250       -3.5996253E-18
  -25.80100       -3.6275203E-18
  -25.63950       -3.6634394E-18
  -25.47800       -3.7028997E-18
  -25.31650       -3.7405856E-18
  -25.15500       -3.7716508E-18
  -24.99350       -3.7928932E-18
  -24.83200       -3.8035109E-18
  -24.67050       -3.8052678E-18
  -24.50900       -3.8020178E-18
  -24.34750       -3.7987281E-18
  -24.18600       -3.8002307E-18
  -24.02450       -3.8100245E-18
  -23.86300       -3.8294169E-18
  -23.70150       -3.8572197E-18
  -23.54000       -3.8900658E-18
  -23.37850       -3.9232680E-18
  -23.21700       -3.9520018E-18
  -23.05550       -3.9725113E-18
  -22.89400       -3.9830500E-18
  -22.73250       -3.9843098E-18
  -22.57100       -3.9792487E-18
  -22.40950       -3.9723529E-18
  -22.24800       -3.9685255E-18
  -22.08650       -3.9718690E-18
  -21.92500       -3.9846787E-18
  -21.76350       -4.0068761E-18
  -21.60200       -4.0360417E-18
  -21.44050       -4.0680201E-18
  -21.27900       -4.0979553E-18
  -21.11750       -4.1214907E-18
  -20.95600       -4.1358443E-18
  -20.79450       -4.1404832E-18
  -20.63300       -4.1372394E-18
  -20.47150       -4.1298423E-18
  -20.31000       -4.1229862E-18
  -20.14850       -4.1211677E-18
  -19.98700       -4.1275804E-18
  -19.82550       -4.1433477E-18
  -19.66400       -4.1672743E-18
  -19.50250       -4.1961785E-18
  -19.34100       -4.2257146E-18
  -19.17950       -4.2514846E-18
  -19.01800       -4.2701466E-18
  -18.85650       -4.2802477E-18
  -18.69500       -4.2825717E-18
  -18.53350       -4.2799148E-18
  -18.37200       -4.2763480E-18
  -18.21050       -4.2761565E-18
  -18.04900       -4.2827239E-18
  -17.88750       -4.2976454E-18
  -17.72600       -4.3202907E-18
  -17.56450       -4.3479310E-18
  -17.40300       -4.3763988E-18
  -17.24150       -4.4011137E-18
  -17.08000       -4.4182198E-18
  -16.91850       -4.4255511E-18
  -16.75700       -4.4231796E-18
  -16.59550       -4.4134126E-18
  -16.43400       -4.4002328E-18
  -16.27250       -4.3883309E-18
  -16.11100       -4.3819641E-18
  -15.94950       -4.3839340E-18
  -15.78800       -4.3949314E-18
  -15.62650       -4.4134201E-18
  -15.46500       -4.4360695E-18
  -15.30350       -4.4586429E-18
  -15.14200       -4.4770993E-18
  -14.98050       -4.4886389E-18
  -14.81900       -4.4924249E-18
  -14.65750       -4.4897986E-18
  -14.49600       -4.4839339E-18
  -14.33450       -4.4790134E-18
  -14.17300       -4.4791388E-18
  -14.01150       -4.4872468E-18
  -13.85000       -4.5043107E-18
  -13.68850       -4.5290306E-18
  -13.52700       -4.5581010E-18
  -13.36550       -4.5869833E-18
  -13.20400       -4.6110046E-18
  -13.04250       -4.6265043E-18
  -12.88100       -4.6317395E-18
  -12.71950       -4.6273294E-18
  -12.55800       -4.6161199E-18
  -12.39650       -4.6024966E-18
  -12.23500       -4.5913243E-18
  -12.07350       -4.5867591E-18
  -11.91200       -4.5912428E-18
  -11.75050       -4.6049198E-18
  -11.58900       -4.6256258E-18
  -11.42750       -4.6494586E-18
  -11.26600       -4.6717747E-18
  -11.10450       -4.6883782E-18
  -10.94300       -4.6965880E-18
  -10.78150       -4.6959225E-18
  -10.62000       -4.6882256E-18
  -10.45850       -4.6772010E-18
  -10.29700       -4.6674688E-18
  -10.13550       -4.6633829E-18
  -9.974000       -4.6678993E-18
  -9.812500       -4.6817873E-18
  -9.651000       -4.7033800E-18
  -9.489500       -4.7289357E-18
  -9.328000       -4.7535262E-18
  -9.166500       -4.7722316E-18
  -9.005000       -4.7813558E-18
  -8.843500       -4.7793495E-18
  -8.682000       -4.7672164E-18
  -8.520500       -4.7482959E-18
  -8.359000       -4.7274729E-18
  -8.197500       -4.7100086E-18
  -8.036000       -4.7002776E-18
  -7.874500       -4.7007251E-18
  -7.713000       -4.7112965E-18
  -7.551500       -4.7294875E-18
  -7.390000       -4.7509875E-18
  -7.228500       -4.7707720E-18
  -7.067000       -4.7843676E-18
  -6.905500       -4.7889721E-18
  -6.744000       -4.7841624E-18
  -6.582500       -4.7720037E-18
  -6.421000       -4.7565363E-18
  -6.259500       -4.7427683E-18
  -6.098000       -4.7354208E-18
  -5.936500       -4.7377398E-18
  -5.775000       -4.7506724E-18
  -5.613500       -4.7726096E-18
  -5.452000       -4.7997672E-18
  -5.290500       -4.8271014E-18
  -5.129000       -4.8495469E-18
  -4.967500       -4.8632591E-18
  -4.806000       -4.8665674E-18
  -4.644500       -4.8603909E-18
  -4.483000       -4.8480245E-18
  -4.321500       -4.8343367E-18
  -4.160000       -4.8245810E-18
  -3.998500       -4.8231057E-18
  -3.837000       -4.8322849E-18
  -3.675500       -4.8519329E-18
  -3.514000       -4.8793424E-18
  -3.352500       -4.9099427E-18
  -3.191000       -4.9384031E-18
  -3.029500       -4.9599201E-18
  -2.868000       -4.9713617E-18
  -2.706500       -4.9719978E-18
  -2.545000       -4.9636333E-18
  -2.383500       -4.9501201E-18
  -2.222000       -4.9363748E-18
  -2.060500       -4.9271443E-18
  -1.899000       -4.9258262E-18
  -1.737500       -4.9336360E-18
  -1.576000       -4.9493310E-18
  -1.414500       -4.9695440E-18
  -1.253000       -4.9896602E-18
  -1.091500       -5.0050011E-18
 -0.9300000       -5.0120205E-18
 -0.7685000       -5.0092238E-18
 -0.6070000       -4.9975680E-18
 -0.4455000       -4.9802576E-18
 -0.2840000       -4.9619823E-18
 -0.1225000       -4.9477941E-18
  3.9000001E-02   -4.9418934E-18
  0.2005000       -4.9466298E-18
  0.3620000       -4.9619500E-18
  0.5235000       -4.9854316E-18
  0.6850000       -5.0128895E-18
  0.8465000       -5.0393965E-18
   1.008000       -5.0604689E-18
   1.169500       -5.0731256E-18
   1.331000       -5.0765576E-18
   1.492500       -5.0722525E-18
   1.654000       -5.0635506E-18
   1.815500       -5.0547564E-18
   1.977000       -5.0500266E-18
   2.138500       -5.0523278E-18
   2.300000       -5.0627056E-18
   2.461500       -5.0800561E-18
   2.623000       -5.1014350E-18
   2.784500       -5.1228238E-18
   2.946000       -5.1401648E-18
   3.107500       -5.1503900E-18
   3.269000       -5.1522028E-18
   3.430500       -5.1464088E-18
   3.592000       -5.1357175E-18
   3.753500       -5.1240712E-18
   3.915000       -5.1156679E-18
   4.076500       -5.1139246E-18
   4.238000       -5.1206446E-18
   4.399500       -5.1355905E-18
   4.561000       -5.1565600E-18
   4.722500       -5.1799402E-18
   4.884000       -5.2015971E-18
   5.045500       -5.2178743E-18
   5.207000       -5.2264555E-18
   5.368500       -5.2268881E-18
   5.530000       -5.2206363E-18
   5.691500       -5.2106671E-18
   5.853000       -5.2006731E-18
   6.014500       -5.1941289E-18
   6.176000       -5.1934254E-18
   6.337500       -5.1992996E-18
   6.499000       -5.2106944E-18
   6.660500       -5.2250844E-18
   6.822000       -5.2391742E-18
   6.983500       -5.2497816E-18
   7.145000       -5.2546814E-18
   7.306500       -5.2531962E-18
   7.468000       -5.2463893E-18
   7.629500       -5.2368118E-18
   7.791000       -5.2278733E-18
   7.952500       -5.2229929E-18
   8.114000       -5.2247399E-18
   8.275500       -5.2341855E-18
   8.437000       -5.2506232E-18
   8.598500       -5.2717316E-18
   8.760000       -5.2941470E-18
   8.921500       -5.3142851E-18
   9.083000       -5.3292207E-18
   9.244500       -5.3373858E-18
   9.406000       -5.3389277E-18
   9.567500       -5.3356264E-18
   9.729000       -5.3304139E-18
   9.890500       -5.3266080E-18
   10.05200       -5.3270655E-18
   10.21350       -5.3334604E-18
   10.37500       -5.3458669E-18
   10.53650       -5.3627525E-18
   10.69800       -5.3813823E-18
   10.85950       -5.3985339E-18
   11.02100       -5.4113395E-18
   11.18250       -5.4180442E-18
   11.34400       -5.4184739E-18
   11.50550       -5.4141014E-18
   11.66700       -5.4076788E-18
   11.82850       -5.4025428E-18
   11.99000       -5.4017620E-18
   12.15150       -5.4073487E-18
   12.31300       -5.4197341E-18
   12.47450       -5.4376310E-18
   12.63600       -5.4583287E-18
   12.79750       -5.4783444E-18
   12.95900       -5.4942705E-18
   13.12050       -5.5036135E-18
   13.28200       -5.5054164E-18
   13.44350       -5.5005009E-18
   13.60500       -5.4912724E-18
   13.76650       -5.4811250E-18
   13.92800       -5.4735993E-18
   14.08950       -5.4715078E-18
   14.25100       -5.4762446E-18
   14.41250       -5.4874603E-18
   14.57400       -5.5031714E-18
   14.73550       -5.5202808E-18
   14.89700       -5.5353686E-18
   15.05850       -5.5455636E-18
   15.22000       -5.5492706E-18
   15.38150       -5.5465806E-18
   15.54300       -5.5392576E-18
   15.70450       -5.5303033E-18
   15.86600       -5.5231970E-18
   16.02750       -5.5210112E-18
   16.18900       -5.5256112E-18
   16.35050       -5.5371586E-18
   16.51200       -5.5540376E-18
   16.67350       -5.5732332E-18
   16.83500       -5.5910631E-18
   16.99650       -5.6040837E-18
   17.15800       -5.6099414E-18
   17.31950       -5.6079648E-18
   17.48100       -5.5993514E-18
   17.64250       -5.5869048E-18
   17.80400       -5.5743838E-18
   17.96550       -5.5656194E-18
   18.12700       -5.5636102E-18
   18.28850       -5.5698136E-18
   18.45000       -5.5838103E-18
   18.61150       -5.6034236E-18
   18.77300       -5.6252686E-18
   18.93450       -5.6455921E-18
   19.09600       -5.6611894E-18
   19.25750       -5.6701783E-18
   19.41900       -5.6724258E-18
   19.58050       -5.6695418E-18
   19.74200       -5.6644394E-18
   19.90350       -5.6605793E-18
   20.06500       -5.6610785E-18
   20.22650       -5.6679139E-18
   20.38800       -5.6813966E-18
   20.54950       -5.7000573E-18
   20.71100       -5.7209730E-18
   20.87250       -5.7404523E-18
   21.03400       -5.7549271E-18
   21.19550       -5.7618192E-18
   21.35700       -5.7601797E-18
   21.51850       -5.7509310E-18
   21.68000       -5.7366688E-18
   21.84150       -5.7210611E-18
   22.00300       -5.7080115E-18
   22.16450       -5.7007733E-18
   22.32600       -5.7012373E-18
   22.48750       -5.7095492E-18
   22.64900       -5.7241362E-18
   22.81050       -5.7421360E-18
   22.97200       -5.7601185E-18
   23.13350       -5.7749242E-18
   23.29500       -5.7844227E-18
   23.45650       -5.7880036E-18
   23.61800       -5.7866793E-18
   23.77950       -5.7827866E-18
   23.94100       -5.7793587E-18
   24.10250       -5.7793319E-18
   24.26400       -5.7847917E-18
   24.42550       -5.7964396E-18
   24.58700       -5.8134096E-18
   24.74850       -5.8334634E-18
   24.91000       -5.8535204E-18
   25.07150       -5.8703850E-18
   25.23300       -5.8815007E-18
   25.39450       -5.8855509E-18
   25.55600       -5.8827700E-18
   25.71750       -5.8748803E-18
   25.87900       -5.8646808E-18
   26.04050       -5.8553795E-18
   26.20200       -5.8498354E-18
   26.36350       -5.8499032E-18
   26.52500       -5.8560297E-18
   26.68650       -5.8672061E-18
   26.84800       -5.8812620E-18
   27.00950       -5.8954304E-18
   27.17100       -5.9070266E-18
   27.33250       -5.9140874E-18
   27.49400       -5.9158138E-18
   27.65550       -5.9127222E-18
   27.81700       -5.9064819E-18
   27.97850       -5.8994728E-18
   28.14000       -5.8941805E-18
   28.30150       -5.8925812E-18
   28.46300       -5.8956616E-18
   28.62450       -5.9031997E-18
   28.78600       -5.9138591E-18
   28.94750       -5.9255575E-18
   29.10900       -5.9360172E-18
   29.27050       -5.9433423E-18
   29.43200       -5.9464869E-18
   29.59350       -5.9454951E-18
   29.75500       -5.9414725E-18
   29.91650       -5.9363026E-18
   30.07800       -5.9321837E-18
   30.23950       -5.9311013E-18
   30.40100       -5.9343592E-18
   30.56250       -5.9422819E-18
   30.72400       -5.9541631E-18
   30.88550       -5.9684597E-18
   31.04700       -5.9831909E-18
   31.20850       -5.9964320E-18
   31.37000       -6.0067664E-18
   31.53150       -6.0135906E-18
   31.69300       -6.0171976E-18
   31.85450       -6.0186273E-18
   32.01600       -6.0193462E-18
   32.17750       -6.0208372E-18
   32.33900       -6.0242191E-18
   32.50050       -6.0299754E-18
   32.66200       -6.0378572E-18
   32.82350       -6.0469848E-18
   32.98500       -6.0561086E-18
   33.14650       -6.0639697E-18
   33.30800       -6.0696632E-18
   33.46950       -6.0729020E-18
   33.63100       -6.0741134E-18
   33.79250       -6.0743338E-18
   33.95400       -6.0749327E-18
   34.11550       -6.0772472E-18
   34.27700       -6.0822226E-18
   34.43850       -6.0901599E-18
   34.60000       -6.1006241E-18
   34.76150       -6.1125401E-18
   34.92300       -6.1244386E-18
   35.08450       -6.1347958E-18
   35.24600       -6.1423847E-18
   35.40750       -6.1465587E-18
   35.56900       -6.1473921E-18
   35.73050       -6.1456496E-18
   35.89200       -6.1425824E-18
   36.05350       -6.1395975E-18
   36.21500       -6.1378969E-18
   36.37650       -6.1381702E-18
   36.53800       -6.1404359E-18
   36.69950       -6.1440664E-18
   36.86100       -6.1479839E-18
   37.02250       -6.1509750E-18
   37.18400       -6.1520371E-18
   37.34550       -6.1506694E-18
   37.50700       -6.1470447E-18
   37.66850       -6.1420133E-18
   37.83000       -6.1369423E-18
   37.99150       -6.1334164E-18
   38.15300       -6.1328684E-18
   38.31450       -6.1362239E-18
   38.47600       -6.1436565E-18
   38.63750       -6.1545149E-18
   38.79900       -6.1674533E-18
   38.96050       -6.1807353E-18
   39.12200       -6.1926310E-18
   39.28350       -6.2018119E-18
   39.44500       -6.2076418E-18
   39.60650       -6.2102983E-18
   39.76800       -6.2107086E-18
   39.92950       -6.2103070E-18
   40.09100       -6.2106855E-18
   40.25250       -6.2132030E-18
   40.41400       -6.2186541E-18
   40.57550       -6.2270649E-18
   40.73700       -6.2376813E-18
   40.89850       -6.2491485E-18
   41.06000       -6.2598560E-18
   41.22150       -6.2683511E-18
   41.38300       -6.2737170E-18
   41.54450       -6.2758193E-18
   41.70600       -6.2753507E-18
   41.86750       -6.2736682E-18
   42.02900       -6.2724701E-18
   42.19050       -6.2733820E-18
   42.35200       -6.2775638E-18
   42.51350       -6.2854134E-18
   42.67500       -6.2964397E-18
   42.83650       -6.3093445E-18
   42.99800       -6.3222945E-18
   43.15950       -6.3333286E-18
   43.32100       -6.3408196E-18
   43.48250       -6.3438640E-18
   43.64400       -6.3425083E-18
   43.80550       -6.3377511E-18
   43.96700       -6.3313132E-18
   44.12850       -6.3252384E-18
   44.29000       -6.3214280E-18
   44.45150       -6.3212154E-18
   44.61300       -6.3250796E-18
   44.77450       -6.3325581E-18
   44.93600       -6.3423772E-18
   45.09750       -6.3527636E-18
   45.25900       -6.3618705E-18
   45.42050       -6.3682261E-18
   45.58200       -6.3710952E-18
   45.74350       -6.3706638E-18
   45.90500       -6.3679958E-18
   46.06650       -6.3647706E-18
   46.22800       -6.3628594E-18
   46.38950       -6.3638582E-18
   46.55100       -6.3686856E-18
   46.71250       -6.3773545E-18
   46.87400       -6.3889611E-18
   47.03550       -6.4018866E-18
   47.19700       -6.4141711E-18
   47.35850       -6.4239549E-18
   47.52000       -6.4299111E-18
   47.68150       -6.4315530E-18
   47.84300       -6.4293631E-18
   48.00450       -6.4246899E-18
   48.16600       -6.4194481E-18
   48.32750       -6.4156720E-18
   48.48900       -6.4150417E-18
   48.65050       -6.4184980E-18
   48.81200       -6.4260386E-18
   48.97350       -6.4367436E-18
   49.13500       -6.4490144E-18
   49.29650       -6.4609659E-18
   49.45800       -6.4708664E-18
   49.61950       -6.4775281E-18
   49.78100       -6.4805655E-18
   49.94250       -6.4804613E-18
   50.10400       -6.4784318E-18
   50.26550       -6.4761161E-18
   50.42700       -6.4751640E-18
   50.58850       -6.4768130E-18
   50.75000       -6.4815726E-18
   50.91150       -6.4890880E-18
   51.07300       -6.4982279E-18
   51.23450       -6.5073736E-18
   51.39600       -6.5148245E-18
   51.55750       -6.5192267E-18
   51.71900       -6.5199091E-18
   51.88050       -6.5170554E-18
   52.04200       -6.5116770E-18
   52.20350       -6.5053987E-18
   52.36500       -6.5001040E-18
   52.52650       -6.4975186E-18
   52.68800       -6.4988268E-18
   52.84950       -6.5044049E-18
   53.01100       -6.5137433E-18
   53.17250       -6.5255778E-18
   53.33400       -6.5381993E-18
   53.49550       -6.5498671E-18
   53.65700       -6.5592126E-18
   53.81850       -6.5655393E-18
   53.98000       -6.5689440E-18
   54.14150       -6.5702439E-18
   54.30300       -6.5707357E-18
   54.46450       -6.5718565E-18
   54.62600       -6.5748248E-18
   54.78750       -6.5803401E-18
   54.94900       -6.5884117E-18
   55.11050       -6.5983511E-18
   55.27200       -6.6089373E-18
   55.43350       -6.6187163E-18
   55.59500       -6.6263598E-18
   55.75650       -6.6310007E-18
   55.91800       -6.6324504E-18
   56.07950       -6.6312423E-18
   56.24100       -6.6285035E-18
   56.40250       -6.6256836E-18
   56.56400       -6.6242245E-18
   56.72550       -6.6252465E-18
   56.88700       -6.6293195E-18
   57.04850       -6.6363642E-18
   57.21000       -6.6456944E-18
   57.37150       -6.6561826E-18
   57.53300       -6.6665211E-18
   57.69450       -6.6755122E-18
   57.85600       -6.6823215E-18
   58.01750       -6.6866365E-18
   58.17900       -6.6886896E-18
   58.34050       -6.6891457E-18
   58.50200       -6.6888885E-18
   58.66350       -6.6887801E-18
   58.82500       -6.6894485E-18
   58.98650       -6.6911624E-18
   59.14800       -6.6938139E-18
   59.30950       -6.6969891E-18
   59.47100       -6.7001113E-18
   59.63250       -6.7026073E-18
   59.79400       -6.7040656E-18
   59.95550       -6.7043497E-18
   60.11700       -6.7036421E-18
   60.27850       -6.7024071E-18
   60.44000       -6.7012730E-18
   60.60150       -6.7008735E-18
   60.76300       -6.7016887E-18
   60.92450       -6.7039337E-18
   61.08600       -6.7075282E-18
   61.24750       -6.7121472E-18
   61.40900       -6.7173319E-18
   61.57050       -6.7226143E-18
   61.73200       -6.7276291E-18
   61.89350       -6.7321782E-18
   62.05500       -6.7362475E-18
   62.21650       -6.7399793E-18
   62.37800       -6.7436044E-18
   62.53950       -6.7473594E-18
   62.70100       -6.7514031E-18
   62.86250       -6.7557524E-18
   63.02400       -6.7602692E-18
   63.18550       -6.7647033E-18
   63.34700       -6.7687826E-18
   63.50850       -6.7723250E-18
   63.67000       -6.7753313E-18
   63.83150       -6.7780205E-18
   63.99300       -6.7807998E-18
   64.15450       -6.7841743E-18
   64.31600       -6.7886225E-18
   64.47750       -6.7944789E-18
   64.63900       -6.8018412E-18
   64.80050       -6.8105316E-18
   64.96200       -6.8201029E-18
   65.12350       -6.8299104E-18
   65.28500       -6.8392261E-18
   65.44650       -6.8473817E-18
   65.60800       -6.8539152E-18
   65.76950       -6.8586743E-18
   65.93100       -6.8618503E-18
   66.09250       -6.8639224E-18
   66.25400       -6.8655304E-18
   66.41550       -6.8673068E-18
   66.57700       -6.8697226E-18
   66.73850       -6.8729775E-18
   66.90000       -6.8769645E-18
   67.06150       -6.8813085E-18
   67.22300       -6.8854647E-18
   67.38450       -6.8888553E-18
   67.54600       -6.8910204E-18
   67.70750       -6.8917496E-18
   67.86900       -6.8911635E-18
   68.03050       -6.8897222E-18
   68.19200       -6.8881414E-18
   68.35350       -6.8872328E-18
   68.51500       -6.8877071E-18
   68.67650       -6.8899931E-18
   68.83800       -6.8941207E-18
   68.99950       -6.8997033E-18
   69.16100       -6.9060168E-18
   69.32250       -6.9121569E-18
   69.48400       -6.9172334E-18
   69.64550       -6.9205648E-18
   69.80700       -6.9218288E-18
   69.96850       -6.9211480E-18
   70.13000       -6.9190833E-18
   70.29150       -6.9165294E-18
   70.45300       -6.9145276E-18
   70.61450       -6.9140342E-18
   70.77600       -6.9157006E-18
   70.93750       -6.9197248E-18
   71.09900       -6.9258133E-18
   71.26050       -6.9332616E-18
   71.42200       -6.9411347E-18
   71.58350       -6.9484950E-18
   71.74500       -6.9546161E-18
   71.90650       -6.9591540E-18
   72.06800       -6.9622154E-18
   72.22950       -6.9643347E-18
   72.39100       -6.9663472E-18
   72.55250       -6.9691803E-18
   72.71400       -6.9736173E-18
   72.87550       -6.9800627E-18
   73.03700       -6.9884056E-18
   73.19850       -6.9979860E-18
   73.36000       -7.0077162E-18
   73.52150       -7.0163031E-18
   73.68300       -7.0225359E-18
   73.84450       -7.0255551E-18
   74.00600       -7.0250497E-18
   74.16750       -7.0213316E-18
   74.32900       -7.0152791E-18
   74.49050       -7.0081695E-18
   74.65200       -7.0014180E-18
   74.81350       -6.9962986E-18
   74.97500       -6.9936814E-18
   75.13650       -6.9938592E-18
   75.29800       -6.9965095E-18
   75.45950       -7.0008001E-18
   75.62100       -7.0056234E-18
   75.78250       -7.0098958E-18
   75.94400       -7.0128505E-18
   76.10550       -7.0142327E-18
   76.26700       -7.0143708E-18
   76.42850       -7.0140871E-18
   76.59000       -7.0144916E-18
   76.75150       -7.0167051E-18
   76.91300       -7.0215698E-18
   77.07450       -7.0294172E-18
   77.23600       -7.0399456E-18
   77.39750       -7.0522358E-18
   77.55900       -7.0649207E-18
   77.72050       -7.0764698E-18
   77.88200       -7.0855348E-18
   78.04350       -7.0912755E-18
   78.20500       -7.0935643E-18
   78.36650       -7.0930398E-18
   78.52800       -7.0909760E-18
   78.68950       -7.0890131E-18
   78.85100       -7.0887989E-18
   79.01250       -7.0916427E-18
   79.17400       -7.0982362E-18
   79.33550       -7.1085089E-18
   79.49700       -7.1216380E-18
   79.65850       -7.1362228E-18
   79.82000       -7.1505744E-18
   79.98150       -7.1630797E-18
   80.14300       -7.1725460E-18
   80.30450       -7.1784471E-18
   80.46600       -7.1810097E-18
   80.62750       -7.1811246E-18
   80.78900       -7.1800981E-18
   80.95050       -7.1793197E-18
   81.11200       -7.1799261E-18
   81.27350       -7.1825375E-18
   81.43500       -7.1871383E-18
   81.59650       -7.1930923E-18
   81.75800       -7.1993201E-18
   81.91950       -7.2045669E-18
   82.08100       -7.2077168E-18
   82.24250       -7.2080808E-18
   82.40400       -7.2055869E-18
   82.56550       -7.2008165E-18
   82.72700       -7.1948881E-18
   82.88850       -7.1891963E-18
   83.05000       -7.1850786E-18
   83.21150       -7.1835078E-18
   83.37300       -7.1848685E-18
   83.53450       -7.1888836E-18
   83.69600       -7.1946962E-18
   83.85750       -7.2010812E-18
   84.01900       -7.2067234E-18
   84.18050       -7.2105160E-18
   84.34200       -7.2117949E-18
   84.50350       -7.2104755E-18
   84.66500       -7.2070518E-18
   84.82650       -7.2024601E-18
   84.98800       -7.1978453E-18
   85.14950       -7.1942702E-18
   85.31100       -7.1924678E-18
   85.47250       -7.1926820E-18
   85.63400       -7.1946449E-18
   85.79550       -7.1976914E-18
   85.95700       -7.2009671E-18
   86.11850       -7.2036728E-18
   86.28000       -7.2052825E-18
   86.44150       -7.2056828E-18
   86.60300       -7.2052039E-18
   86.76450       -7.2045504E-18
   86.92600       -7.2046282E-18
   87.08750       -7.2063330E-18
   87.24900       -7.2103208E-18
   87.41050       -7.2168382E-18
   87.57200       -7.2256410E-18
   87.73350       -7.2360387E-18
   87.89500       -7.2470476E-18
   88.05650       -7.2576124E-18
   88.21800       -7.2668371E-18
   88.37950       -7.2741651E-18
   88.54100       -7.2794715E-18
   88.70250       -7.2830424E-18
   88.86400       -7.2854751E-18
   89.02550       -7.2875158E-18
   89.18700       -7.2898757E-18
   89.34850       -7.2930786E-18
   89.51000       -7.2973518E-18
   89.67150       -7.3026036E-18
   89.83300       -7.3084782E-18
   89.99450       -7.3144811E-18
   90.15600       -7.3201357E-18
   90.31750       -7.3251335E-18
   90.47900       -7.3294208E-18
   90.64050       -7.3331960E-18
   90.80200       -7.3368414E-18
   90.96350       -7.3407879E-18
   91.12500       -7.3453787E-18
   91.28650       -7.3507670E-18
   91.44800       -7.3568633E-18
   91.60950       -7.3633583E-18
   91.77100       -7.3697930E-18
   91.93250       -7.3756742E-18
   92.09400       -7.3805959E-18
   92.25550       -7.3843472E-18
   92.41700       -7.3869669E-18
   92.57850       -7.3887379E-18
   92.74000       -7.3901044E-18
   92.90150       -7.3915437E-18
   93.06300       -7.3934123E-18
   93.22450       -7.3958392E-18
   93.38600       -7.3986756E-18
   93.54750       -7.4015368E-18
   93.70900       -7.4039183E-18
   93.87050       -7.4053402E-18
   94.03200       -7.4054966E-18
   94.19350       -7.4043551E-18
   94.35500       -7.4021986E-18
   94.51650       -7.3995880E-18
   94.67800       -7.3972587E-18
   94.83950       -7.3959625E-18
   95.00100       -7.3962900E-18
   95.16250       -7.3985234E-18
   95.32400       -7.4025419E-18
   95.48550       -7.4078309E-18
   95.64700       -7.4135905E-18
   95.80850       -7.4189192E-18
   95.97000       -7.4230270E-18
   96.13150       -7.4254209E-18
   96.29300       -7.4260156E-18
   96.45450       -7.4251429E-18
   96.61600       -7.4234662E-18
   96.77750       -7.4218210E-18
   96.93900       -7.4210194E-18
   97.10050       -7.4216580E-18
   97.26200       -7.4239791E-18
   97.42350       -7.4278048E-18
   97.58500       -7.4325809E-18
   97.74650       -7.4375118E-18
   97.90800       -7.4417643E-18
   98.06950       -7.4446917E-18
   98.23100       -7.4460110E-18
   98.39250       -7.4458861E-18
   98.55400       -7.4448910E-18
   98.71550       -7.4438728E-18
   98.87700       -7.4437404E-18
   99.03850       -7.4452418E-18
   99.20000       -7.4487796E-18
   99.36150       -7.4543052E-18
   99.52300       -7.4613139E-18
   99.68450       -7.4689421E-18
   99.84600       -7.4761609E-18
   100.0075       -7.4820091E-18
   100.1690       -7.4858241E-18
   100.3305       -7.4874147E-18
   100.4920       -7.4871227E-18
   100.6535       -7.4857538E-18
   100.8150       -7.4843930E-18
   100.9765       -7.4841482E-18
   101.1380       -7.4858960E-18
   101.2995       -7.4900807E-18
   101.4610       -7.4966146E-18
   101.6225       -7.5049022E-18
   101.7840       -7.5139755E-18
   101.9455       -7.5227130E-18
   102.1070       -7.5300873E-18
   102.2685       -7.5354028E-18
   102.4300       -7.5384584E-18
   102.5915       -7.5395966E-18
   102.7530       -7.5396198E-18
   102.9145       -7.5395916E-18
   103.0760       -7.5405644E-18
   103.2375       -7.5433065E-18
   103.3990       -7.5480967E-18
   103.5605       -7.5546455E-18
   103.7220       -7.5621455E-18
   103.8835       -7.5694529E-18
   104.0450       -7.5753473E-18
   104.2065       -7.5788116E-18
   104.3680       -7.5792781E-18
   104.5295       -7.5767784E-18
   104.6910       -7.5719749E-18
   104.8525       -7.5660474E-18
   105.0140       -7.5604548E-18
   105.1755       -7.5566340E-18
   105.3370       -7.5556861E-18
   105.4985       -7.5581461E-18
   105.6600       -7.5638752E-18
   105.8215       -7.5721180E-18
   105.9830       -7.5816852E-18
   106.1445       -7.5912358E-18
   106.3060       -7.5995705E-18
   106.4675       -7.6058844E-18
   106.6290       -7.6099202E-18
   106.7905       -7.6120030E-18
   106.9520       -7.6129369E-18
   107.1135       -7.6138038E-18
   107.2750       -7.6156889E-18
   107.4365       -7.6194137E-18
   107.5980       -7.6253231E-18
   107.7595       -7.6331921E-18
   107.9210       -7.6422787E-18
   108.0825       -7.6514910E-18
   108.2440       -7.6596420E-18
   108.4055       -7.6657168E-18
   108.5670       -7.6690909E-18
   108.7285       -7.6696550E-18
   108.8900       -7.6678278E-18
   109.0515       -7.6644595E-18
   109.2130       -7.6606454E-18
   109.3745       -7.6574996E-18
   109.5360       -7.6559222E-18
   109.6975       -7.6564168E-18
   109.8590       -7.6590018E-18
   110.0205       -7.6632295E-18
   110.1820       -7.6683249E-18
   110.3435       -7.6733864E-18
   110.5050       -7.6776026E-18
   110.6665       -7.6804415E-18
   110.8280       -7.6817426E-18
   110.9895       -7.6817244E-18
   111.1510       -7.6808931E-18
   111.3125       -7.6798964E-18
   111.4740       -7.6793479E-18
   111.6355       -7.6796705E-18
   111.7970       -7.6809800E-18
   111.9585       -7.6830554E-18
   112.1200       -7.6853822E-18
   112.2815       -7.6872963E-18
   112.4430       -7.6881624E-18
   112.6045       -7.6875643E-18
   112.7660       -7.6854401E-18
   112.9275       -7.6821306E-18
   113.0890       -7.6783173E-18
   113.2505       -7.6748870E-18
   113.4120       -7.6727355E-18
   113.5735       -7.6725791E-18
   113.7350       -7.6748001E-18
   113.8965       -7.6793686E-18
   114.0580       -7.6858413E-18
   114.2195       -7.6934530E-18
   114.3810       -7.7012773E-18
   114.5425       -7.7084167E-18
   114.7040       -7.7141979E-18
   114.8655       -7.7183057E-18
   115.0270       -7.7208294E-18
   115.1885       -7.7222058E-18
   115.3500       -7.7230859E-18
   115.5115       -7.7241513E-18
   115.6730       -7.7259463E-18
   115.8345       -7.7287579E-18
   115.9960       -7.7325729E-18
   116.1575       -7.7371091E-18
   116.3190       -7.7419126E-18
   116.4805       -7.7464885E-18
   116.6420       -7.7504383E-18