  -30.00000        9.2178915E-18
  -29.83850        9.2168922E-18
  -29.67700        9.2154463E-18
  -29.51550        9.2142395E-18
  -29.35400        9.2136108E-18
  -29.19250        9.2133420E-18
  -29.03100        9.2128763E-18
  -28.86950        9.2117885E-18
  -28.70800        9.2101441E-18
  -28.54650        9.2084699E-18
  -28.38500        9.2073598E-18
  -28.22350        9.2070174E-18
  -28.06200        9.2070893E-18
  -27.90050        9.2069131E-18
  -27.73900        9.2060049E-18
  -27.57750        9.2044076E-18
  -27.41600        9.2026565E-18
  -27.25450        9.2013776E-18
  -27.09300        9.2008325E-18
  -26.93150        9.2007531E-18
  -26.77000        9.2005744E-18
  -26.60850        9.1998796E-18
  -26.44700        9.1987174E-18
  -26.28550        9.1975445E-18
  -26.12400        9.1968488E-18
  -25.96250        9.1967496E-18
  -25.80100        9.1968836E-18
  -25.63950        9.1966735E-18
  -25.47800        9.1957694E-18
  -25.31650        9.1943218E-18
  -25.15500        9.1928841E-18
  -24.99350        9.1920173E-18
  -24.83200        9.1918890E-18
  -24.67050        9.1921744E-18
  -24.50900        9.1923175E-18
  -24.34750        9.1919503E-18
  -24.18600        9.1911388E-18
  -24.02450        9.1902851E-18
  -23.86300        9.1897715E-18
  -23.70150        9.1896333E-18
  -23.54000        9.1895266E-18
  -23.37850        9.1890105E-18
  -23.21700        9.1879219E-18
  -23.05550        9.1865521E-18
  -22.89400        9.1854668E-18
  -22.73250        9.1851103E-18
  -22.57100        9.1854925E-18
  -22.40950        9.1861823E-18
  -22.24800        9.1866265E-18
  -22.08650        9.1865273E-18
  -21.92500        9.1860078E-18
  -21.76350        9.1854486E-18
  -21.60200        9.1851310E-18
  -21.44050        9.1849928E-18
  -21.27900        9.1846835E-18
  -21.11750        9.1838803E-18
  -20.95600        9.1826122E-18
  -20.79450        9.1813160E-18
  -20.63300        9.1805699E-18
  -20.47150        9.1806882E-18
  -20.31000        9.1814848E-18
  -20.14850        9.1823872E-18
  -19.98700        9.1828182E-18
  -19.82550        9.1825651E-18
  -19.66400        9.1818611E-18
  -19.50250        9.1811431E-18
  -19.34100        9.1806783E-18
  -19.17950        9.1803689E-18
  -19.01800        9.1798842E-18
  -18.85650        9.1790057E-18
  -18.69500        9.1779097E-18
  -18.53350        9.1771206E-18
  -18.37200        9.1771661E-18
  -18.21050        9.1781661E-18
  -18.04900        9.1796865E-18
  -17.88750        9.1809670E-18
  -17.72600        9.1813921E-18
  -17.56450        9.1808586E-18
  -17.40300        9.1797824E-18
  -17.24150        9.1787600E-18
  -17.08000        9.1781405E-18
  -16.91850        9.1778361E-18
  -16.75700        9.1774969E-18
  -16.59550        9.1768981E-18
  -16.43400        9.1761999E-18
  -16.27250        9.1758790E-18
  -16.11100        9.1763463E-18
  -15.94950        9.1775623E-18
  -15.78800        9.1789528E-18
  -15.62650        9.1797278E-18
  -15.46500        9.1793870E-18
  -15.30350        9.1780553E-18
  -15.14200        9.1764084E-18
  -14.98050        9.1752288E-18
  -14.81900        9.1749227E-18
  -14.65750        9.1753297E-18
  -14.49600        9.1759427E-18
  -14.33450        9.1763414E-18
  -14.17300        9.1765010E-18
  -14.01150        9.1767293E-18
  -13.85000        9.1773092E-18
  -13.68850        9.1781355E-18
  -13.52700        9.1786674E-18
  -13.36550        9.1782612E-18
  -13.20400        9.1766466E-18
  -13.04250        9.1742006E-18
  -12.88100        9.1717919E-18
  -12.71950        9.1702847E-18
  -12.55800        9.1700465E-18
  -12.39650        9.1707902E-18
  -12.23500        9.1718456E-18
  -12.07350        9.1726397E-18
  -11.91200        9.1730244E-18
  -11.75050        9.1732452E-18
  -11.58900        9.1735918E-18
  -11.42750        9.1740567E-18
  -11.26600        9.1742825E-18
  -11.10450        9.1738416E-18
  -10.94300        9.1726488E-18
  -10.78150        9.1711442E-18
  -10.62000        9.1700978E-18
  -10.45850        9.1701334E-18
  -10.29700        9.1713171E-18
  -10.13550        9.1730872E-18
  -9.974000        9.1745977E-18
  -9.812500        9.1752056E-18
  -9.651000        9.1747912E-18
  -9.489500        9.1736936E-18
  -9.328000        9.1723634E-18
  -9.166500        9.1710201E-18
  -9.005000        9.1695825E-18
  -8.843500        9.1678934E-18
  -8.682000        9.1660314E-18
  -8.520500        9.1644258E-18
  -8.359000        9.1636450E-18
  -8.197500        9.1640056E-18
  -8.036000        9.1652869E-18
  -7.874500        9.1667891E-18
  -7.713000        9.1677197E-18
  -7.551500        9.1676411E-18
  -7.390000        9.1666865E-18
  -7.228500        9.1654044E-18
  -7.067000        9.1643787E-18
  -6.905500        9.1638964E-18
  -6.744000        9.1638973E-18
  -6.582500        9.1641901E-18
  -6.421000        9.1647220E-18
  -6.259500        9.1656484E-18
  -6.098000        9.1671506E-18
  -5.936500        9.1691350E-18
  -5.775000        9.1711086E-18
  -5.613500        9.1723436E-18
  -5.452000        9.1722791E-18
  -5.290500        9.1708687E-18
  -5.129000        9.1686271E-18
  -4.967500        9.1663416E-18
  -4.806000        9.1646343E-18
  -4.644500        9.1636756E-18
  -4.483000        9.1632214E-18
  -4.321500        9.1628997E-18
  -4.160000        9.1625026E-18
  -3.998500        9.1620518E-18
  -3.837000        9.1616209E-18
  -3.675500        9.1610931E-18
  -3.514000        9.1601063E-18
  -3.352500        9.1582650E-18
  -3.191000        9.1554914E-18
  -3.029500        9.1522340E-18
  -2.868000        9.1493463E-18
  -2.706500        9.1476597E-18
  -2.545000        9.1475439E-18
  -2.383500        9.1487276E-18
  -2.222000        9.1505002E-18
  -2.060500        9.1521480E-18
  -1.899000        9.1533052E-18
  -1.737500        9.1540067E-18
  -1.576000        9.1544575E-18
  -1.414500        9.1547379E-18
  -1.253000        9.1547205E-18
  -1.091500        9.1542598E-18
 -0.9300000        9.1534872E-18
 -0.7685000        9.1529371E-18
 -0.6070000        9.1533433E-18
 -0.4455000        9.1551879E-18
 -0.2840000        9.1583320E-18
 -0.1225000        9.1619815E-18
  3.9000001E-02    9.1650628E-18
  0.2005000        9.1667634E-18
  0.3620000        9.1669041E-18
  0.5235000        9.1659007E-18
  0.6850000        9.1644043E-18
  0.8465000        9.1628873E-18
   1.008000        9.1614778E-18
   1.169500        9.1601162E-18
   1.331000        9.1588655E-18
   1.492500        9.1580532E-18
   1.654000        9.1581062E-18
   1.815500        9.1591716E-18
   1.977000        9.1608350E-18
   2.138500        9.1621900E-18
   2.300000        9.1622752E-18
   2.461500        9.1606208E-18
   2.623000        9.1575346E-18
   2.784500        9.1539380E-18
   2.946000        9.1508650E-18
   3.107500        9.1489493E-18
   3.269000        9.1482305E-18
   3.430500        9.1483512E-18
   3.592000        9.1489327E-18
   3.753500        9.1498219E-18
   3.915000        9.1510346E-18
   4.076500        9.1524648E-18
   4.238000        9.1536692E-18
   4.399500        9.1539479E-18
   4.561000        9.1527278E-18
   4.722500        9.1499998E-18
   4.884000        9.1464686E-18
   5.045500        9.1432740E-18
   5.207000        9.1414310E-18
   5.368500        9.1413376E-18
   5.530000        9.1426404E-18
   5.691500        9.1445354E-18
   5.853000        9.1462403E-18
   6.014500        9.1473297E-18
   6.176000        9.1477408E-18
   6.337500        9.1475323E-18
   6.499000        9.1466605E-18
   6.660500        9.1449846E-18
   6.822000        9.1425229E-18
   6.983500        9.1397179E-18
   7.145000        9.1374515E-18
   7.306500        9.1367120E-18
   7.468000        9.1380884E-18
   7.629500        9.1414079E-18
   7.791000        9.1457729E-18
   7.952500        9.1499733E-18
   8.114000        9.1530215E-18
   8.275500        9.1544872E-18
   8.437000        9.1544781E-18
   8.598500        9.1533639E-18
   8.760000        9.1515011E-18
   8.921500        9.1491668E-18
   9.083000        9.1466977E-18
   9.244500        9.1446297E-18
   9.406000        9.1436437E-18
   9.567500        9.1442583E-18
   9.729000        9.1464661E-18
   9.890500        9.1495788E-18
   10.05200        9.1524433E-18
   10.21350        9.1539438E-18
   10.37500        9.1534864E-18
   10.53650        9.1512058E-18
   10.69800        9.1477821E-18
   10.85950        9.1440557E-18
   11.02100        9.1406915E-18
   11.18250        9.1380958E-18
   11.34400        9.1365383E-18
   11.50550        9.1362744E-18
   11.66700        9.1375085E-18
   11.82850        9.1401721E-18
   11.99000        9.1437116E-18
   12.15150        9.1471295E-18
   12.31300        9.1493273E-18
   12.47450        9.1496027E-18
   12.63600        9.1479980E-18
   12.79750        9.1452667E-18
   12.95900        9.1424865E-18
   13.12050        9.1405567E-18
   13.28200        9.1398883E-18
   13.44350        9.1404227E-18
   13.60500        9.1418818E-18
   13.76650        9.1439986E-18
   13.92800        9.1465405E-18
   14.08950        9.1491470E-18
   14.25100        9.1511976E-18
   14.41250        9.1519048E-18
   14.57400        9.1506781E-18
   14.73550        9.1475257E-18
   14.89700        9.1432144E-18
   15.05850        9.1390190E-18
   15.22000        9.1361652E-18
   15.38150        9.1352991E-18
   15.54300        9.1362876E-18
   15.70450        9.1384350E-18
   15.86600        9.1409306E-18
   16.02750        9.1431954E-18
   16.18900        9.1449391E-18
   16.35050        9.1459648E-18
   16.51200        9.1459805E-18
   16.67350        9.1446388E-18
   16.83500        9.1418248E-18
   16.99650        9.1379751E-18
   17.15800        9.1341179E-18
   17.31950        9.1315198E-18
   17.48100        9.1311004E-18
   17.64250        9.1329624E-18
   17.80400        9.1363563E-18
   17.96550        9.1400869E-18
   18.12700        9.1431019E-18
   18.28850        9.1448936E-18
   18.45000        9.1454999E-18
   18.61150        9.1451922E-18
   18.77300        9.1441591E-18
   18.93450        9.1424352E-18
   19.09600        9.1401257E-18
   19.25750        9.1376789E-18
   19.41900        9.1359129E-18
   19.58050        9.1356962E-18
   19.74200        9.1374349E-18
   19.90350        9.1407329E-18
   20.06500        9.1444850E-18
   20.22650        9.1473909E-18
   20.38800        9.1485671E-18
   20.54950        9.1479004E-18
   20.71100        9.1459309E-18
   20.87250        9.1434130E-18
   21.03400        9.1408859E-18
   21.19550        9.1385376E-18
   21.35700        9.1364034E-18
   21.51850        9.1346556E-18
   21.68000        9.1337019E-18
   21.84150        9.1339533E-18
   22.00300        9.1354480E-18
   22.16450        9.1376219E-18
   22.32600        9.1394681E-18
   22.48750        9.1400397E-18
   22.64900        9.1389627E-18
   22.81050        9.1366408E-18
   22.97200        9.1340079E-18
   23.13350        9.1320078E-18
   23.29500        9.1311417E-18
   23.45650        9.1313725E-18
   23.61800        9.1323684E-18
   23.77950        9.1338549E-18
   23.94100        9.1357806E-18
   24.10250        9.1381777E-18
   24.26400        9.1408810E-18
   24.42550        9.1433774E-18
   24.58700        9.1449697E-18
   24.74850        9.1451732E-18
   24.91000        9.1440730E-18
   25.07150        9.1423600E-18
   25.23300        9.1409810E-18
   25.39450        9.1406394E-18
   25.55600        9.1414467E-18
   25.71750        9.1429663E-18
   25.87900        9.1445520E-18
   26.04050        9.1457456E-18
   26.20200        9.1464272E-18
   26.36350        9.1466795E-18
   26.52500        9.1465165E-18
   26.68650        9.1457431E-18
   26.84800        9.1440937E-18
   27.00950        9.1415237E-18
   27.17100        9.1384193E-18
   27.33250        9.1355010E-18
   27.49400        9.1334570E-18
   27.65550        9.1325421E-18
   27.81700        9.1324247E-18
   27.97850        9.1324131E-18
   28.14000        9.1318920E-18
   28.30150        9.1306777E-18
   28.46300        9.1290622E-18
   28.62450        9.1275443E-18
   28.78600        9.1264822E-18
   28.94750        9.1259404E-18
   29.10900        9.1258081E-18
   29.27050        9.1260670E-18
   29.43200        9.1269281E-18
   29.59350        9.1286999E-18
   29.75500        9.1314561E-18
   29.91650        9.1347764E-18
   30.07800        9.1377964E-18
   30.23950        9.1395963E-18
   30.40100        9.1396882E-18
   30.56250        9.1382803E-18
   30.72400        9.1361354E-18
   30.88550        9.1341353E-18
   31.04700        9.1328416E-18
   31.20850        9.1323486E-18
   31.37000        9.1324718E-18
   31.53150        9.1330658E-18
   31.69300        9.1341824E-18
   31.85450        9.1359336E-18
   32.01600        9.1381769E-18
   32.17750        9.1403267E-18
   32.33900        9.1415046E-18
   32.50050        9.1409885E-18
   32.66200        9.1386856E-18
   32.82350        9.1352710E-18
   32.98500        9.1318845E-18
   33.14650        9.1295618E-18
   33.30800        9.1287644E-18
   33.46950        9.1293013E-18
   33.63100        9.1306371E-18
   33.79250        9.1323163E-18
   33.95400        9.1341791E-18
   34.11550        9.1362181E-18
   34.27700        9.1382613E-18
   34.43850        9.1397825E-18
   34.60000        9.1400620E-18
   34.76150        9.1386418E-18
   34.92300        9.1357342E-18
   35.08450        9.1322708E-18
   35.24600        9.1294940E-18
   35.40750        9.1283293E-18
   35.56900        9.1289414E-18
   35.73050        9.1307480E-18
   35.89200        9.1328424E-18
   36.05350        9.1345216E-18
   36.21500        9.1355365E-18
   36.37650        9.1359601E-18
   36.53800        9.1358360E-18
   36.69950        9.1349600E-18
   36.86100        9.1329979E-18
   37.02250        9.1298704E-18
   37.18400        9.1260794E-18
   37.34550        9.1226681E-18
   37.50700        9.1207772E-18
   37.66850        9.1210468E-18
   37.83000        9.1232661E-18
   37.99150        9.1265021E-18
   38.15300        9.1296181E-18
   38.31450        9.1318374E-18
   38.47600        9.1329847E-18
   38.63750        9.1333147E-18
   38.79900        9.1331220E-18
   38.96050        9.1324677E-18
   39.12200        9.1312410E-18
   39.28350        9.1294667E-18
   39.44500        9.1275567E-18
   39.60650        9.1262564E-18
   39.76800        9.1262490E-18
   39.92950        9.1276990E-18
   40.09100        9.1300515E-18
   40.25250        9.1322832E-18
   40.41400        9.1334388E-18
   40.57550        9.1331121E-18
   40.73700        9.1315727E-18
   40.89850        9.1294832E-18
   41.06000        9.1274525E-18
   41.22150        9.1257502E-18
   41.38300        9.1243564E-18
   41.54450        9.1232438E-18
   41.70600        9.1226027E-18
   41.86750        9.1227938E-18
   42.02900        9.1240404E-18
   42.19050        9.1261224E-18
   42.35200        9.1283335E-18
   42.51350        9.1297926E-18
   42.67500        9.1299258E-18
   42.83650        9.1287909E-18
   42.99800        9.1270158E-18
   43.15950        9.1254094E-18
   43.32100        9.1245127E-18
   43.48250        9.1244010E-18
   43.64400        9.1248229E-18
   43.80550        9.1255169E-18
   43.96700        9.1264309E-18
   44.12850        9.1276601E-18
   44.29000        9.1291763E-18
   44.45150        9.1306190E-18
   44.61300        9.1313485E-18
   44.77450        9.1307968E-18
   44.93600        9.1288537E-18
   45.09750        9.1260190E-18
   45.25900        9.1231661E-18
   45.42050        9.1210791E-18
   45.58200        9.1200616E-18
   45.74350        9.1198821E-18
   45.90500        9.1200600E-18
   46.06650        9.1202469E-18
   46.22800        9.1204173E-18
   46.38950        9.1207358E-18
   46.55100        9.1212544E-18
   46.71250        9.1217110E-18
   46.87400        9.1216399E-18
   47.03550        9.1207234E-18
   47.19700        9.1191170E-18
   47.35850        9.1174668E-18
   47.52000        9.1165685E-18
   47.68150        9.1168762E-18
   47.84300        9.1182195E-18
   48.00450        9.1199227E-18
   48.16600        9.1212520E-18
   48.32750        9.1218608E-18
   48.48900        9.1219302E-18
   48.65050        9.1219278E-18
   48.81200        9.1221941E-18
   48.97350        9.1226937E-18
   49.13500        9.1231197E-18
   49.29650        9.1232471E-18
   49.45800        9.1232314E-18
   49.61950        9.1235755E-18
   49.78100        9.1247625E-18
   49.94250        9.1268073E-18
   50.10400        9.1290945E-18
   50.26550        9.1306479E-18
   50.42700        9.1306909E-18
   50.58850        9.1291027E-18
   50.75000        9.1264748E-18
   50.91150        9.1237285E-18
   51.07300        9.1215828E-18
   51.23450        9.1202312E-18
   51.39600        9.1194446E-18
   51.55750        9.1189474E-18
   51.71900        9.1187431E-18
   51.88050        9.1191154E-18
   52.04200        9.1202990E-18
   52.20350        9.1221023E-18
   52.36500        9.1238170E-18
   52.52650        9.1245466E-18
   52.68800        9.1237459E-18
   52.84950        9.1216143E-18
   53.01100        9.1190244E-18
   53.17250        9.1170391E-18
   53.33400        9.1163187E-18
   53.49550        9.1168241E-18
   53.65700        9.1179714E-18
   53.81850        9.1190955E-18
   53.98000        9.1198449E-18
   54.14150        9.1202527E-18
   54.30300        9.1204612E-18
   54.46450        9.1203925E-18
   54.62600        9.1196687E-18
   54.78750        9.1178886E-18
   54.94900        9.1150489E-18
   55.11050        9.1117898E-18
   55.27200        9.1092032E-18
   55.43350        9.1083132E-18
   55.59500        9.1095283E-18
   55.75650        9.1124549E-18
   55.91800        9.1161499E-18
   56.07950        9.1196505E-18
   56.24100        9.1223943E-18
   56.40250        9.1242910E-18
   56.56400        9.1254722E-18
   56.72550        9.1259810E-18
   56.88700        9.1256848E-18
   57.04850        9.1244829E-18
   57.21000        9.1226094E-18
   57.37150        9.1207432E-18
   57.53300        9.1197663E-18
   57.69450        9.1202866E-18
   57.85600        9.1222479E-18
   58.01750        9.1249056E-18
   58.17900        9.1272002E-18
   58.34050        9.1282855E-18
   58.50200        9.1278735E-18
   58.66350        9.1262150E-18
   58.82500        9.1237873E-18
   58.98650        9.1209815E-18
   59.14800        9.1180119E-18
   59.30950        9.1150779E-18
   59.47100        9.1125757E-18
   59.63250        9.1111099E-18
   59.79400        9.1112257E-18
   59.95550        9.1130281E-18
   60.11700        9.1159762E-18
   60.27850        9.1190492E-18
   60.44000        9.1212106E-18
   60.60150        9.1218914E-18
   60.76300        9.1211800E-18
   60.92450        9.1196489E-18
   61.08600        9.1179482E-18
   61.24750        9.1165048E-18
   61.40900        9.1154791E-18
   61.57050        9.1149720E-18
   61.73200        9.1152102E-18
   61.89350        9.1165213E-18
   62.05500        9.1190541E-18
   62.21650        9.1224845E-18
   62.37800        9.1259578E-18
   62.53950        9.1283955E-18
   62.70100        9.1290010E-18
   62.86250        9.1276477E-18
   63.02400        9.1248957E-18
   63.18550        9.1216366E-18
   63.34700        9.1186257E-18
   63.50850        9.1162103E-18
   63.67000        9.1144128E-18
   63.83150        9.1132192E-18
   63.99300        9.1128007E-18
   64.15450        9.1134525E-18
   64.31600        9.1152830E-18
   64.47750        9.1179300E-18
   64.63900        9.1205671E-18
   64.80050        9.1222653E-18
   64.96200        9.1224936E-18
   65.12350        9.1214174E-18
   65.28500        9.1197713E-18
   65.44650        9.1183965E-18
   65.60800        9.1177571E-18
   65.76950        9.1177596E-18
   65.93100        9.1179747E-18
   66.09250        9.1180466E-18
   66.25400        9.1179689E-18
   66.41550        9.1180044E-18
   66.57700        9.1183494E-18
   66.73850        9.1188200E-18
   66.90000        9.1188672E-18
   67.06150        9.1179259E-18
   67.22300        9.1158753E-18
   67.38450        9.1132415E-18
   67.54600        9.1109759E-18
   67.70750        9.1099295E-18
   67.86900        9.1103894E-18
   68.03050        9.1119735E-18
   68.19200        9.1139496E-18
   68.35350        9.1157247E-18
   68.51500        9.1171409E-18
   68.67650        9.1183957E-18
   68.83800        9.1196811E-18
   68.99950        9.1208657E-18
   69.16100        9.1214927E-18
   69.32250        9.1211204E-18
   69.48400        9.1197266E-18
   69.64550        9.1178696E-18
   69.80700        9.1164402E-18
   69.96850        9.1161582E-18
   70.13000        9.1171690E-18
   70.29150        9.1190095E-18
   70.45300        9.1209624E-18
   70.61450        9.1225225E-18
   70.77600        9.1236541E-18
   70.93750        9.1246542E-18
   71.09900        9.1257775E-18
   71.26050        9.1269223E-18
   71.42200        9.1276403E-18
   71.58350        9.1274459E-18
   71.74500        9.1262035E-18
   71.90650        9.1242629E-18
   72.06800        9.1222437E-18
   72.22950        9.1206324E-18
   72.39100        9.1194719E-18
   72.55250        9.1184031E-18
   72.71400        9.1169953E-18
   72.87550        9.1151250E-18
   73.03700        9.1131059E-18
   73.19850        9.1114838E-18
   73.36000        9.1106483E-18
   73.52150        9.1105598E-18
   73.68300        9.1107881E-18
   73.84450        9.1108295E-18
   74.00600        9.1104432E-18
   74.16750        9.1097666E-18
   74.32900        9.1091321E-18
   74.49050        9.1087590E-18
   74.65200        9.1085671E-18
   74.81350        9.1082743E-18
   74.97500        9.1076903E-18
   75.13650        9.1069765E-18
   75.29800        9.1066349E-18
   75.45950        9.1072263E-18
   75.62100        9.1090089E-18
   75.78250        9.1117534E-18
   75.94400        9.1148686E-18
   76.10550        9.1177373E-18
   76.26700        9.1200203E-18
   76.42850        9.1217135E-18
   76.59000        9.1229601E-18
   76.75150        9.1237980E-18
   76.91300        9.1240710E-18
   77.07450        9.1235780E-18
   77.23600        9.1223364E-18
   77.39750        9.1207259E-18
   77.55900        9.1193610E-18
   77.72050        9.1187514E-18
   77.88200        9.1189896E-18
   78.04350        9.1196886E-18
   78.20500        9.1202279E-18
   78.36650        9.1201311E-18
   78.52800        9.1193097E-18
   78.68950        9.1180334E-18
   78.85100        9.1166636E-18
   79.01250        9.1153881E-18
   79.17400        9.1141721E-18
   79.33550        9.1129421E-18
   79.49700        9.1118320E-18
   79.65850        9.1112538E-18
   79.82000        9.1116889E-18
   79.98150        9.1133383E-18
   80.14300        9.1158736E-18
   80.30450        9.1185156E-18
   80.46600        9.1204016E-18
   80.62750        9.1210203E-18
   80.78900        9.1204132E-18
   80.95050        9.1190459E-18
   81.11200        9.1174461E-18
   81.27350        9.1159100E-18
   81.43500        9.1144592E-18
   81.59650        9.1130662E-18
   81.75800        9.1119065E-18
   81.91950        9.1114110E-18
   82.08100        9.1120215E-18
   82.24250        9.1138330E-18
   82.40400        9.1163956E-18
   82.56550        9.1188614E-18
   82.72700        9.1204149E-18
   82.88850        9.1207077E-18
   83.05000        9.1200071E-18
   83.21150        9.1189640E-18
   83.37300        9.1181798E-18
   83.53450        9.1178829E-18
   83.69600        9.1179168E-18
   83.85750        9.1180119E-18
   84.01900        9.1180938E-18
   84.18050        9.1183626E-18
   84.34200        9.1190756E-18
   84.50350        9.1202163E-18
   84.66500        9.1213289E-18
   84.82650        9.1216912E-18
   84.98800        9.1207341E-18
   85.14950        9.1184296E-18
   85.31100        9.1153608E-18
   85.47250        9.1124202E-18
   85.63400        9.1103365E-18
   85.79550        9.1093497E-18
   85.95700        9.1092281E-18
   86.11850        9.1095755E-18
   86.28000        9.1101628E-18
   86.44150        9.1110363E-18
   86.60300        9.1123308E-18
   86.76450        9.1139744E-18
   86.92600        9.1155510E-18
   87.08750        9.1164609E-18
   87.24900        9.1162947E-18
   87.41050        9.1151391E-18
   87.57200        9.1135881E-18
   87.73350        9.1124193E-18
   87.89500        9.1121579E-18
   88.05650        9.1128246E-18
   88.21800        9.1140067E-18
   88.37950        9.1151945E-18
   88.54100        9.1161069E-18
   88.70250        9.1167777E-18
   88.86400        9.1173799E-18
   89.02550        9.1179457E-18
   89.18700        9.1182476E-18
   89.34850        9.1179308E-18
   89.51000        9.1168108E-18
   89.67150        9.1150828E-18
   89.83300        9.1132788E-18
   89.99450        9.1119669E-18
   90.15600        9.1114275E-18
   90.31750        9.1115119E-18
   90.47900        9.1118064E-18
   90.64050        9.1119594E-18
   90.80200        9.1119288E-18
   90.96350        9.1119793E-18
   91.12500        9.1124466E-18
   91.28650        9.1134591E-18
   91.44800        9.1148372E-18
   91.60950        9.1162376E-18
   91.77100        9.1174056E-18
   91.93250        9.1183395E-18
   92.09400        9.1192187E-18
   92.25550        9.1201750E-18
   92.41700        9.1210948E-18
   92.57850        9.1216258E-18
   92.74000        9.1214157E-18
   92.90150        9.1203933E-18
   93.06300        9.1188920E-18
   93.22450        9.1174949E-18
   93.38600        9.1167157E-18
   93.54750        9.1167289E-18
   93.70900        9.1173377E-18
   93.87050        9.1181757E-18
   94.03200        9.1189797E-18
   94.19350        9.1197117E-18
   94.35500        9.1204570E-18
   94.51650        9.1212032E-18
   94.67800        9.1217102E-18
   94.83950        9.1216052E-18
   95.00100        9.1206498E-18
   95.16250        9.1189722E-18
   95.32400        9.1170730E-18
   95.48550        9.1155659E-18
   95.64700        9.1148198E-18
   95.80850        9.1147569E-18
   95.97000        9.1149331E-18
   96.13150        9.1148504E-18
   96.29300        9.1142565E-18
   96.45450        9.1132283E-18
   96.61600        9.1119900E-18
   96.77750        9.1106483E-18
   96.93900        9.1090684E-18
   97.10050        9.1069980E-18
   97.26200        9.1043618E-18
   97.42350        9.1014716E-18
   97.58500        9.0989685E-18
   97.74650        9.0975053E-18
   97.90800        9.0973804E-18
   98.06950        9.0983796E-18
   98.23100        9.0999405E-18
   98.39250        9.1015187E-18
   98.55400        9.1028919E-18
   98.71550        9.1041889E-18
   98.87700        9.1056522E-18
   99.03850        9.1073264E-18
   99.20000        9.1089443E-18
   99.36150        9.1100834E-18
   99.52300        9.1104978E-18
   99.68450        9.1103348E-18
   99.84600        9.1100759E-18
   100.0075        9.1102091E-18
   100.1690        9.1108890E-18
   100.3305        9.1118171E-18
   100.4920        9.1124541E-18
   100.6535        9.1123929E-18
   100.8150        9.1116459E-18
   100.9765        9.1106177E-18
   101.1380        9.1098154E-18
   101.2995        9.1095101E-18
   101.4610        9.1095995E-18
   101.6225        9.1097690E-18
   101.7840        9.1098005E-18
   101.9455        9.1097839E-18
   102.1070        9.1100627E-18
   102.2685        9.1109469E-18
   102.4300        9.1124259E-18
   102.5915        9.1141076E-18
   102.7530        9.1154427E-18
   102.9145        9.1160763E-18
   103.0760        9.1160713E-18
   103.2375        9.1158439E-18
   103.3990        9.1158571E-18
   103.5605        9.1163005E-18
   103.7220        9.1169812E-18
   103.8835        9.1174875E-18
   104.0450        9.1174866E-18
   104.2065        9.1169241E-18
   104.3680        9.1159878E-18
   104.5295        9.1148851E-18
   104.6910        9.1136345E-18
   104.8525        9.1120463E-18
   105.0140        9.1099196E-18
   105.1755        9.1073024E-18
   105.3370        9.1045942E-18
   105.4985        9.1024104E-18
   105.6600        9.1012689E-18
   105.8215        9.1013252E-18
   105.9830        9.1023211E-18
   106.1445        9.1037769E-18
   106.3060        9.1052584E-18
   106.4675        9.1065521E-18
   106.6290        9.1076233E-18
   106.7905        9.1084604E-18
   106.9520        9.1089427E-18
   107.1135        9.1088823E-18
   107.2750        9.1081982E-18
   107.4365        9.1070774E-18
   107.5980        9.1059797E-18
   107.7595        9.1054454E-18
   107.9210        9.1058209E-18
   108.0825        9.1070981E-18
   108.2440        9.1089634E-18
   108.4055        9.1110123E-18
   108.5670        9.1129744E-18
   108.7285        9.1147776E-18
   108.8900        9.1164493E-18
   109.0515        9.1179465E-18
   109.2130        9.1190790E-18
   109.3745        9.1196067E-18
   109.5360        9.1194189E-18
   109.6975        9.1186604E-18
   109.8590        9.1176744E-18
   110.0205        9.1167984E-18
   110.1820        9.1161524E-18
   110.3435        9.1155783E-18
   110.5050        9.1147826E-18
   110.6665        9.1135691E-18
   110.8280        9.1119867E-18
   110.9895        9.1102935E-18
   111.1510        9.1087541E-18
   111.3125        9.1074521E-18
   111.4740        9.1062610E-18
   111.6355        9.1049954E-18
   111.7970        9.1036256E-18
   111.9585        9.1023749E-18
   112.1200        9.1016163E-18
   112.2815        9.1016312E-18
   112.4430        9.1024096E-18
   112.6045        9.1036537E-18
   112.7660        9.1049747E-18
   112.9275        9.1061534E-18
   113.0890        9.1072544E-18
   113.2505        9.1085183E-18
   113.4120        9.1101131E-18
   113.5735        9.1119371E-18
   113.7350        9.1136237E-18
   113.8965        9.1147503E-18
   114.0580        9.1151010E-18
   114.2195        9.1147851E-18
   114.3810        9.1141225E-18
   114.5425        9.1133971E-18
   114.7040        9.1126708E-18
   114.8655        9.1117989E-18
   115.0270        9.1106334E-18
   115.1885        9.1092578E-18
   115.3500        9.1080477E-18
   115.5115        9.1075001E-18
   115.6730        9.1079286E-18
   115.8345        9.1092454E-18
   115.9960        9.1109891E-18
   116.1575        9.1125740E-18
   116.3190        9.1135981E-18
   116.4805        9.1139984E-18
   116.6420        9.1139703E-18