  -30.00000        5.2195279E-18
  -29.83850        5.2287096E-18
  -29.67700        5.2452461E-18
  -29.51550        5.2661089E-18
  -29.35400        5.2877674E-18
  -29.19250        5.3070043E-18
  -29.03100        5.3216425E-18
  -28.86950        5.3310095E-18
  -28.70800        5.3360284E-18
  -28.54650        5.3389128E-18
  -28.38500        5.3425491E-18
  -28.22350        5.3497162E-18
  -28.06200        5.3623439E-18
  -27.90050        5.3809894E-18
  -27.73900        5.4046658E-18
  -27.57750        5.4310566E-18
  -27.41600        5.4570685E-18
  -27.25450        5.4795831E-18
  -27.09300        5.4962181E-18
  -26.93150        5.5059193E-18
  -26.77000        5.5092239E-18
  -26.60850        5.5081415E-18
  -26.44700        5.5056711E-18
  -26.28550        5.5050797E-18
  -26.12400        5.5091118E-18
  -25.96250        5.5193382E-18
  -25.80100        5.5357892E-18
  -25.63950        5.5569642E-18
  -25.47800        5.5802187E-18
  -25.31650        5.6024186E-18
  -25.15500        5.6207109E-18
  -24.99350        5.6332116E-18
  -24.83200        5.6394535E-18
  -24.67050        5.6404788E-18
  -24.50900        5.6385618E-18
  -24.34750        5.6366291E-18
  -24.18600        5.6375246E-18
  -24.02450        5.6433024E-18
  -23.86300        5.6547262E-18
  -23.70150        5.6710891E-18
  -23.54000        5.6904062E-18
  -23.37850        5.7099231E-18
  -23.21700        5.7268084E-18
  -23.05550        5.7388633E-18
  -22.89400        5.7450659E-18
  -22.73250        5.7458244E-18
  -22.57100        5.7428730E-18
  -22.40950        5.7388414E-18
  -22.24800        5.7366047E-18
  -22.08650        5.7385725E-18
  -21.92500        5.7460957E-18
  -21.76350        5.7591338E-18
  -21.60200        5.7762709E-18
  -21.44050        5.7950706E-18
  -21.27900        5.8126817E-18
  -21.11750        5.8265444E-18
  -20.95600        5.8350193E-18
  -20.79450        5.8377829E-18
  -20.63300        5.8359011E-18
  -20.47150        5.8315559E-18
  -20.31000        5.8275015E-18
  -20.14850        5.8263840E-18
  -19.98700        5.8300968E-18
  -19.82550        5.8393178E-18
  -19.66400        5.8533616E-18
  -19.50250        5.8703643E-18
  -19.34100        5.8877690E-18
  -19.17950        5.9029788E-18
  -19.01800        5.9140134E-18
  -18.85650        5.9200067E-18
  -18.69500        5.9214125E-18
  -18.53350        5.9198736E-18
  -18.37200        5.9177849E-18
  -18.21050        5.9176704E-18
  -18.04900        5.9215254E-18
  -17.88750        5.9302944E-18
  -17.72600        5.9436112E-18
  -17.56450        5.9598756E-18
  -17.40300        5.9766355E-18
  -17.24150        5.9911910E-18
  -17.08000        6.0012677E-18
  -16.91850        6.0055873E-18
  -16.75700        6.0041897E-18
  -16.59550        5.9984338E-18
  -16.43400        5.9906629E-18
  -16.27250        5.9836326E-18
  -16.11100        5.9798417E-18
  -15.94950        5.9809311E-18
  -15.78800        5.9873078E-18
  -15.62650        5.9980756E-18
  -15.46500        6.0112923E-18
  -15.30350        6.0244817E-18
  -15.14200        6.0352752E-18
  -14.98050        6.0420217E-18
  -14.81900        6.0442104E-18
  -14.65750        6.0426044E-18
  -14.49600        6.0390446E-18
  -14.33450        6.0359750E-18
  -14.17300        6.0358038E-18
  -14.01150        6.0402747E-18
  -13.85000        6.0499911E-18
  -13.68850        6.0642352E-18
  -13.52700        6.0811109E-18
  -13.36550        6.0979924E-18
  -13.20400        6.1121546E-18
  -13.04250        6.1214364E-18
  -12.88100        6.1247728E-18
  -12.71950        6.1224675E-18
  -12.55800        6.1161267E-18
  -12.39650        6.1082813E-18
  -12.23500        6.1017693E-18
  -12.07350        6.0990483E-18
  -11.91200        6.1015907E-18
  -11.75050        6.1095295E-18
  -11.58900        6.1216357E-18
  -11.42750        6.1356395E-18
  -11.26600        6.1488140E-18
  -11.10450        6.1586670E-18
  -10.94300        6.1635750E-18
  -10.78150        6.1631949E-18
  -10.62000        6.1585478E-18
  -10.45850        6.1517641E-18
  -10.29700        6.1455437E-18
  -10.13550        6.1424646E-18
  -9.974000        6.1443174E-18
  -9.812500        6.1516285E-18
  -9.651000        6.1634969E-18
  -9.489500        6.1777905E-18
  -9.328000        6.1916595E-18
  -9.166500        6.2022370E-18
  -9.005000        6.2073527E-18
  -8.843500        6.2060801E-18
  -8.682000        6.1989775E-18
  -8.520500        6.1879673E-18
  -8.359000        6.1758802E-18
  -8.197500        6.1657799E-18
  -8.036000        6.1602336E-18
  -7.874500        6.1607039E-18
  -7.713000        6.1672084E-18
  -7.551500        6.1783278E-18
  -7.390000        6.1915734E-18
  -7.228500        6.2040076E-18
  -7.067000        6.2129780E-18
  -6.905500        6.2167797E-18
  -6.744000        6.2150770E-18
  -6.582500        6.2089831E-18
  -6.421000        6.2007738E-18
  -6.259500        6.1933114E-18
  -6.098000        6.1893260E-18
  -5.936500        6.1907260E-18
  -5.775000        6.1981102E-18
  -5.613500        6.2106048E-18
  -5.452000        6.2260561E-18
  -5.290500        6.2415434E-18
  -5.129000        6.2540847E-18
  -4.967500        6.2613676E-18
  -4.806000        6.2623263E-18
  -4.644500        6.2574195E-18
  -4.483000        6.2485360E-18
  -4.321500        6.2385486E-18
  -4.160000        6.2306267E-18
  -3.998500        6.2274702E-18
  -3.837000        6.2306627E-18
  -3.675500        6.2402985E-18
  -3.514000        6.2549665E-18
  -3.352500        6.2721057E-18
  -3.191000        6.2886270E-18
  -3.029500        6.3016588E-18
  -2.868000        6.3092391E-18
  -2.706500        6.3107751E-18
  -2.545000        6.3071695E-18
  -2.383500        6.3005785E-18
  -2.222000        6.2938593E-18
  -2.060500        6.2898450E-18
  -1.899000        6.2906341E-18
  -1.737500        6.2970609E-18
  -1.576000        6.3084934E-18
  -1.414500        6.3229934E-18
  -1.253000        6.3378041E-18
  -1.091500        6.3500323E-18
 -0.9300000        6.3573653E-18
 -0.7685000        6.3586362E-18
 -0.6070000        6.3541144E-18
 -0.4455000        6.3454464E-18
 -0.2840000        6.3352622E-18
 -0.1225000        6.3265478E-18
  3.9000001E-02    6.3219288E-18
  0.2005000        6.3230447E-18
  0.3620000        6.3301634E-18
  0.5235000        6.3421319E-18
  0.6850000        6.3566712E-18
  0.8465000        6.3709430E-18
   1.008000        6.3822402E-18
   1.169500        6.3886347E-18
   1.331000        6.3894264E-18
   1.492500        6.3852843E-18
   1.654000        6.3780576E-18
   1.815500        6.3703057E-18
   1.977000        6.3646606E-18
   2.138500        6.3631824E-18
   2.300000        6.3668563E-18
   2.461500        6.3753655E-18
   2.623000        6.3871822E-18
   2.784500        6.3999634E-18
   2.946000        6.4111506E-18
   3.107500        6.4186205E-18
   3.269000        6.4212186E-18
   3.430500        6.4190510E-18
   3.592000        6.4134539E-18
   3.753500        6.4066574E-18
   3.915000        6.4012298E-18
   4.076500        6.3994431E-18
   4.238000        6.4027105E-18
   4.399500        6.4112395E-18
   4.561000        6.4239781E-18
   4.722500        6.4388682E-18
   4.884000        6.4533455E-18
   5.045500        6.4649599E-18
   5.207000        6.4719620E-18
   5.368500        6.4737148E-18
   5.530000        6.4708147E-18
   5.691500        6.4649173E-18
   5.853000        6.4582929E-18
   6.014500        6.4532508E-18
   6.176000        6.4515646E-18
   6.337500        6.4540536E-18
   6.499000        6.4604109E-18
   6.660500        6.4693192E-18
   6.822000        6.4788140E-18
   6.983500        6.4868087E-18
   7.145000        6.4916386E-18
   7.306500        6.4924955E-18
   7.468000        6.4896447E-18
   7.629500        6.4843611E-18
   7.791000        6.4786117E-18
   7.952500        6.4745594E-18
   8.114000        6.4740147E-18
   8.275500        6.4779818E-18
   8.437000        6.4864067E-18
   8.598500        6.4981894E-18
   8.760000        6.5114554E-18
   8.921500        6.5240111E-18
   9.083000        6.5338744E-18
   9.244500        6.5397470E-18
   9.406000        6.5413153E-18
   9.567500        6.5393123E-18
   9.729000        6.5353174E-18
   9.890500        6.5313557E-18
   10.05200        6.5293808E-18
   10.21350        6.5307828E-18
   10.37500        6.5360458E-18
   10.53650        6.5446336E-18
   10.69800        6.5551417E-18
   10.85950        6.5656737E-18
   11.02100        6.5743376E-18
   11.18250        6.5797408E-18
   11.34400        6.5813558E-18
   11.50550        6.5796647E-18
   11.66700        6.5760453E-18
   11.82850        6.5724297E-18
   11.99000        6.5708142E-18
   12.15150        6.5727494E-18
   12.31300        6.5789252E-18
   12.47450        6.5889754E-18
   12.63600        6.6015415E-18
   12.79750        6.6145907E-18
   12.95900        6.6259111E-18
   13.12050        6.6336564E-18
   13.28200        6.6368026E-18
   13.44350        6.6354009E-18
   13.60500        6.6305623E-18
   13.76650        6.6241831E-18
   13.92800        6.6184731E-18
   14.08950        6.6154146E-18
   14.25100        6.6162749E-18
   14.41250        6.6213000E-18
   14.57400        6.6296578E-18
   14.73550        6.6396522E-18
   14.89700        6.6491549E-18
   15.05850        6.6561450E-18
   15.22000        6.6592295E-18
   15.38150        6.6580045E-18
   15.54300        6.6531704E-18
   15.70450        6.6463648E-18
   15.86600        6.6397598E-18
   16.02750        6.6355229E-18
   16.18900        6.6352727E-18
   16.35050        6.6396671E-18
   16.51200        6.6482288E-18
   16.67350        6.6594433E-18
   16.83500        6.6711140E-18
   16.99650        6.6808946E-18
   17.15800        6.6868627E-18
   17.31950        6.6880051E-18
   17.48100        6.6844879E-18
   17.64250        6.6776413E-18
   17.80400        6.6696578E-18
   17.96550        6.6630726E-18
   18.12700        6.6601576E-18
   18.28850        6.6623691E-18
   18.45000        6.6699936E-18
   18.61150        6.6820729E-18
   18.77300        6.6966350E-18
   18.93450        6.7111649E-18
   19.09600        6.7232103E-18
   19.25750        6.7309754E-18
   19.41900        6.7337506E-18
   19.58050        6.7320797E-18
   19.74200        6.7276171E-18
   19.90350        6.7227069E-18
   20.06500        6.7197858E-18
   20.22650        6.7207573E-18
   20.38800        6.7264946E-18
   20.54950        6.7365986E-18
   20.71100        6.7494716E-18
   20.87250        6.7626924E-18
   21.03400        6.7735988E-18
   21.19550        6.7799354E-18
   21.35700        6.7804127E-18
   21.51850        6.7750377E-18
   21.68000        6.7651339E-18
   21.84150        6.7530554E-18
   22.00300        6.7416494E-18
   22.16450        6.7336050E-18
   22.32600        6.7308369E-18
   22.48750        6.7340596E-18
   22.64900        6.7426482E-18
   22.81050        6.7548197E-18
   22.97200        6.7680914E-18
   23.13350        6.7798941E-18
   23.29500        6.7881965E-18
   23.45650        6.7919879E-18
   23.61800        6.7915023E-18
   23.77950        6.7881311E-18
   23.94100        6.7840598E-18
   24.10250        6.7817027E-18
   24.26400        6.7830878E-18
   24.42550        6.7893351E-18
   24.58700        6.8003552E-18
   24.74850        6.8148474E-18
   24.91000        6.8305911E-18
   25.07150        6.8449696E-18
   25.23300        6.8555906E-18
   25.39450        6.8608573E-18
   25.55600        6.8603452E-18
   25.71750        6.8549032E-18
   25.87900        6.8464412E-18
   26.04050        6.8374708E-18
   26.20200        6.8305076E-18
   26.36350        6.8274747E-18
   26.52500        6.8292586E-18
   26.68650        6.8355195E-18
   26.84800        6.8448017E-18
   27.00950        6.8549127E-18
   27.17100        6.8634811E-18
   27.33250        6.8685463E-18
   27.49400        6.8690493E-18
   27.65550        6.8650842E-18
   27.81700        6.8578716E-18
   27.97850        6.8494451E-18
   28.14000        6.8421460E-18
   28.30150        6.8380436E-18
   28.46300        6.8384303E-18
   28.62450        6.8435142E-18
   28.78600        6.8523774E-18
   28.94750        6.8632218E-18
   29.10900        6.8738196E-18
   29.27050        6.8820745E-18
   29.43200        6.8865416E-18
   29.59350        6.8867873E-18
   29.75500        6.8834889E-18
   29.91650        6.8782649E-18
   30.07800        6.8732699E-18
   30.23950        6.8706594E-18
   30.40100        6.8720536E-18
   30.56250        6.8781375E-18
   30.72400        6.8884872E-18
   30.88550        6.9016691E-18
   31.04700        6.9155815E-18
   31.20850        6.9279594E-18
   31.37000        6.9369124E-18
   31.53150        6.9413672E-18
   31.69300        6.9413068E-18
   31.85450        6.9377545E-18
   32.01600        6.9324973E-18
   32.17750        6.9276376E-18
   32.33900        6.9250668E-18
   32.50050        6.9260097E-18
   32.66200        6.9307325E-18
   32.82350        6.9385022E-18
   32.98500        6.9477944E-18
   33.14650        6.9566957E-18
   33.30800        6.9634041E-18
   33.46950        6.9666946E-18
   33.63100        6.9662430E-18
   33.79250        6.9627101E-18
   33.95400        6.9575849E-18
   34.11550        6.9528096E-18
   34.27700        6.9502925E-18
   34.43850        6.9514282E-18
   34.60000        6.9567420E-18
   34.76150        6.9657533E-18
   34.92300        6.9770857E-18
   35.08450        6.9887944E-18
   35.24600        6.9988380E-18
   35.40750        7.0055597E-18
   35.56900        7.0080801E-18
   35.73050        7.0064903E-18
   35.89200        7.0018035E-18
   36.05350        6.9956790E-18
   36.21500        6.9899971E-18
   36.37650        6.9863782E-18
   36.53800        6.9857851E-18
   36.69950        6.9882997E-18
   36.86100        6.9931305E-18
   37.02250        6.9988463E-18
   37.18400        7.0037730E-18
   37.34550        7.0064522E-18
   37.50700        7.0060378E-18
   37.66850        7.0025421E-18
   37.83000        6.9968536E-18
   37.99150        6.9905356E-18
   38.15300        6.9854410E-18
   38.31450        6.9832548E-18
   38.47600        6.9850605E-18
   38.63750        6.9910584E-18
   38.79900        7.0004965E-18
   38.96050        7.0118446E-18
   39.12200        7.0231563E-18
   39.28350        7.0325415E-18
   39.44500        7.0386180E-18
   39.60650        7.0408431E-18
   39.76800        7.0396329E-18
   39.92950        7.0362415E-18
   40.09100        7.0324422E-18
   40.25250        7.0300715E-18
   40.41400        7.0305637E-18
   40.57550        7.0345813E-18
   40.73700        7.0418481E-18
   40.89850        7.0512093E-18
   41.06000        7.0609312E-18
   41.22150        7.0691434E-18
   41.38300        7.0743340E-18
   41.54450        7.0757468E-18
   41.70600        7.0736036E-18
   41.86750        7.0690632E-18
   42.02900        7.0639562E-18
   42.19050        7.0603331E-18
   42.35200        7.0599567E-18
   42.51350        7.0638486E-18
   42.67500        7.0720154E-18
   42.83650        7.0834164E-18
   42.99800        7.0961856E-18
   43.15950        7.1080623E-18
   43.32100        7.1169296E-18
   43.48250        7.1213261E-18
   43.64400        7.1207992E-18
   43.80550        7.1160231E-18
   43.96700        7.1086305E-18
   44.12850        7.1008153E-18
   44.29000        7.0948026E-18
   44.45150        7.0923070E-18
   44.61300        7.0941276E-18
   44.77450        7.0999675E-18
   44.93600        7.1085247E-18
   45.09750        7.1178255E-18
   45.25900        7.1257259E-18
   45.42050        7.1304557E-18
   45.58200        7.1310736E-18
   45.74350        7.1277111E-18
   45.90500        7.1215536E-18
   46.06650        7.1145515E-18
   46.22800        7.1089300E-18
   46.38950        7.1066312E-18
   46.55100        7.1088167E-18
   46.71250        7.1155673E-18
   46.87400        7.1258483E-18
   47.03550        7.1377498E-18
   47.19700        7.1489481E-18
   47.35850        7.1572613E-18
   47.52000        7.1611846E-18
   47.68150        7.1602598E-18
   47.84300        7.1552016E-18
   48.00450        7.1477363E-18
   48.16600        7.1401966E-18
   48.32750        7.1349539E-18
   48.48900        7.1338463E-18
   48.65050        7.1377250E-18
   48.81200        7.1462433E-18
   48.97350        7.1579454E-18
   49.13500        7.1706195E-18
   49.29650        7.1818385E-18
   49.45800        7.1895520E-18
   49.61950        7.1925745E-18
   49.78100        7.1908697E-18
   49.94250        7.1855559E-18
   50.10400        7.1786274E-18
   50.26550        7.1724674E-18
   50.42700        7.1692596E-18
   50.58850        7.1704449E-18
   50.75000        7.1763526E-18
   50.91150        7.1861084E-18
   51.07300        7.1978378E-18
   51.23450        7.2091255E-18
   51.39600        7.2176000E-18
   51.55750        7.2215241E-18
   51.71900        7.2202139E-18
   51.88050        7.2142135E-18
   52.04200        7.2051724E-18
   52.20350        7.1954630E-18
   52.36500        7.1876271E-18
   52.52650        7.1837882E-18
   52.68800        7.1851605E-18
   52.84950        7.1917738E-18
   53.01100        7.2024800E-18
   53.17250        7.2152392E-18
   53.33400        7.2276155E-18
   53.49550        7.2373680E-18
   53.65700        7.2429804E-18
   53.81850        7.2440028E-18
   53.98000        7.2411292E-18
   54.14150        7.2359866E-18
   54.30300        7.2307125E-18
   54.46450        7.2274087E-18
   54.62600        7.2276254E-18
   54.78750        7.2319772E-18
   54.94900        7.2399967E-18
   55.11050        7.2502480E-18
   55.27200        7.2606804E-18
   55.43350        7.2691317E-18
   55.59500        7.2738657E-18
   55.75650        7.2740096E-18
   55.91800        7.2697802E-18
   56.07950        7.2624398E-18
   56.24100        7.2540001E-18
   56.40250        7.2467490E-18
   56.56400        7.2427157E-18
   56.72550        7.2432037E-18
   56.88700        7.2485159E-18
   57.04850        7.2579019E-18
   57.21000        7.2697637E-18
   57.37150        7.2820415E-18
   57.53300        7.2927006E-18
   57.69450        7.3002006E-18
   57.85600        7.3038385E-18
   58.01750        7.3038716E-18
   58.17900        7.3014099E-18
   58.34050        7.2980921E-18
   58.50200        7.2956370E-18
   58.66350        7.2953996E-18
   58.82500        7.2980243E-18
   58.98650        7.3033017E-18
   59.14800        7.3102459E-18
   59.30950        7.3173646E-18
   59.47100        7.3230515E-18
   59.63250        7.3260012E-18
   59.79400        7.3255371E-18
   59.95550        7.3217900E-18
   60.11700        7.3156697E-18
   60.27850        7.3086436E-18
   60.44000        7.3023802E-18
   60.60150        7.2983295E-18
   60.76300        7.2973807E-18
   60.92450        7.2996514E-18
   61.08600        7.3044962E-18
   61.24750        7.3107033E-18
   61.40900        7.3168302E-18
   61.57050        7.3215940E-18
   61.73200        7.3241897E-18
   61.89350        7.3244858E-18
   62.05500        7.3230316E-18
   62.21650        7.3208925E-18
   62.37800        7.3193457E-18
   62.53950        7.3195293E-18
   62.70100        7.3221168E-18
   62.86250        7.3271204E-18
   63.02400        7.3338635E-18
   63.18550        7.3411510E-18
   63.34700        7.3475832E-18
   63.50850        7.3519408E-18
   63.67000        7.3535248E-18
   63.83150        7.3523659E-18
   63.99300        7.3492359E-18
   64.15450        7.3454681E-18
   64.31600        7.3426366E-18
   64.47750        7.3421602E-18
   64.63900        7.3449502E-18
   64.80050        7.3511731E-18
   64.96200        7.3601952E-18
   65.12350        7.3707169E-18
   65.28500        7.3810790E-18
   65.44650        7.3896693E-18
   65.60800        7.3953173E-18
   65.76950        7.3975862E-18
   65.93100        7.3968806E-18
   66.09250        7.3943280E-18
   66.25400        7.3914808E-18
   66.41550        7.3899009E-18
   66.57700        7.3907529E-18
   66.73850        7.3945017E-18
   66.90000        7.4007866E-18
   67.06150        7.4085083E-18
   67.22300        7.4161052E-18
   67.38450        7.4219409E-18
   67.54600        7.4247269E-18
   67.70750        7.4238649E-18
   67.86900        7.4196289E-18
   68.03050        7.4131265E-18
   68.19200        7.4060433E-18
   68.35350        7.4002382E-18
   68.51500        7.3972719E-18
   68.67650        7.3980188E-18
   68.83800        7.4024401E-18
   68.99950        7.4095911E-18
   69.16100        7.4178555E-18
   69.32250        7.4253439E-18
   69.48400        7.4303600E-18
   69.64550        7.4318166E-18
   69.80700        7.4295104E-18
   69.96850        7.4241826E-18
   70.13000        7.4173517E-18
   70.29150        7.4109493E-18
   70.45300        7.4068523E-18
   70.61450        7.4064098E-18
   70.77600        7.4101073E-18
   70.93750        7.4174386E-18
   71.09900        7.4270330E-18
   71.26050        7.4370055E-18
   71.42200        7.4454279E-18
   71.58350        7.4508194E-18
   71.74500        7.4525160E-18
   71.90650        7.4508352E-18
   72.06800        7.4470045E-18
   72.22950        7.4428595E-18
   72.39100        7.4403895E-18
   72.55250        7.4412283E-18
   72.71400        7.4462245E-18
   72.87550        7.4551803E-18
   73.03700        7.4668576E-18
   73.19850        7.4792298E-18
   73.36000        7.4899484E-18
   73.52150        7.4969008E-18
   73.68300        7.4987206E-18
   73.84450        7.4951249E-18
   74.00600        7.4869945E-18
   74.16750        7.4761767E-18
   74.32900        7.4650676E-18
   74.49050        7.4560638E-18
   74.65200        7.4510163E-18
   74.81350        7.4508145E-18
   74.97500        7.4551878E-18
   75.13650        7.4627929E-18
   75.29800        7.4715469E-18
   75.45950        7.4791520E-18
   75.62100        7.4836709E-18
   75.78250        7.4840167E-18
   75.94400        7.4802290E-18
   76.10550        7.4734718E-18
   76.26700        7.4657501E-18
   76.42850        7.4594221E-18
   76.59000        7.4566320E-18
   76.75150        7.4587877E-18
   76.91300        7.4662265E-18
   77.07450        7.4781205E-18
   77.23600        7.4926574E-18
   77.39750        7.5074482E-18
   77.55900        7.5200677E-18
   77.72050        7.5286059E-18
   77.88200        7.5320916E-18
   78.04350        7.5307036E-18
   78.20500        7.5256942E-18
   78.36650        7.5190685E-18
   78.52800        7.5130937E-18
   78.68950        7.5097660E-18
   78.85100        7.5103574E-18
   79.01250        7.5151592E-18
   79.17400        7.5234658E-18
   79.33550        7.5337898E-18
   79.49700        7.5442495E-18
   79.65850        7.5530416E-18
   79.82000        7.5588691E-18
   79.98150        7.5612472E-18
   80.14300        7.5605954E-18
   80.30450        7.5581015E-18
   80.46600        7.5553982E-18
   80.62750        7.5541235E-18
   80.78900        7.5554884E-18
   80.95050        7.5599651E-18
   81.11200        7.5671674E-18
   81.27350        7.5759462E-18
   81.43500        7.5846887E-18
   81.59650        7.5917098E-18
   81.75800        7.5956654E-18
   81.91950        7.5958730E-18
   82.08100        7.5924708E-18
   82.24250        7.5863778E-18
   82.40400        7.5790697E-18
   82.56550        7.5722148E-18
   82.72700        7.5672716E-18
   82.88850        7.5651408E-18
   83.05000        7.5659597E-18
   83.21150        7.5691030E-18
   83.37300        7.5733712E-18
   83.53450        7.5773268E-18
   83.69600        7.5796735E-18
   83.85750        7.5795933E-18
   84.01900        7.5769397E-18
   84.18050        7.5722620E-18
   84.34200        7.5666553E-18
   84.50350        7.5614772E-18
   84.66500        7.5580030E-18
   84.82650        7.5571155E-18
   84.98800        7.5590817E-18
   85.14950        7.5634996E-18
   85.31100        7.5694065E-18
   85.47250        7.5755277E-18
   85.63400        7.5806140E-18
   85.79550        7.5837490E-18
   85.95700        7.5845712E-18
   86.11850        7.5833396E-18
   86.28000        7.5808398E-18
   86.44150        7.5781589E-18
   86.60300        7.5763987E-18
   86.76450        7.5763979E-18
   86.92600        7.5785370E-18
   87.08750        7.5826662E-18
   87.24900        7.5881686E-18
   87.41050        7.5941384E-18
   87.57200        7.5996383E-18
   87.73350        7.6039513E-18
   87.89500        7.6067752E-18
   88.05650        7.6082931E-18
   88.21800        7.6091071E-18
   88.37950        7.6100451E-18
   88.54100        7.6119013E-18
   88.70250        7.6151893E-18
   88.86400        7.6199729E-18
   89.02550        7.6258211E-18
   89.18700        7.6319108E-18
   89.34850        7.6372353E-18
   89.51000        7.6408774E-18
   89.67150        7.6422613E-18
   89.83300        7.6413456E-18
   89.99450        7.6386738E-18
   90.15600        7.6352840E-18
   90.31750        7.6324832E-18
   90.47900        7.6315344E-18
   90.64050        7.6333393E-18
   90.80200        7.6381932E-18
   90.96350        7.6456891E-18
   91.12500        7.6547914E-18
   91.28650        7.6640790E-18
   91.44800        7.6720778E-18
   91.60950        7.6776158E-18
   91.77100        7.6801015E-18
   91.93250        7.6796606E-18
   92.09400        7.6771046E-18
   92.25550        7.6737289E-18
   92.41700        7.6709942E-18
   92.57850        7.6701646E-18
   92.74000        7.6719761E-18
   92.90150        7.6764495E-18
   93.06300        7.6828577E-18
   93.22450        7.6899011E-18
   93.38600        7.6960231E-18
   93.54750        7.6998033E-18
   93.70900        7.7003194E-18
   93.87050        7.6973921E-18
   94.03200        7.6916481E-18
   94.19350        7.6843888E-18
   94.35500        7.6772982E-18
   94.51650        7.6720596E-18
   94.67800        7.6699752E-18
   94.83950        7.6716609E-18
   95.00100        7.6769061E-18
   95.16250        7.6847213E-18
   95.32400        7.6935614E-18
   95.48550        7.7016934E-18
   95.64700        7.7075986E-18
   95.80850        7.7103225E-18
   95.97000        7.7096873E-18
   96.13150        7.7063074E-18
   96.29300        7.7014130E-18
   96.45450        7.6965277E-18
   96.61600        7.6930849E-18
   96.77750        7.6920733E-18
   96.93900        7.6938021E-18
   97.10050        7.6978313E-18
   97.26200        7.7030922E-18
   97.42350        7.7081578E-18
   97.58500        7.7116105E-18
   97.74650        7.7124120E-18
   97.90800        7.7101877E-18
   98.06950        7.7053446E-18
   98.23100        7.6989943E-18
   98.39250        7.6926962E-18
   98.55400        7.6880830E-18
   98.71550        7.6864609E-18
   98.87700        7.6884966E-18
   99.03850        7.6940527E-18
   99.20000        7.7022203E-18
   99.36150        7.7115311E-18
   99.52300        7.7203074E-18
   99.68450        7.7270481E-18
   99.84600        7.7307762E-18
   100.0075        7.7312626E-18
   100.1690        7.7290640E-18
   100.3305        7.7253756E-18
   100.4920        7.7217236E-18
   100.6535        7.7195795E-18
   100.8150        7.7199923E-18
   100.9765        7.7233357E-18
   101.1380        7.7292286E-18
   101.2995        7.7366418E-18
   101.4610        7.7441708E-18
   101.6225        7.7503895E-18
   101.7840        7.7541970E-18
   101.9455        7.7550912E-18
   102.1070        7.7532764E-18
   102.2685        7.7496169E-18
   102.4300        7.7454248E-18
   102.5915        7.7421425E-18
   102.7530        7.7409961E-18
   102.9145        7.7427042E-18
   103.0760        7.7473091E-18
   103.2375        7.7541788E-18
   103.3990        7.7621702E-18
   103.5605        7.7699110E-18
   103.7220        7.7761248E-18
   103.8835        7.7799182E-18
   104.0450        7.7809629E-18
   104.2065        7.7795385E-18
   104.3680        7.7764259E-18
   104.5295        7.7726994E-18
   104.6910        7.7694602E-18
   104.8525        7.7675800E-18
   105.0140        7.7675097E-18
   105.1755        7.7692120E-18
   105.3370        7.7722105E-18
   105.4985        7.7757600E-18
   105.6600        7.7790670E-18
   105.8215        7.7815246E-18
   105.9830        7.7828679E-18
   106.1445        7.7832327E-18
   106.3060        7.7830938E-18
   106.4675        7.7831103E-18
   106.6290        7.7839276E-18
   106.7905        7.7859831E-18
   106.9520        7.7893836E-18
   107.1135        7.7938620E-18
   107.2750        7.7988408E-18
   107.4365        7.8035789E-18
   107.5980        7.8073599E-18
   107.7595        7.8096785E-18
   107.9210        7.8103758E-18
   108.0825        7.8096760E-18
   108.2440        7.8081234E-18
   108.4055        7.8064285E-18
   108.5670        7.8052713E-18
   108.7285        7.8051158E-18
   108.8900        7.8060943E-18
   109.0515        7.8079811E-18
   109.2130        7.8102733E-18
   109.3745        7.8123462E-18
   109.5360        7.8136415E-18
   109.6975        7.8138326E-18
   109.8590        7.8129376E-18
   110.0205        7.8113337E-18
   110.1820        7.8096769E-18
   110.3435        7.8087355E-18
   110.5050        7.8091830E-18
   110.6665        7.8114065E-18
   110.8280        7.8153720E-18
   110.9895        7.8206056E-18
   111.1510        7.8262833E-18
   111.3125        7.8314226E-18
   111.4740        7.8351176E-18
   111.6355        7.8367604E-18
   111.7970        7.8361913E-18
   111.9585        7.8337404E-18
   112.1200        7.8301562E-18
   112.2815        7.8264264E-18
   112.4430        7.8235536E-18
   112.6045        7.8223170E-18
   112.7660        7.8230929E-18
   112.9275        7.8257730E-18
   113.0890        7.8298038E-18
   113.2505        7.8343376E-18
   113.4120        7.8384594E-18
   113.5735        7.8414249E-18
   113.7350        7.8428567E-18
   113.8965        7.8428270E-18
   114.0580        7.8418236E-18
   114.2195        7.8405994E-18
   114.3810        7.8399591E-18
   114.5425        7.8405233E-18
   114.7040        7.8425573E-18
   114.8655        7.8458801E-18
   115.0270        7.8499018E-18
   115.1885        7.8537656E-18
   115.3500        7.8565672E-18
   115.5115        7.8575979E-18
   115.6730        7.8565441E-18
   115.8345        7.8535919E-18
   115.9960        7.8494014E-18
   116.1575        7.8449578E-18
   116.3190        7.8413347E-18
   116.4805        7.8394330E-18
   116.6420        7.8397606E-18