  -30.00000       -5.7931888E-18
  -29.83850       -5.8118185E-18
  -29.67700       -5.8455018E-18
  -29.51550       -5.8882579E-18
  -29.35400       -5.9329885E-18
  -29.19250       -5.9729934E-18
  -29.03100       -6.0033828E-18
  -28.86950       -6.0220734E-18
  -28.70800       -6.0301442E-18
  -28.54650       -6.0314772E-18
  -28.38500       -6.0317725E-18
  -28.22350       -6.0371595E-18
  -28.06200       -6.0527204E-18
  -27.90050       -6.0812611E-18
  -27.73900       -6.1226081E-18
  -27.57750       -6.1735860E-18
  -27.41600       -6.2286832E-18
  -27.25450       -6.2812613E-18
  -27.09300       -6.3250279E-18
  -26.93150       -6.3554425E-18
  -26.77000       -6.3707466E-18
  -26.60850       -6.3723637E-18
  -26.44700       -6.3645994E-18
  -26.28550       -6.3536926E-18
  -26.12400       -6.3464357E-18
  -25.96250       -6.3486774E-18
  -25.80100       -6.3640394E-18
  -25.63950       -6.3931433E-18
  -25.47800       -6.4335089E-18
  -25.31650       -6.4801445E-18
  -25.15500       -6.5266999E-18
  -24.99350       -6.5669100E-18
  -24.83200       -6.5960135E-18
  -24.67050       -6.6118213E-18
  -24.50900       -6.6151983E-18
  -24.34750       -6.6098535E-18
  -24.18600       -6.6014778E-18
  -24.02450       -6.5964353E-18
  -23.86300       -6.6003020E-18
  -23.70150       -6.6165813E-18
  -23.54000       -6.6459053E-18
  -23.37850       -6.6858871E-18
  -23.21700       -6.7316678E-18
  -23.05550       -6.7770300E-18
  -22.89400       -6.8158136E-18
  -22.73250       -6.8433202E-18
  -22.57100       -6.8573794E-18
  -22.40950       -6.8588390E-18
  -22.24800       -6.8513765E-18
  -22.08650       -6.8406641E-18
  -21.92500       -6.8330851E-18
  -21.76350       -6.8342874E-18
  -21.60200       -6.8478966E-18
  -21.44050       -6.8746857E-18
  -21.27900       -6.9123931E-18
  -21.11750       -6.9562283E-18
  -20.95600       -6.9999580E-18
  -20.79450       -7.0373226E-18
  -20.63300       -7.0634541E-18
  -20.47150       -7.0759850E-18
  -20.31000       -7.0755723E-18
  -20.14850       -7.0657462E-18
  -19.98700       -7.0521010E-18
  -19.82550       -7.0410284E-18
  -19.66400       -7.0382722E-18
  -19.50250       -7.0476384E-18
  -19.34100       -7.0701410E-18
  -19.17950       -7.1037907E-18
  -19.01800       -7.1440521E-18
  -18.85650       -7.1848900E-18
  -18.69500       -7.2201626E-18
  -18.53350       -7.2450351E-18
  -18.37200       -7.2571078E-18
  -18.21050       -7.2569821E-18
  -18.04900       -7.2481345E-18
  -17.88750       -7.2361305E-18
  -17.72600       -7.2273492E-18
  -17.56450       -7.2275237E-18
  -17.40300       -7.2404194E-18
  -17.24150       -7.2669595E-18
  -17.08000       -7.3049842E-18
  -16.91850       -7.3497049E-18
  -16.75700       -7.3947449E-18
  -16.59550       -7.4335314E-18
  -16.43400       -7.4607506E-18
  -16.27250       -7.4735148E-18
  -16.11100       -7.4720027E-18
  -15.94950       -7.4594138E-18
  -15.78800       -7.4412473E-18
  -15.62650       -7.4240618E-18
  -15.46500       -7.4139967E-18
  -15.30350       -7.4153979E-18
  -15.14200       -7.4298579E-18
  -14.98050       -7.4558934E-18
  -14.81900       -7.4893239E-18
  -14.65750       -7.5242615E-18
  -14.49600       -7.5544834E-18
  -14.33450       -7.5748684E-18
  -14.17300       -7.5825885E-18
  -14.01150       -7.5777726E-18
  -13.85000       -7.5635112E-18
  -13.68850       -7.5451999E-18
  -13.52700       -7.5293495E-18
  -13.36550       -7.5221373E-18
  -13.20400       -7.5280119E-18
  -13.04250       -7.5486733E-18
  -12.88100       -7.5826654E-18
  -12.71950       -7.6256681E-18
  -12.55800       -7.6714459E-18
  -12.39650       -7.7132185E-18
  -12.23500       -7.7451526E-18
  -12.07350       -7.7636277E-18
  -11.91200       -7.7679994E-18
  -11.75050       -7.7606838E-18
  -11.58900       -7.7465721E-18
  -11.42750       -7.7318946E-18
  -11.26600       -7.7228097E-18
  -11.10450       -7.7240132E-18
  -10.94300       -7.7376849E-18
  -10.78150       -7.7630082E-18
  -10.62000       -7.7963543E-18
  -10.45850       -7.8321174E-18
  -10.29700       -7.8639953E-18
  -10.13550       -7.8864376E-18
  -9.974000       -7.8959319E-18
  -9.812500       -7.8918151E-18
  -9.651000       -7.8764370E-18
  -9.489500       -7.8546308E-18
  -9.328000       -7.8326187E-18
  -9.166500       -7.8166070E-18
  -9.005000       -7.8113974E-18
  -8.843500       -7.8193218E-18
  -8.682000       -7.8397366E-18
  -8.520500       -7.8691768E-18
  -8.359000       -7.9021416E-18
  -8.197500       -7.9323287E-18
  -8.036000       -7.9540447E-18
  -7.874500       -7.9634845E-18
  -7.713000       -7.9595860E-18
  -7.551500       -7.9442691E-18
  -7.390000       -7.9219881E-18
  -7.228500       -7.8987138E-18
  -7.067000       -7.8805654E-18
  -6.905500       -7.8724210E-18
  -6.744000       -7.8768175E-18
  -6.582500       -7.8934099E-18
  -6.421000       -7.9190814E-18
  -6.259500       -7.9486928E-18
  -6.098000       -7.9762785E-18
  -5.936500       -7.9964112E-18
  -5.775000       -8.0054383E-18
  -5.613500       -8.0023132E-18
  -5.452000       -7.9888285E-18
  -5.290500       -7.9692135E-18
  -5.129000       -7.9491685E-18
  -4.967500       -7.9345489E-18
  -4.806000       -7.9300093E-18
  -4.644500       -7.9379089E-18
  -4.483000       -7.9577455E-18
  -4.321500       -7.9862477E-18
  -4.160000       -8.0181173E-18
  -3.998500       -8.0472316E-18
  -3.837000       -8.0680393E-18
  -3.675500       -8.0768082E-18
  -3.514000       -8.0724589E-18
  -3.352500       -8.0567855E-18
  -3.191000       -8.0340438E-18
  -3.029500       -8.0099902E-18
  -2.868000       -7.9905986E-18
  -2.706500       -7.9807320E-18
  -2.545000       -7.9830655E-18
  -2.383500       -7.9974965E-18
  -2.222000       -8.0211936E-18
  -2.060500       -8.0492581E-18
  -1.899000       -8.0758793E-18
  -1.737500       -8.0956936E-18
  -1.576000       -8.1050490E-18
  -1.414500       -8.1028636E-18
  -1.253000       -8.0908728E-18
  -1.091500       -8.0732249E-18
 -0.9300000       -8.0555091E-18
 -0.7685000       -8.0434621E-18
 -0.6070000       -8.0416473E-18
 -0.4455000       -8.0524056E-18
 -0.2840000       -8.0753036E-18
 -0.1225000       -8.1072030E-18
  3.9000001E-02   -8.1429231E-18
  0.2005000       -8.1763644E-18
  0.3620000       -8.2018457E-18
  0.5235000       -8.2153544E-18
  0.6850000       -8.2154511E-18
  0.8465000       -8.2035819E-18
   1.008000       -8.1837519E-18
   1.169500       -8.1616116E-18
   1.331000       -8.1431630E-18
   1.492500       -8.1334081E-18
   1.654000       -8.1352279E-18
   1.815500       -8.1487721E-18
   1.977000       -8.1714749E-18
   2.138500       -8.1986784E-18
   2.300000       -8.2247255E-18
   2.461500       -8.2442494E-18
   2.623000       -8.2533947E-18
   2.784500       -8.2506956E-18
   2.946000       -8.2374128E-18
   3.107500       -8.2172726E-18
   3.269000       -8.1956393E-18
   3.430500       -8.1783107E-18
   3.592000       -8.1702052E-18
   3.753500       -8.1742352E-18
   3.915000       -8.1906365E-18
   4.076500       -8.2169128E-18
   4.238000       -8.2484044E-18
   4.399500       -8.2793450E-18
   4.561000       -8.3041555E-18
   4.722500       -8.3186849E-18
   4.884000       -8.3211003E-18
   5.045500       -8.3122660E-18
   5.207000       -8.2955173E-18
   5.368500       -8.2759048E-18
   5.530000       -8.2590667E-18
   5.691500       -8.2499801E-18
   5.853000       -8.2518636E-18
   6.014500       -8.2654625E-18
   6.176000       -8.2888957E-18
   6.337500       -8.3180943E-18
   6.499000       -8.3477471E-18
   6.660500       -8.3725195E-18
   6.822000       -8.3882814E-18
   6.983500       -8.3930261E-18
   7.145000       -8.3873012E-18
   7.306500       -8.3740349E-18
   7.468000       -8.3578321E-18
   7.629500       -8.3439098E-18
   7.791000       -8.3369135E-18
   7.952500       -8.3398823E-18
   8.114000       -8.3535771E-18
   8.275500       -8.3763154E-18
   8.437000       -8.4043370E-18
   8.598500       -8.4326398E-18
   8.760000       -8.4560937E-18
   8.921500       -8.4706041E-18
   9.083000       -8.4740443E-18
   9.244500       -8.4667511E-18
   9.406000       -8.4514458E-18
   9.567500       -8.4326117E-18
   9.729000       -8.4154634E-18
   9.890500       -8.4047680E-18
   10.05200       -8.4037894E-18
   10.21350       -8.4135956E-18
   10.37500       -8.4328756E-18
   10.53650       -8.4582816E-18
   10.69800       -8.4852129E-18
   10.85950       -8.5088521E-18
   11.02100       -8.5252410E-18
   11.18250       -8.5321546E-18
   11.34400       -8.5295945E-18
   11.50550       -8.5197825E-18
   11.66700       -8.5066493E-18
   11.82850       -8.4949191E-18
   11.99000       -8.4889965E-18
   12.15150       -8.4919189E-18
   12.31300       -8.5046327E-18
   12.47450       -8.5257580E-18
   12.63600       -8.5519077E-18
   12.79750       -8.5784676E-18
   12.95900       -8.6006584E-18
   13.12050       -8.6146080E-18
   13.28200       -8.6182219E-18
   13.44350       -8.6116392E-18
   13.60500       -8.5972082E-18
   13.76650       -8.5789763E-18
   13.92800       -8.5618148E-18
   14.08950       -8.5503509E-18
   14.25100       -8.5479529E-18
   14.41250       -8.5559724E-18
   14.57400       -8.5734499E-18
   14.73550       -8.5973406E-18
   14.89700       -8.6232313E-18
   15.05850       -8.6463791E-18
   15.22000       -8.6628169E-18
   15.38150       -8.6702690E-18
   15.54300       -8.6686601E-18
   15.70450       -8.6601046E-18
   15.86600       -8.6484000E-18
   16.02750       -8.6381404E-18
   16.18900       -8.6336770E-18
   16.35050       -8.6381115E-18
   16.51200       -8.6525896E-18
   16.67350       -8.6759930E-18
   16.83500       -8.7051503E-18
   16.99650       -8.7355004E-18
   17.15800       -8.7620918E-18
   17.31950       -8.7806984E-18
   17.48100       -8.7887816E-18
   17.64250       -8.7860809E-18
   17.80400       -8.7746765E-18
   17.96550       -8.7585109E-18
   18.12700       -8.7424868E-18
   18.28850       -8.7313571E-18
   18.45000       -8.7286762E-18
   18.61150       -8.7360348E-18
   18.77300       -8.7527422E-18
   18.93450       -8.7760099E-18
   19.09600       -8.8015872E-18
   19.25750       -8.8247036E-18
   19.41900       -8.8411363E-18
   19.58050       -8.8481624E-18
   19.74200       -8.8451837E-18
   19.90350       -8.8338927E-18
   20.06500       -8.8178959E-18
   20.22650       -8.8018932E-18
   20.38800       -8.7905882E-18
   20.54950       -8.7875913E-18
   20.71100       -8.7945892E-18
   20.87250       -8.8109707E-18
   21.03400       -8.8339870E-18
   21.19550       -8.8594038E-18
   21.35700       -8.8824623E-18
   21.51850       -8.8989381E-18
   21.68000       -8.9060708E-18
   21.84150       -8.9031608E-18
   22.00300       -8.8917242E-18
   22.16450       -8.8751773E-18
   22.32600       -8.8580977E-18
   22.48750       -8.8452201E-18
   22.64900       -8.8403811E-18
   22.81050       -8.8456519E-18
   22.97200       -8.8608679E-18
   23.13350       -8.8836832E-18
   23.29500       -8.9101282E-18
   23.45650       -8.9355499E-18
   23.61800       -8.9556851E-18
   23.77950       -8.9676172E-18
   23.94100       -8.9703990E-18
   24.10250       -8.9652085E-18
   24.26400       -8.9550284E-18
   24.42550       -8.9439400E-18
   24.58700       -8.9361935E-18
   24.74850       -8.9352496E-18
   24.91000       -8.9429937E-18
   25.07150       -8.9593024E-18
   25.23300       -8.9820466E-18
   25.39450       -9.0075651E-18
   25.55600       -9.0314962E-18
   25.71750       -9.0497910E-18
   25.87900       -9.0596609E-18
   26.04050       -9.0602259E-18
   26.20200       -9.0527018E-18
   26.36350       -9.0401022E-18
   26.52500       -9.0265166E-18
   26.68650       -9.0161645E-18
   26.84800       -9.0124479E-18
   27.00950       -9.0172067E-18
   27.17100       -9.0303241E-18
   27.33250       -9.0497736E-18
   27.49400       -9.0720719E-18
   27.65550       -9.0930534E-18
   27.81700       -9.1088021E-18
   27.97850       -9.1165470E-18
   28.14000       -9.1152963E-18
   28.30150       -9.1060757E-18
   28.46300       -9.0916811E-18
   28.62450       -9.0760110E-18
   28.78600       -9.0631376E-18
   28.94750       -9.0563431E-18
   29.10900       -9.0573746E-18
   29.27050       -9.0660683E-18
   29.43200       -9.0804389E-18
   29.59350       -9.0971785E-18
   29.75500       -9.1124441E-18
   29.91650       -9.1227558E-18
   30.07800       -9.1257998E-18
   30.23950       -9.1209922E-18
   30.40100       -9.1096590E-18
   30.56250       -9.0947913E-18
   30.72400       -9.0804198E-18
   30.88550       -9.0707195E-18
   31.04700       -9.0690618E-18
   31.20850       -9.0772278E-18
   31.37000       -9.0949890E-18
   31.53150       -9.1201692E-18
   31.69300       -9.1491495E-18
   31.85450       -9.1777120E-18
   32.01600       -9.2019873E-18
   32.17750       -9.2192853E-18
   32.33900       -9.2286415E-18
   32.50050       -9.2309527E-18
   32.66200       -9.2287135E-18
   32.82350       -9.2254097E-18
   32.98500       -9.2247041E-18
   33.14650       -9.2295746E-18
   33.30800       -9.2416001E-18
   33.46950       -9.2605417E-18
   33.63100       -9.2843389E-18
   33.79250       -9.3095431E-18
   33.95400       -9.3320871E-18
   34.11550       -9.3482295E-18
   34.27700       -9.3554251E-18
   34.43850       -9.3529138E-18
   34.60000       -9.3418875E-18
   34.76150       -9.3252041E-18
   34.92300       -9.3067365E-18
   35.08450       -9.2905188E-18
   35.24600       -9.2798853E-18
   35.40750       -9.2767842E-18
   35.56900       -9.2813908E-18
   35.73050       -9.2921045E-18
   35.89200       -9.3059275E-18
   36.05350       -9.3191475E-18
   36.21500       -9.3281952E-18
   36.37650       -9.3304832E-18
   36.53800       -9.3250329E-18
   36.69950       -9.3127319E-18
   36.86100       -9.2961411E-18
   37.02250       -9.2789060E-18
   37.18400       -9.2649159E-18
   37.34550       -9.2574175E-18
   37.50700       -9.2583001E-18
   37.66850       -9.2677084E-18
   37.83000       -9.2840535E-18
   37.99150       -9.3043972E-18
   38.15300       -9.3251123E-18
   38.31450       -9.3426791E-18
   38.47600       -9.3544524E-18
   38.63750       -9.3592343E-18
   38.79900       -9.3575427E-18
   38.96050       -9.3514886E-18
   39.12200       -9.3442880E-18
   39.28350       -9.3395019E-18
   39.44500       -9.3401951E-18
   39.60650       -9.3482038E-18
   39.76800       -9.3637085E-18
   39.92950       -9.3852036E-18
   40.09100       -9.4098652E-18
   40.25250       -9.4342033E-18
   40.41400       -9.4548390E-18
   40.57550       -9.4692286E-18
   40.73700       -9.4761778E-18
   40.89850       -9.4760570E-18
   41.06000       -9.4706861E-18
   41.22150       -9.4629073E-18
   41.38300       -9.4559433E-18
   41.54450       -9.4526610E-18
   41.70600       -9.4549192E-18
   41.86750       -9.4631241E-18
   42.02900       -9.4761555E-18
   42.19050       -9.4916452E-18
   42.35200       -9.5065833E-18
   42.51350       -9.5180588E-18
   42.67500       -9.5239731E-18
   42.83650       -9.5235331E-18
   42.99800       -9.5174127E-18
   43.15950       -9.5075825E-18
   43.32100       -9.4968507E-18
   43.48250       -9.4882430E-18
   43.64400       -9.4843470E-18
   43.80550       -9.4867682E-18
   43.96700       -9.4957828E-18
   44.12850       -9.5102717E-18
   44.29000       -9.5279568E-18
   44.45150       -9.5459091E-18
   44.61300       -9.5612169E-18
   44.77450       -9.5716592E-18
   44.93600       -9.5762203E-18
   45.09750       -9.5753088E-18
   45.25900       -9.5706120E-18
   45.42050       -9.5646489E-18
   45.58200       -9.5601333E-18
   45.74350       -9.5593177E-18
   45.90500       -9.5634768E-18
   46.06650       -9.5726403E-18
   46.22800       -9.5856080E-18
   46.38950       -9.6002309E-18
   46.55100       -9.6138926E-18
   46.71250       -9.6240901E-18
   46.87400       -9.6290035E-18
   47.03550       -9.6279390E-18
   47.19700       -9.6215275E-18
   47.35850       -9.6116261E-18
   47.52000       -9.6009208E-18
   47.68150       -9.5923173E-18
   47.84300       -9.5882723E-18
   48.00450       -9.5902245E-18
   48.16600       -9.5982887E-18
   48.32750       -9.6112663E-18
   48.48900       -9.6269588E-18
   48.65050       -9.6426967E-18
   48.81200       -9.6559432E-18
   48.97350       -9.6648436E-18
   49.13500       -9.6686147E-18
   49.29650       -9.6676999E-18
   49.45800       -9.6636624E-18
   49.61950       -9.6588399E-18
   49.78100       -9.6558116E-18
   49.94250       -9.6567993E-18
   50.10400       -9.6631239E-18
   50.26550       -9.6748765E-18
   50.42700       -9.6908725E-18
   50.58850       -9.7089257E-18
   50.75000       -9.7263652E-18
   50.91150       -9.7406605E-18
   51.07300       -9.7499928E-18
   51.23450       -9.7536423E-18
   51.39600       -9.7521128E-18
   51.55750       -9.7469835E-18
   51.71900       -9.7405414E-18
   51.88050       -9.7352805E-18
   52.04200       -9.7333590E-18
   52.20350       -9.7361325E-18
   52.36500       -9.7438476E-18
   52.52650       -9.7555779E-18
   52.68800       -9.7694224E-18
   52.84950       -9.7829526E-18
   53.01100       -9.7937895E-18
   53.17250       -9.8001737E-18
   53.33400       -9.8013855E-18
   53.49550       -9.7978998E-18
   53.65700       -9.7912376E-18
   53.81850       -9.7835912E-18
   53.98000       -9.7772988E-18
   54.14150       -9.7743334E-18
   54.30300       -9.7758885E-18
   54.46450       -9.7821585E-18
   54.62600       -9.7923229E-18
   54.78750       -9.8047513E-18
   54.94900       -9.8173675E-18
   55.11050       -9.8281241E-18
   55.27200       -9.8354910E-18
   55.43350       -9.8388196E-18
   55.59500       -9.8385209E-18
   55.75650       -9.8359666E-18
   55.91800       -9.8331410E-18
   56.07950       -9.8321392E-18
   56.24100       -9.8346440E-18
   56.40250       -9.8415178E-18
   56.56400       -9.8526194E-18
   56.72550       -9.8668618E-18
   56.88700       -9.8824881E-18
   57.04850       -9.8974650E-18
   57.21000       -9.9099141E-18
   57.37150       -9.9184936E-18
   57.53300       -9.9226543E-18
   57.69450       -9.9227395E-18
   57.85600       -9.9198948E-18
   58.01750       -9.9158003E-18
   58.17900       -9.9122732E-18
   58.34050       -9.9108289E-18
   58.50200       -9.9123203E-18
   58.66350       -9.9167466E-18
   58.82500       -9.9232962E-18
   58.98650       -9.9306010E-18
   59.14800       -9.9371308E-18
   59.30950       -9.9415968E-18
   59.47100       -9.9432776E-18
   59.63250       -9.9421733E-18
   59.79400       -9.9389887E-18
   59.95550       -9.9349603E-18
   60.11700       -9.9315796E-18
   60.27850       -9.9302760E-18
   60.44000       -9.9321007E-18
   60.60150       -9.9374939E-18
   60.76300       -9.9461636E-18
   60.92450       -9.9571370E-18
   61.08600       -9.9689723E-18
   61.24750       -9.9800937E-18
   61.40900       -9.9891704E-18
   61.57050       -9.9954214E-18
   61.73200       -9.9987806E-18
   61.89350       -9.9998617E-18
   62.05500       -9.9997649E-18
   62.21650       -9.9997815E-18
   62.37800       -1.0001082E-17
   62.53950       -1.0004464E-17
   62.70100       -1.0010203E-17
   62.86250       -1.0018013E-17
   63.02400       -1.0027127E-17
   63.18550       -1.0036469E-17
   63.34700       -1.0044894E-17
   63.50850       -1.0051455E-17
   63.67000       -1.0055638E-17
   63.83150       -1.0057500E-17
   63.99300       -1.0057660E-17
   64.15450       -1.0057145E-17
   64.31600       -1.0057127E-17
   64.47750       -1.0058631E-17
   64.63900       -1.0062292E-17
   64.80050       -1.0068234E-17
   64.96200       -1.0076079E-17
   65.12350       -1.0085064E-17
   65.28500       -1.0094231E-17
   65.44650       -1.0102617E-17
   65.60800       -1.0109451E-17
   65.76950       -1.0114283E-17
   65.93100       -1.0117072E-17
   66.09250       -1.0118197E-17
   66.25400       -1.0118369E-17
   66.41550       -1.0118480E-17
   66.57700       -1.0119385E-17
   66.73850       -1.0121696E-17
   66.90000       -1.0125642E-17
   67.06150       -1.0131038E-17
   67.22300       -1.0137365E-17
   67.38450       -1.0143937E-17
   67.54600       -1.0150081E-17
   67.70750       -1.0155294E-17
   67.86900       -1.0159331E-17
   68.03050       -1.0162232E-17
   68.19200       -1.0164288E-17
   68.35350       -1.0165975E-17
   68.51500       -1.0167869E-17
   68.67650       -1.0170525E-17
   68.83800       -1.0174367E-17
   68.99950       -1.0179582E-17
   69.16100       -1.0186057E-17
   69.32250       -1.0193403E-17
   69.48400       -1.0201048E-17
   69.64550       -1.0208375E-17
   69.80700       -1.0214878E-17
   69.96850       -1.0220271E-17
   70.13000       -1.0224519E-17
   70.29150       -1.0227805E-17
   70.45300       -1.0230452E-17
   70.61450       -1.0232831E-17
   70.77600       -1.0235287E-17
   70.93750       -1.0238086E-17
   71.09900       -1.0241376E-17
   71.26050       -1.0245169E-17
   71.42200       -1.0249338E-17
   71.58350       -1.0253640E-17
   71.74500       -1.0257776E-17
   71.90650       -1.0261467E-17
   72.06800       -1.0264531E-17
   72.22950       -1.0266924E-17
   72.39100       -1.0268740E-17
   72.55250       -1.0270152E-17
   72.71400       -1.0271346E-17
   72.87550       -1.0272458E-17
   73.03700       -1.0273554E-17
   73.19850       -1.0274637E-17
   73.36000       -1.0275687E-17
   73.52150       -1.0276686E-17
   73.68300       -1.0277640E-17
   73.84450       -1.0278570E-17
   74.00600       -1.0279506E-17
   74.16750       -1.0280483E-17
   74.32900       -1.0281553E-17
   74.49050       -1.0282789E-17
   74.65200       -1.0284282E-17
   74.81350       -1.0286132E-17
   74.97500       -1.0288419E-17
   75.13650       -1.0291198E-17
   75.29800       -1.0294505E-17
   75.45950       -1.0298386E-17
   75.62100       -1.0302926E-17
   75.78250       -1.0308257E-17
   75.94400       -1.0314529E-17
   76.10550       -1.0321851E-17
   76.26700       -1.0330229E-17
   76.42850       -1.0339519E-17
   76.59000       -1.0349437E-17
   76.75150       -1.0359595E-17
   76.91300       -1.0369582E-17
   77.07450       -1.0379034E-17
   77.23600       -1.0387688E-17
   77.39750       -1.0395415E-17
   77.55900       -1.0402228E-17
   77.72050       -1.0408261E-17
   77.88200       -1.0413743E-17
   78.04350       -1.0418953E-17
   78.20500       -1.0424144E-17
   78.36650       -1.0429479E-17
   78.52800       -1.0434966E-17
   78.68950       -1.0440448E-17
   78.85100       -1.0445643E-17
   79.01250       -1.0450238E-17
   79.17400       -1.0454001E-17
   79.33550       -1.0456887E-17
   79.49700       -1.0459079E-17
   79.65850       -1.0460970E-17
   79.82000       -1.0463078E-17
   79.98150       -1.0465931E-17
   80.14300       -1.0469951E-17
   80.30450       -1.0475362E-17
   80.46600       -1.0482136E-17
   80.62750       -1.0489996E-17
   80.78900       -1.0498448E-17
   80.95050       -1.0506875E-17
   81.11200       -1.0514648E-17
   81.27350       -1.0521251E-17
   81.43500       -1.0526401E-17
   81.59650       -1.0530090E-17
   81.75800       -1.0532586E-17
   81.91950       -1.0534330E-17
   82.08100       -1.0535808E-17
   82.24250       -1.0537399E-17
   82.40400       -1.0539262E-17
   82.56550       -1.0541284E-17
   82.72700       -1.0543115E-17
   82.88850       -1.0544253E-17
   83.05000       -1.0544180E-17
   83.21150       -1.0542489E-17
   83.37300       -1.0539000E-17
   83.53450       -1.0533823E-17
   83.69600       -1.0527370E-17
   83.85750       -1.0520298E-17
   84.01900       -1.0513405E-17
   84.18050       -1.0507476E-17
   84.34200       -1.0503127E-17
   84.50350       -1.0500679E-17
   84.66500       -1.0500096E-17
   84.82650       -1.0501009E-17
   84.98800       -1.0502821E-17
   85.14950       -1.0504862E-17
   85.31100       -1.0506555E-17
   85.47250       -1.0507557E-17
   85.63400       -1.0507837E-17
   85.79550       -1.0507674E-17
   85.95700       -1.0507601E-17
   86.11850       -1.0508286E-17
   86.28000       -1.0510384E-17
   86.44150       -1.0514395E-17
   86.60300       -1.0520538E-17
   86.76450       -1.0528701E-17
   86.92600       -1.0538444E-17
   87.08750       -1.0549096E-17
   87.24900       -1.0559895E-17
   87.41050       -1.0570169E-17
   87.57200       -1.0579472E-17
   87.73350       -1.0587682E-17
   87.89500       -1.0595000E-17
   88.05650       -1.0601875E-17
   88.21800       -1.0608868E-17
   88.37950       -1.0616502E-17
   88.54100       -1.0625120E-17
   88.70250       -1.0634796E-17
   88.86400       -1.0645304E-17
   89.02550       -1.0656154E-17
   89.18700       -1.0666692E-17
   89.34850       -1.0676232E-17
   89.51000       -1.0684215E-17
   89.67150       -1.0690323E-17
   89.83300       -1.0694559E-17
   89.99450       -1.0697247E-17
   90.15600       -1.0698950E-17
   90.31750       -1.0700336E-17
   90.47900       -1.0702013E-17
   90.64050       -1.0704394E-17
   90.80200       -1.0707607E-17
   90.96350       -1.0711485E-17
   91.12500       -1.0715629E-17
   91.28650       -1.0719515E-17
   91.44800       -1.0722646E-17
   91.60950       -1.0724670E-17
   91.77100       -1.0725476E-17
   91.93250       -1.0725237E-17
   92.09400       -1.0724378E-17
   92.25550       -1.0723488E-17
   92.41700       -1.0723196E-17
   92.57850       -1.0724021E-17
   92.74000       -1.0726250E-17
   92.90150       -1.0729866E-17
   93.06300       -1.0734551E-17
   93.22450       -1.0739762E-17
   93.38600       -1.0744862E-17
   93.54750       -1.0749279E-17
   93.70900       -1.0752637E-17
   93.87050       -1.0754844E-17
   94.03200       -1.0756102E-17
   94.19350       -1.0756854E-17
   94.35500       -1.0757661E-17
   94.51650       -1.0759067E-17
   94.67800       -1.0761461E-17
   94.83950       -1.0764984E-17
   95.00100       -1.0769490E-17
   95.16250       -1.0774587E-17
   95.32400       -1.0779730E-17
   95.48550       -1.0784356E-17
   95.64700       -1.0788032E-17
   95.80850       -1.0790555E-17
   95.97000       -1.0792009E-17
   96.13150       -1.0792742E-17
   96.29300       -1.0793274E-17
   96.45450       -1.0794168E-17
   96.61600       -1.0795881E-17
   96.77750       -1.0798658E-17
   96.93900       -1.0802468E-17
   97.10050       -1.0807012E-17
   97.26200       -1.0811792E-17
   97.42350       -1.0816240E-17
   97.58500       -1.0819839E-17
   97.74650       -1.0822257E-17
   97.90800       -1.0823414E-17
   98.06950       -1.0823504E-17
   98.23100       -1.0822945E-17
   98.39250       -1.0822282E-17
   98.55400       -1.0822058E-17
   98.71550       -1.0822697E-17
   98.87700       -1.0824414E-17
   99.03850       -1.0827171E-17
   99.20000       -1.0830701E-17
   99.36150       -1.0834585E-17
   99.52300       -1.0838354E-17
   99.68450       -1.0841609E-17
   99.84600       -1.0844119E-17
   100.0075       -1.0845880E-17
   100.1690       -1.0847117E-17
   100.3305       -1.0848242E-17
   100.4920       -1.0849752E-17
   100.6535       -1.0852123E-17
   100.8150       -1.0855703E-17
   100.9765       -1.0860631E-17
   101.1380       -1.0866808E-17
   101.2995       -1.0873920E-17
   101.4610       -1.0881501E-17
   101.6225       -1.0889029E-17
   101.7840       -1.0896034E-17
   101.9455       -1.0902181E-17
   102.1070       -1.0907325E-17
   102.2685       -1.0911526E-17
   102.4300       -1.0915006E-17
   102.5915       -1.0918092E-17
   102.7530       -1.0921115E-17
   102.9145       -1.0924339E-17
   103.0760       -1.0927900E-17
   103.2375       -1.0931784E-17
   103.3990       -1.0935858E-17
   103.5605       -1.0939915E-17
   103.7220       -1.0943748E-17
   103.8835       -1.0947209E-17
   104.0450       -1.0950257E-17
   104.2065       -1.0952965E-17
   104.3680       -1.0955507E-17
   104.5295       -1.0958109E-17
   104.6910       -1.0960996E-17
   104.8525       -1.0964330E-17
   105.0140       -1.0968171E-17
   105.1755       -1.0972453E-17
   105.3370       -1.0977001E-17
   105.4985       -1.0981568E-17
   105.6600       -1.0985897E-17
   105.8215       -1.0989792E-17
   105.9830       -1.0993160E-17
   106.1445       -1.0996045E-17
   106.3060       -1.0998612E-17
   106.4675       -1.1001108E-17
   106.6290       -1.1003798E-17
   106.7905       -1.1006899E-17
   106.9520       -1.1010533E-17
   107.1135       -1.1014694E-17
   107.2750       -1.1019245E-17
   107.4365       -1.1023954E-17
   107.5980       -1.1028537E-17
   107.7595       -1.1032730E-17
   107.9210       -1.1036350E-17
   108.0825       -1.1039350E-17
   108.2440       -1.1041834E-17
   108.4055       -1.1044040E-17
   108.5670       -1.1046289E-17
   108.7285       -1.1048900E-17
   108.8900       -1.1052109E-17
   109.0515       -1.1056005E-17
   109.2130       -1.1060502E-17
   109.3745       -1.1065358E-17
   109.5360       -1.1070223E-17
   109.6975       -1.1074729E-17
   109.8590       -1.1078561E-17
   110.0205       -1.1081534E-17
   110.1820       -1.1083630E-17
   110.3435       -1.1084997E-17
   110.5050       -1.1085916E-17
   110.6665       -1.1086731E-17
   110.8280       -1.1087768E-17
   110.9895       -1.1089249E-17
   111.1510       -1.1091236E-17
   111.3125       -1.1093619E-17
   111.4740       -1.1096146E-17
   111.6355       -1.1098497E-17
   111.7970       -1.1100378E-17
   111.9585       -1.1101598E-17
   112.1200       -1.1102137E-17
   112.2815       -1.1102144E-17
   112.4430       -1.1101913E-17
   112.6045       -1.1101809E-17
   112.7660       -1.1102194E-17
   112.9275       -1.1103343E-17
   113.0890       -1.1105381E-17
   113.2505       -1.1108259E-17
   113.4120       -1.1111750E-17
   113.5735       -1.1115507E-17
   113.7350       -1.1119125E-17
   113.8965       -1.1122245E-17
   114.0580       -1.1124630E-17
   114.2195       -1.1126225E-17
   114.3810       -1.1127166E-17
   114.5425       -1.1127740E-17
   114.7040       -1.1128313E-17
   114.8655       -1.1129233E-17
   115.0270       -1.1130747E-17
   115.1885       -1.1132941E-17
   115.3500       -1.1135728E-17
   115.5115       -1.1138861E-17
   115.6730       -1.1141999E-17
   115.8345       -1.1144781E-17
   115.9960       -1.1146912E-17
   116.1575       -1.1148247E-17
   116.3190       -1.1148835E-17
   116.4805       -1.1148933E-17
   116.6420       -1.1148957E-17