  -30.00000        1.6185187E-18
  -29.83850        1.6214200E-18
  -29.67700        1.6266660E-18
  -29.51550        1.6333275E-18
  -29.35400        1.6402988E-18
  -29.19250        1.6465341E-18
  -29.03100        1.6512673E-18
  -28.86950        1.6541718E-18
  -28.70800        1.6554169E-18
  -28.54650        1.6556108E-18
  -28.38500        1.6556473E-18
  -28.22350        1.6564834E-18
  -28.06200        1.6589101E-18
  -27.90050        1.6633592E-18
  -27.73900        1.6697974E-18
  -27.57750        1.6777255E-18
  -27.41600        1.6862850E-18
  -27.25450        1.6944487E-18
  -27.09300        1.7012443E-18
  -26.93150        1.7059722E-18
  -26.77000        1.7083626E-18
  -26.60850        1.7086355E-18
  -26.44700        1.7074573E-18
  -26.28550        1.7057924E-18
  -26.12400        1.7046927E-18
  -25.96250        1.7050648E-18
  -25.80100        1.7074688E-18
  -25.63950        1.7119996E-18
  -25.47800        1.7182726E-18
  -25.31650        1.7255161E-18
  -25.15500        1.7327527E-18
  -24.99350        1.7390223E-18
  -24.83200        1.7435966E-18
  -24.67050        1.7461427E-18
  -24.50900        1.7467925E-18
  -24.34750        1.7461073E-18
  -24.18600        1.7449493E-18
  -24.02450        1.7442824E-18
  -23.86300        1.7449543E-18
  -23.70150        1.7475003E-18
  -23.54000        1.7520246E-18
  -23.37850        1.7581728E-18
  -23.21700        1.7652158E-18
  -23.05550        1.7722156E-18
  -22.89400        1.7782394E-18
  -22.73250        1.7825719E-18
  -22.57100        1.7848775E-18
  -22.40950        1.7852731E-18
  -22.24800        1.7843001E-18
  -22.08650        1.7827971E-18
  -21.92500        1.7817127E-18
  -21.76350        1.7818881E-18
  -21.60200        1.7838702E-18
  -21.44050        1.7877906E-18
  -21.27900        1.7933340E-18
  -21.11750        1.7998120E-18
  -20.95600        1.8063195E-18
  -20.79450        1.8119381E-18
  -20.63300        1.8159458E-18
  -20.47150        1.8179792E-18
  -20.31000        1.8181147E-18
  -20.14850        1.8168495E-18
  -19.98700        1.8149877E-18
  -19.82550        1.8134551E-18
  -19.66400        1.8130910E-18
  -19.50250        1.8144577E-18
  -19.34100        1.8177201E-18
  -19.17950        1.8226104E-18
  -19.01800        1.8284943E-18
  -18.85650        1.8345189E-18
  -18.69500        1.8398091E-18
  -18.53350        1.8436669E-18
  -18.37200        1.8457336E-18
  -18.21050        1.8460696E-18
  -18.04900        1.8451444E-18
  -17.88750        1.8437273E-18
  -17.72600        1.8427119E-18
  -17.56450        1.8429125E-18
  -17.40300        1.8448731E-18
  -17.24150        1.8487433E-18
  -17.08000        1.8542385E-18
  -16.91850        1.8606998E-18
  -16.75700        1.8672417E-18
  -16.59550        1.8729464E-18
  -16.43400        1.8770664E-18
  -16.27250        1.8791879E-18
  -16.11100        1.8793202E-18
  -15.94950        1.8778898E-18
  -15.78800        1.8756391E-18
  -15.62650        1.8734613E-18
  -15.46500        1.8721980E-18
  -15.30350        1.8724544E-18
  -15.14200        1.8744674E-18
  -14.98050        1.8780588E-18
  -14.81900        1.8826829E-18
  -14.65750        1.8875565E-18
  -14.49600        1.8918421E-18
  -14.33450        1.8948435E-18
  -14.17300        1.8961666E-18
  -14.01150        1.8958130E-18
  -13.85000        1.8941820E-18
  -13.68850        1.8919815E-18
  -13.52700        1.8900734E-18
  -13.36550        1.8892774E-18
  -13.20400        1.8901925E-18
  -13.04250        1.8930609E-18
  -12.88100        1.8977190E-18
  -12.71950        1.9036348E-18
  -12.55800        1.9100241E-18
  -12.39650        1.9160241E-18
  -12.23500        1.9208751E-18
  -12.07350        1.9240821E-18
  -11.91200        1.9255127E-18
  -11.75050        1.9254134E-18
  -11.58900        1.9243472E-18
  -11.42750        1.9230576E-18
  -11.26600        1.9223016E-18
  -11.10450        1.9226767E-18
  -10.94300        1.9244938E-18
  -10.78150        1.9277095E-18
  -10.62000        1.9319434E-18
  -10.45850        1.9365694E-18
  -10.29700        1.9408598E-18
  -10.13550        1.9441501E-18
  -9.974000        1.9459848E-18
  -9.812500        1.9462191E-18
  -9.651000        1.9450428E-18
  -9.489500        1.9429385E-18
  -9.328000        1.9405723E-18
  -9.166500        1.9386516E-18
  -9.005000        1.9377738E-18
  -8.843500        1.9383017E-18
  -8.682000        1.9402938E-18
  -8.520500        1.9434962E-18
  -8.359000        1.9474046E-18
  -8.197500        1.9513782E-18
  -8.036000        1.9547759E-18
  -7.874500        1.9570975E-18
  -7.713000        1.9580835E-18
  -7.551500        1.9577640E-18
  -7.390000        1.9564434E-18
  -7.228500        1.9546239E-18
  -7.067000        1.9528940E-18
  -6.905500        1.9517997E-18
  -6.744000        1.9517267E-18
  -6.582500        1.9528254E-18
  -6.421000        1.9549818E-18
  -6.259500        1.9578509E-18
  -6.098000        1.9609352E-18
  -5.936500        1.9636972E-18
  -5.775000        1.9656795E-18
  -5.613500        1.9666039E-18
  -5.452000        1.9664302E-18
  -5.290500        1.9653629E-18
  -5.129000        1.9638006E-18
  -4.967500        1.9622457E-18
  -4.806000        1.9611880E-18
  -4.644500        1.9609991E-18
  -4.483000        1.9618528E-18
  -4.321500        1.9636887E-18
  -4.160000        1.9662278E-18
  -3.998500        1.9690371E-18
  -3.837000        1.9716224E-18
  -3.675500        1.9735369E-18
  -3.514000        1.9744789E-18
  -3.352500        1.9743573E-18
  -3.191000        1.9733117E-18
  -3.029500        1.9716840E-18
  -2.868000        1.9699422E-18
  -2.706500        1.9685780E-18
  -2.545000        1.9679994E-18
  -2.383500        1.9684473E-18
  -2.222000        1.9699459E-18
  -2.060500        1.9723065E-18
  -1.899000        1.9751816E-18
  -1.737500        1.9781414E-18
  -1.576000        1.9807774E-18
  -1.414500        1.9827885E-18
  -1.253000        1.9840421E-18
  -1.091500        1.9845998E-18
 -0.9300000        1.9846983E-18
 -0.7685000        1.9846923E-18
 -0.6070000        1.9849704E-18
 -0.4455000        1.9858658E-18
 -0.2840000        1.9875709E-18
 -0.1225000        1.9900888E-18
  3.9000001E-02    1.9932224E-18
  0.2005000        1.9966089E-18
  0.3620000        1.9997964E-18
  0.5235000        2.0023377E-18
  0.6850000        2.0038874E-18
  0.8465000        2.0042729E-18
   1.008000        2.0035295E-18
   1.169500        2.0018937E-18
   1.331000        1.9997524E-18
   1.492500        1.9975649E-18
   1.654000        1.9957736E-18
   1.815500        1.9947167E-18
   1.977000        1.9945612E-18
   2.138500        1.9952742E-18
   2.300000        1.9966318E-18
   2.461500        1.9982686E-18
   2.623000        1.9997608E-18
   2.784500        2.0007237E-18
   2.946000        2.0009019E-18
   3.107500        2.0002331E-18
   3.269000        1.9988706E-18
   3.430500        1.9971552E-18
   3.592000        1.9955494E-18
   3.753500        1.9945393E-18
   3.915000        1.9945368E-18
   4.076500        1.9957906E-18
   4.238000        1.9983302E-18
   4.399500        2.0019518E-18
   4.561000        2.0062532E-18
   4.722500        2.0107026E-18
   4.884000        2.0147444E-18
   5.045500        2.0179100E-18
   5.207000        2.0199134E-18
   5.368500        2.0207129E-18
   5.530000        2.0205202E-18
   5.691500        2.0197581E-18
   5.853000        2.0189655E-18
   6.014500        2.0186809E-18
   6.176000        2.0193239E-18
   6.337500        2.0211002E-18
   6.499000        2.0239536E-18
   6.660500        2.0275665E-18
   6.822000        2.0314208E-18
   6.983500        2.0348982E-18
   7.145000        2.0374052E-18
   7.306500        2.0385025E-18
   7.468000        2.0380047E-18
   7.629500        2.0360308E-18
   7.791000        2.0329972E-18
   7.952500        2.0295346E-18
   8.114000        2.0263636E-18
   8.275500        2.0241424E-18
   8.437000        2.0233262E-18
   8.598500        2.0240717E-18
   8.760000        2.0262064E-18
   8.921500        2.0292657E-18
   9.083000        2.0325968E-18
   9.244500        2.0354979E-18
   9.406000        2.0373698E-18
   9.567500        2.0378482E-18
   9.729000        2.0368913E-18
   9.890500        2.0347983E-18
   10.05200        2.0321586E-18
   10.21350        2.0297302E-18
   10.37500        2.0282752E-18
   10.53650        2.0283864E-18
   10.69800        2.0303438E-18
   10.85950        2.0340413E-18
   11.02100        2.0390000E-18
   11.18250        2.0444685E-18
   11.34400        2.0495834E-18
   11.50550        2.0535551E-18
   11.66700        2.0558366E-18
   11.82850        2.0562387E-18
   11.99000        2.0549650E-18
   12.15150        2.0525691E-18
   12.31300        2.0498361E-18
   12.47450        2.0476112E-18
   12.63600        2.0466140E-18
   12.79750        2.0472747E-18
   12.95900        2.0496303E-18
   13.12050        2.0533055E-18
   13.28200        2.0575952E-18
   13.44350        2.0616228E-18
   13.60500        2.0645456E-18
   13.76650        2.0657550E-18
   13.92800        2.0650223E-18
   14.08950        2.0625536E-18
   14.25100        2.0589489E-18
   14.41250        2.0550670E-18
   14.57400        2.0518378E-18
   14.73550        2.0500592E-18
   14.89700        2.0502199E-18
   15.05850        2.0523919E-18
   15.22000        2.0562099E-18
   15.38150        2.0609478E-18
   15.54300        2.0656801E-18
   15.70450        2.0694922E-18
   15.86600        2.0716978E-18
   16.02750        2.0720016E-18
   16.18900        2.0705766E-18
   16.35050        2.0680249E-18
   16.51200        2.0652332E-18
   16.67350        2.0631613E-18
   16.83500        2.0626104E-18
   16.99650        2.0640299E-18
   17.15800        2.0674052E-18
   17.31950        2.0722533E-18
   17.48100        2.0777236E-18
   17.64250        2.0827854E-18
   17.80400        2.0864620E-18
   17.96550        2.0880574E-18
   18.12700        2.0873342E-18
   18.28850        2.0845857E-18
   18.45000        2.0805898E-18
   18.61150        2.0764384E-18
   18.77300        2.0732899E-18
   18.93450        2.0720930E-18
   19.09600        2.0733543E-18
   19.25750        2.0770108E-18
   19.41900        2.0824375E-18
   19.58050        2.0885882E-18
   19.74200        2.0942323E-18
   19.90350        2.0982373E-18
   20.06500        2.0998286E-18
   20.22650        2.0987715E-18
   20.38800        2.0954381E-18
   20.54950        2.0907352E-18
   20.71100        2.0859098E-18
   20.87250        2.0822704E-18
   21.03400        2.0808795E-18
   21.19550        2.0822888E-18
   21.35700        2.0863923E-18
   21.51850        2.0924268E-18
   21.68000        2.0991373E-18
   21.84150        2.1050661E-18
   22.00300        2.1088941E-18
   22.16450        2.1097554E-18
   22.32600        2.1074442E-18
   22.48750        2.1024723E-18
   22.64900        2.0959646E-18
   22.81050        2.0894169E-18
   22.97200        2.0843709E-18
   23.13350        2.0820775E-18
   23.29500        2.0832176E-18
   23.45650        2.0877389E-18
   23.61800        2.0948548E-18
   23.77950        2.1032066E-18
   23.94100        2.1111639E-18
   24.10250        2.1171940E-18
   24.26400        2.1202200E-18
   24.42550        2.1198718E-18
   24.58700        2.1165780E-18
   24.74850        2.1114637E-18
   24.91000        2.1060872E-18
   25.07150        2.1020771E-18
   25.23300        2.1007559E-18
   25.39450        2.1028383E-18
   25.55600        2.1082644E-18
   25.71750        2.1162022E-18
   25.87900        2.1252224E-18
   26.04050        2.1336007E-18
   26.20200        2.1396950E-18
   26.36350        2.1423074E-18
   26.52500        2.1409622E-18
   26.68650        2.1360186E-18
   26.84800        2.1285986E-18
   27.00950        2.1203404E-18
   27.17100        2.1130277E-18
   27.33250        2.1081875E-18
   27.49400        2.1067531E-18
   27.65550        2.1088664E-18
   27.81700        2.1138658E-18
   27.97850        2.1204545E-18
   28.14000        2.1270027E-18
   28.30150        2.1319218E-18
   28.46300        2.1340191E-18
   28.62450        2.1327682E-18
   28.78600        2.1284277E-18
   28.94750        2.1219927E-18
   29.10900        2.1149732E-18
   29.27050        2.1090514E-18
   29.43200        2.1056962E-18
   29.59350        2.1058168E-18
   29.75500        2.1095500E-18
   29.91650        2.1162256E-18
   30.07800        2.1245232E-18
   30.23950        2.1327800E-18
   30.40100        2.1393755E-18
   30.56250        2.1430928E-18
   30.72400        2.1433908E-18
   30.88550        2.1405149E-18
   31.04700        2.1354369E-18
   31.20850        2.1296346E-18
   31.37000        2.1247598E-18
   31.53150        2.1222657E-18
   31.69300        2.1230717E-18
   31.85450        2.1273390E-18
   32.01600        2.1344217E-18
   32.17750        2.1430025E-18
   32.33900        2.1513948E-18
   32.50050        2.1579384E-18
   32.66200        2.1613938E-18
   32.82350        2.1612377E-18
   32.98500        2.1577846E-18
   33.14650        2.1521122E-18
   33.30800        2.1458037E-18
   33.46950        2.1405776E-18
   33.63100        2.1378903E-18
   33.79250        2.1385979E-18
   33.95400        2.1427582E-18
   34.11550        2.1496056E-18
   34.27700        2.1577147E-18
   34.43850        2.1653167E-18
   34.60000        2.1707068E-18
   34.76150        2.1726490E-18
   34.92300        2.1706810E-18
   35.08450        2.1652472E-18
   35.24600        2.1576107E-18
   35.40750        2.1495665E-18
   35.56900        2.1430204E-18
   35.73050        2.1395335E-18
   35.89200        2.1399504E-18
   36.05350        2.1441957E-18
   36.21500        2.1512869E-18
   36.37650        2.1595581E-18
   36.53800        2.1670409E-18
   36.69950        2.1719168E-18
   36.86100        2.1729369E-18
   37.02250        2.1697227E-18
   37.18400        2.1628717E-18
   37.34550        2.1538439E-18
   37.50700        2.1446446E-18
   37.66850        2.1373718E-18
   37.83000        2.1337300E-18
   37.99150        2.1346235E-18
   38.15300        2.1399369E-18
   38.31450        2.1485497E-18
   38.47600        2.1585929E-18
   38.63750        2.1678834E-18
   38.79900        2.1744291E-18
   38.96050        2.1768923E-18
   39.12200        2.1748990E-18
   39.28350        2.1691296E-18
   39.44500        2.1611700E-18
   39.60650        2.1531542E-18
   39.76800        2.1472856E-18
   39.92950        2.1453301E-18
   40.09100        2.1482011E-18
   40.25250        2.1557342E-18
   40.41400        2.1667068E-18
   40.57550        2.1791000E-18
   40.73700        2.1905573E-18
   40.89850        2.1989197E-18
   41.06000        2.2027212E-18
   41.22150        2.2015203E-18
   41.38300        2.1959896E-18
   41.54450        2.1877478E-18
   41.70600        2.1789790E-18
   41.86750        2.1719314E-18
   42.02900        2.1684048E-18
   42.19050        2.1693500E-18
   42.35200        2.1746595E-18
   42.51350        2.1831952E-18
   42.67500        2.1930479E-18
   42.83650        2.2019740E-18
   42.99800        2.2079103E-18
   43.15950        2.2094540E-18
   43.32100        2.2061910E-18
   43.48250        2.1988014E-18
   43.64400        2.1889000E-18
   43.80550        2.1786659E-18
   43.96700        2.1703371E-18
   44.12850        2.1657024E-18
   44.29000        2.1657046E-18
   44.45150        2.1702450E-18
   44.61300        2.1782269E-18
   44.77450        2.1878195E-18
   44.93600        2.1968786E-18
   45.09750        2.2034253E-18
   45.25900        2.2060868E-18
   45.42050        2.2043979E-18
   45.58200        2.1989046E-18
   45.74350        2.1910401E-18
   45.90500        2.1828014E-18
   46.06650        2.1762892E-18
   46.22800        2.1732247E-18
   46.38950        2.1745478E-18
   46.55100        2.1801987E-18
   46.71250        2.1891360E-18
   46.87400        2.1995818E-18
   47.03550        2.2094346E-18
   47.19700        2.2167516E-18
   47.35850        2.2201805E-18
   47.52000        2.2192544E-18
   47.68150        2.2144816E-18
   47.84300        2.2072192E-18
   48.00450        2.1993634E-18
   48.16600        2.1929191E-18
   48.32750        2.1895502E-18
   48.48900        2.1901987E-18
   48.65050        2.1948675E-18
   48.81200        2.2026141E-18
   48.97350        2.2117697E-18
   49.13500        2.2203261E-18
   49.29650        2.2264110E-18
   49.45800        2.2287306E-18
   49.61950        2.2268740E-18
   49.78100        2.2214095E-18
   49.94250        2.2137469E-18
   50.10400        2.2058059E-18
   50.26550        2.1995717E-18
   50.42700        2.1966352E-18
   50.58850        2.1978294E-18
   50.75000        2.2030359E-18
   50.91150        2.2112049E-18
   51.07300        2.2205885E-18
   51.23450        2.2291376E-18
   51.39600        2.2349752E-18
   51.55750        2.2368391E-18
   51.71900        2.2343925E-18
   51.88050        2.2283177E-18
   52.04200        2.2201705E-18
   52.20350        2.2120222E-18
   52.36500        2.2059743E-18
   52.52650        2.2036631E-18
   52.68800        2.2058694E-18
   52.84950        2.2123272E-18
   53.01100        2.2217724E-18
   53.17250        2.2322191E-18
   53.33400        2.2414063E-18
   53.49550        2.2473074E-18
   53.65700        2.2485979E-18
   53.81850        2.2449765E-18
   53.98000        2.2372582E-18
   54.14150        2.2272171E-18
   54.30300        2.2172018E-18
   54.46450        2.2096062E-18
   54.62600        2.2063165E-18
   54.78750        2.2082676E-18
   54.94900        2.2152147E-18
   55.11050        2.2257803E-18
   55.27200        2.2377665E-18
   55.43350        2.2486555E-18
   55.59500        2.2561814E-18
   55.75650        2.2588425E-18
   55.91800        2.2562352E-18
   56.07950        2.2491436E-18
   56.24100        2.2393607E-18
   56.40250        2.2292840E-18
   56.56400        2.2213714E-18
   56.72550        2.2175759E-18
   56.88700        2.2188872E-18
   57.04850        2.2250881E-18
   57.21000        2.2347924E-18
   57.37150        2.2457614E-18
   57.53300        2.2554295E-18
   57.69450        2.2615184E-18
   57.85600        2.2625826E-18
   58.01750        2.2583646E-18
   58.17900        2.2498641E-18
   58.34050        2.2391099E-18
   58.50200        2.2286973E-18
   58.66350        2.2211929E-18
   58.82500        2.2185482E-18
   58.98650        2.2216524E-18
   59.14800        2.2301149E-18
   59.30950        2.2423392E-18
   59.47100        2.2558628E-18
   59.63250        2.2679028E-18
   59.79400        2.2759827E-18
   59.95550        2.2785017E-18
   60.11700        2.2751117E-18
   60.27850        2.2668033E-18
   60.44000        2.2556793E-18
   60.60150        2.2444632E-18
   60.76300        2.2358626E-18
   60.92450        2.2319440E-18
   61.08600        2.2336627E-18
   61.24750        2.2406608E-18
   61.40900        2.2513679E-18
   61.57050        2.2633783E-18
   61.73200        2.2740109E-18
   61.89350        2.2809232E-18
   62.05500        2.2826477E-18
   62.21650        2.2789244E-18
   62.37800        2.2707605E-18
   62.53950        2.2601960E-18
   62.70100        2.2498272E-18
   62.86250        2.2421942E-18
   63.02400        2.2391773E-18
   63.18550        2.2415517E-18
   63.34700        2.2488102E-18
   63.50850        2.2592954E-18
   63.67000        2.2706058E-18
   63.83150        2.2801759E-18
   63.99300        2.2858841E-18
   64.15450        2.2865489E-18
   64.31600        2.2821969E-18
   64.47750        2.2740479E-18
   64.63900        2.2642299E-18
   64.80050        2.2552860E-18
   64.96200        2.2495836E-18
   65.12350        2.2487594E-18
   65.28500        2.2533277E-18
   65.44650        2.2625445E-18
   65.60800        2.2745697E-18
   65.76950        2.2868916E-18
   65.93100        2.2969222E-18
   66.09250        2.3026055E-18
   66.25400        2.3029078E-18
   66.41550        2.2980492E-18
   66.57700        2.2894399E-18
   66.73850        2.2793338E-18
   66.90000        2.2702871E-18
   67.06150        2.2645560E-18
   67.22300        2.2635696E-18
   67.38450        2.2675957E-18
   67.54600        2.2756723E-18
   67.70750        2.2858278E-18
   67.86900        2.2955377E-18
   68.03050        2.3023230E-18
   68.19200        2.3043577E-18
   68.35350        2.3009303E-18
   68.51500        2.2926529E-18
   68.67650        2.2813466E-18
   68.83800        2.2696289E-18
   68.99950        2.2603010E-18
   69.16100        2.2556833E-18
   69.32250        2.2570626E-18
   69.48400        2.2643823E-18
   69.64550        2.2762524E-18
   69.80700        2.2902594E-18
   69.96850        2.3035133E-18
   70.13000        2.3132964E-18
   70.29150        2.3176798E-18
   70.45300        2.3159630E-18
   70.61450        2.3088437E-18
   70.77600        2.2982705E-18
   70.93750        2.2870030E-18
   71.09900        2.2779746E-18
   71.26050        2.2735996E-18
   71.42200        2.2751925E-18
   71.58350        2.2826438E-18
   71.74500        2.2944328E-18
   71.90650        2.3079776E-18
   72.06800        2.3202362E-18
   72.22950        2.3284102E-18
   72.39100        2.3305884E-18
   72.55250        2.3261886E-18
   72.71400        2.3160923E-18
   72.87550        2.3024564E-18
   73.03700        2.2882454E-18
   73.19850        2.2765795E-18
   73.36000        2.2700419E-18
   73.52150        2.2700959E-18
   73.68300        2.2767489E-18
   73.84450        2.2885393E-18
   74.00600        2.3028657E-18
   74.16750        2.3165816E-18
   74.32900        2.3267226E-18
   74.49050        2.3311879E-18
   74.65200        2.3292132E-18
   74.81350        2.3215324E-18
   74.97500        2.3101819E-18
   75.13650        2.2980142E-18
   75.29800        2.2880308E-18
   75.45950        2.2826930E-18
   75.62100        2.2833599E-18
   75.78250        2.2899817E-18
   75.94400        2.3011091E-18
   76.10550        2.3142272E-18
   76.26700        2.3263342E-18
   76.42850        2.3346418E-18
   76.59000        2.3372338E-18
   76.75150        2.3335249E-18
   76.91300        2.3244067E-18
   77.07450        2.3120426E-18
   77.23600        2.2993576E-18
   77.39750        2.2893545E-18
   77.55900        2.2844185E-18
   77.72050        2.2857784E-18
   77.88200        2.2932420E-18
   78.04350        2.3052641E-18
   78.20500        2.3193139E-18
   78.36650        2.3324589E-18
   78.52800        2.3420310E-18
   78.68950        2.3462279E-18
   78.85100        2.3445140E-18
   79.01250        2.3377326E-18
   79.17400        2.3278997E-18
   79.33550        2.3177202E-18
   79.49700        2.3099414E-18
   79.65850        2.3066951E-18
   79.82000        2.3089922E-18
   79.98150        2.3164860E-18
   80.14300        2.3275671E-18
   80.30450        2.3397534E-18
   80.46600        2.3502846E-18
   80.62750        2.3567699E-18
   80.78900        2.3577373E-18
   80.95050        2.3529717E-18
   81.11200        2.3435590E-18
   81.27350        2.3316406E-18
   81.43500        2.3199256E-18
   81.59650        2.3110719E-18
   81.75800        2.3070739E-18
   81.91950        2.3087934E-18
   82.08100        2.3157531E-18
   82.24250        2.3262385E-18
   82.40400        2.3377015E-18
   82.56550        2.3473643E-18
   82.72700        2.3528776E-18
   82.88850        2.3528758E-18
   83.05000        2.3472927E-18
   83.21150        2.3373657E-18
   83.37300        2.3253337E-18
   83.53450        2.3139067E-18
   83.69600        2.3056328E-18
   83.85750        2.3023141E-18
   84.01900        2.3045984E-18
   84.18050        2.3118370E-18
   84.34200        2.3222461E-18
   84.50350        2.3333272E-18
   84.66500        2.3424601E-18
   84.82650        2.3475264E-18
   84.98800        2.3474178E-18
   85.14950        2.3423023E-18
   85.31100        2.3335838E-18
   85.47250        2.3235594E-18
   85.63400        2.3148614E-18
   85.79550        2.3098204E-18
   85.95700        2.3099056E-18
   86.11850        2.3153768E-18
   86.28000        2.3252248E-18
   86.44150        2.3374060E-18
   86.60300        2.3493178E-18
   86.76450        2.3583955E-18
   86.92600        2.3627025E-18
   87.08750        2.3613754E-18
   87.24900        2.3548275E-18
   87.41050        2.3446631E-18
   87.57200        2.3333160E-18
   87.73350        2.3234941E-18
   87.89500        2.3175558E-18
   88.05650        2.3169683E-18
   88.21800        2.3219708E-18
   88.37950        2.3315287E-18
   88.54100        2.3435867E-18
   88.70250        2.3555550E-18
   88.86400        2.3649125E-18
   89.02550        2.3697877E-18
   89.18700        2.3693776E-18
   89.34850        2.3641194E-18
   89.51000        2.3555782E-18
   89.67150        2.3460761E-18
   89.83300        2.3381530E-18
   89.99450        2.3339751E-18
   90.15600        2.3348279E-18
   90.31750        2.3408115E-18
   90.47900        2.3508086E-18
   90.64050        2.3627409E-18
   90.80200        2.3740532E-18
   90.96350        2.3823118E-18
   91.12500        2.3857771E-18
   91.28650        2.3838022E-18
   91.44800        2.3769773E-18
   91.60950        2.3669784E-18
   91.77100        2.3561648E-18
   91.93250        2.3470274E-18
   92.09400        2.3416143E-18
   92.25550        2.3410653E-18
   92.41700        2.3453633E-18
   92.57850        2.3533493E-18
   92.74000        2.3630044E-18
   92.90150        2.3719272E-18
   93.06300        2.3779095E-18
   93.22450        2.3794649E-18
   93.38600        2.3761931E-18
   93.54750        2.3688871E-18
   93.70900        2.3593513E-18
   93.87050        2.3499852E-18
   94.03200        2.3432110E-18
   94.19350        2.3409036E-18
   94.35500        2.3439482E-18
   94.51650        2.3520306E-18
   94.67800        2.3637025E-18
   94.83950        2.3767091E-18
   95.00100        2.3884977E-18
   95.16250        2.3967879E-18
   95.32400        2.4000852E-18
   95.48550        2.3980121E-18
   95.64700        2.3913951E-18
   95.80850        2.3820699E-18
   95.97000        2.3724580E-18
   96.13150        2.3650039E-18
   96.29300        2.3616015E-18
   96.45450        2.3631551E-18
   96.61600        2.3693675E-18
   96.77750        2.3788211E-18
   96.93900        2.3893193E-18
   97.10050        2.3984106E-18
   97.26200        2.4039647E-18
   97.42350        2.4046672E-18
   97.58500        2.4003185E-18
   97.74650        2.3918755E-18
   97.90800        2.3812187E-18
   98.06950        2.3707176E-18
   98.23100        2.3626809E-18
   98.39250        2.3588219E-18
   98.55400        2.3598629E-18
   98.71550        2.3653716E-18
   98.87700        2.3738706E-18
   99.03850        2.3831915E-18
   99.20000        2.3909960E-18
   99.36150        2.3953349E-18
   99.52300        2.3951058E-18
   99.68450        2.3903094E-18
   99.84600        2.3820347E-18
   100.0075        2.3721941E-18
   100.1690        2.3630679E-18
   100.3305        2.3567730E-18
   100.4920        2.3547770E-18
   100.6535        2.3575679E-18
   100.8150        2.3645510E-18
   100.9765        2.3741922E-18
   101.1380        2.3843783E-18
   101.2995        2.3929078E-18
   101.4610        2.3980022E-18
   101.6225        2.3987164E-18
   101.7840        2.3951567E-18
   101.9455        2.3884420E-18
   102.1070        2.3804349E-18
   102.2685        2.3732924E-18
   102.4300        2.3689539E-18
   102.5915        2.3686900E-18
   102.7530        2.3728104E-18
   102.9145        2.3806008E-18
   103.0760        2.3904965E-18
   103.2375        2.4004494E-18
   103.3990        2.4084023E-18
   103.5605        2.4127601E-18
   103.7220        2.4127576E-18
   103.8835        2.4086296E-18
   104.0450        2.4015508E-18
   104.2065        2.3933538E-18
   104.3680        2.3860920E-18
   104.5295        2.3815533E-18
   104.6910        2.3808388E-18
   104.8525        2.3841086E-18
   105.0140        2.3905602E-18
   105.1755        2.3986362E-18
   105.3370        2.4064094E-18
   105.4985        2.4120537E-18
   105.6600        2.4142846E-18
   105.8215        2.4126635E-18
   105.9830        2.4076990E-18
   106.1445        2.4007240E-18
   106.3060        2.3935726E-18
   106.4675        2.3881360E-18
   106.6290        2.3859038E-18
   106.7905        2.3875971E-18
   106.9520        2.3929837E-18
   107.1135        2.4009219E-18
   107.2750        2.4096239E-18
   107.4365        2.4170768E-18
   107.5980        2.4215171E-18
   107.7595        2.4218506E-18
   107.9210        2.4179118E-18
   108.0825        2.4105089E-18
   108.2440        2.4012437E-18
   108.4055        2.3921468E-18
   108.5670        2.3852171E-18
   108.7285        2.3819662E-18
   108.8900        2.3830734E-18
   109.0515        2.3882276E-18
   109.2130        2.3962043E-18
   109.3745        2.4051478E-18
   109.5360        2.4130091E-18
   109.6975        2.4180243E-18
   109.8590        2.4191294E-18
   110.0205        2.4162084E-18
   110.1820        2.4101142E-18
   110.3435        2.4024632E-18
   110.5050        2.3952508E-18
   110.6665        2.3903785E-18
   110.8280        2.3892035E-18
   110.9895        2.3922148E-18
   111.1510        2.3989075E-18
   111.3125        2.4078928E-18
   111.4740        2.4172101E-18
   111.6355        2.4247836E-18
   111.7970        2.4289110E-18
   111.9585        2.4286699E-18
   112.1200        2.4241432E-18
   112.2815        2.4164119E-18
   112.4430        2.4073044E-18
   112.6045        2.3989704E-18
   112.7660        2.3933768E-18
   112.9275        2.3918494E-18
   113.0890        2.3947656E-18
   113.2505        2.4014631E-18
   113.4120        2.4103944E-18
   113.5735        2.4194776E-18
   113.7350        2.4265753E-18
   113.8965        2.4299822E-18
   114.0580        2.4288221E-18
   114.2195        2.4232541E-18
   114.3810        2.4144465E-18
   114.5425        2.4043125E-18
   114.7040        2.3950773E-18
   114.8655        2.3887677E-18
   115.0270        2.3867540E-18
   115.1885        2.3894429E-18
   115.3500        2.3962000E-18
   115.5115        2.4055066E-18
   115.6730        2.4153130E-18
   115.8345        2.4235054E-18
   115.9960        2.4283740E-18
   116.1575        2.4289877E-18
   116.3190        2.4253961E-18
   116.4805        2.4186048E-18
   116.6420        2.4103460E-18