  -30.00000        9.2513939E-18
  -29.83850        9.2477436E-18
  -29.67700        9.2423843E-18
  -29.51550        9.2378654E-18
  -29.35400        9.2357139E-18
  -29.19250        9.2355154E-18
  -29.03100        9.2353028E-18
  -28.86950        9.2329883E-18
  -28.70800        9.2278607E-18
  -28.54650        9.2211340E-18
  -28.38500        9.2151800E-18
  -28.22350        9.2119672E-18
  -28.06200        9.2117497E-18
  -27.90050        9.2128887E-18
  -27.73900        9.2129383E-18
  -27.57750        9.2102500E-18
  -27.41600        9.2050387E-18
  -27.25450        9.1991997E-18
  -27.09300        9.1950042E-18
  -26.93150        9.1935724E-18
  -26.77000        9.1941373E-18
  -26.60850        9.1945972E-18
  -26.44700        9.1929561E-18
  -26.28550        9.1886879E-18
  -26.12400        9.1830829E-18
  -25.96250        9.1783655E-18
  -25.80100        9.1761710E-18
  -25.63950        9.1764357E-18
  -25.47800        9.1774390E-18
  -25.31650        9.1769717E-18
  -25.15500        9.1738424E-18
  -24.99350        9.1686932E-18
  -24.83200        9.1635738E-18
  -24.67050        9.1605645E-18
  -24.50900        9.1603809E-18
  -24.34750        9.1619004E-18
  -24.18600        9.1629319E-18
  -24.02450        9.1616953E-18
  -23.86300        9.1580069E-18
  -23.70150        9.1533648E-18
  -23.54000        9.1498898E-18
  -23.37850        9.1488351E-18
  -23.21700        9.1496962E-18
  -23.05550        9.1505441E-18
  -22.89400        9.1493430E-18
  -22.73250        9.1453767E-18
  -22.57100        9.1397982E-18
  -22.40950        9.1349170E-18
  -22.24800        9.1326902E-18
  -22.08650        9.1334289E-18
  -21.92500        9.1355969E-18
  -21.76350        9.1368336E-18
  -21.60200        9.1355233E-18
  -21.44050        9.1318531E-18
  -21.27900        9.1276394E-18
  -21.11750        9.1250553E-18
  -20.95600        9.1251066E-18
  -20.79450        9.1269173E-18
  -20.63300        9.1282871E-18
  -20.47150        9.1271870E-18
  -20.31000        9.1231553E-18
  -20.14850        9.1176628E-18
  -19.98700        9.1131729E-18
  -19.82550        9.1115285E-18
  -19.66400        9.1127254E-18
  -19.50250        9.1149215E-18
  -19.34100        9.1156569E-18
  -19.17950        9.1134963E-18
  -19.01800        9.1089791E-18
  -18.85650        9.1042526E-18
  -18.69500        9.1016345E-18
  -18.53350        9.1020605E-18
  -18.37200        9.1044726E-18
  -18.21050        9.1065397E-18
  -18.04900        9.1062320E-18
  -17.88750        9.1031863E-18
  -17.72600        9.0989437E-18
  -17.56450        9.0958989E-18
  -17.40300        9.0956714E-18
  -17.24150        9.0980040E-18
  -17.08000        9.1009108E-18
  -16.91850        9.1019977E-18
  -16.75700        9.1000596E-18
  -16.59550        9.0958774E-18
  -16.43400        9.0916993E-18
  -16.27250        9.0897397E-18
  -16.11100        9.0907232E-18
  -15.94950        9.0934264E-18
  -15.78800        9.0955366E-18
  -15.62650        9.0952189E-18
  -15.46500        9.0923412E-18
  -15.30350        9.0885370E-18
  -15.14200        9.0860703E-18
  -14.98050        9.0862796E-18
  -14.81900        9.0886685E-18
  -14.65750        9.0912452E-18
  -14.49600        9.0918755E-18
  -14.33450        9.0897422E-18
  -14.17300        9.0858900E-18
  -14.01150        9.0825176E-18
  -13.85000        9.0814679E-18
  -13.68850        9.0829767E-18
  -13.52700        9.0854905E-18
  -13.36550        9.0867155E-18
  -13.20400        9.0851563E-18
  -13.04250        9.0811229E-18
  -12.88100        9.0765106E-18
  -12.71950        9.0735278E-18
  -12.55800        9.0732143E-18
  -12.39650        9.0747834E-18
  -12.23500        9.0762136E-18
  -12.07350        9.0756834E-18
  -11.91200        9.0728652E-18
  -11.75050        9.0691760E-18
  -11.58900        9.0668127E-18
  -11.42750        9.0672180E-18
  -11.26600        9.0700280E-18
  -11.10450        9.0732292E-18
  -10.94300        9.0744443E-18
  -10.78150        9.0724921E-18
  -10.62000        9.0681610E-18
  -10.45850        9.0636885E-18
  -10.29700        9.0612838E-18
  -10.13550        9.0616842E-18
  -9.974000        9.0637249E-18
  -9.812500        9.0651939E-18
  -9.651000        9.0643932E-18
  -9.489500        9.0613417E-18
  -9.328000        9.0577733E-18
  -9.166500        9.0559485E-18
  -9.005000        9.0570594E-18
  -8.843500        9.0603318E-18
  -8.682000        9.0634453E-18
  -8.520500        9.0640210E-18
  -8.359000        9.0611854E-18
  -8.197500        9.0561694E-18
  -8.036000        9.0515273E-18
  -7.874500        9.0494998E-18
  -7.713000        9.0505901E-18
  -7.551500        9.0533049E-18
  -7.390000        9.0552165E-18
  -7.228500        9.0546126E-18
  -7.067000        9.0516282E-18
  -6.905500        9.0480920E-18
  -6.744000        9.0462126E-18
  -6.582500        9.0469993E-18
  -6.421000        9.0495048E-18
  -6.259500        9.0514197E-18
  -6.098000        9.0506231E-18
  -5.936500        9.0466543E-18
  -5.775000        9.0411048E-18
  -5.613500        9.0366587E-18
  -5.452000        9.0354030E-18
  -5.290500        9.0375256E-18
  -5.129000        9.0412504E-18
  -4.967500        9.0440413E-18
  -4.806000        9.0442431E-18
  -4.644500        9.0420792E-18
  -4.483000        9.0393528E-18
  -4.321500        9.0380847E-18
  -4.160000        9.0390525E-18
  -3.998500        9.0412214E-18
  -3.837000        9.0424721E-18
  -3.675500        9.0411064E-18
  -3.514000        9.0371012E-18
  -3.352500        9.0322316E-18
  -3.191000        9.0289725E-18
  -3.029500        9.0288906E-18
  -2.868000        9.0316211E-18
  -2.706500        9.0350978E-18
  -2.545000        9.0368944E-18
  -2.383500        9.0357678E-18
  -2.222000        9.0323797E-18
  -2.060500        9.0287359E-18
  -1.899000        9.0267433E-18
  -1.737500        9.0268946E-18
  -1.576000        9.0279766E-18
  -1.414500        9.0279807E-18
  -1.253000        9.0255877E-18
  -1.091500        9.0211805E-18
 -0.9300000        9.0166715E-18
 -0.7685000        9.0142504E-18
 -0.6070000        9.0148964E-18
 -0.4455000        9.0176724E-18
 -0.2840000        9.0203004E-18
 -0.1225000        9.0206494E-18
  3.9000001E-02    9.0181331E-18
  0.2005000        9.0140808E-18
  0.3620000        9.0108432E-18
  0.5235000        9.0102162E-18
  0.6850000        9.0122684E-18
  0.8465000        9.0153439E-18
   1.008000        9.0172390E-18
   1.169500        9.0167319E-18
   1.331000        9.0144174E-18
   1.492500        9.0122742E-18
   1.654000        9.0122577E-18
   1.815500        9.0148741E-18
   1.977000        9.0187378E-18
   2.138500        9.0214237E-18
   2.300000        9.0210564E-18
   2.461500        9.0175864E-18
   2.623000        9.0128640E-18
   2.784500        9.0094602E-18
   2.946000        9.0090102E-18
   3.107500        9.0111716E-18
   3.269000        9.0138963E-18
   3.430500        9.0148228E-18
   3.592000        9.0128441E-18
   3.753500        9.0088108E-18
   3.915000        9.0048991E-18
   4.076500        9.0030884E-18
   4.238000        9.0037940E-18
   4.399500        9.0055782E-18
   4.561000        9.0061399E-18
   4.722500        9.0039139E-18
   4.884000        8.9991800E-18
   5.045500        8.9939373E-18
   5.207000        8.9906037E-18
   5.368500        8.9904201E-18
   5.530000        8.9926196E-18
   5.691500        8.9949258E-18
   5.853000        8.9950424E-18
   6.014500        8.9921473E-18
   6.176000        8.9873943E-18
   6.337500        8.9831194E-18
   6.499000        8.9812880E-18
   6.660500        8.9822534E-18
   6.822000        8.9846290E-18
   6.983500        8.9863479E-18
   7.145000        8.9861485E-18
   7.306500        8.9844752E-18
   7.468000        8.9831558E-18
   7.629500        8.9840938E-18
   7.791000        8.9878683E-18
   7.952500        8.9932085E-18
   8.114000        8.9977109E-18
   8.275500        8.9993363E-18
   8.437000        8.9976803E-18
   8.598500        8.9941854E-18
   8.760000        8.9911580E-18
   8.921500        8.9902596E-18
   9.083000        8.9914930E-18
   9.244500        8.9933359E-18
   9.406000        8.9939042E-18
   9.567500        8.9923127E-18
   9.729000        8.9892968E-18
   9.890500        8.9866705E-18
   10.05200        8.9859963E-18
   10.21350        8.9874083E-18
   10.37500        8.9894143E-18
   10.53650        8.9898386E-18
   10.69800        8.9872810E-18
   10.85950        8.9821069E-18
   11.02100        8.9762852E-18
   11.18250        8.9721750E-18
   11.34400        8.9710525E-18
   11.50550        8.9723702E-18
   11.66700        8.9742090E-18
   11.82850        8.9746268E-18
   11.99000        8.9729517E-18
   12.15150        8.9701682E-18
   12.31300        8.9681383E-18
   12.47450        8.9682128E-18
   12.63600        8.9702071E-18
   12.79750        8.9724637E-18
   12.95900        8.9729724E-18
   13.12050        8.9707994E-18
   13.28200        8.9668355E-18
   13.44350        8.9633258E-18
   13.60500        8.9624755E-18
   13.76650        8.9650315E-18
   13.92800        8.9697844E-18
   14.08950        8.9743240E-18
   14.25100        8.9765450E-18
   14.41250        8.9759072E-18
   14.57400        8.9736267E-18
   14.73550        8.9717076E-18
   14.89700        8.9714818E-18
   15.05850        8.9726754E-18
   15.22000        8.9736209E-18
   15.38150        8.9724786E-18
   15.54300        8.9686115E-18
   15.70450        8.9631678E-18
   15.86600        8.9584413E-18
   16.02750        8.9564321E-18
   16.18900        8.9575463E-18
   16.35050        8.9603182E-18
   16.51200        8.9623423E-18
   16.67350        8.9618079E-18
   16.83500        8.9586249E-18
   16.99650        8.9544138E-18
   17.15800        8.9513838E-18
   17.31950        8.9508767E-18
   17.48100        8.9525352E-18
   17.64250        8.9546495E-18
   17.80400        8.9554047E-18
   17.96550        8.9541565E-18
   18.12700        8.9518760E-18
   18.28850        8.9504383E-18
   18.45000        8.9512721E-18
   18.61150        8.9542872E-18
   18.77300        8.9578383E-18
   18.93450        8.9597574E-18
   19.09600        8.9587722E-18
   19.25750        8.9553625E-18
   19.41900        8.9514740E-18
   19.58050        8.9492828E-18
   19.74200        8.9498320E-18
   19.90350        8.9524385E-18
   20.06500        8.9552434E-18
   20.22650        8.9564991E-18
   20.38800        8.9557182E-18
   20.54950        8.9538959E-18
   20.71100        8.9526965E-18
   20.87250        8.9531763E-18
   21.03400        8.9549580E-18
   21.19550        8.9564404E-18
   21.35700        8.9559035E-18
   21.51850        8.9527652E-18
   21.68000        8.9480916E-18
   21.84150        8.9440111E-18
   22.00300        8.9423791E-18
   22.16450        8.9435992E-18
   22.32600        8.9463744E-18
   22.48750        8.9485623E-18
   22.64900        8.9485656E-18
   22.81050        8.9463140E-18
   22.97200        8.9432071E-18
   23.13350        8.9410705E-18
   23.29500        8.9408687E-18
   23.45650        8.9420557E-18
   23.61800        8.9430152E-18
   23.77950        8.9422757E-18
   23.94100        8.9396511E-18
   24.10250        8.9364929E-18
   24.26400        8.9348509E-18
   24.42550        8.9360876E-18
   24.58700        8.9398868E-18
   24.74850        8.9443387E-18
   24.91000        8.9470833E-18
   25.07150        8.9467665E-18
   25.23300        8.9438482E-18
   25.39450        8.9402458E-18
   25.55600        8.9380414E-18
   25.71750        8.9381439E-18
   25.87900        8.9397785E-18
   26.04050        8.9411309E-18
   26.20200        8.9406933E-18
   26.36350        8.9383582E-18
   26.52500        8.9355226E-18
   26.68650        8.9341065E-18
   26.84800        8.9351686E-18
   27.00950        8.9380695E-18
   27.17100        8.9407851E-18
   27.33250        8.9411723E-18
   27.49400        8.9383747E-18
   27.65550        8.9334141E-18
   27.81700        8.9285793E-18
   27.97850        8.9259993E-18
   28.14000        8.9263484E-18
   28.30150        8.9285238E-18
   28.46300        8.9304752E-18
   28.62450        8.9306199E-18
   28.78600        8.9288638E-18
   28.94750        8.9265717E-18
   29.10900        8.9255179E-18
   29.27050        8.9265700E-18
   29.43200        8.9290243E-18
   29.59350        8.9310542E-18
   29.75500        8.9309682E-18
   29.91650        8.9284238E-18
   30.07800        8.9247428E-18
   30.23950        8.9221165E-18
   30.40100        8.9221967E-18
   30.56250        8.9250323E-18
   30.72400        8.9290383E-18
   30.88550        8.9320195E-18
   31.04700        8.9325497E-18
   31.20850        8.9307978E-18
   31.37000        8.9282575E-18
   31.53150        8.9266205E-18
   31.69300        8.9265758E-18
   31.85450        8.9273658E-18
   32.01600        8.9274030E-18
   32.17750        8.9254881E-18
   32.33900        8.9217683E-18
   32.50050        8.9177556E-18
   32.66200        8.9153650E-18
   32.82350        8.9156264E-18
   32.98500        8.9179533E-18
   33.14650        8.9204754E-18
   33.30800        8.9212364E-18
   33.46950        8.9194480E-18
   33.63100        8.9159705E-18
   33.79250        8.9126974E-18
   33.95400        8.9112780E-18
   34.11550        8.9120514E-18
   34.27700        8.9139034E-18
   34.43850        8.9151268E-18
   34.60000        8.9146702E-18
   34.76150        8.9129009E-18
   34.92300        8.9113309E-18
   35.08450        8.9115129E-18
   35.24600        8.9138538E-18
   35.40750        8.9172006E-18
   35.56900        8.9195134E-18
   35.73050        8.9191891E-18
   35.89200        8.9161542E-18
   36.05350        8.9119728E-18
   36.21500        8.9088833E-18
   36.37650        8.9083845E-18
   36.53800        8.9103201E-18
   36.69950        8.9130523E-18
   36.86100        8.9146016E-18
   37.02250        8.9139663E-18
   37.18400        8.9117296E-18
   37.34550        8.9095582E-18
   37.50700        8.9089478E-18
   37.66850        8.9101091E-18
   37.83000        8.9117594E-18
   37.99150        8.9120001E-18
   38.15300        8.9096749E-18
   38.31450        8.9052751E-18
   38.47600        8.9007579E-18
   38.63750        8.8983557E-18
   38.79900        8.8991680E-18
   38.96050        8.9024478E-18
   39.12200        8.9060833E-18
   39.28350        8.9079320E-18
   39.44500        8.9071354E-18
   39.60650        8.9045571E-18
   39.76800        8.9020739E-18
   39.92950        8.9012376E-18
   40.09100        8.9022278E-18
   40.25250        8.9038044E-18
   40.41400        8.9042767E-18
   40.57550        8.9027911E-18
   40.73700        8.9000415E-18
   40.89850        8.8978834E-18
   41.06000        8.8981068E-18
   41.22150        8.9011814E-18
   41.38300        8.9058434E-18
   41.54450        8.9098064E-18
   41.70600        8.9111431E-18
   41.86750        8.9094267E-18
   42.02900        8.9058872E-18
   42.19050        8.9025206E-18
   42.35200        8.9007603E-18
   42.51350        8.9006239E-18
   42.67500        8.9008811E-18
   42.83650        8.9000854E-18
   42.99800        8.8977271E-18
   43.15950        8.8946897E-18
   43.32100        8.8926722E-18
   43.48250        8.8929964E-18
   43.64400        8.8956178E-18
   43.80550        8.8990406E-18
   43.96700        8.9012219E-18
   44.12850        8.9008613E-18
   44.29000        8.8982176E-18
   44.45150        8.8949031E-18
   44.61300        8.8928020E-18
   44.77450        8.8928616E-18
   44.93600        8.8945474E-18
   45.09750        8.8963275E-18
   45.25900        8.8968139E-18
   45.42050        8.8957468E-18
   45.58200        8.8941545E-18
   45.74350        8.8935680E-18
   45.90500        8.8948617E-18
   46.06650        8.8975426E-18
   46.22800        8.9000010E-18
   46.38950        8.9005734E-18
   46.55100        8.8986858E-18
   46.71250        8.8952952E-18
   46.87400        8.8922966E-18
   47.03550        8.8913040E-18
   47.19700        8.8925977E-18
   47.35850        8.8949767E-18
   47.52000        8.8965856E-18
   47.68150        8.8961670E-18
   47.84300        8.8938790E-18
   48.00450        8.8911262E-18
   48.16600        8.8895438E-18
   48.32750        8.8898383E-18
   48.48900        8.8913048E-18
   48.65050        8.8923430E-18
   48.81200        8.8916283E-18
   48.97350        8.8891070E-18
   49.13500        8.8861168E-18
   49.29650        8.8845311E-18
   49.45800        8.8854798E-18
   49.61950        8.8885487E-18
   49.78100        8.8919757E-18
   49.94250        8.8937632E-18
   50.10400        8.8929493E-18
   50.26550        8.8901915E-18
   50.42700        8.8872938E-18
   50.58850        8.8859852E-18
   50.75000        8.8868008E-18
   50.91150        8.8887944E-18
   51.07300        8.8902767E-18
   51.23450        8.8900326E-18
   51.39600        8.8881781E-18
   51.55750        8.8860663E-18
   51.71900        8.8853012E-18
   51.88050        8.8865577E-18
   52.04200        8.8890210E-18
   52.20350        8.8908681E-18
   52.36500        8.8904545E-18
   52.52650        8.8874345E-18
   52.68800        8.8830397E-18
   52.84950        8.8793331E-18
   53.01100        8.8779235E-18
   53.17250        8.8790055E-18
   53.33400        8.8813390E-18
   53.49550        8.8831563E-18
   53.65700        8.8833556E-18
   53.81850        8.8821703E-18
   53.98000        8.8808758E-18
   54.14150        8.8807682E-18
   54.30300        8.8821529E-18
   54.46450        8.8840621E-18
   54.62600        8.8848992E-18
   54.78750        8.8835699E-18
   54.94900        8.8803124E-18
   55.11050        8.8766381E-18
   55.27200        8.8744122E-18
   55.43350        8.8746719E-18
   55.59500        8.8769880E-18
   55.75650        8.8797781E-18
   55.91800        8.8813497E-18
   56.07950        8.8809618E-18
   56.24100        8.8792065E-18
   56.40250        8.8774769E-18
   56.56400        8.8769276E-18
   56.72550        8.8776737E-18
   56.88700        8.8787664E-18
   57.04850        8.8789583E-18
   57.21000        8.8776895E-18
   57.37150        8.8755835E-18
   57.53300        8.8740821E-18
   57.69450        8.8744593E-18
   57.85600        8.8768937E-18
   58.01750        8.8802413E-18
   58.17900        8.8826898E-18
   58.34050        8.8828651E-18
   58.50200        8.8806549E-18
   58.66350        8.8772039E-18
   58.82500        8.8741227E-18
   58.98650        8.8724443E-18
   59.14800        8.8720481E-18
   59.30950        8.8719232E-18
   59.47100        8.8710397E-18
   59.63250        8.8691968E-18
   59.79400        8.8672289E-18
   59.95550        8.8664175E-18
   60.11700        8.8675317E-18
   60.27850        8.8701679E-18
   60.44000        8.8728877E-18
   60.60150        8.8740838E-18
   60.76300        8.8730026E-18
   60.92450        8.8702308E-18
   61.08600        8.8673174E-18
   61.24750        8.8657838E-18
   61.40900        8.8661743E-18
   61.57050        8.8677873E-18
   61.73200        8.8692324E-18
   61.89350        8.8694127E-18
   62.05500        8.8682480E-18
   62.21650        8.8666458E-18
   62.37800        8.8657681E-18
   62.53950        8.8661346E-18
   62.70100        8.8671967E-18
   62.86250        8.8677046E-18
   63.02400        8.8666168E-18
   63.18550        8.8639161E-18
   63.34700        8.8607480E-18
   63.50850        8.8587619E-18
   63.67000        8.8590837E-18
   63.83150        8.8615909E-18
   63.99300        8.8649807E-18
   64.15450        8.8675739E-18
   64.31600        8.8683183E-18
   64.47750        8.8673315E-18
   64.63900        8.8656498E-18
   64.80050        8.8644033E-18
   64.96200        8.8640087E-18
   65.12350        8.8639417E-18
   65.28500        8.8632303E-18
   65.44650        8.8612980E-18
   65.60800        8.8585311E-18
   65.76950        8.8561596E-18
   65.93100        8.8554937E-18
   66.09250        8.8570430E-18
   66.25400        8.8601086E-18
   66.41550        8.8631493E-18
   66.57700        8.8646779E-18
   66.73850        8.8641121E-18
   66.90000        8.8620243E-18
   67.06150        8.8596644E-18
   67.22300        8.8580977E-18
   67.38450        8.8575584E-18
   67.54600        8.8574384E-18
   67.70750        8.8568701E-18
   67.86900        8.8554664E-18
   68.03050        8.8536772E-18
   68.19200        8.8525002E-18
   68.35350        8.8527574E-18
   68.51500        8.8544540E-18
   68.67650        8.8566782E-18
   68.83800        8.8581308E-18
   68.99950        8.8579339E-18
   69.16100        8.8561803E-18
   69.32250        8.8538542E-18
   69.48400        8.8521900E-18
   69.64550        8.8519087E-18
   69.80700        8.8528310E-18
   69.96850        8.8541024E-18
   70.13000        8.8548378E-18
   70.29150        8.8547211E-18
   70.45300        8.8541371E-18
   70.61450        8.8537781E-18
   70.77600        8.8540213E-18
   70.93750        8.8545516E-18
   71.09900        8.8545102E-18
   71.26050        8.8530759E-18
   71.42200        8.8500707E-18
   71.58350        8.8461772E-18
   71.74500        8.8425806E-18
   71.90650        8.8402951E-18
   72.06800        8.8396069E-18
   72.22950        8.8399990E-18
   72.39100        8.8405863E-18
   72.55250        8.8407410E-18
   72.71400        8.8404804E-18
   72.87550        8.8403547E-18
   73.03700        8.8409544E-18
   73.19850        8.8424044E-18
   73.36000        8.8442176E-18
   73.52150        8.8456164E-18
   73.68300        8.8460961E-18
   73.84450        8.8458066E-18
   74.00600        8.8454948E-18
   74.16750        8.8460101E-18
   74.32900        8.8477298E-18
   74.49050        8.8502899E-18
   74.65200        8.8528070E-18
   74.81350        8.8544440E-18
   74.97500        8.8549321E-18
   75.13650        8.8546905E-18
   75.29800        8.8544945E-18
   75.45950        8.8549155E-18
   75.62100        8.8559371E-18
   75.78250        8.8570091E-18
   75.94400        8.8574740E-18
   76.10550        8.8570637E-18
   76.26700        8.8560934E-18
   76.42850        8.8552282E-18
   76.59000        8.8549809E-18
   76.75150        8.8553010E-18
   76.91300        8.8555665E-18
   77.07450        8.8549833E-18
   77.23600        8.8531305E-18
   77.39750        8.8502841E-18
   77.55900        8.8472856E-18
   77.72050        8.8450530E-18
   77.88200        8.8440596E-18
   78.04350        8.8441101E-18
   78.20500        8.8445617E-18
   78.36650        8.8447966E-18
   78.52800        8.8446237E-18
   78.68950        8.8443326E-18
   78.85100        8.8443847E-18
   79.01250        8.8449860E-18
   79.17400        8.8458686E-18
   79.33550        8.8464286E-18
   79.49700        8.8461457E-18
   79.65850        8.8449695E-18
   79.82000        8.8434012E-18
   79.98150        8.8422067E-18
   80.14300        8.8419453E-18
   80.30450        8.8426319E-18
   80.46600        8.8437569E-18
   80.62750        8.8446312E-18
   80.78900        8.8448190E-18
   80.95050        8.8443706E-18
   81.11200        8.8437080E-18
   81.27350        8.8432845E-18
   81.43500        8.8432672E-18
   81.59650        8.8434690E-18
   81.75800        8.8435658E-18
   81.91950        8.8434169E-18
   82.08100        8.8432357E-18
   82.24250        8.8434715E-18
   82.40400        8.8444823E-18
   82.56550        8.8462367E-18
   82.72700        8.8482509E-18
   82.88850        8.8498399E-18
   83.05000        8.8504975E-18
   83.21150        8.8501617E-18
   83.37300        8.8491956E-18
   83.53450        8.8481037E-18
   83.69600        8.8472087E-18
   83.85750        8.8464990E-18
   84.01900        8.8457636E-18
   84.18050        8.8448711E-18
   84.34200        8.8439719E-18
   84.50350        8.8434673E-18
   84.66500        8.8437279E-18
   84.82650        8.8447917E-18
   84.98800        8.8462582E-18
   85.14950        8.8474775E-18
   85.31100        8.8479292E-18
   85.47250        8.8475296E-18
   85.63400        8.8466594E-18
   85.79550        8.8458902E-18
   85.95700        8.8455948E-18
   86.11850        8.8457131E-18
   86.28000        8.8458339E-18
   86.44150        8.8455204E-18
   86.60300        8.8446527E-18
   86.76450        8.8435219E-18
   86.92600        8.8426269E-18
   87.08750        8.8423051E-18
   87.24900        8.8424797E-18
   87.41050        8.8427138E-18
   87.57200        8.8425376E-18
   87.73350        8.8418270E-18
   87.89500        8.8409486E-18
   88.05650        8.8405648E-18
   88.21800        8.8411959E-18
   88.37950        8.8428569E-18
   88.54100        8.8450026E-18
   88.70250        8.8468315E-18
   88.86400        8.8477497E-18
   89.02550        8.8476785E-18
   89.18700        8.8470151E-18
   89.34850        8.8462930E-18
   89.51000        8.8457868E-18
   89.67150        8.8453525E-18
   89.83300        8.8446072E-18
   89.99450        8.8433077E-18
   90.15600        8.8416393E-18
   90.31750        8.8401859E-18
   90.47900        8.8395846E-18
   90.64050        8.8400957E-18
   90.80200        8.8413903E-18
   90.96350        8.8427171E-18
   91.12500        8.8433515E-18
   91.28650        8.8430157E-18
   91.44800        8.8420140E-18
   91.60950        8.8409726E-18
   91.77100        8.8404068E-18
   91.93250        8.8403944E-18
   92.09400        8.8405970E-18
   92.25550        8.8405821E-18
   92.41700        8.8402099E-18
   92.57850        8.8397773E-18
   92.74000        8.8398079E-18
   92.90150        8.8406351E-18
   93.06300        8.8420818E-18
   93.22450        8.8434897E-18
   93.38600        8.8441010E-18
   93.54750        8.8435434E-18
   93.70900        8.8420884E-18
   93.87050        8.8404920E-18
   94.03200        8.8395209E-18
   94.19350        8.8394770E-18
   94.35500        8.8400560E-18
   94.51650        8.8406061E-18
   94.67800        8.8406111E-18
   94.83950        8.8400403E-18
   95.00100        8.8393182E-18
   95.16250        8.8389402E-18
   95.32400        8.8390221E-18
   95.48550        8.8391238E-18
   95.64700        8.8385100E-18
   95.80850        8.8366737E-18
   95.97000        8.8337670E-18
   96.13150        8.8306121E-18
   96.29300        8.8282671E-18
   96.45450        8.8274093E-18
   96.61600        8.8279461E-18
   96.77750        8.8291199E-18
   96.93900        8.8300257E-18
   97.10050        8.8301944E-18
   97.26200        8.8298420E-18
   97.42350        8.8296253E-18
   97.58500        8.8300902E-18
   97.74650        8.8312127E-18
   97.90800        8.8323765E-18
   98.06950        8.8327992E-18
   98.23100        8.8321242E-18
   98.39250        8.8307362E-18
   98.55400        8.8295608E-18
   98.71550        8.8294789E-18
   98.87700        8.8307205E-18
   99.03850        8.8326834E-18
   99.20000        8.8342939E-18
   99.36150        8.8346819E-18
   99.52300        8.8337174E-18
   99.68450        8.8320514E-18
   99.84600        8.8306419E-18
   100.0075        8.8301100E-18
   100.1690        8.8303656E-18
   100.3305        8.8307577E-18
   100.4920        8.8306320E-18
   100.6535        8.8298801E-18
   100.8150        8.8290794E-18
   100.9765        8.8291182E-18
   101.1380        8.8305493E-18
   101.2995        8.8331408E-18
   101.4610        8.8359499E-18
   101.6225        8.8378864E-18
   101.7840        8.8383893E-18
   101.9455        8.8377631E-18
   102.1070        8.8369384E-18
   102.2685        8.8368251E-18
   102.4300        8.8377085E-18
   102.5915        8.8390891E-18
   102.7530        8.8400800E-18
   102.9145        8.8400494E-18
   103.0760        8.8390667E-18
   103.2375        8.8378235E-18
   103.3990        8.8370939E-18
   103.5605        8.8371303E-18
   103.7220        8.8374289E-18
   103.8835        8.8370600E-18
   104.0450        8.8353337E-18
   104.2065        8.8323451E-18
   104.3680        8.8290024E-18
   104.5295        8.8265010E-18
   104.6910        8.8255961E-18
   104.8525        8.8261569E-18
   105.0140        8.8273084E-18
   105.1755        8.8280512E-18
   105.3370        8.8279271E-18
   105.4985        8.8272687E-18
   105.6600        8.8268708E-18
   105.8215        8.8273324E-18
   105.9830        8.8285467E-18
   106.1445        8.8297188E-18
   106.3060        8.8299065E-18
   106.4675        8.8287129E-18
   106.6290        8.8266292E-18
   106.7905        8.8247764E-18
   106.9520        8.8241965E-18
   107.1135        8.8251775E-18
   107.2750        8.8270759E-18
   107.4365        8.8287551E-18
   107.5980        8.8293465E-18
   107.7595        8.8288138E-18
   107.9210        8.8279337E-18
   108.0825        8.8277203E-18
   108.2440        8.8287030E-18
   108.4055        8.8305559E-18
   108.5670        8.8323442E-18
   108.7285        8.8331946E-18
   108.8900        8.8329183E-18
   109.0515        8.8321391E-18
   109.2130        8.8318322E-18
   109.3745        8.8325916E-18
   109.5360        8.8341558E-18
   109.6975        8.8355314E-18
   109.8590        8.8356364E-18
   110.0205        8.8340416E-18
   110.1820        8.8312871E-18
   110.3435        8.8285541E-18
   110.5050        8.8269246E-18
   110.6665        8.8267136E-18
   110.8280        8.8273431E-18
   110.9895        8.8278096E-18
   111.1510        8.8274109E-18
   111.3125        8.8262231E-18
   111.4740        8.8249881E-18
   111.6355        8.8245125E-18
   111.7970        8.8250245E-18
   111.9585        8.8259377E-18
   112.1200        8.8262330E-18
   112.2815        8.8251784E-18
   112.4430        8.8228904E-18
   112.6045        8.8203402E-18
   112.7660        8.8187752E-18
   112.9275        8.8189447E-18
   113.0890        8.8206512E-18
   113.2505        8.8229218E-18
   113.4120        8.8246664E-18
   113.5735        8.8253678E-18
   113.7350        8.8253306E-18
   113.8965        8.8253347E-18
   114.0580        8.8259758E-18
   114.2195        8.8271595E-18
   114.3810        8.8281380E-18
   114.5425        8.8280636E-18
   114.7040        8.8266499E-18
   114.8655        8.8244786E-18
   115.0270        8.8226935E-18
   115.1885        8.8222874E-18
   115.3500        8.8234479E-18
   115.5115        8.8254166E-18
   115.6730        8.8269667E-18
   115.8345        8.8271694E-18
   115.9960        8.8259394E-18
   116.1575        8.8240162E-18
   116.3190        8.8224032E-18
   116.4805        8.8216877E-18
   116.6420        8.8217125E-18