  -30.00000        1.6185187E-18
  -29.83850        1.6214200E-18
  -29.67700        1.6266660E-18
  -29.51550        1.6333275E-18
  -29.35400        1.6402988E-18
  -29.19250        1.6465341E-18
  -29.03100        1.6512673E-18
  -28.86950        1.6541718E-18
  -28.70800        1.6554169E-18
  -28.54650        1.6556108E-18
  -28.38500        1.6556473E-18
  -28.22350        1.6564834E-18
  -28.06200        1.6589101E-18
  -27.90050        1.6633592E-18
  -27.73900        1.6697974E-18
  -27.57750        1.6777255E-18
  -27.41600        1.6862850E-18
  -27.25450        1.6944487E-18
  -27.09300        1.7012442E-18
  -26.93150        1.7059722E-18
  -26.77000        1.7083626E-18
  -26.60850        1.7086355E-18
  -26.44700        1.7074574E-18
  -26.28550        1.7057925E-18
  -26.12400        1.7046929E-18
  -25.96250        1.7050648E-18
  -25.80100        1.7074687E-18
  -25.63950        1.7119995E-18
  -25.47800        1.7182724E-18
  -25.31650        1.7255159E-18
  -25.15500        1.7327528E-18
  -24.99350        1.7390223E-18
  -24.83200        1.7435966E-18
  -24.67050        1.7461427E-18
  -24.50900        1.7467927E-18
  -24.34750        1.7461073E-18
  -24.18600        1.7449493E-18
  -24.02450        1.7442828E-18
  -23.86300        1.7449547E-18
  -23.70150        1.7475007E-18
  -23.54000        1.7520254E-18
  -23.37850        1.7581740E-18
  -23.21700        1.7652173E-18
  -23.05550        1.7722173E-18
  -22.89400        1.7782410E-18
  -22.73250        1.7825732E-18
  -22.57100        1.7848781E-18
  -22.40950        1.7852727E-18
  -22.24800        1.7842987E-18
  -22.08650        1.7827949E-18
  -21.92500        1.7817104E-18
  -21.76350        1.7818860E-18
  -21.60200        1.7838692E-18
  -21.44050        1.7877898E-18
  -21.27900        1.7933342E-18
  -21.11750        1.7998129E-18
  -20.95600        1.8063205E-18
  -20.79450        1.8119391E-18
  -20.63300        1.8159466E-18
  -20.47150        1.8179794E-18
  -20.31000        1.8181136E-18
  -20.14850        1.8168476E-18
  -19.98700        1.8149854E-18
  -19.82550        1.8134531E-18
  -19.66400        1.8130891E-18
  -19.50250        1.8144567E-18
  -19.34100        1.8177197E-18
  -19.17950        1.8226110E-18
  -19.01800        1.8284962E-18
  -18.85650        1.8345210E-18
  -18.69500        1.8398106E-18
  -18.53350        1.8436677E-18
  -18.37200        1.8457330E-18
  -18.21050        1.8460676E-18
  -18.04900        1.8451413E-18
  -17.88750        1.8437231E-18
  -17.72600        1.8427080E-18
  -17.56450        1.8429092E-18
  -17.40300        1.8448719E-18
  -17.24150        1.8487443E-18
  -17.08000        1.8542418E-18
  -16.91850        1.8607052E-18
  -16.75700        1.8672486E-18
  -16.59550        1.8729532E-18
  -16.43400        1.8770720E-18
  -16.27250        1.8791918E-18
  -16.11100        1.8793217E-18
  -15.94950        1.8778888E-18
  -15.78800        1.8756370E-18
  -15.62650        1.8734588E-18
  -15.46500        1.8721968E-18
  -15.30350        1.8724550E-18
  -15.14200        1.8744694E-18
  -14.98050        1.8780623E-18
  -14.81900        1.8826871E-18
  -14.65750        1.8875602E-18
  -14.49600        1.8918448E-18
  -14.33450        1.8948439E-18
  -14.17300        1.8961649E-18
  -14.01150        1.8958090E-18
  -13.85000        1.8941766E-18
  -13.68850        1.8919769E-18
  -13.52700        1.8900696E-18
  -13.36550        1.8892751E-18
  -13.20400        1.8901919E-18
  -13.04250        1.8930622E-18
  -12.88100        1.8977217E-18
  -12.71950        1.9036383E-18
  -12.55800        1.9100277E-18
  -12.39650        1.9160266E-18
  -12.23500        1.9208763E-18
  -12.07350        1.9240819E-18
  -11.91200        1.9255110E-18
  -11.75050        1.9254111E-18
  -11.58900        1.9243445E-18
  -11.42750        1.9230555E-18
  -11.26600        1.9222999E-18
  -11.10450        1.9226763E-18
  -10.94300        1.9244944E-18
  -10.78150        1.9277105E-18
  -10.62000        1.9319446E-18
  -10.45850        1.9365698E-18
  -10.29700        1.9408581E-18
  -10.13550        1.9441464E-18
  -9.974000        1.9459800E-18
  -9.812500        1.9462133E-18
  -9.651000        1.9450370E-18
  -9.489500        1.9429335E-18
  -9.328000        1.9405694E-18
  -9.166500        1.9386516E-18
  -9.005000        1.9377765E-18
  -8.843500        1.9383073E-18
  -8.682000        1.9403010E-18
  -8.520500        1.9435037E-18
  -8.359000        1.9474113E-18
  -8.197500        1.9513815E-18
  -8.036000        1.9547761E-18
  -7.874500        1.9570951E-18
  -7.713000        1.9580790E-18
  -7.551500        1.9577589E-18
  -7.390000        1.9564387E-18
  -7.228500        1.9546208E-18
  -7.067000        1.9528936E-18
  -6.905500        1.9518021E-18
  -6.744000        1.9517314E-18
  -6.582500        1.9528307E-18
  -6.421000        1.9549864E-18
  -6.259500        1.9578530E-18
  -6.098000        1.9609338E-18
  -5.936500        1.9636927E-18
  -5.775000        1.9656729E-18
  -5.613500        1.9665963E-18
  -5.452000        1.9664238E-18
  -5.290500        1.9653592E-18
  -5.129000        1.9638006E-18
  -4.967500        1.9622488E-18
  -4.806000        1.9611935E-18
  -4.644500        1.9610064E-18
  -4.483000        1.9618609E-18
  -4.321500        1.9636955E-18
  -4.160000        1.9662325E-18
  -3.998500        1.9690387E-18
  -3.837000        1.9716206E-18
  -3.675500        1.9735324E-18
  -3.514000        1.9744733E-18
  -3.352500        1.9743517E-18
  -3.191000        1.9733076E-18
  -3.029500        1.9716820E-18
  -2.868000        1.9699422E-18
  -2.706500        1.9685794E-18
  -2.545000        1.9680025E-18
  -2.383500        1.9684510E-18
  -2.222000        1.9699494E-18
  -2.060500        1.9723102E-18
  -1.899000        1.9751843E-18
  -1.737500        1.9781433E-18
  -1.576000        1.9807787E-18
  -1.414500        1.9827889E-18
  -1.253000        1.9840425E-18
  -1.091500        1.9846005E-18
 -0.9300000        1.9846999E-18
 -0.7685000        1.9846946E-18
 -0.6070000        1.9849727E-18
 -0.4455000        1.9858675E-18
 -0.2840000        1.9875717E-18
 -0.1225000        1.9900888E-18
  3.9000001E-02    1.9932216E-18
  0.2005000        1.9966076E-18
  0.3620000        1.9997947E-18
  0.5235000        2.0023363E-18
  0.6850000        2.0038860E-18
  0.8465000        2.0042717E-18
   1.008000        2.0035288E-18
   1.169500        2.0018945E-18
   1.331000        1.9997548E-18
   1.492500        1.9975690E-18
   1.654000        1.9957790E-18
   1.815500        1.9947219E-18
   1.977000        1.9945657E-18
   2.138500        1.9952771E-18
   2.300000        1.9966331E-18
   2.461500        1.9982680E-18
   2.623000        1.9997588E-18
   2.784500        2.0007206E-18
   2.946000        2.0008976E-18
   3.107500        2.0002280E-18
   3.269000        1.9988652E-18
   3.430500        1.9971498E-18
   3.592000        1.9955434E-18
   3.753500        1.9945330E-18
   3.915000        1.9945295E-18
   4.076500        1.9957823E-18
   4.238000        1.9983207E-18
   4.399500        2.0019417E-18
   4.561000        2.0062426E-18
   4.722500        2.0106926E-18
   4.884000        2.0147367E-18
   5.045500        2.0179054E-18
   5.207000        2.0199122E-18
   5.368500        2.0207143E-18
   5.530000        2.0205253E-18
   5.691500        2.0197664E-18
   5.853000        2.0189764E-18
   6.014500        2.0186935E-18
   6.176000        2.0193365E-18
   6.337500        2.0211118E-18
   6.499000        2.0239619E-18
   6.660500        2.0275713E-18
   6.822000        2.0314216E-18
   6.983500        2.0348959E-18
   7.145000        2.0374017E-18
   7.306500        2.0384985E-18
   7.468000        2.0380004E-18
   7.629500        2.0360273E-18
   7.791000        2.0329945E-18
   7.952500        2.0295331E-18
   8.114000        2.0263634E-18
   8.275500        2.0241424E-18
   8.437000        2.0233262E-18
   8.598500        2.0240713E-18
   8.760000        2.0262039E-18
   8.921500        2.0292616E-18
   9.083000        2.0325922E-18
   9.244500        2.0354936E-18
   9.406000        2.0373669E-18
   9.567500        2.0378479E-18
   9.729000        2.0368936E-18
   9.890500        2.0348027E-18
   10.05200        2.0321644E-18
   10.21350        2.0297366E-18
   10.37500        2.0282822E-18
   10.53650        2.0283924E-18
   10.69800        2.0303485E-18
   10.85950        2.0340437E-18
   11.02100        2.0390006E-18
   11.18250        2.0444664E-18
   11.34400        2.0495792E-18
   11.50550        2.0535503E-18
   11.66700        2.0558329E-18
   11.82850        2.0562366E-18
   11.99000        2.0549658E-18
   12.15150        2.0525732E-18
   12.31300        2.0498433E-18
   12.47450        2.0476201E-18
   12.63600        2.0466235E-18
   12.79750        2.0472836E-18
   12.95900        2.0496373E-18
   13.12050        2.0533106E-18
   13.28200        2.0575979E-18
   13.44350        2.0616238E-18
   13.60500        2.0645458E-18
   13.76650        2.0657550E-18
   13.92800        2.0650229E-18
   14.08950        2.0625550E-18
   14.25100        2.0589495E-18
   14.41250        2.0550655E-18
   14.57400        2.0518333E-18
   14.73550        2.0500499E-18
   14.89700        2.0502058E-18
   15.05850        2.0523743E-18
   15.22000        2.0561903E-18
   15.38150        2.0609288E-18
   15.54300        2.0656633E-18
   15.70450        2.0694802E-18
   15.86600        2.0716910E-18
   16.02750        2.0720010E-18
   16.18900        2.0705818E-18
   16.35050        2.0680340E-18
   16.51200        2.0652454E-18
   16.67350        2.0631750E-18
   16.83500        2.0626243E-18
   16.99650        2.0640423E-18
   17.15800        2.0674161E-18
   17.31950        2.0722622E-18
   17.48100        2.0777313E-18
   17.64250        2.0827928E-18
   17.80400        2.0864686E-18
   17.96550        2.0880630E-18
   18.12700        2.0873377E-18
   18.28850        2.0845865E-18
   18.45000        2.0805869E-18
   18.61150        2.0764322E-18
   18.77300        2.0732806E-18
   18.93450        2.0720812E-18
   19.09600        2.0733408E-18
   19.25750        2.0769974E-18
   19.41900        2.0824262E-18
   19.58050        2.0885804E-18
   19.74200        2.0942288E-18
   19.90350        2.0982385E-18
   20.06500        2.0998331E-18
   20.22650        2.0987785E-18
   20.38800        2.0954449E-18
   20.54950        2.0907397E-18
   20.71100        2.0859117E-18
   20.87250        2.0822704E-18
   21.03400        2.0808777E-18
   21.19550        2.0822866E-18
   21.35700        2.0863908E-18
   21.51850        2.0924262E-18
   21.68000        2.0991377E-18
   21.84150        2.1050677E-18
   22.00300        2.1088970E-18
   22.16450        2.1097585E-18
   22.32600        2.1074469E-18
   22.48750        2.1024747E-18
   22.64900        2.0959661E-18
   22.81050        2.0894169E-18
   22.97200        2.0843702E-18
   23.13350        2.0820771E-18
   23.29500        2.0832186E-18
   23.45650        2.0877420E-18
   23.61800        2.0948614E-18
   23.77950        2.1032167E-18
   23.94100        2.1111763E-18
   24.10250        2.1172070E-18
   24.26400        2.1202316E-18
   24.42550        2.1198819E-18
   24.58700        2.1165860E-18
   24.74850        2.1114693E-18
   24.91000        2.1060906E-18
   25.07150        2.1020781E-18
   25.23300        2.1007561E-18
   25.39450        2.1028383E-18
   25.55600        2.1082642E-18
   25.71750        2.1162014E-18
   25.87900        2.1252199E-18
   26.04050        2.1335960E-18
   26.20200        2.1396873E-18
   26.36350        2.1422971E-18
   26.52500        2.1409490E-18
   26.68650        2.1360024E-18
   26.84800        2.1285812E-18
   27.00950        2.1203232E-18
   27.17100        2.1130128E-18
   27.33250        2.1081763E-18
   27.49400        2.1067475E-18
   27.65550        2.1088674E-18
   27.81700        2.1138729E-18
   27.97850        2.1204665E-18
   28.14000        2.1270172E-18
   28.30150        2.1319356E-18
   28.46300        2.1340304E-18
   28.62450        2.1327752E-18
   28.78600        2.1284306E-18
   28.94750        2.1219929E-18
   29.10900        2.1149718E-18
   29.27050        2.1090500E-18
   29.43200        2.1056964E-18
   29.59350        2.1058205E-18
   29.75500        2.1095575E-18
   29.91650        2.1162363E-18
   30.07800        2.1245365E-18
   30.23950        2.1327946E-18
   30.40100        2.1393881E-18
   30.56250        2.1431015E-18
   30.72400        2.1433927E-18
   30.88550        2.1405102E-18
   31.04700        2.1354261E-18
   31.20850        2.1296195E-18
   31.37000        2.1247427E-18
   31.53150        2.1222485E-18
   31.69300        2.1230554E-18
   31.85450        2.1273253E-18
   32.01600        2.1344114E-18
   32.17750        2.1429948E-18
   32.33900        2.1513894E-18
   32.50050        2.1579337E-18
   32.66200        2.1613888E-18
   32.82350        2.1612312E-18
   32.98500        2.1577778E-18
   33.14650        2.1521062E-18
   33.30800        2.1458004E-18
   33.46950        2.1405784E-18
   33.63100        2.1378961E-18
   33.79250        2.1386093E-18
   33.95400        2.1427750E-18
   34.11550        2.1496257E-18
   34.27700        2.1577343E-18
   34.43850        2.1653334E-18
   34.60000        2.1707182E-18
   34.76150        2.1726525E-18
   34.92300        2.1706772E-18
   35.08450        2.1652375E-18
   35.24600        2.1575972E-18
   35.40750        2.1495525E-18
   35.56900        2.1430085E-18
   35.73050        2.1395262E-18
   35.89200        2.1399493E-18
   36.05350        2.1441994E-18
   36.21500        2.1512927E-18
   36.37650        2.1595628E-18
   36.53800        2.1670416E-18
   36.69950        2.1719110E-18
   36.86100        2.1729243E-18
   37.02250        2.1697049E-18
   37.18400        2.1628513E-18
   37.34550        2.1538251E-18
   37.50700        2.1446303E-18
   37.66850        2.1373644E-18
   37.83000        2.1337296E-18
   37.99150        2.1346297E-18
   38.15300        2.1399471E-18
   38.31450        2.1485607E-18
   38.47600        2.1586010E-18
   38.63750        2.1678853E-18
   38.79900        2.1744239E-18
   38.96050        2.1768805E-18
   39.12200        2.1748837E-18
   39.28350        2.1691147E-18
   39.44500        2.1611587E-18
   39.60650        2.1531495E-18
   39.76800        2.1472879E-18
   39.92950        2.1453378E-18
   40.09100        2.1482114E-18
   40.25250        2.1557441E-18
   40.41400        2.1667134E-18
   40.57550        2.1791014E-18
   40.73700        2.1905525E-18
   40.89850        2.1989087E-18
   41.06000        2.2027053E-18
   41.22150        2.2015017E-18
   41.38300        2.1959712E-18
   41.54450        2.1877318E-18
   41.70600        2.1789683E-18
   41.86750        2.1719269E-18
   42.02900        2.1684056E-18
   42.19050        2.1693542E-18
   42.35200        2.1746642E-18
   42.51350        2.1831981E-18
   42.67500        2.1930469E-18
   42.83650        2.2019686E-18
   42.99800        2.2079010E-18
   43.15950        2.2094416E-18
   43.32100        2.2061782E-18
   43.48250        2.1987900E-18
   43.64400        2.1888922E-18
   43.80550        2.1786624E-18
   43.96700        2.1703381E-18
   44.12850        2.1657069E-18
   44.29000        2.1657110E-18
   44.45150        2.1702510E-18
   44.61300        2.1782298E-18
   44.77450        2.1878174E-18
   44.93600        2.1968697E-18
   45.09750        2.2034094E-18
   45.25900        2.2060655E-18
   45.42050        2.2043728E-18
   45.58200        2.1988785E-18
   45.74350        2.1910157E-18
   45.90500        2.1827799E-18
   46.06650        2.1762717E-18
   46.22800        2.1732113E-18
   46.38950        2.1745373E-18
   46.55100        2.1801900E-18
   46.71250        2.1891275E-18
   46.87400        2.1995721E-18
   47.03550        2.2094234E-18
   47.19700        2.2167388E-18
   47.35850        2.2201670E-18
   47.52000        2.2192416E-18
   47.68150        2.2144696E-18
   47.84300        2.2072097E-18
   48.00450        2.1993560E-18
   48.16600        2.1929139E-18
   48.32750        2.1895471E-18
   48.48900        2.1901968E-18
   48.65050        2.1948654E-18
   48.81200        2.2026114E-18
   48.97350        2.2117649E-18
   49.13500        2.2203188E-18
   49.29650        2.2264009E-18
   49.45800        2.2287184E-18
   49.61950        2.2268608E-18
   49.78100        2.2213966E-18
   49.94250        2.2137361E-18
   50.10400        2.2057983E-18
   50.26550        2.1995661E-18
   50.42700        2.1966308E-18
   50.58850        2.1978251E-18
   50.75000        2.2030307E-18
   50.91150        2.2111987E-18
   51.07300        2.2205812E-18
   51.23450        2.2291299E-18
   51.39600        2.2349678E-18
   51.55750        2.2368324E-18
   51.71900        2.2343871E-18
   51.88050        2.2283137E-18
   52.04200        2.2201683E-18
   52.20350        2.2120208E-18
   52.36500        2.2059739E-18
   52.52650        2.2036631E-18
   52.68800        2.2058692E-18
   52.84950        2.2123274E-18
   53.01100        2.2217724E-18
   53.17250        2.2322201E-18
   53.33400        2.2414088E-18
   53.49550        2.2473116E-18
   53.65700        2.2486030E-18
   53.81850        2.2449812E-18
   53.98000        2.2372620E-18
   54.14150        2.2272196E-18
   54.30300        2.2172032E-18
   54.46450        2.2096075E-18
   54.62600        2.2063198E-18
   54.78750        2.2082745E-18
   54.94900        2.2152271E-18
   55.11050        2.2257991E-18
   55.27200        2.2377918E-18
   55.43350        2.2486864E-18
   55.59500        2.2562158E-18
   55.75650        2.2588770E-18
   55.91800        2.2562677E-18
   56.07950        2.2491715E-18
   56.24100        2.2393820E-18
   56.40250        2.2292987E-18
   56.56400        2.2213799E-18
   56.72550        2.2175802E-18
   56.88700        2.2188895E-18
   57.04850        2.2250900E-18
   57.21000        2.2347947E-18
   57.37150        2.2457625E-18
   57.53300        2.2554279E-18
   57.69450        2.2615112E-18
   57.85600        2.2625691E-18
   58.01750        2.2583443E-18
   58.17900        2.2498372E-18
   58.34050        2.2390791E-18
   58.50200        2.2286653E-18
   58.66350        2.2211634E-18
   58.82500        2.2185243E-18
   58.98650        2.2216353E-18
   59.14800        2.2301054E-18
   59.30950        2.2423349E-18
   59.47100        2.2558613E-18
   59.63250        2.2679003E-18
   59.79400        2.2759753E-18
   59.95550        2.2784878E-18
   60.11700        2.2750922E-18
   60.27850        2.2667816E-18
   60.44000        2.2556595E-18
   60.60150        2.2444491E-18
   60.76300        2.2358584E-18
   60.92450        2.2319515E-18
   61.08600        2.2336819E-18
   61.24750        2.2406898E-18
   61.40900        2.2514034E-18
   61.57050        2.2634170E-18
   61.73200        2.2740485E-18
   61.89350        2.2809578E-18
   62.05500        2.2826779E-18
   62.21650        2.2789506E-18
   62.37800        2.2707845E-18
   62.53950        2.2602208E-18
   62.70100        2.2498562E-18
   62.86250        2.2422290E-18
   63.02400        2.2392180E-18
   63.18550        2.2415968E-18
   63.34700        2.2488566E-18
   63.50850        2.2593382E-18
   63.67000        2.2706401E-18
   63.83150        2.2801980E-18
   63.99300        2.2858923E-18
   64.15450        2.2865439E-18
   64.31600        2.2821801E-18
   64.47750        2.2740227E-18
   64.63900        2.2642010E-18
   64.80050        2.2552575E-18
   64.96200        2.2495590E-18
   65.12350        2.2487407E-18
   65.28500        2.2533151E-18
   65.44650        2.2625367E-18
   65.60800        2.2745649E-18
   65.76950        2.2868891E-18
   65.93100        2.2969213E-18
   66.09250        2.3026082E-18
   66.25400        2.3029145E-18
   66.41550        2.2980608E-18
   66.57700        2.2894573E-18
   66.73850        2.2793566E-18
   66.90000        2.2703138E-18
   67.06150        2.2645850E-18
   67.22300        2.2635984E-18
   67.38450        2.2676205E-18
   67.54600        2.2756913E-18
   67.70750        2.2858390E-18
   67.86900        2.2955399E-18
   68.03050        2.3023164E-18
   68.19200        2.3043428E-18
   68.35350        2.3009104E-18
   68.51500        2.2926293E-18
   68.67650        2.2813205E-18
   68.83800        2.2696002E-18
   68.99950        2.2602704E-18
   69.16100        2.2556510E-18
   69.32250        2.2570287E-18
   69.48400        2.2643484E-18
   69.64550        2.2762199E-18
   69.80700        2.2902305E-18
   69.96850        2.3034891E-18
   70.13000        2.3132792E-18
   70.29150        2.3176699E-18
   70.45300        2.3159605E-18
   70.61450        2.3088478E-18
   70.77600        2.2982802E-18
   70.93750        2.2870169E-18
   71.09900        2.2779909E-18
   71.26050        2.2736157E-18
   71.42200        2.2752068E-18
   71.58350        2.2826543E-18
   71.74500        2.2944388E-18
   71.90650        2.3079787E-18
   72.06800        2.3202311E-18
   72.22950        2.3283980E-18
   72.39100        2.3305698E-18
   72.55250        2.3261632E-18
   72.71400        2.3160588E-18
   72.87550        2.3024159E-18
   73.03700        2.2881985E-18
   73.19850        2.2765268E-18
   73.36000        2.2699848E-18
   73.52150        2.2700353E-18
   73.68300        2.2766866E-18
   73.84450        2.2884766E-18
   74.00600        2.3028042E-18
   74.16750        2.3165247E-18
   74.32900        2.3266715E-18
   74.49050        2.3311434E-18
   74.65200        2.3291764E-18
   74.81350        2.3215024E-18
   74.97500        2.3101575E-18
   75.13650        2.2979946E-18
   75.29800        2.2880155E-18
   75.45950        2.2826816E-18
   75.62100        2.2833525E-18
   75.78250        2.2899769E-18
   75.94400        2.3011079E-18
   76.10550        2.3142301E-18
   76.26700        2.3263404E-18
   76.42850        2.3346501E-18
   76.59000        2.3372425E-18
   76.75150        2.3335303E-18
   76.91300        2.3244056E-18
   77.07450        2.3120316E-18
   77.23600        2.2993338E-18
   77.39750        2.2893164E-18
   77.55900        2.2843656E-18
   77.72050        2.2857120E-18
   77.88200        2.2931653E-18
   78.04350        2.3051797E-18
   78.20500        2.3192242E-18
   78.36650        2.3323648E-18
   78.52800        2.3419336E-18
   78.68950        2.3461272E-18
   78.85100        2.3444094E-18
   79.01250        2.3376236E-18
   79.17400        2.3277863E-18
   79.33550        2.3176019E-18
   79.49700        2.3098200E-18
   79.65850        2.3065743E-18
   79.82000        2.3088766E-18
   79.98150        2.3163808E-18
   80.14300        2.3274755E-18
   80.30450        2.3396793E-18
   80.46600        2.3502292E-18
   80.62750        2.3567315E-18
   80.78900        2.3577139E-18
   80.95050        2.3529595E-18
   81.11200        2.3435540E-18
   81.27350        2.3316391E-18
   81.43500        2.3199250E-18
   81.59650        2.3110703E-18
   81.75800        2.3070712E-18
   81.91950        2.3087914E-18
   82.08100        2.3157531E-18
   82.24250        2.3262422E-18
   82.40400        2.3377108E-18
   82.56550        2.3473781E-18
   82.72700        2.3528933E-18
   82.88850        2.3528888E-18
   83.05000        2.3472995E-18
   83.21150        2.3373630E-18
   83.37300        2.3253205E-18
   83.53450        2.3138831E-18
   83.69600        2.3056003E-18
   83.85750        2.3022759E-18
   84.01900        2.3045585E-18
   84.18050        2.3117984E-18
   84.34200        2.3222111E-18
   84.50350        2.3332958E-18
   84.66500        2.3424301E-18
   84.82650        2.3474952E-18
   84.98800        2.3473810E-18
   85.14950        2.3422568E-18
   85.31100        2.3335286E-18
   85.47250        2.3234953E-18
   85.63400        2.3147909E-18
   85.79550        2.3097474E-18
   85.95700        2.3098347E-18
   86.11850        2.3153110E-18
   86.28000        2.3251652E-18
   86.44150        2.3373533E-18
   86.60300        2.3492697E-18
   86.76450        2.3583498E-18
   86.92600        2.3626563E-18
   87.08750        2.3613271E-18
   87.24900        2.3547758E-18
   87.41050        2.3446085E-18
   87.57200        2.3332602E-18
   87.73350        2.3234399E-18
   87.89500        2.3175074E-18
   88.05650        2.3169283E-18
   88.21800        2.3219417E-18
   88.37950        2.3315122E-18
   88.54100        2.3435816E-18
   88.70250        2.3555593E-18
   88.86400        2.3649234E-18
   89.02550        2.3698013E-18
   89.18700        2.3693904E-18
   89.34850        2.3641287E-18
   89.51000        2.3555810E-18
   89.67150        2.3460712E-18
   89.83300        2.3381391E-18
   89.99450        2.3339528E-18
   90.15600        2.3347996E-18
   90.31750        2.3407795E-18
   90.47900        2.3507751E-18
   90.64050        2.3627070E-18
   90.80200        2.3740177E-18
   90.96350        2.3822723E-18
   91.12500        2.3857287E-18
   91.28650        2.3837422E-18
   91.44800        2.3769018E-18
   91.60950        2.3668859E-18
   91.77100        2.3560550E-18
   91.93250        2.3469031E-18
   92.09400        2.3414803E-18
   92.25550        2.3409273E-18
   92.41700        2.3452274E-18
   92.57850        2.3532211E-18
   92.74000        2.3628861E-18
   92.90150        2.3718196E-18
   93.06300        2.3778103E-18
   93.22450        2.3793706E-18
   93.38600        2.3760999E-18
   93.54750        2.3687917E-18
   93.70900        2.3592548E-18
   93.87050        2.3498892E-18
   94.03200        2.3431190E-18
   94.19350        2.3408204E-18
   94.35500        2.3438785E-18
   94.51650        2.3519774E-18
   94.67800        2.3636678E-18
   94.83950        2.3766924E-18
   95.00100        2.3884968E-18
   95.16250        2.3967993E-18
   95.32400        2.4001049E-18
   95.48550        2.3980367E-18
   95.64700        2.3914213E-18
   95.80850        2.3820972E-18
   95.97000        2.3724874E-18
   96.13150        2.3650363E-18
   96.29300        2.3616399E-18
   96.45450        2.3632006E-18
   96.61600        2.3694214E-18
   96.77750        2.3788836E-18
   96.93900        2.3893900E-18
   97.10050        2.3984873E-18
   97.26200        2.4040449E-18
   97.42350        2.4047489E-18
   97.58500        2.4003993E-18
   97.74650        2.3919516E-18
   97.90800        2.3812882E-18
   98.06950        2.3707795E-18
   98.23100        2.3627341E-18
   98.39250        2.3588658E-18
   98.55400        2.3598975E-18
   98.71550        2.3653966E-18
   98.87700        2.3738847E-18
   99.03850        2.3831938E-18
   99.20000        2.3909864E-18
   99.36150        2.3953126E-18
   99.52300        2.3950729E-18
   99.68450        2.3902662E-18
   99.84600        2.3819840E-18
   100.0075        2.3721385E-18
   100.1690        2.3630104E-18
   100.3305        2.3567172E-18
   100.4920        2.3547262E-18
   100.6535        2.3575249E-18
   100.8150        2.3645179E-18
   100.9765        2.3741697E-18
   101.1380        2.3843657E-18
   101.2995        2.3929034E-18
   101.4610        2.3980040E-18
   101.6225        2.3987235E-18
   101.7840        2.3951681E-18
   101.9455        2.3884571E-18
   102.1070        2.3804533E-18
   102.2685        2.3733127E-18
   102.4300        2.3689758E-18
   102.5915        2.3687107E-18
   102.7530        2.3728263E-18
   102.9145        2.3806070E-18
   103.0760        2.3904881E-18
   103.2375        2.4004209E-18
   103.3990        2.4083479E-18
   103.5605        2.4126762E-18
   103.7220        2.4126420E-18
   103.8835        2.4084817E-18
   104.0450        2.4013715E-18
   104.2065        2.3931454E-18
   104.3680        2.3858583E-18
   104.5295        2.3812993E-18
   104.6910        2.3805683E-18
   104.8525        2.3838266E-18
   105.0140        2.3902707E-18
   105.1755        2.3983422E-18
   105.3370        2.4061133E-18
   105.4985        2.4117594E-18
   105.6600        2.4139955E-18
   105.8215        2.4123829E-18
   105.9830        2.4074308E-18
   106.1445        2.4004719E-18
   106.3060        2.3933400E-18
   106.4675        2.3879263E-18
   106.6290        2.3857196E-18
   106.7905        2.3874414E-18
   106.9520        2.3928573E-18
   107.1135        2.4008253E-18
   107.2750        2.4095571E-18
   107.4365        2.4170389E-18
   107.5980        2.4215078E-18
   107.7595        2.4218674E-18
   107.9210        2.4179532E-18
   108.0825        2.4105720E-18
   108.2440        2.4013243E-18
   108.4055        2.3922419E-18
   108.5670        2.3853229E-18
   108.7285        2.3820781E-18
   108.8900        2.3831865E-18
   109.0515        2.3883388E-18
   109.2130        2.3963104E-18
   109.3745        2.4052483E-18
   109.5360        2.4131036E-18
   109.6975        2.4181132E-18
   109.8590        2.4192134E-18
   110.0205        2.4162866E-18
   110.1820        2.4101847E-18
   110.3435        2.4025215E-18
   110.5050        2.3952930E-18
   110.6665        2.3903996E-18
   110.8280        2.3892010E-18
   110.9895        2.3921881E-18
   111.1510        2.3988583E-18
   111.3125        2.4078227E-18
   111.4740        2.4171233E-18
   111.6355        2.4246829E-18
   111.7970        2.4287989E-18
   111.9585        2.4285464E-18
   112.1200        2.4240092E-18
   112.2815        2.4162649E-18
   112.4430        2.4071429E-18
   112.6045        2.3987928E-18
   112.7660        2.3931824E-18
   112.9275        2.3916397E-18
   113.0890        2.3945421E-18
   113.2505        2.4012294E-18
   113.4120        2.4101533E-18
   113.5735        2.4192326E-18
   113.7350        2.4263277E-18
   113.8965        2.4297324E-18
   114.0580        2.4285686E-18
   114.2195        2.4229954E-18
   114.3810        2.4141818E-18
   114.5425        2.4040435E-18
   114.7040        2.3948057E-18
   114.8655        2.3884970E-18
   115.0270        2.3864868E-18
   115.1885        2.3891830E-18
   115.3500        2.3959495E-18
   115.5115        2.4052677E-18
   115.6730        2.4150872E-18
   115.8345        2.4232926E-18
   115.9960        2.4281738E-18
   116.1575        2.4288000E-18
   116.3190        2.4252204E-18
   116.4805        2.4184428E-18
   116.6420        2.4102000E-18