  -30.00000       -2.8780449E-18
  -29.83850       -2.8798566E-18
  -29.67700       -2.8828016E-18
  -29.51550       -2.8862348E-18
  -29.35400       -2.8899792E-18
  -29.19250       -2.8940305E-18
  -29.03100       -2.8980806E-18
  -28.86950       -2.9016086E-18
  -28.70800       -2.9044251E-18
  -28.54650       -2.9068926E-18
  -28.38500       -2.9094417E-18
  -28.22350       -2.9120015E-18
  -28.06200       -2.9141267E-18
  -27.90050       -2.9156729E-18
  -27.73900       -2.9170710E-18
  -27.57750       -2.9187959E-18
  -27.41600       -2.9207458E-18
  -27.25450       -2.9223687E-18
  -27.09300       -2.9233367E-18
  -26.93150       -2.9238781E-18
  -26.77000       -2.9244203E-18
  -26.60850       -2.9251150E-18
  -26.44700       -2.9258966E-18
  -26.28550       -2.9269023E-18
  -26.12400       -2.9285083E-18
  -25.96250       -2.9308037E-18
  -25.80100       -2.9332441E-18
  -25.63950       -2.9351032E-18
  -25.47800       -2.9362325E-18
  -25.31650       -2.9371587E-18
  -25.15500       -2.9383918E-18
  -24.99350       -2.9398433E-18
  -24.83200       -2.9410566E-18
  -24.67050       -2.9418819E-18
  -24.50900       -2.9427006E-18
  -24.34750       -2.9439468E-18
  -24.18600       -2.9456212E-18
  -24.02450       -2.9474430E-18
  -23.86300       -2.9493176E-18
  -23.70150       -2.9513575E-18
  -23.54000       -2.9534269E-18
  -23.37850       -2.9549853E-18
  -23.21700       -2.9556226E-18
  -23.05550       -2.9556371E-18
  -22.89400       -2.9558546E-18
  -22.73250       -2.9568355E-18
  -22.57100       -2.9584015E-18
  -22.40950       -2.9600269E-18
  -22.24800       -2.9615287E-18
  -22.08650       -2.9631570E-18
  -21.92500       -2.9650454E-18
  -21.76350       -2.9668655E-18
  -21.60200       -2.9681956E-18
  -21.44050       -2.9690366E-18
  -21.27900       -2.9697153E-18
  -21.11750       -2.9703580E-18
  -20.95600       -2.9707358E-18
  -20.79450       -2.9707340E-18
  -20.63300       -2.9707865E-18
  -20.47150       -2.9715955E-18
  -20.31000       -2.9734008E-18
  -20.14850       -2.9757132E-18
  -19.98700       -2.9778682E-18
  -19.82550       -2.9796690E-18
  -19.66400       -2.9813115E-18
  -19.50250       -2.9828290E-18
  -19.34100       -2.9839335E-18
  -19.17950       -2.9844805E-18
  -19.01800       -2.9848349E-18
  -18.85650       -2.9855440E-18
  -18.69500       -2.9867149E-18
  -18.53350       -2.9879246E-18
  -18.37200       -2.9888118E-18
  -18.21050       -2.9895647E-18
  -18.04900       -2.9906426E-18
  -17.88750       -2.9921009E-18
  -17.72600       -2.9934707E-18
  -17.56450       -2.9943440E-18
  -17.40300       -2.9948469E-18
  -17.24150       -2.9953871E-18
  -17.08000       -2.9961158E-18
  -16.91850       -2.9968845E-18
  -16.75700       -2.9976990E-18
  -16.59550       -2.9989276E-18
  -16.43400       -3.0008684E-18
  -16.27250       -3.0031996E-18
  -16.11100       -3.0051428E-18
  -15.94950       -3.0062459E-18
  -15.78800       -3.0068199E-18
  -15.62650       -3.0074840E-18
  -15.46500       -3.0084418E-18
  -15.30350       -3.0094278E-18
  -15.14200       -3.0102625E-18
  -14.98050       -3.0111814E-18
  -14.81900       -3.0125078E-18
  -14.65750       -3.0141897E-18
  -14.49600       -3.0158802E-18
  -14.33450       -3.0174413E-18
  -14.17300       -3.0190978E-18
  -14.01150       -3.0209643E-18
  -13.85000       -3.0226209E-18
  -13.68850       -3.0234510E-18
  -13.52700       -3.0233983E-18
  -13.36550       -3.0231379E-18
  -13.20400       -3.0234126E-18
  -13.04250       -3.0243524E-18
  -12.88100       -3.0255713E-18
  -12.71950       -3.0267800E-18
  -12.55800       -3.0280659E-18
  -12.39650       -3.0295333E-18
  -12.23500       -3.0309215E-18
  -12.07350       -3.0318324E-18
  -11.91200       -3.0322679E-18
  -11.75050       -3.0326625E-18
  -11.58900       -3.0332953E-18
  -11.42750       -3.0339146E-18
  -11.26600       -3.0341334E-18
  -11.10450       -3.0340685E-18
  -10.94300       -3.0343386E-18
  -10.78150       -3.0353920E-18
  -10.62000       -3.0370180E-18
  -10.45850       -3.0386362E-18
  -10.29700       -3.0399512E-18
  -10.13550       -3.0411033E-18
  -9.974000       -3.0422059E-18
  -9.812500       -3.0430306E-18
  -9.651000       -3.0433555E-18
  -9.489500       -3.0434415E-18
  -9.328000       -3.0438634E-18
  -9.166500       -3.0448458E-18
  -9.005000       -3.0459898E-18
  -8.843500       -3.0467804E-18
  -8.682000       -3.0472110E-18
  -8.520500       -3.0477370E-18
  -8.359000       -3.0486416E-18
  -8.197500       -3.0496797E-18
  -8.036000       -3.0504634E-18
  -7.874500       -3.0510203E-18
  -7.713000       -3.0517321E-18
  -7.551500       -3.0527833E-18
  -7.390000       -3.0539717E-18
  -7.228500       -3.0551440E-18
  -7.067000       -3.0565742E-18
  -6.905500       -3.0586676E-18
  -6.744000       -3.0613390E-18
  -6.582500       -3.0639221E-18
  -6.421000       -3.0658093E-18
  -6.259500       -3.0670554E-18
  -6.098000       -3.0682042E-18
  -5.936500       -3.0695893E-18
  -5.775000       -3.0710501E-18
  -5.613500       -3.0723655E-18
  -5.452000       -3.0736842E-18
  -5.290500       -3.0753066E-18
  -5.129000       -3.0771836E-18
  -4.967500       -3.0789023E-18
  -4.806000       -3.0802031E-18
  -4.644500       -3.0813055E-18
  -4.483000       -3.0825485E-18
  -4.321500       -3.0838176E-18
  -4.160000       -3.0845697E-18
  -3.998500       -3.0845023E-18
  -3.837000       -3.0839982E-18
  -3.675500       -3.0837347E-18
  -3.514000       -3.0839800E-18
  -3.352500       -3.0844819E-18
  -3.191000       -3.0849902E-18
  -3.029500       -3.0856041E-18
  -2.868000       -3.0864876E-18
  -2.706500       -3.0874463E-18
  -2.545000       -3.0880393E-18
  -2.383500       -3.0881421E-18
  -2.222000       -3.0881773E-18
  -2.060500       -3.0886316E-18
  -1.899000       -3.0894669E-18
  -1.737500       -3.0902312E-18
  -1.576000       -3.0907231E-18
  -1.414500       -3.0912838E-18
  -1.253000       -3.0923376E-18
  -1.091500       -3.0938412E-18
 -0.9300000       -3.0953793E-18
 -0.7685000       -3.0967088E-18
 -0.6070000       -3.0979779E-18
 -0.4455000       -3.0993397E-18
 -0.2840000       -3.1005540E-18
 -0.1225000       -3.1012143E-18
  3.9000001E-02   -3.1013408E-18
  0.2005000       -3.1014736E-18
  0.3620000       -3.1020526E-18
  0.5235000       -3.1028885E-18
  0.6850000       -3.1034247E-18
  0.8465000       -3.1034224E-18
   1.008000       -3.1031743E-18
   1.169500       -3.1030554E-18
   1.331000       -3.1030820E-18
   1.492500       -3.1030721E-18
   1.654000       -3.1031040E-18
   1.815500       -3.1035587E-18
   1.977000       -3.1046280E-18
   2.138500       -3.1060082E-18
   2.300000       -3.1072889E-18
   2.461500       -3.1085387E-18
   2.623000       -3.1102369E-18
   2.784500       -3.1126004E-18
   2.946000       -3.1151949E-18
   3.107500       -3.1173499E-18
   3.269000       -3.1188388E-18
   3.430500       -3.1199944E-18
   3.592000       -3.1211923E-18
   3.753500       -3.1224306E-18
   3.915000       -3.1235316E-18
   4.076500       -3.1245658E-18
   4.238000       -3.1257822E-18
   4.399500       -3.1271271E-18
   4.561000       -3.1281152E-18
   4.722500       -3.1283539E-18
   4.884000       -3.1280441E-18
   5.045500       -3.1277546E-18
   5.207000       -3.1277376E-18
   5.368500       -3.1276617E-18
   5.530000       -3.1271046E-18
   5.691500       -3.1261620E-18
   5.853000       -3.1253975E-18
   6.014500       -3.1252290E-18
   6.176000       -3.1255919E-18
   6.337500       -3.1262760E-18
   6.499000       -3.1273348E-18
   6.660500       -3.1289269E-18
   6.822000       -3.1308575E-18
   6.983500       -3.1325774E-18
   7.145000       -3.1337394E-18
   7.306500       -3.1345831E-18
   7.468000       -3.1356041E-18
   7.629500       -3.1368912E-18
   7.791000       -3.1379802E-18
   7.952500       -3.1384295E-18
   8.114000       -3.1383466E-18
   8.275500       -3.1381872E-18
   8.437000       -3.1381541E-18
   8.598500       -3.1380590E-18
   8.760000       -3.1377736E-18
   8.921500       -3.1375529E-18
   9.083000       -3.1377331E-18
   9.244500       -3.1382608E-18
   9.406000       -3.1387550E-18
   9.567500       -3.1390689E-18
   9.729000       -3.1395940E-18
   9.890500       -3.1408344E-18
   10.05200       -3.1427640E-18
   10.21350       -3.1448195E-18
   10.37500       -3.1465423E-18
   10.53650       -3.1480058E-18
   10.69800       -3.1495084E-18
   10.85950       -3.1510709E-18
   11.02100       -3.1524720E-18
   11.18250       -3.1537024E-18
   11.34400       -3.1551260E-18
   11.50550       -3.1570394E-18
   11.66700       -3.1592174E-18
   11.82850       -3.1610947E-18
   11.99000       -3.1624188E-18
   12.15150       -3.1634966E-18
   12.31300       -3.1646733E-18
   12.47450       -3.1657557E-18
   12.63600       -3.1661599E-18
   12.79750       -3.1655642E-18
   12.95900       -3.1641879E-18
   13.12050       -3.1624190E-18
   13.28200       -3.1603854E-18
   13.44350       -3.1580635E-18
   13.60500       -3.1556913E-18
   13.76650       -3.1537930E-18
   13.92800       -3.1526616E-18
   14.08950       -3.1520005E-18
   14.25100       -3.1513063E-18
   14.41250       -3.1505616E-18
   14.57400       -3.1503037E-18
   14.73550       -3.1509768E-18
   14.89700       -3.1524141E-18
   15.05850       -3.1540819E-18
   15.22000       -3.1556940E-18
   15.38150       -3.1573862E-18
   15.54300       -3.1593115E-18
   15.70450       -3.1612940E-18
   15.86600       -3.1630566E-18
   16.02750       -3.1646524E-18
   16.18900       -3.1663942E-18
   16.35050       -3.1683133E-18
   16.51200       -3.1699534E-18
   16.67350       -3.1708891E-18
   16.83500       -3.1713108E-18
   16.99650       -3.1718799E-18
   17.15800       -3.1730166E-18
   17.31950       -3.1744969E-18
   17.48100       -3.1758185E-18
   17.64250       -3.1768082E-18
   17.80400       -3.1776877E-18
   17.96550       -3.1785954E-18
   18.12700       -3.1793229E-18
   18.28850       -3.1796570E-18
   18.45000       -3.1797695E-18
   18.61150       -3.1800065E-18
   18.77300       -3.1803500E-18
   18.93450       -3.1803461E-18
   19.09600       -3.1796728E-18
   19.25750       -3.1786082E-18
   19.41900       -3.1777690E-18
   19.58050       -3.1774319E-18
   19.74200       -3.1772965E-18
   19.90350       -3.1769797E-18
   20.06500       -3.1765489E-18
   20.22650       -3.1763901E-18
   20.38800       -3.1766643E-18
   20.54950       -3.1771763E-18
   20.71100       -3.1778116E-18
   20.87250       -3.1788417E-18
   21.03400       -3.1805951E-18
   21.19550       -3.1829310E-18
   21.35700       -3.1852676E-18
   21.51850       -3.1871800E-18
   21.68000       -3.1887993E-18
   21.84150       -3.1904875E-18
   22.00300       -3.1922327E-18
   22.16450       -3.1935884E-18
   22.32600       -3.1942251E-18
   22.48750       -3.1942975E-18
   22.64900       -3.1941360E-18
   22.81050       -3.1937541E-18
   22.97200       -3.1929095E-18
   23.13350       -3.1916195E-18
   23.29500       -3.1903467E-18
   23.45650       -3.1895375E-18
   23.61800       -3.1890906E-18
   23.77950       -3.1884812E-18
   23.94100       -3.1874158E-18
   24.10250       -3.1861771E-18
   24.26400       -3.1852196E-18
   24.42550       -3.1846201E-18
   24.58700       -3.1841220E-18
   24.74850       -3.1836393E-18
   24.91000       -3.1834300E-18
   25.07150       -3.1837102E-18
   25.23300       -3.1843114E-18
   25.39450       -3.1849378E-18
   25.55600       -3.1856849E-18
   25.71750       -3.1870721E-18
   25.87900       -3.1894505E-18
   26.04050       -3.1925255E-18
   26.20200       -3.1956510E-18
   26.36350       -3.1985463E-18
   26.52500       -3.2015035E-18
   26.68650       -3.2048658E-18
   26.84800       -3.2085186E-18
   27.00950       -3.2120308E-18
   27.17100       -3.2151234E-18
   27.33250       -3.2177735E-18
   27.49400       -3.2198739E-18
   27.65550       -3.2210568E-18
   27.81700       -3.2210523E-18
   27.97850       -3.2201312E-18
   28.14000       -3.2189438E-18
   28.30150       -3.2178438E-18
   28.46300       -3.2165450E-18
   28.62450       -3.2145912E-18
   28.78600       -3.2120221E-18
   28.94750       -3.2093828E-18
   29.10900       -3.2071261E-18
   29.27050       -3.2052306E-18
   29.43200       -3.2034637E-18
   29.59350       -3.2018356E-18
   29.75500       -3.2006006E-18
   29.91650       -3.1998628E-18
   30.07800       -3.1994236E-18
   30.23950       -3.1991607E-18
   30.40100       -3.1993905E-18
   30.56250       -3.2005818E-18
   30.72400       -3.2027319E-18
   30.88550       -3.2052403E-18
   31.04700       -3.2074855E-18
   31.20850       -3.2093671E-18
   31.37000       -3.2111753E-18
   31.53150       -3.2130429E-18
   31.69300       -3.2147312E-18
   31.85450       -3.2159843E-18
   32.01600       -3.2169015E-18
   32.17750       -3.2177516E-18
   32.33900       -3.2185048E-18
   32.50050       -3.2188118E-18
   32.66200       -3.2185339E-18
   32.82350       -3.2180657E-18
   32.98500       -3.2179642E-18
   33.14650       -3.2183507E-18
   33.30800       -3.2188526E-18
   33.46950       -3.2191131E-18
   33.63100       -3.2191996E-18
   33.79250       -3.2194175E-18
   33.95400       -3.2198572E-18
   34.11550       -3.2203223E-18
   34.27700       -3.2207133E-18
   34.43850       -3.2212249E-18
   34.60000       -3.2219986E-18
   34.76150       -3.2227519E-18
   34.92300       -3.2230172E-18
   35.08450       -3.2227592E-18
   35.24600       -3.2225505E-18
   35.40750       -3.2230396E-18
   35.56900       -3.2243209E-18
   35.73050       -3.2259285E-18
   35.89200       -3.2274102E-18
   36.05350       -3.2287517E-18
   36.21500       -3.2301868E-18
   36.37650       -3.2317791E-18
   36.53800       -3.2334025E-18
   36.69950       -3.2350281E-18
   36.86100       -3.2367350E-18
   37.02250       -3.2383618E-18
   37.18400       -3.2393745E-18
   37.34550       -3.2393021E-18
   37.50700       -3.2382833E-18
   37.66850       -3.2370367E-18
   37.83000       -3.2361855E-18
   37.99150       -3.2356847E-18
   38.15300       -3.2350134E-18
   38.31450       -3.2338719E-18
   38.47600       -3.2325118E-18
   38.63750       -3.2313910E-18
   38.79900       -3.2307321E-18
   38.96050       -3.2305266E-18
   39.12200       -3.2307756E-18
   39.28350       -3.2314905E-18
   39.44500       -3.2324587E-18
   39.60650       -3.2332329E-18
   39.76800       -3.2335315E-18
   39.92950       -3.2336167E-18
   40.09100       -3.2340797E-18
   40.25250       -3.2351656E-18
   40.41400       -3.2364391E-18
   40.57550       -3.2372377E-18
   40.73700       -3.2373426E-18
   40.89850       -3.2370818E-18
   41.06000       -3.2368665E-18
   41.22150       -3.2368241E-18
   41.38300       -3.2369151E-18
   41.54450       -3.2372154E-18
   41.70600       -3.2378961E-18
   41.86750       -3.2389314E-18
   42.02900       -3.2400160E-18
   42.19050       -3.2409288E-18
   42.35200       -3.2418573E-18
   42.51350       -3.2431709E-18
   42.67500       -3.2448889E-18
   42.83650       -3.2465609E-18
   42.99800       -3.2477204E-18
   43.15950       -3.2483215E-18
   43.32100       -3.2486377E-18
   43.48250       -3.2488352E-18
   43.64400       -3.2488019E-18
   43.80550       -3.2484270E-18
   43.96700       -3.2478808E-18
   44.12850       -3.2474381E-18
   44.29000       -3.2470681E-18
   44.45150       -3.2464211E-18
   44.61300       -3.2453191E-18
   44.77450       -3.2440938E-18
   44.93600       -3.2433247E-18
   45.09750       -3.2433026E-18
   45.25900       -3.2438698E-18
   45.42050       -3.2447411E-18
   45.58200       -3.2458255E-18
   45.74350       -3.2471678E-18
   45.90500       -3.2486851E-18
   46.06650       -3.2501769E-18
   46.22800       -3.2516263E-18
   46.38950       -3.2532908E-18
   46.55100       -3.2553271E-18
   46.71250       -3.2574304E-18
   46.87400       -3.2590447E-18
   47.03550       -3.2599612E-18
   47.19700       -3.2605739E-18
   47.35850       -3.2614648E-18
   47.52000       -3.2628038E-18
   47.68150       -3.2642286E-18
   47.84300       -3.2652651E-18
   48.00450       -3.2657380E-18
   48.16600       -3.2657328E-18
   48.32750       -3.2653267E-18
   48.48900       -3.2645589E-18
   48.65050       -3.2636039E-18
   48.81200       -3.2627124E-18
   48.97350       -3.2618674E-18
   49.13500       -3.2606473E-18
   49.29650       -3.2586063E-18
   49.45800       -3.2558056E-18
   49.61950       -3.2528507E-18
   49.78100       -3.2503407E-18
   49.94250       -3.2483422E-18
   50.10400       -3.2464990E-18
   50.26550       -3.2446029E-18
   50.42700       -3.2429132E-18
   50.58850       -3.2418951E-18
   50.75000       -3.2418232E-18
   50.91150       -3.2427577E-18
   51.07300       -3.2447591E-18
   51.23450       -3.2479009E-18
   51.39600       -3.2520358E-18
   51.55750       -3.2567203E-18
   51.71900       -3.2615115E-18
   51.88050       -3.2663117E-18
   52.04200       -3.2712865E-18
   52.20350       -3.2764035E-18
   52.36500       -3.2811840E-18
   52.52650       -3.2850440E-18
   52.68800       -3.2877975E-18
   52.84950       -3.2896657E-18
   53.01100       -3.2908194E-18
   53.17250       -3.2910925E-18
   53.33400       -3.2902176E-18
   53.49550       -3.2882245E-18
   53.65700       -3.2854656E-18
   53.81850       -3.2822634E-18
   53.98000       -3.2786722E-18
   54.14150       -3.2746674E-18
   54.30300       -3.2704682E-18
   54.46450       -3.2665094E-18
   54.62600       -3.2631018E-18
   54.78750       -3.2603003E-18
   54.94900       -3.2581459E-18
   55.11050       -3.2568487E-18
   55.27200       -3.2565590E-18
   55.43350       -3.2570208E-18
   55.59500       -3.2576385E-18
   55.75650       -3.2579888E-18
   55.91800       -3.2582061E-18
   56.07950       -3.2587632E-18
   56.24100       -3.2598797E-18
   56.40250       -3.2612712E-18
   56.56400       -3.2625217E-18
   56.72550       -3.2635600E-18
   56.88700       -3.2646699E-18
   57.04850       -3.2661433E-18
   57.21000       -3.2680926E-18
   57.37150       -3.2705448E-18
   57.53300       -3.2735025E-18
   57.69450       -3.2768009E-18
   57.85600       -3.2800060E-18
   58.01750       -3.2826636E-18
   58.17900       -3.2847468E-18
   58.34050       -3.2867441E-18
   58.50200       -3.2891371E-18
   58.66350       -3.2918085E-18
   58.82500       -3.2940944E-18
   58.98650       -3.2954135E-18
   59.14800       -3.2957235E-18
   59.30950       -3.2953711E-18
   59.47100       -3.2946573E-18
   59.63250       -3.2936454E-18
   59.79400       -3.2923120E-18
   59.95550       -3.2906992E-18
   60.11700       -3.2888412E-18
   60.27850       -3.2866611E-18
   60.44000       -3.2841492E-18
   60.60150       -3.2816463E-18
   60.76300       -3.2797378E-18
   60.92450       -3.2787384E-18
   61.08600       -3.2783757E-18
   61.24750       -3.2780839E-18
   61.40900       -3.2775586E-18
   61.57050       -3.2769521E-18
   61.73200       -3.2765608E-18
   61.89350       -3.2764521E-18
   62.05500       -3.2764794E-18
   62.21650       -3.2765840E-18
   62.37800       -3.2768996E-18
   62.53950       -3.2774906E-18
   62.70100       -3.2781608E-18
   62.86250       -3.2786761E-18
   63.02400       -3.2791017E-18
   63.18550       -3.2797616E-18
   63.34700       -3.2808707E-18
   63.50850       -3.2823170E-18
   63.67000       -3.2838382E-18
   63.83150       -3.2853296E-18
   63.99300       -3.2868896E-18
   64.15450       -3.2885814E-18
   64.31600       -3.2902964E-18
   64.47750       -3.2919516E-18
   64.63900       -3.2936880E-18
   64.80050       -3.2956615E-18
   64.96200       -3.2976360E-18
   65.12350       -3.2989727E-18
   65.28500       -3.2991325E-18
   65.44650       -3.2981503E-18
   65.60800       -3.2965765E-18
   65.76950       -3.2949869E-18
   65.93100       -3.2935817E-18
   66.09250       -3.2922363E-18
   66.25400       -3.2908200E-18
   66.41550       -3.2893586E-18
   66.57700       -3.2879737E-18
   66.73850       -3.2868741E-18
   66.90000       -3.2864357E-18
   67.06150       -3.2870660E-18
   67.22300       -3.2888037E-18
   67.38450       -3.2910944E-18
   67.54600       -3.2931251E-18
   67.70750       -3.2944786E-18
   67.86900       -3.2954675E-18
   68.03050       -3.2967780E-18
   68.19200       -3.2987498E-18
   68.35350       -3.3010214E-18
   68.51500       -3.3028429E-18
   68.67650       -3.3036376E-18
   68.83800       -3.3032664E-18
   68.99950       -3.3019634E-18
   69.16100       -3.3001979E-18
   69.32250       -3.2985142E-18
   69.48400       -3.2972656E-18
   69.64550       -3.2963735E-18
   69.80700       -3.2953960E-18
   69.96850       -3.2939767E-18
   70.13000       -3.2923207E-18
   70.29150       -3.2911740E-18
   70.45300       -3.2912139E-18
   70.61450       -3.2924226E-18
   70.77600       -3.2941037E-18
   70.93750       -3.2954685E-18
   71.09900       -3.2961545E-18
   71.26050       -3.2962742E-18
   71.42200       -3.2961508E-18
   71.58350       -3.2960726E-18
   71.74500       -3.2961791E-18
   71.90650       -3.2964117E-18
   72.06800       -3.2965066E-18
   72.22950       -3.2961241E-18
   72.39100       -3.2951631E-18
   72.55250       -3.2939885E-18
   72.71400       -3.2932323E-18
   72.87550       -3.2932823E-18
   73.03700       -3.2940059E-18
   73.19850       -3.2949991E-18
   73.36000       -3.2960283E-18
   73.52150       -3.2971876E-18
   73.68300       -3.2986852E-18
   73.84450       -3.3005633E-18
   74.00600       -3.3026443E-18
   74.16750       -3.3046856E-18
   74.32900       -3.3064715E-18
   74.49050       -3.3077445E-18
   74.65200       -3.3081879E-18
   74.81350       -3.3076291E-18
   74.97500       -3.3062322E-18
   75.13650       -3.3044023E-18
   75.29800       -3.3025089E-18
   75.45950       -3.3007488E-18
   75.62100       -3.2992444E-18
   75.78250       -3.2981654E-18
   75.94400       -3.2976895E-18
   76.10550       -3.2978452E-18
   76.26700       -3.2984749E-18
   76.42850       -3.2994282E-18
   76.59000       -3.3007354E-18
   76.75150       -3.3024785E-18
   76.91300       -3.3044976E-18
   77.07450       -3.3063458E-18
   77.23600       -3.3075927E-18
   77.39750       -3.3081395E-18
   77.55900       -3.3082245E-18
   77.72050       -3.3081705E-18
   77.88200       -3.3081341E-18
   78.04350       -3.3080549E-18
   78.20500       -3.3077683E-18
   78.36650       -3.3071088E-18
   78.52800       -3.3059578E-18
   78.68950       -3.3043527E-18
   78.85100       -3.3026156E-18
   79.01250       -3.3012530E-18
   79.17400       -3.3005911E-18
   79.33550       -3.3005090E-18
   79.49700       -3.3005770E-18
   79.65850       -3.3004693E-18
   79.82000       -3.3002432E-18
   79.98150       -3.3002230E-18
   80.14300       -3.3006171E-18
   80.30450       -3.3012592E-18
   80.46600       -3.3017226E-18
   80.62750       -3.3016267E-18
   80.78900       -3.3008148E-18
   80.95050       -3.2993619E-18
   81.11200       -3.2975528E-18
   81.27350       -3.2958153E-18
   81.43500       -3.2945229E-18
   81.59650       -3.2937763E-18
   81.75800       -3.2933900E-18
   81.91950       -3.2931351E-18
   82.08100       -3.2930399E-18
   82.24250       -3.2934500E-18
   82.40400       -3.2947398E-18
   82.56550       -3.2969635E-18
   82.72700       -3.2998340E-18
   82.88850       -3.3030265E-18
   83.05000       -3.3064101E-18
   83.21150       -3.3099831E-18
   83.37300       -3.3136922E-18
   83.53450       -3.3173464E-18
   83.69600       -3.3206595E-18
   83.85750       -3.3233269E-18
   84.01900       -3.3250766E-18
   84.18050       -3.3256985E-18
   84.34200       -3.3251184E-18
   84.50350       -3.3234841E-18
   84.66500       -3.3210950E-18
   84.82650       -3.3181984E-18
   84.98800       -3.3149184E-18
   85.14950       -3.3114348E-18
   85.31100       -3.3081414E-18
   85.47250       -3.3055144E-18
   85.63400       -3.3037968E-18
   85.79550       -3.3028153E-18
   85.95700       -3.3021168E-18
   86.11850       -3.3013148E-18
   86.28000       -3.3003375E-18
   86.44150       -3.2993464E-18
   86.60300       -3.2984817E-18
   86.76450       -3.2977360E-18
   86.92600       -3.2969982E-18
   87.08750       -3.2961226E-18
   87.24900       -3.2950154E-18
   87.41050       -3.2937827E-18
   87.57200       -3.2928110E-18
   87.73350       -3.2926150E-18
   87.89500       -3.2935073E-18
   88.05650       -3.2953492E-18
   88.21800       -3.2976219E-18
   88.37950       -3.2998462E-18
   88.54100       -3.3019966E-18
   88.70250       -3.3044780E-18
   88.86400       -3.3076806E-18
   89.02550       -3.3115785E-18
   89.18700       -3.3156985E-18
   89.34850       -3.3193691E-18
   89.51000       -3.3220351E-18
   89.67150       -3.3234880E-18
   89.83300       -3.3239101E-18
   89.99450       -3.3237019E-18
   90.15600       -3.3232018E-18
   90.31750       -3.3224402E-18
   90.47900       -3.3211072E-18
   90.64050       -3.3188546E-18
   90.80200       -3.3157479E-18
   90.96350       -3.3124069E-18
   91.12500       -3.3096412E-18
   91.28650       -3.3079302E-18
   91.44800       -3.3072037E-18
   91.60950       -3.3070116E-18
   91.77100       -3.3068867E-18
   91.93250       -3.3066363E-18
   92.09400       -3.3063807E-18
   92.25550       -3.3063848E-18
   92.41700       -3.3068505E-18
   92.57850       -3.3077592E-18
   92.74000       -3.3087832E-18
   92.90150       -3.3093987E-18
   93.06300       -3.3092239E-18
   93.22450       -3.3083043E-18
   93.38600       -3.3070445E-18
   93.54750       -3.3058788E-18
   93.70900       -3.3049962E-18
   93.87050       -3.3043061E-18
   94.03200       -3.3036328E-18
   94.19350       -3.3029444E-18
   94.35500       -3.3024133E-18
   94.51650       -3.3023025E-18
   94.67800       -3.3028617E-18
   94.83950       -3.3042741E-18
   95.00100       -3.3065451E-18
   95.16250       -3.3093867E-18
   95.32400       -3.3122862E-18
   95.48550       -3.3147474E-18
   95.64700       -3.3164955E-18
   95.80850       -3.3175137E-18
   95.97000       -3.3179391E-18
   96.13150       -3.3179002E-18
   96.29300       -3.3174351E-18
   96.45450       -3.3165381E-18
   96.61600       -3.3152164E-18
   96.77750       -3.3135112E-18
   96.93900       -3.3115624E-18
   97.10050       -3.3097128E-18
   97.26200       -3.3084398E-18
   97.42350       -3.3080799E-18
   97.58500       -3.3085922E-18
   97.74650       -3.3095773E-18
   97.90800       -3.3105387E-18
   98.06950       -3.3112085E-18
   98.23100       -3.3116970E-18
   98.39250       -3.3123329E-18
   98.55400       -3.3133447E-18
   98.71550       -3.3146564E-18
   98.87700       -3.3158918E-18
   99.03850       -3.3165333E-18
   99.20000       -3.3162051E-18
   99.36150       -3.3149679E-18
   99.52300       -3.3133536E-18
   99.68450       -3.3120465E-18
   99.84600       -3.3114393E-18
   100.0075       -3.3114104E-18
   100.1690       -3.3114828E-18
   100.3305       -3.3112611E-18
   100.4920       -3.3108088E-18
   100.6535       -3.3106163E-18
   100.8150       -3.3111968E-18
   100.9765       -3.3126807E-18
   101.1380       -3.3146908E-18
   101.2995       -3.3165176E-18
   101.4610       -3.3175044E-18
   101.6225       -3.3174451E-18
   101.7840       -3.3167105E-18
   101.9455       -3.3159719E-18
   102.1070       -3.3157243E-18
   102.2685       -3.3159557E-18
   102.4300       -3.3161828E-18
   102.5915       -3.3158561E-18
   102.7530       -3.3148328E-18
   102.9145       -3.3135079E-18
   103.0760       -3.3124919E-18
   103.2375       -3.3121670E-18
   103.3990       -3.3124690E-18
   103.5605       -3.3129843E-18
   103.7220       -3.3132657E-18
   103.8835       -3.3131725E-18
   104.0450       -3.3129878E-18
   104.2065       -3.3132078E-18
   104.3680       -3.3141696E-18
   104.5295       -3.3157789E-18
   104.6910       -3.3175034E-18
   104.8525       -3.3186681E-18
   105.0140       -3.3188668E-18
   105.1755       -3.3181612E-18
   105.3370       -3.3169010E-18
   105.4985       -3.3153974E-18
   105.6600       -3.3137430E-18
   105.8215       -3.3118585E-18
   105.9830       -3.3096832E-18
   106.1445       -3.3073609E-18
   106.3060       -3.3052729E-18
   106.4675       -3.3038783E-18
   106.6290       -3.3035040E-18
   106.7905       -3.3042218E-18
   106.9520       -3.3058503E-18
   107.1135       -3.3080758E-18
   107.2750       -3.3106436E-18
   107.4365       -3.3134550E-18
   107.5980       -3.3164653E-18
   107.7595       -3.3195256E-18
   107.9210       -3.3223614E-18
   108.0825       -3.3246825E-18
   108.2440       -3.3263124E-18
   108.4055       -3.3272420E-18
   108.5670       -3.3275673E-18
   108.7285       -3.3273659E-18
   108.8900       -3.3266528E-18
   109.0515       -3.3254573E-18
   109.2130       -3.3239018E-18
   109.3745       -3.3222043E-18
   109.5360       -3.3206361E-18
   109.6975       -3.3194462E-18
   109.8590       -3.3187421E-18
   110.0205       -3.3184249E-18
   110.1820       -3.3182751E-18
   110.3435       -3.3181163E-18
   110.5050       -3.3179037E-18
   110.6665       -3.3176850E-18
   110.8280       -3.3174614E-18
   110.9895       -3.3170687E-18
   111.1510       -3.3162250E-18
   111.3125       -3.3147497E-18
   111.4740       -3.3127407E-18
   111.6355       -3.3105429E-18
   111.7970       -3.3085847E-18
   111.9585       -3.3072114E-18
   112.1200       -3.3065716E-18
   112.2815       -3.3066042E-18
   112.4430       -3.3071562E-18
   112.6045       -3.3081263E-18
   112.7660       -3.3095201E-18
   112.9275       -3.3113920E-18
   113.0890       -3.3137207E-18
   113.2505       -3.3162978E-18
   113.4120       -3.3187570E-18
   113.5735       -3.3207716E-18
   113.7350       -3.3222282E-18
   113.8965       -3.3232002E-18
   114.0580       -3.3237945E-18
   114.2195       -3.3240520E-18
   114.3810       -3.3239420E-18
   114.5425       -3.3234221E-18
   114.7040       -3.3225165E-18
   114.8655       -3.3213425E-18
   115.0270       -3.3200623E-18
   115.1885       -3.3188409E-18
   115.3500       -3.3178409E-18
   115.5115       -3.3171957E-18
   115.6730       -3.3169812E-18
   115.8345       -3.3172463E-18
   115.9960       -3.3180311E-18
   116.1575       -3.3192934E-18
   116.3190       -3.3208270E-18
   116.4805       -3.3223120E-18
   116.6420       -3.3234676E-18