  -30.00000        8.7531500E-18
  -29.83850        8.7109687E-18
  -29.67700        8.6510263E-18
  -29.51550        8.6032822E-18
  -29.35400        8.5817399E-18
  -29.19250        8.5758901E-18
  -29.03100        8.5614045E-18
  -28.86950        8.5213020E-18
  -28.70800        8.4607747E-18
  -28.54650        8.4040260E-18
  -28.38500        8.3757017E-18
  -28.22350        8.3815879E-18
  -28.06200        8.4037770E-18
  -27.90050        8.4140977E-18
  -27.73900        8.3953274E-18
  -27.57750        8.3537351E-18
  -27.41600        8.3133935E-18
  -27.25450        8.2970153E-18
  -27.09300        8.3083683E-18
  -26.93150        8.3298519E-18
  -26.77000        8.3366860E-18
  -26.60850        8.3162563E-18
  -26.44700        8.2774078E-18
  -26.28550        8.2427531E-18
  -26.12400        8.2305009E-18
  -25.96250        8.2403824E-18
  -25.80100        8.2546181E-18
  -25.63950        8.2527934E-18
  -25.47800        8.2285504E-18
  -25.31650        8.1948552E-18
  -25.15500        8.1738597E-18
  -24.99350        8.1796127E-18
  -24.83200        8.2072918E-18
  -24.67050        8.2371415E-18
  -24.50900        8.2495699E-18
  -24.34750        8.2392020E-18
  -24.18600        8.2170178E-18
  -24.02450        8.1995519E-18
  -23.86300        8.1944680E-18
  -23.70150        8.1943804E-18
  -23.54000        8.1836907E-18
  -23.37850        8.1525259E-18
  -23.21700        8.1061690E-18
  -23.05550        8.0622374E-18
  -22.89400        8.0379117E-18
  -22.73250        8.0375469E-18
  -22.57100        8.0504733E-18
  -22.40950        8.0604441E-18
  -22.24800        8.0587112E-18
  -22.08650        8.0500464E-18
  -21.92500        8.0470314E-18
  -21.76350        8.0577765E-18
  -21.60200        8.0775949E-18
  -21.44050        8.0917752E-18
  -21.27900        8.0872365E-18
  -21.11750        8.0633707E-18
  -20.95600        8.0329015E-18
  -20.79450        8.0118348E-18
  -20.63300        8.0066162E-18
  -20.47150        8.0090836E-18
  -20.31000        8.0034778E-18
  -20.14850        7.9798883E-18
  -19.98700        7.9430804E-18
  -19.82550        7.9093017E-18
  -19.66400        7.8934736E-18
  -19.50250        7.8971926E-18
  -19.34100        7.9075356E-18
  -19.17950        7.9079294E-18
  -19.01800        7.8923387E-18
  -18.85650        7.8709809E-18
  -18.69500        7.8624162E-18
  -18.53350        7.8779722E-18
  -18.37200        7.9110412E-18
  -18.21050        7.9403135E-18
  -18.04900        7.9449631E-18
  -17.88750        7.9200716E-18
  -17.72600        7.8800468E-18
  -17.56450        7.8471200E-18
  -17.40300        7.8339008E-18
  -17.24150        7.8338843E-18
  -17.08000        7.8276614E-18
  -16.91850        7.8000485E-18
  -16.75700        7.7543625E-18
  -16.59550        7.7120150E-18
  -16.43400        7.6970761E-18
  -16.27250        7.7175728E-18
  -16.11100        7.7583379E-18
  -15.94950        7.7914706E-18
  -15.78800        7.7966728E-18
  -15.62650        7.7757881E-18
  -15.46500        7.7501984E-18
  -15.30350        7.7430756E-18
  -15.14200        7.7604265E-18
  -14.98050        7.7858954E-18
  -14.81900        7.7935642E-18
  -14.65750        7.7687306E-18
  -14.49600        7.7202901E-18
  -14.33450        7.6747323E-18
  -14.17300        7.6561877E-18
  -14.01150        7.6679651E-18
  -13.85000        7.6900872E-18
  -13.68850        7.6949031E-18
  -13.52700        7.6687484E-18
  -13.36550        7.6228201E-18
  -13.20400        7.5847722E-18
  -13.04250        7.5775567E-18
  -12.88100        7.6019305E-18
  -12.71950        7.6361559E-18
  -12.55800        7.6529543E-18
  -12.39650        7.6403191E-18
  -12.23500        7.6099814E-18
  -12.07350        7.5871024E-18
  -11.91200        7.5895145E-18
  -11.75050        7.6129278E-18
  -11.58900        7.6337488E-18
  -11.42750        7.6273034E-18
  -11.26600        7.5872348E-18
  -11.10450        7.5310030E-18
  -10.94300        7.4873204E-18
  -10.78150        7.4753238E-18
  -10.62000        7.4915556E-18
  -10.45850        7.5144214E-18
  -10.29700        7.5220918E-18
  -10.13550        7.5094814E-18
  -9.974000        7.4911023E-18
  -9.812500        7.4880202E-18
  -9.651000        7.5096948E-18
  -9.489500        7.5452405E-18
  -9.328000        7.5709517E-18
  -9.166500        7.5680003E-18
  -9.005000        7.5363433E-18
  -8.843500        7.4941439E-18
  -8.682000        7.4635473E-18
  -8.520500        7.4541902E-18
  -8.359000        7.4572524E-18
  -8.197500        7.4541679E-18
  -8.036000        7.4325032E-18
  -7.874500        7.3961362E-18
  -7.713000        7.3618942E-18
  -7.551500        7.3458312E-18
  -7.390000        7.3505114E-18
  -7.228500        7.3635047E-18
  -7.067000        7.3679682E-18
  -6.905500        7.3564406E-18
  -6.744000        7.3366057E-18
  -6.582500        7.3245735E-18
  -6.421000        7.3314010E-18
  -6.259500        7.3538813E-18
  -6.098000        7.3769257E-18
  -5.936500        7.3853175E-18
  -5.775000        7.3751126E-18
  -5.613500        7.3555092E-18
  -5.452000        7.3400542E-18
  -5.290500        7.3348165E-18
  -5.129000        7.3335244E-18
  -4.967500        7.3237025E-18
  -4.806000        7.2985562E-18
  -4.644500        7.2644424E-18
  -4.483000        7.2373539E-18
  -4.321500        7.2309788E-18
  -4.160000        7.2460269E-18
  -3.998500        7.2696164E-18
  -3.837000        7.2853626E-18
  -3.675500        7.2859789E-18
  -3.514000        7.2780404E-18
  -3.352500        7.2750411E-18
  -3.191000        7.2845305E-18
  -3.029500        7.3002180E-18
  -2.868000        7.3059793E-18
  -2.706500        7.2889030E-18
  -2.545000        7.2508097E-18
  -2.383500        7.2084497E-18
  -2.222000        7.1815771E-18
  -2.060500        7.1780467E-18
  -1.899000        7.1878935E-18
  -1.737500        7.1914677E-18
  -1.576000        7.1754601E-18
  -1.414500        7.1440206E-18
  -1.253000        7.1158345E-18
  -1.091500        7.1091682E-18
 -0.9300000        7.1267417E-18
 -0.7685000        7.1527515E-18
 -0.6070000        7.1648590E-18
 -0.4455000        7.1518946E-18
 -0.2840000        7.1231269E-18
 -0.1225000        7.1012992E-18
  3.9000001E-02    7.1044922E-18
  0.2005000        7.1309851E-18
  0.3620000        7.1593367E-18
  0.5235000        7.1641435E-18
  0.6850000        7.1355065E-18
  0.8465000        7.0869956E-18
   1.008000        7.0456531E-18
   1.169500        7.0316167E-18
   1.331000        7.0432212E-18
   1.492500        7.0592834E-18
   1.654000        7.0568466E-18
   1.815500        7.0303809E-18
   1.977000        6.9970976E-18
   2.138500        6.9838578E-18
   2.300000        7.0057003E-18
   2.461500        7.0528091E-18
   2.623000        7.0963759E-18
   2.784500        7.1091881E-18
   2.946000        7.0852627E-18
   3.107500        7.0434371E-18
   3.269000        7.0122532E-18
   3.430500        7.0079130E-18
   3.592000        7.0224168E-18
   3.753500        7.0309533E-18
   3.915000        7.0125667E-18
   4.076500        6.9677542E-18
   4.238000        6.9190900E-18
   4.399500        6.8943126E-18
   4.561000        6.9050804E-18
   4.722500        6.9379646E-18
   4.884000        6.9646631E-18
   5.045500        6.9634818E-18
   5.207000        6.9354466E-18
   5.368500        6.9027201E-18
   5.530000        6.8908591E-18
   5.691500        6.9088809E-18
   5.853000        6.9425170E-18
   6.014500        6.9655498E-18
   6.176000        6.9600408E-18
   6.337500        6.9295836E-18
   6.499000        6.8954814E-18
   6.660500        6.8792914E-18
   6.822000        6.8857447E-18
   6.983500        6.8994122E-18
   7.145000        6.8974720E-18
   7.306500        6.8682593E-18
   7.468000        6.8209793E-18
   7.629500        6.7791401E-18
   7.791000        6.7631482E-18
   7.952500        6.7757474E-18
   8.114000        6.8013147E-18
   8.275500        6.8189043E-18
   8.437000        6.8182872E-18
   8.598500        6.8063849E-18
   8.760000        6.7995818E-18
   8.921500        6.8087767E-18
   9.083000        6.8295162E-18
   9.244500        6.8450693E-18
   9.406000        6.8396798E-18
   9.567500        6.8111590E-18
   9.729000        6.7727605E-18
   9.890500        6.7430816E-18
   10.05200        6.7323316E-18
   10.21350        6.7358955E-18
   10.37500        6.7398792E-18
   10.53650        6.7335269E-18
   10.69800        6.7180917E-18
   10.85950        6.7050483E-18
   11.02100        6.7055541E-18
   11.18250        6.7202874E-18
   11.34400        6.7382670E-18
   11.50550        6.7456211E-18
   11.66700        6.7369030E-18
   11.82850        6.7194656E-18
   11.99000        6.7071721E-18
   12.15150        6.7086494E-18
   12.31300        6.7198846E-18
   12.47450        6.7273962E-18
   12.63600        6.7194131E-18
   12.79750        6.6957549E-18
   12.95900        6.6681122E-18
   13.12050        6.6503638E-18
   13.28200        6.6469562E-18
   13.44350        6.6492186E-18
   13.60500        6.6429986E-18
   13.76650        6.6215059E-18
   13.92800        6.5925914E-18
   14.08950        6.5739091E-18
   14.25100        6.5792730E-18
   14.41250        6.6070377E-18
   14.57400        6.6401742E-18
   14.73550        6.6585194E-18
   14.89700        6.6537428E-18
   15.05850        6.6350634E-18
   15.22000        6.6209319E-18
   15.38150        6.6231698E-18
   15.54300        6.6364171E-18
   15.70450        6.6418045E-18
   15.86600        6.6224055E-18
   16.02750        6.5782663E-18
   16.18900        6.5286123E-18
   16.35050        6.4987159E-18
   16.51200        6.5011714E-18
   16.67350        6.5262205E-18
   16.83500        6.5490780E-18
   16.99650        6.5489436E-18
   17.15800        6.5249781E-18
   17.31950        6.4966075E-18
   17.48100        6.4877128E-18
   17.64250        6.5070059E-18
   17.80400        6.5401780E-18
   17.96550        6.5603277E-18
   18.12700        6.5487997E-18
   18.28850        6.5101203E-18
   18.45000        6.4690673E-18
   18.61150        6.4517689E-18
   18.77300        6.4653404E-18
   18.93450        6.4920001E-18
   19.09600        6.5025330E-18
   19.25750        6.4789149E-18
   19.41900        6.4286062E-18
   19.58050        6.3793405E-18
   19.74200        6.3583252E-18
   19.90350        6.3719216E-18
   20.06500        6.4015202E-18
   20.22650        6.4187110E-18
   20.38800        6.4078138E-18
   20.54950        6.3781043E-18
   20.71100        6.3561840E-18
   20.87250        6.3644736E-18
   21.03400        6.4026530E-18
   21.19550        6.4466069E-18
   21.35700        6.4658430E-18
   21.51850        6.4460432E-18
   21.68000        6.3994750E-18
   21.84150        6.3554090E-18
   22.00300        6.3381209E-18
   22.16450        6.3494864E-18
   22.32600        6.3693474E-18
   22.48750        6.3728534E-18
   22.64900        6.3508566E-18
   22.81050        6.3173310E-18
   22.97200        6.2982314E-18
   23.13350        6.3107991E-18
   23.29500        6.3496266E-18
   23.45650        6.3902610E-18
   23.61800        6.4073427E-18
   23.77950        6.3930974E-18
   23.94100        6.3620583E-18
   24.10250        6.3388472E-18
   24.26400        6.3389191E-18
   24.42550        6.3572739E-18
   24.58700        6.3734853E-18
   24.74850        6.3684826E-18
   24.91000        6.3395805E-18
   25.07150        6.3020856E-18
   25.23300        6.2767462E-18
   25.39450        6.2734436E-18
   25.55600        6.2841089E-18
   25.71750        6.2901113E-18
   25.87900        6.2777264E-18
   26.04050        6.2491630E-18
   26.20200        6.2206033E-18
   26.36350        6.2092726E-18
   26.52500        6.2201145E-18
   26.68650        6.2424856E-18
   26.84800        6.2589423E-18
   27.00950        6.2585730E-18
   27.17100        6.2441217E-18
   27.33250        6.2276551E-18
   27.49400        6.2190073E-18
   27.65550        6.2169352E-18
   27.81700        6.2103298E-18
   27.97850        6.1882341E-18
   28.14000        6.1500775E-18
   28.30150        6.1074211E-18
   28.46300        6.0757388E-18
   28.62450        6.0630436E-18
   28.78600        6.0647489E-18
   28.94750        6.0687892E-18
   29.10900        6.0664293E-18
   29.27050        6.0595079E-18
   29.43200        6.0580297E-18
   29.59350        6.0702902E-18
   29.75500        6.0941200E-18
   29.91650        6.1170379E-18
   30.07800        6.1256327E-18
   30.23950        6.1165899E-18
   30.40100        6.0999967E-18
   30.56250        6.0916798E-18
   30.72400        6.1004235E-18
   30.88550        6.1205315E-18
   31.04700        6.1361652E-18
   31.20850        6.1343197E-18
   31.37000        6.1159203E-18
   31.53150        6.0956738E-18
   31.69300        6.0903298E-18
   31.85450        6.1046756E-18
   32.01600        6.1268763E-18
   32.17750        6.1374899E-18
   32.33900        6.1253427E-18
   32.50050        6.0974994E-18
   32.66200        6.0748061E-18
   32.82350        6.0758405E-18
   32.98500        6.1016643E-18
   33.14650        6.1336973E-18
   33.30800        6.1470356E-18
   33.46950        6.1292619E-18
   33.63100        6.0900383E-18
   33.79250        6.0536101E-18
   33.95400        6.0397407E-18
   34.11550        6.0480324E-18
   34.27700        6.0582869E-18
   34.43850        6.0470336E-18
   34.60000        6.0073611E-18
   34.76150        5.9561827E-18
   34.92300        5.9226268E-18
   35.08450        5.9260770E-18
   35.24600        5.9608186E-18
   35.40750        5.9994934E-18
   35.56900        6.0131030E-18
   35.73050        5.9923925E-18
   35.89200        5.9541445E-18
   36.05350        5.9274315E-18
   36.21500        5.9304143E-18
   36.37650        5.9557678E-18
   36.53800        5.9762542E-18
   36.69950        5.9662577E-18
   36.86100        5.9224937E-18
   37.02250        5.8675726E-18
   37.18400        5.8333488E-18
   37.34550        5.8368031E-18
   37.50700        5.8671528E-18
   37.66850        5.8942380E-18
   37.83000        5.8917440E-18
   37.99150        5.8573627E-18
   38.15300        5.8144233E-18
   38.31450        5.7938724E-18
   38.47600        5.8105914E-18
   38.63750        5.8522958E-18
   38.79900        5.8893837E-18
   38.96050        5.8978639E-18
   39.12200        5.8774748E-18
   39.28350        5.8510162E-18
   39.44500        5.8456436E-18
   39.60650        5.8709065E-18
   39.76800        5.9107175E-18
   39.92950        5.9354324E-18
   40.09100        5.9244983E-18
   40.25250        5.8820929E-18
   40.41400        5.8338687E-18
   40.57550        5.8076942E-18
   40.73700        5.8134725E-18
   40.89850        5.8373677E-18
   41.06000        5.8542264E-18
   41.22150        5.8478824E-18
   41.38300        5.8233660E-18
   41.54450        5.8018365E-18
   41.70600        5.8027915E-18
   41.86750        5.8278861E-18
   42.02900        5.8590717E-18
   42.19050        5.8722445E-18
   42.35200        5.8554259E-18
   42.51350        5.8172597E-18
   42.67500        5.7796061E-18
   42.83650        5.7605929E-18
   42.99800        5.7616484E-18
   43.15950        5.7682960E-18
   43.32100        5.7632291E-18
   43.48250        5.7406512E-18
   43.64400        5.7104633E-18
   43.80550        5.6895422E-18
   43.96700        5.6877468E-18
   44.12850        5.7001558E-18
   44.29000        5.7115523E-18
   44.45150        5.7090848E-18
   44.61300        5.6925755E-18
   44.77450        5.6741926E-18
   44.93600        5.6681046E-18
   45.09750        5.6788579E-18
   45.25900        5.6980324E-18
   45.42050        5.7116085E-18
   45.58200        5.7115514E-18
   45.74350        5.7017961E-18
   45.90500        5.6938072E-18
   46.06650        5.6958185E-18
   46.22800        5.7051896E-18
   46.38950        5.7105547E-18
   46.55100        5.7019859E-18
   46.71250        5.6804656E-18
   46.87400        5.6583761E-18
   47.03550        5.6502048E-18
   47.19700        5.6609247E-18
   47.35850        5.6817527E-18
   47.52000        5.6970708E-18
   47.68150        5.6970311E-18
   47.84300        5.6854022E-18
   48.00450        5.6758867E-18
   48.16600        5.6796558E-18
   48.32750        5.6944561E-18
   48.48900        5.7048281E-18
   48.65050        5.6940338E-18
   48.81200        5.6583302E-18
   48.97350        5.6116975E-18
   49.13500        5.5764406E-18
   49.29650        5.5665190E-18
   49.45800        5.5767801E-18
   49.61950        5.5870554E-18
   49.78100        5.5783547E-18
   49.94250        5.5485001E-18
   50.10400        5.5145435E-18
   50.26550        5.4995442E-18
   50.42700        5.5138396E-18
   50.58850        5.5457700E-18
   50.75000        5.5698298E-18
   50.91150        5.5664325E-18
   51.07300        5.5378443E-18
   51.23450        5.5072722E-18
   51.39600        5.5011307E-18
   51.55750        5.5279616E-18
   51.71900        5.5706607E-18
   51.88050        5.5986297E-18
   52.04200        5.5908637E-18
   52.20350        5.5521103E-18
   52.36500        5.5093447E-18
   52.52650        5.4910305E-18
   52.68800        5.5051624E-18
   52.84950        5.5332655E-18
   53.01100        5.5452629E-18
   53.17250        5.5237943E-18
   53.33400        5.4789023E-18
   53.49550        5.4412640E-18
   53.65700        5.4387919E-18
   53.81850        5.4745783E-18
   53.98000        5.5234638E-18
   54.14150        5.5502760E-18
   54.30300        5.5359149E-18
   54.46450        5.4912228E-18
   54.62600        5.4479918E-18
   54.78750        5.4341684E-18
   54.94900        5.4525124E-18
   55.11050        5.4791902E-18
   55.27200        5.4832372E-18
   55.43350        5.4515801E-18
   55.59500        5.4000286E-18
   55.75650        5.3616462E-18
   55.91800        5.3615097E-18
   56.07950        5.3973866E-18
   56.24100        5.4412826E-18
   56.40250        5.4606419E-18
   56.56400        5.4427926E-18
   56.72550        5.4038498E-18
   56.88700        5.3754924E-18
   57.04850        5.3801986E-18
   57.21000        5.4142176E-18
   57.37150        5.4511992E-18
   57.53300        5.4631706E-18
   57.69450        5.4421784E-18
   57.85600        5.4057928E-18
   58.01750        5.3826247E-18
   58.17900        5.3896082E-18
   58.34050        5.4188825E-18
   58.50200        5.4442468E-18
   58.66350        5.4417834E-18
   58.82500        5.4083720E-18
   58.98650        5.3638308E-18
   59.14800        5.3354936E-18
   59.30950        5.3376443E-18
   59.47100        5.3617653E-18
   59.63250        5.3846265E-18
   59.79400        5.3871097E-18
   59.95550        5.3685924E-18
   60.11700        5.3458495E-18
   60.27850        5.3381104E-18
   60.44000        5.3508089E-18
   60.60150        5.3710529E-18
   60.76300        5.3780388E-18
   60.92450        5.3596514E-18
   61.08600        5.3218720E-18
   61.24750        5.2837874E-18
   61.40900        5.2627224E-18
   61.57050        5.2616421E-18
   61.73200        5.2686438E-18
   61.89350        5.2682108E-18
   62.05500        5.2544998E-18
   62.21650        5.2356753E-18
   62.37800        5.2261006E-18
   62.53950        5.2333889E-18
   62.70100        5.2514231E-18
   62.86250        5.2651990E-18
   63.02400        5.2632870E-18
   63.18550        5.2473331E-18
   63.34700        5.2305757E-18
   63.50850        5.2266106E-18
   63.67000        5.2378892E-18
   63.83150        5.2536793E-18
   63.99300        5.2592342E-18
   64.15450        5.2484250E-18
   64.31600        5.2290930E-18
   64.47750        5.2163966E-18
   64.63900        5.2195940E-18
   64.80050        5.2334758E-18
   64.96200        5.2421095E-18
   65.12350        5.2322735E-18
   65.28500        5.2055522E-18
   65.44650        5.1786428E-18
   65.60800        5.1708702E-18
   65.76950        5.1885909E-18
   65.93100        5.2192714E-18
   66.09250        5.2406437E-18
   66.25400        5.2380575E-18
   66.41550        5.2161137E-18
   66.57700        5.1948171E-18
   66.73850        5.1928910E-18
   66.90000        5.2115435E-18
   67.06150        5.2321883E-18
   67.22300        5.2307300E-18
   67.38450        5.1974901E-18
   67.54600        5.1466946E-18
   67.70750        5.1072038E-18
   67.86900        5.1010107E-18
   68.03050        5.1261474E-18
   68.19200        5.1577648E-18
   68.35350        5.1671607E-18
   68.51500        5.1441796E-18
   68.67650        5.1052971E-18
   68.83800        5.0806339E-18
   68.99950        5.0897904E-18
   69.16100        5.1255163E-18
   69.32250        5.1584840E-18
   69.48400        5.1599857E-18
   69.64550        5.1249588E-18
   69.80700        5.0769947E-18
   69.96850        5.0508480E-18
   70.13000        5.0656628E-18
   70.29150        5.1097316E-18
   70.45300        5.1489545E-18
   70.61450        5.1528004E-18
   70.77600        5.1177797E-18
   70.93750        5.0700993E-18
   71.09900        5.0453195E-18
   71.26050        5.0607543E-18
   71.42200        5.1021112E-18
   71.58350        5.1348457E-18
   71.74500        5.1314584E-18
   71.90650        5.0933932E-18
   72.06800        5.0502718E-18
   72.22950        5.0368864E-18
   72.39100        5.0658162E-18
   72.55250        5.1170286E-18
   72.71400        5.1526379E-18
   72.87550        5.1454737E-18
   73.03700        5.0993791E-18
   73.19850        5.0456380E-18
   73.36000        5.0185809E-18
   73.52150        5.0294930E-18
   73.68300        5.0589787E-18
   73.84450        5.0733287E-18
   74.00600        5.0517583E-18
   74.16750        5.0030870E-18
   74.32900        4.9589172E-18
   74.49050        4.9488876E-18
   74.65200        4.9775287E-18
   74.81350        5.0207270E-18
   74.97500        5.0443116E-18
   75.13650        5.0300679E-18
   75.29800        4.9889430E-18
   75.45950        4.9515325E-18
   75.62100        4.9438422E-18
   75.78250        4.9675422E-18
   75.94400        4.9998419E-18
   76.10550        5.0123605E-18
   76.26700        4.9936042E-18
   76.42850        4.9573492E-18
   76.59000        4.9308025E-18
   76.75150        4.9325227E-18
   76.91300        4.9578493E-18
   77.07450        4.9831147E-18
   77.23600        4.9847773E-18
   77.39750        4.9579866E-18
   77.55900        4.9199607E-18
   77.72050        4.8959791E-18
   77.88200        4.8996187E-18
   78.04350        4.9230742E-18
   78.20500        4.9447397E-18
   78.36650        4.9472014E-18
   78.52800        4.9307463E-18
   78.68950        4.9117087E-18
   78.85100        4.9076460E-18
   79.01250        4.9220249E-18
   79.17400        4.9411324E-18
   79.33550        4.9455048E-18
   79.49700        4.9261674E-18
   79.65850        4.8922071E-18
   79.82000        4.8635532E-18
   79.98150        4.8550593E-18
   80.14300        4.8650963E-18
   80.30450        4.8779883E-18
   80.46600        4.8780007E-18
   80.62750        4.8629439E-18
   80.78900        4.8458701E-18
   80.95050        4.8434217E-18
   81.11200        4.8607031E-18
   81.27350        4.8856918E-18
   81.43500        4.8983473E-18
   81.59650        4.8871464E-18
   81.75800        4.8592171E-18
   81.91950        4.8352727E-18
   82.08100        4.8330633E-18
   82.24250        4.8527618E-18
   82.40400        4.8764977E-18
   82.56550        4.8828761E-18
   82.72700        4.8648336E-18
   82.88850        4.8360312E-18
   83.05000        4.8200418E-18
   83.21150        4.8307236E-18
   83.37300        4.8598093E-18
   83.53450        4.8824162E-18
   83.69600        4.8768137E-18
   83.85750        4.8427669E-18
   84.01900        4.8032120E-18
   84.18050        4.7870861E-18
   84.34200        4.8064703E-18
   84.50350        4.8463354E-18
   84.66500        4.8755849E-18
   84.82650        4.8712253E-18
   84.98800        4.8366189E-18
   85.14950        4.7989959E-18
   85.31100        4.7877239E-18
   85.47250        4.8103733E-18
   85.63400        4.8457973E-18
   85.79550        4.8603036E-18
   85.95700        4.8346622E-18
   86.11850        4.7806002E-18
   86.28000        4.7331730E-18
   86.44150        4.7242944E-18
   86.60300        4.7579057E-18
   86.76450        4.8064231E-18
   86.92600        4.8316869E-18
   87.08750        4.8143657E-18
   87.24900        4.7688199E-18
   87.41050        4.7315575E-18
   87.57200        4.7321750E-18
   87.73350        4.7696136E-18
   87.89500        4.8125343E-18
   88.05650        4.8237327E-18
   88.21800        4.7896028E-18
   88.37950        4.7314789E-18
   88.54100        4.6896380E-18
   88.70250        4.6922164E-18
   88.86400        4.7332569E-18
   89.02550        4.7770983E-18
   89.18700        4.7857994E-18
   89.34850        4.7483281E-18
   89.51000        4.6888224E-18
   89.67150        4.6475399E-18
   89.83300        4.6495057E-18
   89.99450        4.6854513E-18
   90.15600        4.7197921E-18
   90.31750        4.7191043E-18
   90.47900        4.6786113E-18
   90.64050        4.6259315E-18
   90.80200        4.5992611E-18
   90.96350        4.6172655E-18
   91.12500        4.6643131E-18
   91.28650        4.7024577E-18
   91.44800        4.7005841E-18
   91.60950        4.6579367E-18
   91.77100        4.6039318E-18
   91.93250        4.5748187E-18
   92.09400        4.5858041E-18
   92.25550        4.6204518E-18
   92.41700        4.6451291E-18
   92.57850        4.6364511E-18
   92.74000        4.5998099E-18
   92.90150        4.5645898E-18
   93.06300        4.5603352E-18
   93.22450        4.5931003E-18
   93.38600        4.6406971E-18
   93.54750        4.6701811E-18
   93.70900        4.6633130E-18
   93.87050        4.6299053E-18
   94.03200        4.5990026E-18
   94.19350        4.5955103E-18
   94.35500        4.6211148E-18
   94.51650        4.6543865E-18
   94.67800        4.6692265E-18
   94.83950        4.6562108E-18
   95.00100        4.6296339E-18
   95.16250        4.6150346E-18
   95.32400        4.6278187E-18
   95.48550        4.6605581E-18
   95.64700        4.6891624E-18
   95.80850        4.6925001E-18
   95.97000        4.6692265E-18
   96.13150        4.6382639E-18
   96.29300        4.6229511E-18
   96.45450        4.6321163E-18
   96.61600        4.6535494E-18
   96.77750        4.6649285E-18
   96.93900        4.6527718E-18
   97.10050        4.6235190E-18
   97.26200        4.5976340E-18
   97.42350        4.5918409E-18
   97.58500        4.6044533E-18
   97.74650        4.6162361E-18
   97.90800        4.6063492E-18
   98.06950        4.5701894E-18
   98.23100        4.5241242E-18
   98.39250        4.4928741E-18
   98.55400        4.4897465E-18
   98.71550        4.5060052E-18
   98.87700        4.5183446E-18
   99.03850        4.5085310E-18
   99.20000        4.4790002E-18
   99.36150        4.4511983E-18
   99.52300        4.4476645E-18
   99.68450        4.4724551E-18
   99.84600        4.5062959E-18
   100.0075        4.5211223E-18
   100.1690        4.5027672E-18
   100.3305        4.4633595E-18
   100.4920        4.4327513E-18
   100.6535        4.4351840E-18
   100.8150        4.4697317E-18
   100.9765        4.5105257E-18
   101.1380        4.5271367E-18
   101.2995        4.5091282E-18
   101.4610        4.4749131E-18
   101.6225        4.4572334E-18
   101.7840        4.4764575E-18
   101.9455        4.5231253E-18
   102.1070        4.5642238E-18
   102.2685        4.5688465E-18
   102.4300        4.5331421E-18
   102.5915        4.4844522E-18
   102.7530        4.4606521E-18
   102.9145        4.4805106E-18
   103.0760        4.5284884E-18
   103.2375        4.5663406E-18
   103.3990        4.5628139E-18
   103.5605        4.5182321E-18
   103.7220        4.4644216E-18
   103.8835        4.4396607E-18
   104.0450        4.4582525E-18
   104.2065        4.4988947E-18
   104.3680        4.5213605E-18
   104.5295        4.4985597E-18
   104.6910        4.4387463E-18
   104.8525        4.3801000E-18
   105.0140        4.3615195E-18
   105.1755        4.3923460E-18
   105.3370        4.4448356E-18
   105.4985        4.4754214E-18
   105.6600        4.4582252E-18
   105.8215        4.4046896E-18
   105.9830        4.3540595E-18
   106.1445        4.3422292E-18
   106.3060        4.3735016E-18
   106.4675        4.4175022E-18
   106.6290        4.4335855E-18
   106.7905        4.4033558E-18
   106.9520        4.3456388E-18
   107.1135        4.3021176E-18
   107.2750        4.3048928E-18
   107.4365        4.3514552E-18
   107.5980        4.4066703E-18
   107.7595        4.4300084E-18
   107.9210        4.4064966E-18
   108.0825        4.3573021E-18
   108.2440        4.3220931E-18
   108.4055        4.3274500E-18
   108.5670        4.3663184E-18
   108.7285        4.4044621E-18
   108.8900        4.4083185E-18
   109.0515        4.3718406E-18
   109.2130        4.3211572E-18
   109.3745        4.2937130E-18
   109.5360        4.3086829E-18
   109.6975        4.3521244E-18
   109.8590        4.3883884E-18
   110.0205        4.3882965E-18
   110.1820        4.3515532E-18
   110.3435        4.3059515E-18
   110.5050        4.2846822E-18
   110.6665        4.3002006E-18
   110.8280        4.3353897E-18
   110.9895        4.3585449E-18
   111.1510        4.3495129E-18
   111.3125        4.3157168E-18
   111.4740        4.2854755E-18
   111.6355        4.2845433E-18
   111.7970        4.3150559E-18
   111.9585        4.3538370E-18
   112.1200        4.3711632E-18
   112.2815        4.3545199E-18
   112.4430        4.3180863E-18
   112.6045        4.2906400E-18
   112.7660        4.2921562E-18
   112.9275        4.3182224E-18
   113.0890        4.3447070E-18
   113.2505        4.3484355E-18
   113.4120        4.3265649E-18
   113.5735        4.2986314E-18
   113.7350        4.2898021E-18
   113.8965        4.3093757E-18
   114.0580        4.3423963E-18
   114.2195        4.3614202E-18
   114.3810        4.3488892E-18
   114.5425        4.3116777E-18
   114.7040        4.2757015E-18
   114.8655        4.2649193E-18
   115.0270        4.2819794E-18
   115.1885        4.3064259E-18
   115.3500        4.3120214E-18
   115.5115        4.2889687E-18
   115.6730        4.2525347E-18
   115.8345        4.2306078E-18
   115.9960        4.2402027E-18
   116.1575        4.2723407E-18
   116.3190        4.2981363E-18
   116.4805        4.2916918E-18
   116.6420        4.2514420E-18