  -30.00000       -6.0719147E-18
  -29.83850       -6.0621734E-18
  -29.67700       -6.0483409E-18
  -29.51550       -6.0373510E-18
  -29.35400       -6.0324413E-18
  -29.19250       -6.0311658E-18
  -29.03100       -6.0278781E-18
  -28.86950       -6.0186468E-18
  -28.70800       -6.0046951E-18
  -28.54650       -5.9916513E-18
  -28.38500       -5.9852171E-18
  -28.22350       -5.9866911E-18
  -28.06200       -5.9918854E-18
  -27.90050       -5.9942785E-18
  -27.73900       -5.9899312E-18
  -27.57750       -5.9803425E-18
  -27.41600       -5.9710905E-18
  -27.25450       -5.9673889E-18
  -27.09300       -5.9700607E-18
  -26.93150       -5.9750122E-18
  -26.77000       -5.9765296E-18
  -26.60850       -5.9717461E-18
  -26.44700       -5.9627571E-18
  -26.28550       -5.9548108E-18
  -26.12400       -5.9520873E-18
  -25.96250       -5.9544596E-18
  -25.80100       -5.9577663E-18
  -25.63950       -5.9573031E-18
  -25.47800       -5.9516725E-18
  -25.31650       -5.9439325E-18
  -25.15500       -5.9391882E-18
  -24.99350       -5.9406085E-18
  -24.83200       -5.9470092E-18
  -24.67050       -5.9538293E-18
  -24.50900       -5.9566058E-18
  -24.34750       -5.9541623E-18
  -24.18600       -5.9490528E-18
  -24.02450       -5.9450678E-18
  -23.86300       -5.9439309E-18
  -23.70150       -5.9439019E-18
  -23.54000       -5.9413778E-18
  -23.37850       -5.9341139E-18
  -23.21700       -5.9233858E-18
  -23.05550       -5.9132987E-18
  -22.89400       -5.9077951E-18
  -22.73250       -5.9078149E-18
  -22.57100       -5.9108540E-18
  -22.40950       -5.9131870E-18
  -22.24800       -5.9128653E-18
  -22.08650       -5.9110207E-18
  -21.92500       -5.9105037E-18
  -21.76350       -5.9131006E-18
  -21.60200       -5.9176865E-18
  -21.44050       -5.9208931E-18
  -21.27900       -5.9197528E-18
  -21.11750       -5.9141470E-18
  -20.95600       -5.9069952E-18
  -20.79450       -5.9019676E-18
  -20.63300       -5.9005564E-18
  -20.47150       -5.9009133E-18
  -20.31000       -5.8994637E-18
  -20.14850       -5.8939956E-18
  -19.98700       -5.8856639E-18
  -19.82550       -5.8782002E-18
  -19.66400       -5.8749543E-18
  -19.50250       -5.8761914E-18
  -19.34100       -5.8789074E-18
  -19.17950       -5.8793508E-18
  -19.01800       -5.8762059E-18
  -18.85650       -5.8717978E-18
  -18.69500       -5.8702555E-18
  -18.53350       -5.8740229E-18
  -18.37200       -5.8815180E-18
  -18.21050       -5.8878898E-18
  -18.04900       -5.8884465E-18
  -17.88750       -5.8821318E-18
  -17.72600       -5.8722917E-18
  -17.56450       -5.8640533E-18
  -17.40300       -5.8603377E-18
  -17.24150       -5.8597003E-18
  -17.08000       -5.8577850E-18
  -16.91850       -5.8512457E-18
  -16.75700       -5.8409614E-18
  -16.59550       -5.8318367E-18
  -16.43400       -5.8292365E-18
  -16.27250       -5.8347922E-18
  -16.11100       -5.8449107E-18
  -15.94950       -5.8532049E-18
  -15.78800       -5.8550669E-18
  -15.62650       -5.8508888E-18
  -15.46500       -5.8454550E-18
  -15.30350       -5.8439677E-18
  -15.14200       -5.8477877E-18
  -14.98050       -5.8532504E-18
  -14.81900       -5.8545420E-18
  -14.65750       -5.8484246E-18
  -14.49600       -5.8370567E-18
  -14.33450       -5.8265783E-18
  -14.17300       -5.8225078E-18
  -14.01150       -5.8255274E-18
  -13.85000       -5.8309971E-18
  -13.68850       -5.8325721E-18
  -13.52700       -5.8271214E-18
  -13.36550       -5.8171340E-18
  -13.20400       -5.8087836E-18
  -13.04250       -5.8071748E-18
  -12.88100       -5.8124460E-18
  -12.71950       -5.8196999E-18
  -12.55800       -5.8227717E-18
  -12.39650       -5.8189286E-18
  -12.23500       -5.8108528E-18
  -12.07350       -5.8043632E-18
  -11.91200       -5.8036750E-18
  -11.75050       -5.8079602E-18
  -11.58900       -5.8119323E-18
  -11.42750       -5.8100124E-18
  -11.26600       -5.8007885E-18
  -11.10450       -5.7882629E-18
  -10.94300       -5.7789447E-18
  -10.78150       -5.7771080E-18
  -10.62000       -5.7818779E-18
  -10.45850       -5.7882609E-18
  -10.29700       -5.7911717E-18
  -10.13550       -5.7892560E-18
  -9.974000       -5.7856106E-18
  -9.812500       -5.7849377E-18
  -9.651000       -5.7894706E-18
  -9.489500       -5.7969123E-18
  -9.328000       -5.8020040E-18
  -9.166500       -5.8005040E-18
  -9.005000       -5.7924199E-18
  -8.843500       -5.7819660E-18
  -8.682000       -5.7743162E-18
  -8.520500       -5.7717776E-18
  -8.359000       -5.7724050E-18
  -8.197500       -5.7719931E-18
  -8.036000       -5.7676909E-18
  -7.874500       -5.7602868E-18
  -7.713000       -5.7534374E-18
  -7.551500       -5.7506217E-18
  -7.390000       -5.7523525E-18
  -7.228500       -5.7558585E-18
  -7.067000       -5.7573946E-18
  -6.905500       -5.7552766E-18
  -6.744000       -5.7512056E-18
  -6.582500       -5.7488316E-18
  -6.421000       -5.7507251E-18
  -6.259500       -5.7562295E-18
  -6.098000       -5.7619400E-18
  -5.936500       -5.7643955E-18
  -5.775000       -5.7627192E-18
  -5.613500       -5.7590457E-18
  -5.452000       -5.7564458E-18
  -5.290500       -5.7561844E-18
  -5.129000       -5.7566882E-18
  -4.967500       -5.7550537E-18
  -4.806000       -5.7497804E-18
  -4.644500       -5.7423635E-18
  -4.483000       -5.7363900E-18
  -4.321500       -5.7348362E-18
  -4.160000       -5.7377185E-18
  -3.998500       -5.7420190E-18
  -3.837000       -5.7439943E-18
  -3.675500       -5.7420430E-18
  -3.514000       -5.7378177E-18
  -3.352500       -5.7346256E-18
  -3.191000       -5.7343953E-18
  -3.029500       -5.7357585E-18
  -2.868000       -5.7349582E-18
  -2.706500       -5.7289859E-18
  -2.545000       -5.7183620E-18
  -2.383500       -5.7071484E-18
  -2.222000       -5.7000511E-18
  -2.060500       -5.6988728E-18
  -1.899000       -5.7011699E-18
  -1.737500       -5.7022448E-18
  -1.576000       -5.6989084E-18
  -1.414500       -5.6920465E-18
  -1.253000       -5.6859295E-18
  -1.091500       -5.6847818E-18
 -0.9300000       -5.6892821E-18
 -0.7685000       -5.6958007E-18
 -0.6070000       -5.6990862E-18
 -0.4455000       -5.6964058E-18
 -0.2840000       -5.6898322E-18
 -0.1225000       -5.6847359E-18
  3.9000001E-02   -5.6855225E-18
  0.2005000       -5.6919630E-18
  0.3620000       -5.6991189E-18
  0.5235000       -5.7010347E-18
  0.6850000       -5.6953478E-18
  0.8465000       -5.6851718E-18
   1.008000       -5.6767615E-18
   1.169500       -5.6747808E-18
   1.331000       -5.6788753E-18
   1.492500       -5.6841751E-18
   1.654000       -5.6853013E-18
   1.815500       -5.6807460E-18
   1.977000       -5.6741968E-18
   2.138500       -5.6717086E-18
   2.300000       -5.6768446E-18
   2.461500       -5.6875797E-18
   2.623000       -5.6974712E-18
   2.784500       -5.7003047E-18
   2.946000       -5.6946712E-18
   3.107500       -5.6848947E-18
   3.269000       -5.6775775E-18
   3.430500       -5.6765005E-18
   3.592000       -5.6798907E-18
   3.753500       -5.6821348E-18
   3.915000       -5.6784733E-18
   4.076500       -5.6689219E-18
   4.238000       -5.6583782E-18
   4.399500       -5.6528679E-18
   4.561000       -5.6548813E-18
   4.722500       -5.6613966E-18
   4.884000       -5.6661169E-18
   5.045500       -5.6642040E-18
   5.207000       -5.6558975E-18
   5.368500       -5.6462368E-18
   5.530000       -5.6411071E-18
   5.691500       -5.6427027E-18
   5.853000       -5.6479702E-18
   6.014500       -5.6511863E-18
   6.176000       -5.6485405E-18
   6.337500       -5.6410397E-18
   6.499000       -5.6334950E-18
   6.660500       -5.6305427E-18
   6.822000       -5.6329366E-18
   6.983500       -5.6370208E-18
   7.145000       -5.6376954E-18
   7.306500       -5.6324519E-18
   7.468000       -5.6233516E-18
   7.629500       -5.6154847E-18
   7.791000       -5.6131587E-18
   7.952500       -5.6167528E-18
   8.114000       -5.6226428E-18
   8.275500       -5.6261761E-18
   8.437000       -5.6252703E-18
   8.598500       -5.6217812E-18
   8.760000       -5.6196144E-18
   8.921500       -5.6212250E-18
   9.083000       -5.6254353E-18
   9.244500       -5.6283681E-18
   9.406000       -5.6266335E-18
   9.567500       -5.6201066E-18
   9.729000       -5.6120557E-18
   9.890500       -5.6066298E-18
   10.05200       -5.6057947E-18
   10.21350       -5.6081113E-18
   10.37500       -5.6101908E-18
   10.53650       -5.6095534E-18
   10.69800       -5.6065677E-18
   10.85950       -5.6039522E-18
   11.02100       -5.6043120E-18
   11.18250       -5.6077618E-18
   11.34400       -5.6116520E-18
   11.50550       -5.6126885E-18
   11.66700       -5.6097160E-18
   11.82850       -5.6047690E-18
   11.99000       -5.6014351E-18
   12.15150       -5.6018780E-18
   12.31300       -5.6050383E-18
   12.47450       -5.6075074E-18
   12.63600       -5.6063365E-18
   12.79750       -5.6014177E-18
   12.95900       -5.5954864E-18
   13.12050       -5.5917881E-18
   13.28200       -5.5913733E-18
   13.44350       -5.5922364E-18
   13.60500       -5.5910188E-18
   13.76650       -5.5859432E-18
   13.92800       -5.5786157E-18
   14.08950       -5.5730950E-18
   14.25100       -5.5728018E-18
   14.41250       -5.5776751E-18
   14.57400       -5.5839605E-18
   14.73550       -5.5869586E-18
   14.89700       -5.5846288E-18
   15.05850       -5.5791012E-18
   15.22000       -5.5747895E-18
   15.38150       -5.5746158E-18
   15.54300       -5.5774832E-18
   15.70450       -5.5790896E-18
   15.86600       -5.5754641E-18
   16.02750       -5.5663862E-18
   16.18900       -5.5559406E-18
   16.35050       -5.5496681E-18
   16.51200       -5.5504249E-18
   16.67350       -5.5561548E-18
   16.83500       -5.5613631E-18
   16.99650       -5.5612726E-18
   17.15800       -5.5555129E-18
   17.31950       -5.5484327E-18
   17.48100       -5.5456389E-18
   17.64250       -5.5494410E-18
   17.80400       -5.5568691E-18
   17.96550       -5.5619513E-18
   18.12700       -5.5604677E-18
   18.28850       -5.5533771E-18
   18.45000       -5.5461385E-18
   18.61150       -5.5444179E-18
   18.77300       -5.5495659E-18
   18.93450       -5.5574134E-18
   19.09600       -5.5613371E-18
   19.25750       -5.5572421E-18
   19.41900       -5.5466968E-18
   19.58050       -5.5358347E-18
   19.74200       -5.5307980E-18
   19.90350       -5.5331712E-18
   20.06500       -5.5389375E-18
   20.22650       -5.5418082E-18
   20.38800       -5.5383278E-18
   20.54950       -5.5307012E-18
   20.71100       -5.5250503E-18
   20.87250       -5.5264421E-18
   21.03400       -5.5346531E-18
   21.19550       -5.5440734E-18
   21.35700       -5.5478123E-18
   21.51850       -5.5427752E-18
   21.68000       -5.5318150E-18
   21.84150       -5.5214256E-18
   22.00300       -5.5168426E-18
   22.16450       -5.5183063E-18
   22.32600       -5.5212726E-18
   22.48750       -5.5203098E-18
   22.64900       -5.5135972E-18
   22.81050       -5.5045300E-18
   22.97200       -5.4991492E-18
   23.13350       -5.5013822E-18
   23.29500       -5.5098600E-18
   23.45650       -5.5188729E-18
   23.61800       -5.5227189E-18
   23.77950       -5.5199541E-18
   23.94100       -5.5142217E-18
   24.10250       -5.5111276E-18
   24.26400       -5.5137759E-18
   24.42550       -5.5204669E-18
   24.58700       -5.5262253E-18
   24.74850       -5.5267655E-18
   24.91000       -5.5217184E-18
   25.07150       -5.5146973E-18
   25.23300       -5.5103034E-18
   25.39450       -5.5104771E-18
   25.55600       -5.5130525E-18
   25.71750       -5.5136294E-18
   25.87900       -5.5092537E-18
   26.04050       -5.5009190E-18
   26.20200       -5.4928540E-18
   26.36350       -5.4891875E-18
   26.52500       -5.4907327E-18
   26.68650       -5.4944984E-18
   26.84800       -5.4962305E-18
   27.00950       -5.4937771E-18
   27.17100       -5.4884980E-18
   27.33250       -5.4837054E-18
   27.49400       -5.4816449E-18
   27.65550       -5.4815671E-18
   27.81700       -5.4804132E-18
   27.97850       -5.4754757E-18
   28.14000       -5.4668375E-18
   28.30150       -5.4575958E-18
   28.46300       -5.4516426E-18
   28.62450       -5.4507583E-18
   28.78600       -5.4533454E-18
   28.94750       -5.4558633E-18
   29.10900       -5.4558285E-18
   29.27050       -5.4538582E-18
   29.43200       -5.4529760E-18
   29.59350       -5.4557326E-18
   29.75500       -5.4616581E-18
   29.91650       -5.4673259E-18
   30.07800       -5.4690523E-18
   30.23950       -5.4659661E-18
   30.40100       -5.4608595E-18
   30.56250       -5.4580545E-18
   30.72400       -5.4599781E-18
   30.88550       -5.4652088E-18
   31.04700       -5.4695552E-18
   31.20850       -5.4693439E-18
   31.37000       -5.4643737E-18
   31.53150       -5.4581699E-18
   31.69300       -5.4552284E-18
   31.85450       -5.4573473E-18
   32.01600       -5.4620299E-18
   32.17750       -5.4644416E-18
   32.33900       -5.4614588E-18
   32.50050       -5.4545278E-18
   32.66200       -5.4488318E-18
   32.82350       -5.4492682E-18
   32.98500       -5.4564200E-18
   33.14650       -5.4658358E-18
   33.30800       -5.4712542E-18
   33.46950       -5.4692512E-18
   33.63100       -5.4616697E-18
   33.79250       -5.4539823E-18
   33.95400       -5.4508977E-18
   34.11550       -5.4526096E-18
   34.27700       -5.4546316E-18
   34.43850       -5.4514201E-18
   34.60000       -5.4410344E-18
   34.76150       -5.4271378E-18
   34.92300       -5.4166028E-18
   35.08450       -5.4143976E-18
   35.24600       -5.4197118E-18
   35.40750       -5.4264963E-18
   35.56900       -5.4280986E-18
   35.73050       -5.4223513E-18
   35.89200       -5.4130761E-18
   36.05350       -5.4068657E-18
   36.21500       -5.4077706E-18
   36.37650       -5.4140915E-18
   36.53800       -5.4197374E-18
   36.69950       -5.4190219E-18
   36.86100       -5.4111265E-18
   37.02250       -5.4008107E-18
   37.18400       -5.3948132E-18
   37.34550       -5.3966740E-18
   37.50700       -5.4039436E-18
   37.66850       -5.4100094E-18
   37.83000       -5.4092318E-18
   37.99150       -5.4013943E-18
   38.15300       -5.3919197E-18
   38.31450       -5.3876594E-18
   38.47600       -5.3916000E-18
   38.63750       -5.4006961E-18
   38.79900       -5.4084650E-18
   38.96050       -5.4101562E-18
   39.12200       -5.4063317E-18
   39.28350       -5.4021114E-18
   39.44500       -5.4028733E-18
   39.60650       -5.4098472E-18
   39.76800       -5.4189847E-18
   39.92950       -5.4239287E-18
   40.09100       -5.4208008E-18
   40.25250       -5.4111492E-18
   40.41400       -5.4007863E-18
   40.57550       -5.3954113E-18
   40.73700       -5.3964180E-18
   40.89850       -5.4001758E-18
   41.06000       -5.4013033E-18
   41.22150       -5.3972257E-18
   41.38300       -5.3902526E-18
   41.54450       -5.3855364E-18
   41.70600       -5.3867205E-18
   41.86750       -5.3928975E-18
   42.02900       -5.3992573E-18
   42.19050       -5.4007768E-18
   42.35200       -5.3959684E-18
   42.51350       -5.3878173E-18
   42.67500       -5.3813161E-18
   42.83650       -5.3796125E-18
   42.99800       -5.3817223E-18
   43.15950       -5.3835164E-18
   43.32100       -5.3811738E-18
   43.48250       -5.3743269E-18
   43.64400       -5.3663495E-18
   43.80550       -5.3615200E-18
   43.96700       -5.3614270E-18
   44.12850       -5.3636757E-18
   44.29000       -5.3639759E-18
   44.45150       -5.3598169E-18
   44.61300       -5.3526245E-18
   44.77450       -5.3466291E-18
   44.93600       -5.3454731E-18
   45.09750       -5.3493915E-18
   45.25900       -5.3551735E-18
   45.42050       -5.3587763E-18
   45.58200       -5.3584396E-18
   45.74350       -5.3558646E-18
   45.90500       -5.3545862E-18
   46.06650       -5.3568465E-18
   46.22800       -5.3615056E-18
   46.38950       -5.3647911E-18
   46.55100       -5.3633965E-18
   46.71250       -5.3574329E-18
   46.87400       -5.3506802E-18
   47.03550       -5.3477591E-18
   47.19700       -5.3504937E-18
   47.35850       -5.3565073E-18
   47.52000       -5.3612595E-18
   47.68150       -5.3617690E-18
   47.84300       -5.3589128E-18
   48.00450       -5.3564519E-18
   48.16600       -5.3576865E-18
   48.32750       -5.3624928E-18
   48.48900       -5.3671631E-18
   48.65050       -5.3671966E-18
   48.81200       -5.3608955E-18
   48.97350       -5.3509416E-18
   49.13500       -5.3425921E-18
   49.29650       -5.3397218E-18
   49.45800       -5.3417624E-18
   49.61950       -5.3440942E-18
   49.78100       -5.3417608E-18
   49.94250       -5.3335766E-18
   50.10400       -5.3232253E-18
   50.26550       -5.3163593E-18
   50.42700       -5.3160536E-18
   50.58850       -5.3203558E-18
   50.75000       -5.3239491E-18
   50.91150       -5.3225470E-18
   51.07300       -5.3164544E-18
   51.23450       -5.3104706E-18
   51.39600       -5.3101893E-18
   51.55750       -5.3175351E-18
   51.71900       -5.3289539E-18
   51.88050       -5.3377340E-18
   52.04200       -5.3388408E-18
   52.20350       -5.3325989E-18
   52.36500       -5.3243114E-18
   52.52650       -5.3199815E-18
   52.68800       -5.3214837E-18
   52.84950       -5.3251026E-18
   53.01100       -5.3247047E-18
   53.17250       -5.3170032E-18
   53.33400       -5.3045864E-18
   53.49550       -5.2942289E-18
   53.65700       -5.2918040E-18
   53.81850       -5.2978441E-18
   53.98000       -5.3071623E-18
   54.14150       -5.3127664E-18
   54.30300       -5.3110459E-18
   54.46450       -5.3043106E-18
   54.62600       -5.2987999E-18
   54.78750       -5.2996895E-18
   54.94900       -5.3069137E-18
   55.11050       -5.3150949E-18
   55.27200       -5.3177237E-18
   55.43350       -5.3123462E-18
   55.59500       -5.3025859E-18
   55.75650       -5.2953017E-18
   55.91800       -5.2951313E-18
   56.07950       -5.3008372E-18
   56.24100       -5.3063640E-18
   56.40250       -5.3056907E-18
   56.56400       -5.2975595E-18
   56.72550       -5.2864211E-18
   56.88700       -5.2790121E-18
   57.04850       -5.2792975E-18
   57.21000       -5.2856543E-18
   57.37150       -5.2923305E-18
   57.53300       -5.2939869E-18
   57.69450       -5.2897923E-18
   57.85600       -5.2839077E-18
   58.01750       -5.2819668E-18
   58.17900       -5.2863244E-18
   58.34050       -5.2939472E-18
   58.50200       -5.2987056E-18
   58.66350       -5.2962439E-18
   58.82500       -5.2874510E-18
   58.98650       -5.2777568E-18
   59.14800       -5.2729244E-18
   59.30950       -5.2747893E-18
   59.47100       -5.2802777E-18
   59.63250       -5.2842531E-18
   59.79400       -5.2837258E-18
   59.95550       -5.2800758E-18
   60.11700       -5.2776605E-18
   60.27850       -5.2800390E-18
   60.44000       -5.2867971E-18
   60.60150       -5.2935502E-18
   60.76300       -5.2951773E-18
   60.92450       -5.2897675E-18
   61.08600       -5.2800932E-18
   61.24750       -5.2713623E-18
   61.40900       -5.2670589E-18
   61.57050       -5.2663099E-18
   61.73200       -5.2649384E-18
   61.89350       -5.2592561E-18
   62.05500       -5.2493270E-18
   62.21650       -5.2389939E-18
   62.37800       -5.2327611E-18
   62.53950       -5.2321866E-18
   62.70100       -5.2347310E-18
   62.86250       -5.2359366E-18
   63.02400       -5.2331399E-18
   63.18550       -5.2277496E-18
   63.34700       -5.2242387E-18
   63.50850       -5.2265978E-18
   63.67000       -5.2350061E-18
   63.83150       -5.2454314E-18
   63.99300       -5.2526242E-18
   64.15450       -5.2541752E-18
   64.31600       -5.2522784E-18
   64.47750       -5.2516676E-18
   64.63900       -5.2553936E-18
   64.80050       -5.2620210E-18
   64.96200       -5.2666482E-18
   65.12350       -5.2649434E-18
   65.28500       -5.2568796E-18
   65.44650       -5.2470730E-18
   65.60800       -5.2414246E-18
   65.76950       -5.2427096E-18
   65.93100       -5.2485532E-18
   66.09250       -5.2533442E-18
   66.25400       -5.2526316E-18
   66.41550       -5.2466027E-18
   66.57700       -5.2398806E-18
   66.73850       -5.2376969E-18
   66.90000       -5.2414333E-18
   67.06150       -5.2471900E-18
   67.22300       -5.2487137E-18
   67.38450       -5.2424441E-18
   67.54600       -5.2305831E-18
   67.70750       -5.2195820E-18
   67.86900       -5.2151876E-18
   68.03050       -5.2180145E-18
   68.19200       -5.2231848E-18
   68.35350       -5.2242684E-18
   68.51500       -5.2183711E-18
   68.67650       -5.2083957E-18
   68.83800       -5.2007707E-18
   68.99950       -5.2004349E-18
   69.16100       -5.2069655E-18
   69.32250       -5.2148948E-18
   69.48400       -5.2180087E-18
   69.64550       -5.2143166E-18
   69.80700       -5.2077166E-18
   69.96850       -5.2049161E-18
   70.13000       -5.2099570E-18
   70.29150       -5.2207438E-18
   70.45300       -5.2304446E-18
   70.61450       -5.2326962E-18
   70.77600       -5.2264385E-18
   70.93750       -5.2165566E-18
   71.09900       -5.2099280E-18
   71.26050       -5.2100873E-18
   71.42200       -5.2147215E-18
   71.58350       -5.2178570E-18
   71.74500       -5.2149089E-18
   71.90650       -5.2065817E-18
   72.06800       -5.1985485E-18
   72.22950       -5.1971138E-18
   72.39100       -5.2041990E-18
   72.55250       -5.2156095E-18
   72.71400       -5.2240571E-18
   72.87550       -5.2246332E-18
   73.03700       -5.2183917E-18
   73.19850       -5.2111771E-18
   73.36000       -5.2086976E-18
   73.52150       -5.2118760E-18
   73.68300       -5.2162187E-18
   73.84450       -5.2156529E-18
   74.00600       -5.2076111E-18
   74.16750       -5.1952518E-18
   74.32900       -5.1850903E-18
   74.49050       -5.1819916E-18
   74.65200       -5.1854865E-18
   74.81350       -5.1902473E-18
   74.97500       -5.1903697E-18
   75.13650       -5.1841030E-18
   75.29800       -5.1752890E-18
   75.45950       -5.1703284E-18
   75.62100       -5.1730548E-18
   75.78250       -5.1816116E-18
   75.94400       -5.1898627E-18
   76.10550       -5.1922321E-18
   76.26700       -5.1880297E-18
   76.42850       -5.1817179E-18
   76.59000       -5.1789749E-18
   76.75150       -5.1818597E-18
   76.91300       -5.1870321E-18
   77.07450       -5.1884064E-18
   77.23600       -5.1821021E-18
   77.39750       -5.1697246E-18
   77.55900       -5.1573876E-18
   77.72050       -5.1512437E-18
   77.88200       -5.1530205E-18
   78.04350       -5.1590097E-18
   78.20500       -5.1632630E-18
   78.36650       -5.1624607E-18
   78.52800       -5.1585460E-18
   78.68950       -5.1569297E-18
   78.85100       -5.1617046E-18
   79.01250       -5.1718512E-18
   79.17400       -5.1816078E-18
   79.33550       -5.1847652E-18
   79.49700       -5.1794572E-18
   79.65850       -5.1695777E-18
   79.82000       -5.1617013E-18
   79.98150       -5.1600118E-18
   80.14300       -5.1633003E-18
   80.30450       -5.1663186E-18
   80.46600       -5.1642751E-18
   80.62750       -5.1568809E-18
   80.78900       -5.1487344E-18
   80.95050       -5.1456904E-18
   81.11200       -5.1500894E-18
   81.27350       -5.1587226E-18
   81.43500       -5.1652421E-18
   81.59650       -5.1651378E-18
   81.75800       -5.1593066E-18
   81.91950       -5.1532922E-18
   82.08100       -5.1527219E-18
   82.24250       -5.1586424E-18
   82.40400       -5.1665970E-18
   82.56550       -5.1701679E-18
   82.72700       -5.1660709E-18
   82.88850       -5.1567085E-18
   83.05000       -5.1482112E-18
   83.21150       -5.1455395E-18
   83.37300       -5.1485860E-18
   83.53450       -5.1524212E-18
   83.69600       -5.1514654E-18
   83.85750       -5.1442428E-18
   84.01900       -5.1349015E-18
   84.18050       -5.1301924E-18
   84.34200       -5.1341827E-18
   84.50350       -5.1448922E-18
   84.66500       -5.1556621E-18
   84.82650       -5.1602294E-18
   84.98800       -5.1574198E-18
   85.14950       -5.1517082E-18
   85.31100       -5.1492394E-18
   85.47250       -5.1525643E-18
   85.63400       -5.1583736E-18
   85.79550       -5.1601297E-18
   85.95700       -5.1534643E-18
   86.11850       -5.1399485E-18
   86.28000       -5.1262198E-18
   86.44150       -5.1191214E-18
   86.60300       -5.1206029E-18
   86.76450       -5.1263629E-18
   86.92600       -5.1293739E-18
   87.08750       -5.1255395E-18
   87.24900       -5.1169587E-18
   87.41050       -5.1101944E-18
   87.57200       -5.1109224E-18
   87.73350       -5.1192161E-18
   87.89500       -5.1292878E-18
   88.05650       -5.1339912E-18
   88.21800       -5.1304620E-18
   88.37950       -5.1223085E-18
   88.54100       -5.1166063E-18
   88.70250       -5.1181581E-18
   88.86400       -5.1255821E-18
   89.02550       -5.1323062E-18
   89.18700       -5.1317355E-18
   89.34850       -5.1224917E-18
   89.51000       -5.1095745E-18
   89.67150       -5.1005648E-18
   89.83300       -5.0998874E-18
   89.99450       -5.1056036E-18
   90.15600       -5.1112359E-18
   90.31750       -5.1111941E-18
   90.47900       -5.1054311E-18
   90.64050       -5.0994887E-18
   90.80200       -5.0998762E-18
   90.96350       -5.1085517E-18
   91.12500       -5.1209428E-18
   91.28650       -5.1291394E-18
   91.44800       -5.1277729E-18
   91.60950       -5.1179302E-18
   91.77100       -5.1060031E-18
   91.93250       -5.0985213E-18
   92.09400       -5.0971692E-18
   92.25550       -5.0978736E-18
   92.41700       -5.0945599E-18
   92.57850       -5.0845382E-18
   92.74000       -5.0711548E-18
   92.90150       -5.0614780E-18
   93.06300       -5.0608316E-18
   93.22450       -5.0685806E-18
   93.38600       -5.0785585E-18
   93.54750       -5.0838243E-18
   93.70900       -5.0820161E-18
   93.87050       -5.0769976E-18
   94.03200       -5.0754371E-18
   94.19350       -5.0811393E-18
   94.35500       -5.0918124E-18
   94.51650       -5.1008353E-18
   94.67800       -5.1025401E-18
   94.83950       -5.0967503E-18
   95.00100       -5.0889289E-18
   95.16250       -5.0857819E-18
   95.32400       -5.0898764E-18
   95.48550       -5.0976411E-18
   95.64700       -5.1023300E-18
   95.80850       -5.0995937E-18
   95.97000       -5.0912301E-18
   96.13150       -5.0840493E-18
   96.29300       -5.0846027E-18
   96.45450       -5.0939618E-18
   96.61600       -5.1067918E-18
   96.77750       -5.1154954E-18
   96.93900       -5.1160633E-18
   97.10050       -5.1109550E-18
   97.26200       -5.1066880E-18
   97.42350       -5.1080979E-18
   97.58500       -5.1139742E-18
   97.74650       -5.1177110E-18
   97.90800       -5.1124828E-18
   98.06950       -5.0967904E-18
   98.23100       -5.0760120E-18
   98.39250       -5.0586838E-18
   98.55400       -5.0503248E-18
   98.71550       -5.0496229E-18
   98.87700       -5.0500026E-18
   99.03850       -5.0453029E-18
   99.20000       -5.0349913E-18
   99.36150       -5.0247421E-18
   99.52300       -5.0218850E-18
   99.68450       -5.0293094E-18
   99.84600       -5.0427945E-18
   100.0075       -5.0540210E-18
   100.1690       -5.0568872E-18
   100.3305       -5.0520445E-18
   100.4920       -5.0461020E-18
   100.6535       -5.0461884E-18
   100.8150       -5.0541840E-18
   100.9765       -5.0651648E-18
   101.1380       -5.0712938E-18
   101.2995       -5.0680239E-18
   101.4610       -5.0576825E-18
   101.6225       -5.0476554E-18
   101.7840       -5.0446433E-18
   101.9455       -5.0495025E-18
   102.1070       -5.0567722E-18
   102.2685       -5.0593075E-18
   102.4300       -5.0542654E-18
   102.5915       -5.0455437E-18
   102.7530       -5.0407009E-18
   102.9145       -5.0448616E-18
   103.0760       -5.0564790E-18
   103.2375       -5.0683445E-18
   103.3990       -5.0730387E-18
   103.5605       -5.0684359E-18
   103.7220       -5.0589101E-18
   103.8835       -5.0514477E-18
   104.0450       -5.0499236E-18
   104.2065       -5.0521082E-18
   104.3680       -5.0517454E-18
   104.5295       -5.0440403E-18
   104.6910       -5.0300758E-18
   104.8525       -5.0164865E-18
   105.0140       -5.0105808E-18
   105.1755       -5.0147924E-18
   105.3370       -5.0248943E-18
   105.4985       -5.0334147E-18
   105.6600       -5.0355215E-18
   105.8215       -5.0326107E-18
   105.9830       -5.0306681E-18
   106.1445       -5.0348747E-18
   106.3060       -5.0449460E-18
   106.4675       -5.0550186E-18
   106.6290       -5.0581553E-18
   106.7905       -5.0518542E-18
   106.9520       -5.0401066E-18
   107.1135       -5.0302847E-18
   107.2750       -5.0273387E-18
   107.4365       -5.0299654E-18
   107.5980       -5.0318373E-18
   107.7595       -5.0269333E-18
   107.9210       -5.0147432E-18
   108.0825       -5.0010881E-18
   108.2440       -4.9937535E-18
   108.4055       -4.9964083E-18
   108.5670       -5.0057703E-18
   108.7285       -5.0143221E-18
   108.8900       -5.0163669E-18
   109.0515       -5.0125276E-18
   109.2130       -5.0090307E-18
   109.3745       -5.0122964E-18
   109.5360       -5.0232276E-18
   109.6975       -5.0358739E-18
   109.8590       -5.0416257E-18
   110.0205       -5.0356857E-18
   110.1820       -5.0207775E-18
   110.3435       -5.0051404E-18
   110.5050       -4.9963066E-18
   110.6665       -4.9955497E-18
   110.8280       -4.9974464E-18
   110.9895       -4.9948826E-18
   111.1510       -4.9854171E-18
   111.3125       -4.9738279E-18
   111.4740       -4.9686746E-18
   111.6355       -4.9755203E-18
   111.7970       -4.9922360E-18
   111.9585       -5.0102429E-18
   112.1200       -5.0207518E-18
   112.2815       -5.0210802E-18
   112.4430       -5.0161386E-18
   112.6045       -5.0140078E-18
   112.7660       -5.0191330E-18
   112.9275       -5.0285488E-18
   113.0890       -5.0341749E-18
   113.2505       -5.0293590E-18
   113.4120       -5.0144334E-18
   113.5735       -4.9968438E-18
   113.7350       -4.9856905E-18
   113.8965       -4.9849370E-18
   114.0580       -4.9906685E-18
   114.2195       -4.9946195E-18
   114.3810       -4.9911119E-18
   114.5425       -4.9817858E-18
   114.7040       -4.9743532E-18
   114.8655       -4.9764009E-18
   115.0270       -4.9891771E-18
   115.1885       -5.0062919E-18
   115.3500       -5.0183733E-18
   115.5115       -5.0199767E-18
   115.6730       -5.0132795E-18
   115.8345       -5.0057426E-18
   115.9960       -5.0037280E-18
   116.1575       -5.0071943E-18
   116.3190       -5.0097338E-18
   116.4805       -5.0039737E-18
   116.6420       -4.9879963E-18