  -30.00000       -2.8780449E-18
  -29.83850       -2.8798566E-18
  -29.67700       -2.8828016E-18
  -29.51550       -2.8862348E-18
  -29.35400       -2.8899792E-18
  -29.19250       -2.8940305E-18
  -29.03100       -2.8980806E-18
  -28.86950       -2.9016086E-18
  -28.70800       -2.9044251E-18
  -28.54650       -2.9068926E-18
  -28.38500       -2.9094417E-18
  -28.22350       -2.9120015E-18
  -28.06200       -2.9141267E-18
  -27.90050       -2.9156729E-18
  -27.73900       -2.9170710E-18
  -27.57750       -2.9187959E-18
  -27.41600       -2.9207458E-18
  -27.25450       -2.9223687E-18
  -27.09300       -2.9233367E-18
  -26.93150       -2.9238781E-18
  -26.77000       -2.9244203E-18
  -26.60850       -2.9251150E-18
  -26.44700       -2.9258971E-18
  -26.28550       -2.9269029E-18
  -26.12400       -2.9285083E-18
  -25.96250       -2.9308031E-18
  -25.80100       -2.9332445E-18
  -25.63950       -2.9351032E-18
  -25.47800       -2.9362321E-18
  -25.31650       -2.9371579E-18
  -25.15500       -2.9383912E-18
  -24.99350       -2.9398431E-18
  -24.83200       -2.9410562E-18
  -24.67050       -2.9418817E-18
  -24.50900       -2.9426998E-18
  -24.34750       -2.9439453E-18
  -24.18600       -2.9456208E-18
  -24.02450       -2.9474437E-18
  -23.86300       -2.9493189E-18
  -23.70150       -2.9513595E-18
  -23.54000       -2.9534294E-18
  -23.37850       -2.9549886E-18
  -23.21700       -2.9556266E-18
  -23.05550       -2.9556406E-18
  -22.89400       -2.9558573E-18
  -22.73250       -2.9568375E-18
  -22.57100       -2.9584046E-18
  -22.40950       -2.9600303E-18
  -22.24800       -2.9615293E-18
  -22.08650       -2.9631551E-18
  -21.92500       -2.9650423E-18
  -21.76350       -2.9668619E-18
  -21.60200       -2.9681933E-18
  -21.44050       -2.9690349E-18
  -21.27900       -2.9697132E-18
  -21.11750       -2.9703557E-18
  -20.95600       -2.9707333E-18
  -20.79450       -2.9707309E-18
  -20.63300       -2.9707824E-18
  -20.47150       -2.9715920E-18
  -20.31000       -2.9733998E-18
  -20.14850       -2.9757142E-18
  -19.98700       -2.9778686E-18
  -19.82550       -2.9796679E-18
  -19.66400       -2.9813117E-18
  -19.50250       -2.9828313E-18
  -19.34100       -2.9839364E-18
  -19.17950       -2.9844825E-18
  -19.01800       -2.9848355E-18
  -18.85650       -2.9855440E-18
  -18.69500       -2.9867143E-18
  -18.53350       -2.9879242E-18
  -18.37200       -2.9888120E-18
  -18.21050       -2.9895672E-18
  -18.04900       -2.9906479E-18
  -17.88750       -2.9921067E-18
  -17.72600       -2.9934742E-18
  -17.56450       -2.9943438E-18
  -17.40300       -2.9948434E-18
  -17.24150       -2.9953811E-18
  -17.08000       -2.9961090E-18
  -16.91850       -2.9968778E-18
  -16.75700       -2.9976926E-18
  -16.59550       -2.9989233E-18
  -16.43400       -3.0008659E-18
  -16.27250       -3.0031992E-18
  -16.11100       -3.0051436E-18
  -15.94950       -3.0062471E-18
  -15.78800       -3.0068222E-18
  -15.62650       -3.0074875E-18
  -15.46500       -3.0084482E-18
  -15.30350       -3.0094359E-18
  -15.14200       -3.0102705E-18
  -14.98050       -3.0111889E-18
  -14.81900       -3.0125142E-18
  -14.65750       -3.0141936E-18
  -14.49600       -3.0158819E-18
  -14.33450       -3.0174403E-18
  -14.17300       -3.0190961E-18
  -14.01150       -3.0209633E-18
  -13.85000       -3.0226195E-18
  -13.68850       -3.0234487E-18
  -13.52700       -3.0233962E-18
  -13.36550       -3.0231375E-18
  -13.20400       -3.0234136E-18
  -13.04250       -3.0243539E-18
  -12.88100       -3.0255725E-18
  -12.71950       -3.0267808E-18
  -12.55800       -3.0280659E-18
  -12.39650       -3.0295322E-18
  -12.23500       -3.0309176E-18
  -12.07350       -3.0318256E-18
  -11.91200       -3.0322609E-18
  -11.75050       -3.0326584E-18
  -11.58900       -3.0332938E-18
  -11.42750       -3.0339120E-18
  -11.26600       -3.0341279E-18
  -11.10450       -3.0340621E-18
  -10.94300       -3.0343346E-18
  -10.78150       -3.0353916E-18
  -10.62000       -3.0370203E-18
  -10.45850       -3.0386409E-18
  -10.29700       -3.0399589E-18
  -10.13550       -3.0411136E-18
  -9.974000       -3.0422162E-18
  -9.812500       -3.0430387E-18
  -9.651000       -3.0433608E-18
  -9.489500       -3.0434460E-18
  -9.328000       -3.0438679E-18
  -9.166500       -3.0448473E-18
  -9.005000       -3.0459861E-18
  -8.843500       -3.0467709E-18
  -8.682000       -3.0472002E-18
  -8.520500       -3.0477284E-18
  -8.359000       -3.0486345E-18
  -8.197500       -3.0496726E-18
  -8.036000       -3.0504562E-18
  -7.874500       -3.0510145E-18
  -7.713000       -3.0517278E-18
  -7.551500       -3.0527795E-18
  -7.390000       -3.0539672E-18
  -7.228500       -3.0551401E-18
  -7.067000       -3.0565753E-18
  -6.905500       -3.0586736E-18
  -6.744000       -3.0613464E-18
  -6.582500       -3.0639279E-18
  -6.421000       -3.0658116E-18
  -6.259500       -3.0670563E-18
  -6.098000       -3.0682048E-18
  -5.936500       -3.0695881E-18
  -5.775000       -3.0710466E-18
  -5.613500       -3.0723624E-18
  -5.452000       -3.0736851E-18
  -5.290500       -3.0753111E-18
  -5.129000       -3.0771886E-18
  -4.967500       -3.0789056E-18
  -4.806000       -3.0802082E-18
  -4.644500       -3.0813150E-18
  -4.483000       -3.0825603E-18
  -4.321500       -3.0838261E-18
  -4.160000       -3.0845724E-18
  -3.998500       -3.0845017E-18
  -3.837000       -3.0839967E-18
  -3.675500       -3.0837322E-18
  -3.514000       -3.0839744E-18
  -3.352500       -3.0844746E-18
  -3.191000       -3.0849846E-18
  -3.029500       -3.0856012E-18
  -2.868000       -3.0864853E-18
  -2.706500       -3.0874403E-18
  -2.545000       -3.0880313E-18
  -2.383500       -3.0881374E-18
  -2.222000       -3.0881767E-18
  -2.060500       -3.0886316E-18
  -1.899000       -3.0894646E-18
  -1.737500       -3.0902272E-18
  -1.576000       -3.0907207E-18
  -1.414500       -3.0912842E-18
  -1.253000       -3.0923382E-18
  -1.091500       -3.0938408E-18
 -0.9300000       -3.0953787E-18
 -0.7685000       -3.0967119E-18
 -0.6070000       -3.0979847E-18
 -0.4455000       -3.0993461E-18
 -0.2840000       -3.1005577E-18
 -0.1225000       -3.1012180E-18
  3.9000001E-02   -3.1013472E-18
  0.2005000       -3.1014808E-18
  0.3620000       -3.1020568E-18
  0.5235000       -3.1028883E-18
  0.6850000       -3.1034233E-18
  0.8465000       -3.1034216E-18
   1.008000       -3.1031732E-18
   1.169500       -3.1030512E-18
   1.331000       -3.1030748E-18
   1.492500       -3.1030651E-18
   1.654000       -3.1030988E-18
   1.815500       -3.1035542E-18
   1.977000       -3.1046233E-18
   2.138500       -3.1060032E-18
   2.300000       -3.1072864E-18
   2.461500       -3.1085387E-18
   2.623000       -3.1102376E-18
   2.784500       -3.1125985E-18
   2.946000       -3.1151928E-18
   3.107500       -3.1173511E-18
   3.269000       -3.1188425E-18
   3.430500       -3.1199966E-18
   3.592000       -3.1211915E-18
   3.753500       -3.1224292E-18
   3.915000       -3.1235335E-18
   4.076500       -3.1245701E-18
   4.238000       -3.1257863E-18
   4.399500       -3.1271290E-18
   4.561000       -3.1281160E-18
   4.722500       -3.1283578E-18
   4.884000       -3.1280499E-18
   5.045500       -3.1277583E-18
   5.207000       -3.1277376E-18
   5.368500       -3.1276607E-18
   5.530000       -3.1271027E-18
   5.691500       -3.1261569E-18
   5.853000       -3.1253876E-18
   6.014500       -3.1252151E-18
   6.176000       -3.1255785E-18
   6.337500       -3.1262661E-18
   6.499000       -3.1273273E-18
   6.660500       -3.1289188E-18
   6.822000       -3.1308493E-18
   6.983500       -3.1325750E-18
   7.145000       -3.1337452E-18
   7.306500       -3.1345931E-18
   7.468000       -3.1356136E-18
   7.629500       -3.1368988E-18
   7.791000       -3.1379874E-18
   7.952500       -3.1384359E-18
   8.114000       -3.1383516E-18
   8.275500       -3.1381899E-18
   8.437000       -3.1381564E-18
   8.598500       -3.1380621E-18
   8.760000       -3.1377767E-18
   8.921500       -3.1375511E-18
   9.083000       -3.1377252E-18
   9.244500       -3.1382517E-18
   9.406000       -3.1387494E-18
   9.567500       -3.1390665E-18
   9.729000       -3.1395915E-18
   9.890500       -3.1408310E-18
   10.05200       -3.1427611E-18
   10.21350       -3.1448191E-18
   10.37500       -3.1465440E-18
   10.53650       -3.1480052E-18
   10.69800       -3.1495036E-18
   10.85950       -3.1510653E-18
   11.02100       -3.1524660E-18
   11.18250       -3.1536947E-18
   11.34400       -3.1551152E-18
   11.50550       -3.1570318E-18
   11.66700       -3.1592180E-18
   11.82850       -3.1611048E-18
   11.99000       -3.1624341E-18
   12.15150       -3.1635121E-18
   12.31300       -3.1646882E-18
   12.47450       -3.1657703E-18
   12.63600       -3.1661734E-18
   12.79750       -3.1655724E-18
   12.95900       -3.1641896E-18
   13.12050       -3.1624180E-18
   13.28200       -3.1603846E-18
   13.44350       -3.1580618E-18
   13.60500       -3.1556862E-18
   13.76650       -3.1537849E-18
   13.92800       -3.1526546E-18
   14.08950       -3.1519965E-18
   14.25100       -3.1513065E-18
   14.41250       -3.1505626E-18
   14.57400       -3.1503068E-18
   14.73550       -3.1509843E-18
   14.89700       -3.1524258E-18
   15.05850       -3.1540926E-18
   15.22000       -3.1556996E-18
   15.38150       -3.1573883E-18
   15.54300       -3.1593134E-18
   15.70450       -3.1612967E-18
   15.86600       -3.1630580E-18
   16.02750       -3.1646518E-18
   16.18900       -3.1663944E-18
   16.35050       -3.1683178E-18
   16.51200       -3.1699612E-18
   16.67350       -3.1708951E-18
   16.83500       -3.1713120E-18
   16.99650       -3.1718795E-18
   17.15800       -3.1730171E-18
   17.31950       -3.1744954E-18
   17.48100       -3.1758136E-18
   17.64250       -3.1768024E-18
   17.80400       -3.1776869E-18
   17.96550       -3.1786018E-18
   18.12700       -3.1793330E-18
   18.28850       -3.1796637E-18
   18.45000       -3.1797700E-18
   18.61150       -3.1800040E-18
   18.77300       -3.1803457E-18
   18.93450       -3.1803378E-18
   19.09600       -3.1796601E-18
   19.25750       -3.1785952E-18
   19.41900       -3.1777601E-18
   19.58050       -3.1774261E-18
   19.74200       -3.1772888E-18
   19.90350       -3.1769675E-18
   20.06500       -3.1765373E-18
   20.22650       -3.1763853E-18
   20.38800       -3.1766668E-18
   20.54950       -3.1771801E-18
   20.71100       -3.1778135E-18
   20.87250       -3.1788464E-18
   21.03400       -3.1806052E-18
   21.19550       -3.1829436E-18
   21.35700       -3.1852782E-18
   21.51850       -3.1871885E-18
   21.68000       -3.1888081E-18
   21.84150       -3.1904989E-18
   22.00300       -3.1922438E-18
   22.16450       -3.1935942E-18
   22.32600       -3.1942258E-18
   22.48750       -3.1942996E-18
   22.64900       -3.1941412E-18
   22.81050       -3.1937568E-18
   22.97200       -3.1929060E-18
   23.13350       -3.1916119E-18
   23.29500       -3.1903409E-18
   23.45650       -3.1895354E-18
   23.61800       -3.1890886E-18
   23.77950       -3.1884764E-18
   23.94100       -3.1874112E-18
   24.10250       -3.1861765E-18
   24.26400       -3.1852236E-18
   24.42550       -3.1846218E-18
   24.58700       -3.1841184E-18
   24.74850       -3.1836337E-18
   24.91000       -3.1834253E-18
   25.07150       -3.1837030E-18
   25.23300       -3.1842984E-18
   25.39450       -3.1849212E-18
   25.55600       -3.1856702E-18
   25.71750       -3.1870632E-18
   25.87900       -3.1894465E-18
   26.04050       -3.1925207E-18
   26.20200       -3.1956442E-18
   26.36350       -3.1985428E-18
   26.52500       -3.2015078E-18
   26.68650       -3.2048743E-18
   26.84800       -3.2085248E-18
   27.00950       -3.2120354E-18
   27.17100       -3.2151305E-18
   27.33250       -3.2177843E-18
   27.49400       -3.2198851E-18
   27.65550       -3.2210659E-18
   27.81700       -3.2210614E-18
   27.97850       -3.2201442E-18
   28.14000       -3.2189626E-18
   28.30150       -3.2178606E-18
   28.46300       -3.2165534E-18
   28.62450       -3.2145926E-18
   28.78600       -3.2120242E-18
   28.94750       -3.2093851E-18
   29.10900       -3.2071248E-18
   29.27050       -3.2052242E-18
   29.43200       -3.2034559E-18
   29.59350       -3.2018313E-18
   29.75500       -3.2006019E-18
   29.91650       -3.1998659E-18
   30.07800       -3.1994238E-18
   30.23950       -3.1991609E-18
   30.40100       -3.1993946E-18
   30.56250       -3.2005899E-18
   30.72400       -3.2027399E-18
   30.88550       -3.2052477E-18
   31.04700       -3.2074975E-18
   31.20850       -3.2093855E-18
   31.37000       -3.2111964E-18
   31.53150       -3.2130609E-18
   31.69300       -3.2147434E-18
   31.85450       -3.2159957E-18
   32.01600       -3.2169168E-18
   32.17750       -3.2177682E-18
   32.33900       -3.2185151E-18
   32.50050       -3.2188160E-18
   32.66200       -3.2185358E-18
   32.82350       -3.2180680E-18
   32.98500       -3.2179658E-18
   33.14650       -3.2183507E-18
   33.30800       -3.2188524E-18
   33.46950       -3.2191175E-18
   33.63100       -3.2192120E-18
   33.79250       -3.2194366E-18
   33.95400       -3.2198791E-18
   34.11550       -3.2203473E-18
   34.27700       -3.2207439E-18
   34.43850       -3.2212593E-18
   34.60000       -3.2220285E-18
   34.76150       -3.2227714E-18
   34.92300       -3.2230272E-18
   35.08450       -3.2227635E-18
   35.24600       -3.2225513E-18
   35.40750       -3.2230369E-18
   35.56900       -3.2243136E-18
   35.73050       -3.2259186E-18
   35.89200       -3.2274027E-18
   36.05350       -3.2287500E-18
   36.21500       -3.2301883E-18
   36.37650       -3.2317835E-18
   36.53800       -3.2334139E-18
   36.69950       -3.2350480E-18
   36.86100       -3.2367598E-18
   37.02250       -3.2383860E-18
   37.18400       -3.2393958E-18
   37.34550       -3.2393222E-18
   37.50700       -3.2383062E-18
   37.66850       -3.2370640E-18
   37.83000       -3.2362145E-18
   37.99150       -3.2357132E-18
   38.15300       -3.2350426E-18
   38.31450       -3.2339019E-18
   38.47600       -3.2325391E-18
   38.63750       -3.2314123E-18
   38.79900       -3.2307479E-18
   38.96050       -3.2305392E-18
   39.12200       -3.2307884E-18
   39.28350       -3.2315051E-18
   39.44500       -3.2324754E-18
   39.60650       -3.2332524E-18
   39.76800       -3.2335559E-18
   39.92950       -3.2336471E-18
   40.09100       -3.2341108E-18
   40.25250       -3.2351913E-18
   40.41400       -3.2364602E-18
   40.57550       -3.2372565E-18
   40.73700       -3.2373608E-18
   40.89850       -3.2370998E-18
   41.06000       -3.2368835E-18
   41.22150       -3.2368396E-18
   41.38300       -3.2369304E-18
   41.54450       -3.2372336E-18
   41.70600       -3.2379164E-18
   41.86750       -3.2389483E-18
   42.02900       -3.2400272E-18
   42.19050       -3.2409356E-18
   42.35200       -3.2418621E-18
   42.51350       -3.2431771E-18
   42.67500       -3.2449013E-18
   42.83650       -3.2465832E-18
   42.99800       -3.2477541E-18
   43.15950       -3.2483662E-18
   43.32100       -3.2486902E-18
   43.48250       -3.2488910E-18
   43.64400       -3.2488594E-18
   43.80550       -3.2484880E-18
   43.96700       -3.2479443E-18
   44.12850       -3.2474972E-18
   44.29000       -3.2471155E-18
   44.45150       -3.2464550E-18
   44.61300       -3.2453424E-18
   44.77450       -3.2441124E-18
   44.93600       -3.2433442E-18
   45.09750       -3.2433258E-18
   45.25900       -3.2438994E-18
   45.42050       -3.2447789E-18
   45.58200       -3.2458718E-18
   45.74350       -3.2472162E-18
   45.90500       -3.2487303E-18
   46.06650       -3.2502162E-18
   46.22800       -3.2516571E-18
   46.38950       -3.2533102E-18
   46.55100       -3.2553339E-18
   46.71250       -3.2574259E-18
   46.87400       -3.2590339E-18
   47.03550       -3.2599521E-18
   47.19700       -3.2605708E-18
   47.35850       -3.2614664E-18
   47.52000       -3.2628110E-18
   47.68150       -3.2642447E-18
   47.84300       -3.2652928E-18
   48.00450       -3.2657773E-18
   48.16600       -3.2657808E-18
   48.32750       -3.2653823E-18
   48.48900       -3.2646223E-18
   48.65050       -3.2636754E-18
   48.81200       -3.2627901E-18
   48.97350       -3.2619475E-18
   49.13500       -3.2607269E-18
   49.29650       -3.2586879E-18
   49.45800       -3.2558921E-18
   49.61950       -3.2529393E-18
   49.78100       -3.2504259E-18
   49.94250       -3.2484228E-18
   50.10400       -3.2465768E-18
   50.26550       -3.2446780E-18
   50.42700       -3.2429808E-18
   50.58850       -3.2419475E-18
   50.75000       -3.2418552E-18
   50.91150       -3.2427705E-18
   51.07300       -3.2447572E-18
   51.23450       -3.2478854E-18
   51.39600       -3.2520076E-18
   51.55750       -3.2566835E-18
   51.71900       -3.2614696E-18
   51.88050       -3.2662647E-18
   52.04200       -3.2712350E-18
   52.20350       -3.2763503E-18
   52.36500       -3.2811372E-18
   52.52650       -3.2850138E-18
   52.68800       -3.2877884E-18
   52.84950       -3.2896735E-18
   53.01100       -3.2908365E-18
   53.17250       -3.2911176E-18
   53.33400       -3.2902544E-18
   53.49550       -3.2882766E-18
   53.65700       -3.2855331E-18
   53.81850       -3.2823470E-18
   53.98000       -3.2787727E-18
   54.14150       -3.2747832E-18
   54.30300       -3.2705969E-18
   54.46450       -3.2666477E-18
   54.62600       -3.2632480E-18
   54.78750       -3.2604542E-18
   54.94900       -3.2583050E-18
   55.11050       -3.2570034E-18
   55.27200       -3.2566967E-18
   55.43350       -3.2571351E-18
   55.59500       -3.2577319E-18
   55.75650       -3.2580649E-18
   55.91800       -3.2582653E-18
   56.07950       -3.2588031E-18
   56.24100       -3.2598977E-18
   56.40250       -3.2612659E-18
   56.56400       -3.2624932E-18
   56.72550       -3.2635098E-18
   56.88700       -3.2646006E-18
   57.04850       -3.2660610E-18
   57.21000       -3.2680049E-18
   57.37150       -3.2704542E-18
   57.53300       -3.2734076E-18
   57.69450       -3.2767029E-18
   57.85600       -3.2799128E-18
   58.01750       -3.2825842E-18
   58.17900       -3.2846873E-18
   58.34050       -3.2867056E-18
   58.50200       -3.2891174E-18
   58.66350       -3.2918076E-18
   58.82500       -3.2941153E-18
   58.98650       -3.2954553E-18
   59.14800       -3.2957810E-18
   59.30950       -3.2954400E-18
   59.47100       -3.2947357E-18
   59.63250       -3.2937310E-18
   59.79400       -3.2924005E-18
   59.95550       -3.2907881E-18
   60.11700       -3.2889309E-18
   60.27850       -3.2867544E-18
   60.44000       -3.2842451E-18
   60.60150       -3.2817384E-18
   60.76300       -3.2798181E-18
   60.92450       -3.2788052E-18
   61.08600       -3.2784348E-18
   61.24750       -3.2781403E-18
   61.40900       -3.2776112E-18
   61.57050       -3.2769951E-18
   61.73200       -3.2765912E-18
   61.89350       -3.2764711E-18
   62.05500       -3.2764876E-18
   62.21650       -3.2765828E-18
   62.37800       -3.2768899E-18
   62.53950       -3.2774749E-18
   62.70100       -3.2781414E-18
   62.86250       -3.2786534E-18
   63.02400       -3.2790744E-18
   63.18550       -3.2797333E-18
   63.34700       -3.2808500E-18
   63.50850       -3.2823093E-18
   63.67000       -3.2838382E-18
   63.83150       -3.2853267E-18
   63.99300       -3.2868779E-18
   64.15450       -3.2885630E-18
   64.31600       -3.2902784E-18
   64.47750       -3.2919383E-18
   64.63900       -3.2936802E-18
   64.80050       -3.2956588E-18
   64.96200       -3.2976384E-18
   65.12350       -3.2989799E-18
   65.28500       -3.2991412E-18
   65.44650       -3.2981587E-18
   65.60800       -3.2965873E-18
   65.76950       -3.2950045E-18
   65.93100       -3.2936055E-18
   66.09250       -3.2922616E-18
   66.25400       -3.2908431E-18
   66.41550       -3.2893821E-18
   66.57700       -3.2880049E-18
   66.73850       -3.2869159E-18
   66.90000       -3.2864849E-18
   67.06150       -3.2871200E-18
   67.22300       -3.2888633E-18
   67.38450       -3.2911629E-18
   67.54600       -3.2932004E-18
   67.70750       -3.2945526E-18
   67.86900       -3.2955345E-18
   68.03050       -3.2968377E-18
   68.19200       -3.2988043E-18
   68.35350       -3.3010679E-18
   68.51500       -3.3028761E-18
   68.67650       -3.3036568E-18
   68.83800       -3.3032748E-18
   68.99950       -3.3019627E-18
   69.16100       -3.3001826E-18
   69.32250       -3.2984764E-18
   69.48400       -3.2972040E-18
   69.64550       -3.2962934E-18
   69.80700       -3.2953002E-18
   69.96850       -3.2938605E-18
   70.13000       -3.2921801E-18
   70.29150       -3.2910146E-18
   70.45300       -3.2910477E-18
   70.61450       -3.2922585E-18
   70.77600       -3.2939430E-18
   70.93750       -3.2953122E-18
   71.09900       -3.2960077E-18
   71.26050       -3.2961431E-18
   71.42200       -3.2960368E-18
   71.58350       -3.2959727E-18
   71.74500       -3.2960926E-18
   71.90650       -3.2963474E-18
   72.06800       -3.2964738E-18
   72.22950       -3.2961239E-18
   72.39100       -3.2951869E-18
   72.55250       -3.2940301E-18
   72.71400       -3.2932920E-18
   72.87550       -3.2933627E-18
   73.03700       -3.2941047E-18
   73.19850       -3.2951081E-18
   73.36000       -3.2961417E-18
   73.52150       -3.2973057E-18
   73.68300       -3.2988097E-18
   73.84450       -3.3006878E-18
   74.00600       -3.3027599E-18
   74.16750       -3.3047909E-18
   74.32900       -3.3065745E-18
   74.49050       -3.3078494E-18
   74.65200       -3.3082874E-18
   74.81350       -3.3077116E-18
   74.97500       -3.3062918E-18
   75.13650       -3.3044408E-18
   75.29800       -3.3025265E-18
   75.45950       -3.3007402E-18
   75.62100       -3.2992018E-18
   75.78250       -3.2980890E-18
   75.94400       -3.2975869E-18
   76.10550       -3.2977203E-18
   76.26700       -3.2983271E-18
   76.42850       -3.2992607E-18
   76.59000       -3.3005615E-18
   76.75150       -3.3023122E-18
   76.91300       -3.3043423E-18
   77.07450       -3.3061948E-18
   77.23600       -3.3074414E-18
   77.39750       -3.3079931E-18
   77.55900       -3.3080950E-18
   77.72050       -3.3080640E-18
   77.88200       -3.3080466E-18
   78.04350       -3.3079825E-18
   78.20500       -3.3077164E-18
   78.36650       -3.3070863E-18
   78.52800       -3.3059657E-18
   78.68950       -3.3043866E-18
   78.85100       -3.3026733E-18
   79.01250       -3.3013355E-18
   79.17400       -3.3006953E-18
   79.33550       -3.3006233E-18
   79.49700       -3.3006860E-18
   79.65850       -3.3005673E-18
   79.82000       -3.3003367E-18
   79.98150       -3.3003158E-18
   80.14300       -3.3006984E-18
   80.30450       -3.3013105E-18
   80.46600       -3.3017355E-18
   80.62750       -3.3016054E-18
   80.78900       -3.3007637E-18
   80.95050       -3.2992775E-18
   81.11200       -3.2974285E-18
   81.27350       -3.2956509E-18
   81.43500       -3.2943266E-18
   81.59650       -3.2935551E-18
   81.75800       -3.2931452E-18
   81.91950       -3.2928687E-18
   82.08100       -3.2927649E-18
   82.24250       -3.2931826E-18
   82.40400       -3.2944861E-18
   82.56550       -3.2967178E-18
   82.72700       -3.2995947E-18
   82.88850       -3.3028062E-18
   83.05000       -3.3062271E-18
   83.21150       -3.3098466E-18
   83.37300       -3.3135976E-18
   83.53450       -3.3172863E-18
   83.69600       -3.3206332E-18
   83.85750       -3.3233400E-18
   84.01900       -3.3251271E-18
   84.18050       -3.3257756E-18
   84.34200       -3.3252162E-18
   84.50350       -3.3236057E-18
   84.66500       -3.3212431E-18
   84.82650       -3.3183641E-18
   84.98800       -3.3150870E-18
   85.14950       -3.3115977E-18
   85.31100       -3.3082993E-18
   85.47250       -3.3056677E-18
   85.63400       -3.3039364E-18
   85.79550       -3.3029260E-18
   85.95700       -3.3021908E-18
   86.11850       -3.3013579E-18
   86.28000       -3.3003545E-18
   86.44150       -3.2993300E-18
   86.60300       -3.2984216E-18
   86.76450       -3.2976337E-18
   86.92600       -3.2968646E-18
   87.08750       -3.2959661E-18
   87.24900       -3.2948362E-18
   87.41050       -3.2935782E-18
   87.57200       -3.2925866E-18
   87.73350       -3.2923836E-18
   87.89500       -3.2932784E-18
   88.05650       -3.2951205E-18
   88.21800       -3.2973907E-18
   88.37950       -3.2996204E-18
   88.54100       -3.3017872E-18
   88.70250       -3.3042846E-18
   88.86400       -3.3074931E-18
   89.02550       -3.3113924E-18
   89.18700       -3.3155221E-18
   89.34850       -3.3192150E-18
   89.51000       -3.3219079E-18
   89.67150       -3.3233795E-18
   89.83300       -3.3238098E-18
   89.99450       -3.3236105E-18
   90.15600       -3.3231264E-18
   90.31750       -3.3223819E-18
   90.47900       -3.3210609E-18
   90.64050       -3.3188192E-18
   90.80200       -3.3157289E-18
   90.96350       -3.3124055E-18
   91.12500       -3.3096487E-18
   91.28650       -3.3079348E-18
   91.44800       -3.3072015E-18
   91.60950       -3.3070092E-18
   91.77100       -3.3068909E-18
   91.93250       -3.3066429E-18
   92.09400       -3.3063772E-18
   92.25550       -3.3063644E-18
   92.41700       -3.3068183E-18
   92.57850       -3.3077197E-18
   92.74000       -3.3087330E-18
   92.90150       -3.3093313E-18
   93.06300       -3.3091391E-18
   93.22450       -3.3082063E-18
   93.38600       -3.3069357E-18
   93.54750       -3.3057574E-18
   93.70900       -3.3048587E-18
   93.87050       -3.3041579E-18
   94.03200       -3.3034864E-18
   94.19350       -3.3028081E-18
   94.35500       -3.3022857E-18
   94.51650       -3.3021809E-18
   94.67800       -3.3027500E-18
   94.83950       -3.3041769E-18
   95.00100       -3.3064607E-18
   95.16250       -3.3093093E-18
   95.32400       -3.3122136E-18
   95.48550       -3.3146846E-18
   95.64700       -3.3164510E-18
   95.80850       -3.3174918E-18
   95.97000       -3.3179346E-18
   96.13150       -3.3179052E-18
   96.29300       -3.3174469E-18
   96.45450       -3.3165550E-18
   96.61600       -3.3152324E-18
   96.77750       -3.3135153E-18
   96.93900       -3.3115481E-18
   97.10050       -3.3096778E-18
   97.26200       -3.3083829E-18
   97.42350       -3.3079987E-18
   97.58500       -3.3084813E-18
   97.74650       -3.3094334E-18
   97.90800       -3.3103640E-18
   98.06950       -3.3110065E-18
   98.23100       -3.3114656E-18
   98.39250       -3.3120674E-18
   98.55400       -3.3130474E-18
   98.71550       -3.3143378E-18
   98.87700       -3.3155661E-18
   99.03850       -3.3162115E-18
   99.20000       -3.3158962E-18
   99.36150       -3.3146775E-18
   99.52300       -3.3130873E-18
   99.68450       -3.3118074E-18
   99.84600       -3.3112257E-18
   100.0075       -3.3112199E-18
   100.1690       -3.3113169E-18
   100.3305       -3.3111279E-18
   100.4920       -3.3107149E-18
   100.6535       -3.3105615E-18
   100.8150       -3.3111779E-18
   100.9765       -3.3126956E-18
   101.1380       -3.3147369E-18
   101.2995       -3.3165912E-18
   101.4610       -3.3175989E-18
   101.6225       -3.3175501E-18
   101.7840       -3.3168148E-18
   101.9455       -3.3160662E-18
   102.1070       -3.3158008E-18
   102.2685       -3.3160066E-18
   102.4300       -3.3162031E-18
   102.5915       -3.3158453E-18
   102.7530       -3.3147937E-18
   102.9145       -3.3134417E-18
   103.0760       -3.3123974E-18
   103.2375       -3.3120417E-18
   103.3990       -3.3123122E-18
   103.5605       -3.3128002E-18
   103.7220       -3.3130623E-18
   103.8835       -3.3129560E-18
   104.0450       -3.3127618E-18
   104.2065       -3.3129768E-18
   104.3680       -3.3139407E-18
   104.5295       -3.3155595E-18
   104.6910       -3.3172982E-18
   104.8525       -3.3184793E-18
   105.0140       -3.3186962E-18
   105.1755       -3.3180107E-18
   105.3370       -3.3167720E-18
   105.4985       -3.3152878E-18
   105.6600       -3.3136479E-18
   105.8215       -3.3117764E-18
   105.9830       -3.3096158E-18
   106.1445       -3.3073076E-18
   106.3060       -3.3052266E-18
   106.4675       -3.3038303E-18
   106.6290       -3.3034488E-18
   106.7905       -3.3041601E-18
   106.9520       -3.3057831E-18
   107.1135       -3.3079980E-18
   107.2750       -3.3105474E-18
   107.4365       -3.3133342E-18
   107.5980       -3.3163201E-18
   107.7595       -3.3193606E-18
   107.9210       -3.3221782E-18
   108.0825       -3.3244833E-18
   108.2440       -3.3261023E-18
   108.4055       -3.3270284E-18
   108.5670       -3.3273555E-18
   108.7285       -3.3271601E-18
   108.8900       -3.3264584E-18
   109.0515       -3.3252836E-18
   109.2130       -3.3237575E-18
   109.3745       -3.3220907E-18
   109.5360       -3.3205437E-18
   109.6975       -3.3193633E-18
   109.8590       -3.3186668E-18
   110.0205       -3.3183647E-18
   110.1820       -3.3182385E-18
   110.3435       -3.3181047E-18
   110.5050       -3.3179128E-18
   110.6665       -3.3177096E-18
   110.8280       -3.3174976E-18
   110.9895       -3.3171105E-18
   111.1510       -3.3162626E-18
   111.3125       -3.3147741E-18
   111.4740       -3.3127463E-18
   111.6355       -3.3105251E-18
   111.7970       -3.3085345E-18
   111.9585       -3.3071192E-18
   112.1200       -3.3064355E-18
   112.2815       -3.3064332E-18
   112.4430       -3.3069618E-18
   112.6045       -3.3079120E-18
   112.7660       -3.3092802E-18
   112.9275       -3.3111219E-18
   113.0890       -3.3134250E-18
   113.2505       -3.3159859E-18
   113.4120       -3.3184364E-18
   113.5735       -3.3204455E-18
   113.7350       -3.3219021E-18
   113.8965       -3.3228836E-18
   114.0580       -3.3234955E-18
   114.2195       -3.3237736E-18
   114.3810       -3.3236853E-18
   114.5425       -3.3231913E-18
   114.7040       -3.3223196E-18
   114.8655       -3.3211835E-18
   115.0270       -3.3199359E-18
   115.1885       -3.3187396E-18
   115.3500       -3.3177642E-18
   115.5115       -3.3171494E-18
   115.6730       -3.3169663E-18
   115.8345       -3.3172528E-18
   115.9960       -3.3180448E-18
   116.1575       -3.3193064E-18
   116.3190       -3.3208388E-18
   116.4805       -3.3223199E-18
   116.6420       -3.3234618E-18