  -30.00000       -3.5924479E-18
  -29.83850       -3.5993805E-18
  -29.67700       -3.6106070E-18
  -29.51550       -3.6220882E-18
  -29.35400       -3.6300482E-18
  -29.19250       -3.6325049E-18
  -29.03100       -3.6300312E-18
  -28.86950       -3.6254276E-18
  -28.70800       -3.6224555E-18
  -28.54650       -3.6241827E-18
  -28.38500       -3.6316376E-18
  -28.22350       -3.6433447E-18
  -28.06200       -3.6559394E-18
  -27.90050       -3.6655955E-18
  -27.73900       -3.6696524E-18
  -27.57750       -3.6677614E-18
  -27.41600       -3.6620601E-18
  -27.25450       -3.6562938E-18
  -27.09300       -3.6542594E-18
  -26.93150       -3.6582187E-18
  -26.77000       -3.6679434E-18
  -26.60850       -3.6808007E-18
  -26.44700       -3.6928411E-18
  -26.28550       -3.7004425E-18
  -26.12400       -3.7018144E-18
  -25.96250       -3.6977422E-18
  -25.80100       -3.6912426E-18
  -25.63950       -3.6862845E-18
  -25.47800       -3.6861075E-18
  -25.31650       -3.6918514E-18
  -25.15500       -3.7020754E-18
  -24.99350       -3.7133838E-18
  -24.83200       -3.7218859E-18
  -24.67050       -3.7248812E-18
  -24.50900       -3.7220394E-18
  -24.34750       -3.7155708E-18
  -24.18600       -3.7093053E-18
  -24.02450       -3.7070633E-18
  -23.86300       -3.7110176E-18
  -23.70150       -3.7207444E-18
  -23.54000       -3.7333730E-18
  -23.37850       -3.7447753E-18
  -23.21700       -3.7512955E-18
  -23.05550       -3.7512781E-18
  -22.89400       -3.7457493E-18
  -22.73250       -3.7379667E-18
  -22.57100       -3.7320305E-18
  -22.40950       -3.7311499E-18
  -22.24800       -3.7363070E-18
  -22.08650       -3.7458758E-18
  -21.92500       -3.7563517E-18
  -21.76350       -3.7638716E-18
  -21.60200       -3.7658688E-18
  -21.44050       -3.7621659E-18
  -21.27900       -3.7550306E-18
  -21.11750       -3.7481915E-18
  -20.95600       -3.7452335E-18
  -20.79450       -3.7480472E-18
  -20.63300       -3.7560129E-18
  -20.47150       -3.7662456E-18
  -20.31000       -3.7748061E-18
  -20.14850       -3.7783700E-18
  -19.98700       -3.7756436E-18
  -19.82550       -3.7679285E-18
  -19.66400       -3.7585983E-18
  -19.50250       -3.7517037E-18
  -19.34100       -3.7502930E-18
  -19.17950       -3.7551576E-18
  -19.01800       -3.7645312E-18
  -18.85650       -3.7748602E-18
  -18.69500       -3.7823189E-18
  -18.53350       -3.7844249E-18
  -18.37200       -3.7810591E-18
  -18.21050       -3.7744644E-18
  -18.04900       -3.7682296E-18
  -17.88750       -3.7657009E-18
  -17.72600       -3.7685137E-18
  -17.56450       -3.7758744E-18
  -17.40300       -3.7849039E-18
  -17.24150       -3.7918964E-18
  -17.08000       -3.7939354E-18
  -16.91850       -3.7901842E-18
  -16.75700       -3.7822780E-18
  -16.59550       -3.7736629E-18
  -16.43400       -3.7681555E-18
  -16.27250       -3.7683528E-18
  -16.11100       -3.7745587E-18
  -15.94950       -3.7846863E-18
  -15.78800       -3.7951572E-18
  -15.62650       -3.8024157E-18
  -15.46500       -3.8043935E-18
  -15.30350       -3.8013217E-18
  -15.14200       -3.7955546E-18
  -14.98050       -3.7904915E-18
  -14.81900       -3.7890832E-18
  -14.65750       -3.7925594E-18
  -14.49600       -3.7999164E-18
  -14.33450       -3.8083768E-18
  -14.17300       -3.8146116E-18
  -14.01150       -3.8161998E-18
  -13.85000       -3.8126951E-18
  -13.68850       -3.8058522E-18
  -13.52700       -3.7989097E-18
  -13.36550       -3.7952424E-18
  -13.20400       -3.7969443E-18
  -13.04250       -3.8039522E-18
  -12.88100       -3.8140636E-18
  -12.71950       -3.8238562E-18
  -12.55800       -3.8301006E-18
  -12.39650       -3.8310787E-18
  -12.23500       -3.8272584E-18
  -12.07350       -3.8210281E-18
  -11.91200       -3.8156411E-18
  -11.75050       -3.8138068E-18
  -11.58900       -3.8165526E-18
  -11.42750       -3.8228243E-18
  -11.26600       -3.8299939E-18
  -11.10450       -3.8350471E-18
  -10.94300       -3.8359202E-18
  -10.78150       -3.8324142E-18
  -10.62000       -3.8262935E-18
  -10.45850       -3.8205289E-18
  -10.29700       -3.8180242E-18
  -10.13550       -3.8203742E-18
  -9.974000       -3.8271852E-18
  -9.812500       -3.8362457E-18
  -9.651000       -3.8444600E-18
  -9.489500       -3.8491489E-18
  -9.328000       -3.8491530E-18
  -9.166500       -3.8452905E-18
  -9.005000       -3.8399804E-18
  -8.843500       -3.8362052E-18
  -8.682000       -3.8362664E-18
  -8.520500       -3.8408407E-18
  -8.359000       -3.8487361E-18
  -8.197500       -3.8574253E-18
  -8.036000       -3.8641217E-18
  -7.874500       -3.8669362E-18
  -7.713000       -3.8656350E-18
  -7.551500       -3.8616935E-18
  -7.390000       -3.8576283E-18
  -7.228500       -3.8559066E-18
  -7.067000       -3.8578889E-18
  -6.905500       -3.8632544E-18
  -6.744000       -3.8701386E-18
  -6.582500       -3.8759326E-18
  -6.421000       -3.8783918E-18
  -6.259500       -3.8766030E-18
  -6.098000       -3.8713922E-18
  -5.936500       -3.8650039E-18
  -5.775000       -3.8601864E-18
  -5.613500       -3.8590647E-18
  -5.452000       -3.8622750E-18
  -5.290500       -3.8687155E-18
  -5.129000       -3.8760294E-18
  -4.967500       -3.8816029E-18
  -4.806000       -3.8836634E-18
  -4.644500       -3.8820124E-18
  -4.483000       -3.8780862E-18
  -4.321500       -3.8743237E-18
  -4.160000       -3.8731127E-18
  -3.998500       -3.8757647E-18
  -3.837000       -3.8819479E-18
  -3.675500       -3.8898255E-18
  -3.514000       -3.8968334E-18
  -3.352500       -3.9007625E-18
  -3.191000       -3.9006988E-18
  -3.029500       -3.8974145E-18
  -2.868000       -3.8930478E-18
  -2.706500       -3.8902147E-18
  -2.545000       -3.8909112E-18
  -2.383500       -3.8956791E-18
  -2.222000       -3.9033731E-18
  -2.060500       -3.9116292E-18
  -1.899000       -3.9178363E-18
  -1.737500       -3.9202095E-18
  -1.576000       -3.9185068E-18
  -1.414500       -3.9141082E-18
  -1.253000       -3.9094065E-18
  -1.091500       -3.9067835E-18
 -0.9300000       -3.9075917E-18
 -0.7685000       -3.9115787E-18
 -0.6070000       -3.9170029E-18
 -0.4455000       -3.9213924E-18
 -0.2840000       -3.9226344E-18
 -0.1225000       -3.9199233E-18
  3.9000001E-02   -3.9141645E-18
  0.2005000       -3.9076488E-18
  0.3620000       -3.9031175E-18
  0.5235000       -3.9026208E-18
  0.6850000       -3.9066446E-18
  0.8465000       -3.9138849E-18
   1.008000       -3.9217836E-18
   1.169500       -3.9275888E-18
   1.331000       -3.9295004E-18
   1.492500       -3.9274114E-18
   1.654000       -3.9229202E-18
   1.815500       -3.9186151E-18
   1.977000       -3.9169355E-18
   2.138500       -3.9191040E-18
   2.300000       -3.9245919E-18
   2.461500       -3.9313504E-18
   2.623000       -3.9367014E-18
   2.784500       -3.9385105E-18
   2.946000       -3.9361236E-18
   3.107500       -3.9306746E-18
   3.269000       -3.9246225E-18
   3.430500       -3.9207157E-18
   3.592000       -3.9208373E-18
   3.753500       -3.9252098E-18
   3.915000       -3.9323066E-18
   4.076500       -3.9395006E-18
   4.238000       -3.9441692E-18
   4.399500       -3.9447842E-18
   4.561000       -3.9415326E-18
   4.722500       -3.9362031E-18
   4.884000       -3.9313959E-18
   5.045500       -3.9294040E-18
   5.207000       -3.9312379E-18
   5.368500       -3.9362146E-18
   5.530000       -3.9422828E-18
   5.691500       -3.9469407E-18
   5.853000       -3.9483444E-18
   6.014500       -3.9461387E-18
   6.176000       -3.9416335E-18
   6.337500       -3.9372627E-18
   6.499000       -3.9355417E-18
   6.660500       -3.9379844E-18
   6.822000       -3.9444339E-18
   6.983500       -3.9531086E-18
   7.145000       -3.9613373E-18
   7.306500       -3.9666710E-18
   7.468000       -3.9678915E-18
   7.629500       -3.9654828E-18
   7.791000       -3.9613713E-18
   7.952500       -3.9580477E-18
   8.114000       -3.9574773E-18
   8.275500       -3.9602599E-18
   8.437000       -3.9654137E-18
   8.598500       -3.9708615E-18
   8.760000       -3.9743977E-18
   8.921500       -3.9746951E-18
   9.083000       -3.9719112E-18
   9.244500       -3.9676243E-18
   9.406000       -3.9641436E-18
   9.567500       -3.9634979E-18
   9.729000       -3.9665552E-18
   9.890500       -3.9726519E-18
   10.05200       -3.9798894E-18
   10.21350       -3.9859513E-18
   10.37500       -3.9890785E-18
   10.53650       -3.9887844E-18
   10.69800       -3.9859997E-18
   10.85950       -3.9826124E-18
   11.02100       -3.9806090E-18
   11.18250       -3.9812108E-18
   11.34400       -3.9843702E-18
   11.50550       -3.9888382E-18
   11.66700       -3.9927607E-18
   11.82850       -3.9945230E-18
   11.99000       -3.9934799E-18
   12.15150       -3.9902390E-18
   12.31300       -3.9864017E-18
   12.47450       -3.9838582E-18
   12.63600       -3.9839711E-18
   12.79750       -3.9869878E-18
   12.95900       -3.9919348E-18
   13.12050       -3.9970364E-18
   13.28200       -4.0004680E-18
   13.44350       -4.0011152E-18
   13.60500       -3.9990142E-18
   13.76650       -3.9953022E-18
   13.92800       -3.9917023E-18
   14.08950       -3.9897866E-18
   14.25100       -3.9903428E-18
   14.41250       -3.9931027E-18
   14.57400       -3.9969400E-18
   14.73550       -4.0004282E-18
   14.89700       -4.0024888E-18
   15.05850       -4.0028486E-18
   15.22000       -4.0021116E-18
   15.38150       -4.0014262E-18
   15.54300       -4.0019321E-18
   15.70450       -4.0042209E-18
   15.86600       -4.0080780E-18
   16.02750       -4.0125870E-18
   16.18900       -4.0165368E-18
   16.35050       -4.0189501E-18
   16.51200       -4.0194815E-18
   16.67350       -4.0185278E-18
   16.83500       -4.0170182E-18
   16.99650       -4.0159979E-18
   17.15800       -4.0161889E-18
   17.31950       -4.0177163E-18
   17.48100       -4.0201048E-18
   17.64250       -4.0225214E-18
   17.80400       -4.0241448E-18
   17.96550       -4.0245033E-18
   18.12700       -4.0236422E-18
   18.28850       -4.0220718E-18
   18.45000       -4.0205337E-18
   18.61150       -4.0196916E-18
   18.77300       -4.0198782E-18
   18.93450       -4.0209936E-18
   19.09600       -4.0225801E-18
   19.25750       -4.0240372E-18
   19.41900       -4.0248735E-18
   19.58050       -4.0249049E-18
   19.74200       -4.0243185E-18
   19.90350       -4.0235885E-18
   20.06500       -4.0232787E-18
   20.22650       -4.0238234E-18
   20.38800       -4.0253661E-18
   20.54950       -4.0277178E-18
   20.71100       -4.0304425E-18
   20.87250       -4.0330324E-18
   21.03400       -4.0350921E-18
   21.19550       -4.0364656E-18
   21.35700       -4.0372564E-18
   21.51850       -4.0377465E-18
   21.68000       -4.0382556E-18
   21.84150       -4.0390009E-18
   22.00300       -4.0400188E-18
   22.16450       -4.0411665E-18
   22.32600       -4.0421976E-18
   22.48750       -4.0428713E-18
   22.64900       -4.0430520E-18
   22.81050       -4.0427605E-18
   22.97200       -4.0421670E-18
   23.13350       -4.0415337E-18
   23.29500       -4.0411264E-18
   23.45650       -4.0411293E-18
   23.61800       -4.0415826E-18
   23.77950       -4.0423663E-18
   23.94100       -4.0432270E-18
   24.10250       -4.0438515E-18
   24.26400       -4.0439615E-18
   24.42550       -4.0434019E-18
   24.58700       -4.0421943E-18
   24.74850       -4.0405275E-18
   24.91000       -4.0386907E-18
   25.07150       -4.0369723E-18
   25.23300       -4.0355652E-18
   25.39450       -4.0345176E-18
   25.55600       -4.0337595E-18
   25.71750       -4.0331838E-18
   25.87900       -4.0327433E-18
   26.04050       -4.0325154E-18
   26.20200       -4.0326899E-18
   26.36350       -4.0334869E-18
   26.52500       -4.0350350E-18
   26.68650       -4.0372738E-18
   26.84800       -4.0399377E-18
   27.00950       -4.0426277E-18
   27.17100       -4.0449558E-18
   27.33250       -4.0466871E-18
   27.49400       -4.0478224E-18
   27.65550       -4.0485797E-18
   27.81700       -4.0492799E-18
   27.97850       -4.0501985E-18
   28.14000       -4.0514430E-18
   28.30150       -4.0529186E-18
   28.46300       -4.0543902E-18
   28.62450       -4.0556099E-18
   28.78600       -4.0564441E-18
   28.94750       -4.0569416E-18
   29.10900       -4.0573002E-18
   29.27050       -4.0577647E-18
   29.43200       -4.0584897E-18
   29.59350       -4.0594488E-18
   29.75500       -4.0604352E-18
   29.91650       -4.0611644E-18
   30.07800       -4.0614266E-18
   30.23950       -4.0612248E-18
   30.40100       -4.0608282E-18
   30.56250       -4.0606913E-18
   30.72400       -4.0612732E-18
   30.88550       -4.0628183E-18
   31.04700       -4.0652035E-18
   31.20850       -4.0679245E-18
   31.37000       -4.0702489E-18
   31.53150       -4.0714884E-18
   31.69300       -4.0712759E-18
   31.85450       -4.0697340E-18
   32.01600       -4.0674419E-18
   32.17750       -4.0652163E-18
   32.33900       -4.0637820E-18
   32.50050       -4.0634867E-18
   32.66200       -4.0641894E-18
   32.82350       -4.0653747E-18
   32.98500       -4.0664505E-18
   33.14650       -4.0670841E-18
   33.30800       -4.0674067E-18
   33.46950       -4.0679738E-18
   33.63100       -4.0694842E-18
   33.79250       -4.0723826E-18
   33.95400       -4.0765380E-18
   34.11550       -4.0811743E-18
   34.27700       -4.0851154E-18
   34.43850       -4.0872557E-18
   34.60000       -4.0870510E-18
   34.76150       -4.0848007E-18
   34.92300       -4.0815738E-18
   35.08450       -4.0787833E-18
   35.24600       -4.0775922E-18
   35.40750       -4.0784086E-18
   35.56900       -4.0807053E-18
   35.73050       -4.0832588E-18
   35.89200       -4.0847080E-18
   36.05350       -4.0841886E-18
   36.21500       -4.0817562E-18
   36.37650       -4.0783946E-18
   36.53800       -4.0756004E-18
   36.69950       -4.0747169E-18
   36.86100       -4.0763175E-18
   37.02250       -4.0799166E-18
   37.18400       -4.0841509E-18
   37.34550       -4.0873571E-18
   37.50700       -4.0883005E-18
   37.66850       -4.0867297E-18
   37.83000       -4.0835028E-18
   37.99150       -4.0802193E-18
   38.15300       -4.0785133E-18
   38.31450       -4.0793132E-18
   38.47600       -4.0824047E-18
   38.63750       -4.0865038E-18
   38.79900       -4.0898192E-18
   38.96050       -4.0908714E-18
   39.12200       -4.0892058E-18
   39.28350       -4.0856684E-18
   39.44500       -4.0821070E-18
   39.60650       -4.0806019E-18
   39.76800       -4.0825545E-18
   39.92950       -4.0880263E-18
   40.09100       -4.0956388E-18
   40.25250       -4.1030925E-18
   40.41400       -4.1080957E-18
   40.57550       -4.1093100E-18
   40.73700       -4.1068967E-18
   40.89850       -4.1024229E-18
   41.06000       -4.0981613E-18
   41.22150       -4.0960925E-18
   41.38300       -4.0970471E-18
   41.54450       -4.1003723E-18
   41.70600       -4.1042704E-18
   41.86750       -4.1066602E-18
   42.02900       -4.1061738E-18
   42.19050       -4.1028336E-18
   42.35200       -4.0981050E-18
   42.51350       -4.0942806E-18
   42.67500       -4.0934708E-18
   42.83650       -4.0966376E-18
   42.99800       -4.1031054E-18
   43.15950       -4.1107704E-18
   43.32100       -4.1169267E-18
   43.48250       -4.1193636E-18
   43.64400       -4.1172646E-18
   43.80550       -4.1115269E-18
   43.96700       -4.1043672E-18
   44.12850       -4.0983929E-18
   44.29000       -4.0955280E-18
   44.45150       -4.0962621E-18
   44.61300       -4.0995266E-18
   44.77450       -4.1032472E-18
   44.93600       -4.1053234E-18
   45.09750       -4.1046030E-18
   45.25900       -4.1014291E-18
   45.42050       -4.0975186E-18
   45.58200       -4.0952178E-18
   45.74350       -4.0964556E-18
   45.90500       -4.1018456E-18
   46.06650       -4.1103262E-18
   46.22800       -4.1195145E-18
   46.38950       -4.1266242E-18
   46.55100       -4.1295718E-18
   46.71250       -4.1278095E-18
   46.87400       -4.1225234E-18
   47.03550       -4.1161186E-18
   47.19700       -4.1112092E-18
   47.35850       -4.1095450E-18
   47.52000       -4.1113341E-18
   47.68150       -4.1152413E-18
   47.84300       -4.1190559E-18
   48.00450       -4.1207305E-18
   48.16600       -4.1193297E-18
   48.32750       -4.1154721E-18
   48.48900       -4.1110785E-18
   48.65050       -4.1085317E-18
   48.81200       -4.1096202E-18
   48.97350       -4.1147256E-18
   49.13500       -4.1226003E-18
   49.29650       -4.1308358E-18
   49.45800       -4.1368179E-18
   49.61950       -4.1387676E-18
   49.78100       -4.1364316E-18
   49.94250       -4.1311385E-18
   50.10400       -4.1252167E-18
   50.26550       -4.1210192E-18
   50.42700       -4.1199728E-18
   50.58850       -4.1220383E-18
   50.75000       -4.1257962E-18
   50.91150       -4.1291119E-18
   51.07300       -4.1300872E-18
   51.23450       -4.1279013E-18
   51.39600       -4.1231980E-18
   51.55750       -4.1178507E-18
   51.71900       -4.1142061E-18
   51.88050       -4.1141209E-18
   52.04200       -4.1181815E-18
   52.20350       -4.1254293E-18
   52.36500       -4.1337081E-18
   52.52650       -4.1404939E-18
   52.68800       -4.1438684E-18
   52.84950       -4.1432356E-18
   53.01100       -4.1394992E-18
   53.17250       -4.1346160E-18
   53.33400       -4.1307307E-18
   53.49550       -4.1292583E-18
   53.65700       -4.1303039E-18
   53.81850       -4.1326758E-18
   53.98000       -4.1344820E-18
   54.14150       -4.1340576E-18
   54.30300       -4.1308138E-18
   54.46450       -4.1256307E-18
   54.62600       -4.1206031E-18
   54.78750       -4.1182287E-18
   54.94900       -4.1203657E-18
   55.11050       -4.1273972E-18
   55.27200       -4.1379553E-18
   55.43350       -4.1493423E-18
   55.59500       -4.1584921E-18
   55.75650       -4.1630884E-18
   55.91800       -4.1624018E-18
   56.07950       -4.1575045E-18
   56.24100       -4.1507853E-18
   56.40250       -4.1449623E-18
   56.56400       -4.1419965E-18
   56.72550       -4.1423423E-18
   56.88700       -4.1448474E-18
   57.04850       -4.1473301E-18
   57.21000       -4.1475994E-18
   57.37150       -4.1444826E-18
   57.53300       -4.1384301E-18
   57.69450       -4.1314202E-18
   57.85600       -4.1261837E-18
   58.01750       -4.1250616E-18
   58.17900       -4.1289622E-18
   58.34050       -4.1368758E-18
   58.50200       -4.1461775E-18
   58.66350       -4.1536213E-18
   58.82500       -4.1566268E-18
   58.98650       -4.1543260E-18
   59.14800       -4.1479216E-18
   59.30950       -4.1401862E-18
   59.47100       -4.1342954E-18
   59.63250       -4.1324980E-18
   59.79400       -4.1351818E-18
   59.95550       -4.1407466E-18
   60.11700       -4.1463549E-18
   60.27850       -4.1492244E-18
   60.44000       -4.1479055E-18
   60.60150       -4.1429812E-18
   60.76300       -4.1368601E-18
   60.92450       -4.1327507E-18
   61.08600       -4.1332491E-18
   61.24750       -4.1391543E-18
   61.40900       -4.1490341E-18
   61.57050       -4.1597395E-18
   61.73200       -4.1676668E-18
   61.89350       -4.1702331E-18
   62.05500       -4.1669513E-18
   62.21650       -4.1596365E-18
   62.37800       -4.1516592E-18
   62.53950       -4.1465509E-18
   62.70100       -4.1465435E-18
   62.86250       -4.1516555E-18
   63.02400       -4.1597010E-18
   63.18550       -4.1672300E-18
   63.34700       -4.1709991E-18
   63.50850       -4.1693588E-18
   63.67000       -4.1629688E-18
   63.83150       -4.1545403E-18
   63.99300       -4.1476974E-18
   64.15450       -4.1454450E-18
   64.31600       -4.1488881E-18
   64.47750       -4.1567538E-18
   64.63900       -4.1659305E-18
   64.80050       -4.1727995E-18
   64.96200       -4.1747880E-18
   65.12350       -4.1714714E-18
   65.28500       -4.1647406E-18
   65.44650       -4.1579524E-18
   65.60800       -4.1544348E-18
   65.76950       -4.1559932E-18
   65.93100       -4.1620854E-18
   66.09250       -4.1700284E-18
   66.25400       -4.1761603E-18
   66.41550       -4.1774449E-18
   66.57700       -4.1728239E-18
   66.73850       -4.1637174E-18
   66.90000       -4.1534591E-18
   67.06150       -4.1459057E-18
   67.22300       -4.1438279E-18
   67.38450       -4.1477772E-18
   67.54600       -4.1559072E-18
   67.70750       -4.1648139E-18
   67.86900       -4.1710252E-18
   68.03050       -4.1724818E-18
   68.19200       -4.1693882E-18
   68.35350       -4.1640640E-18
   68.51500       -4.1598847E-18
   68.67650       -4.1597631E-18
   68.83800       -4.1648358E-18
   68.99950       -4.1739099E-18
   69.16100       -4.1839114E-18
   69.32250       -4.1911476E-18
   69.48400       -4.1928516E-18
   69.64550       -4.1883583E-18
   69.80700       -4.1794115E-18
   69.96850       -4.1694647E-18
   70.13000       -4.1622637E-18
   70.29150       -4.1603086E-18
   70.45300       -4.1638361E-18
   70.61450       -4.1707683E-18
   70.77600       -4.1776471E-18
   70.93750       -4.1811573E-18
   71.09900       -4.1795906E-18
   71.26050       -4.1736080E-18
   71.42200       -4.1659686E-18
   71.58350       -4.1603297E-18
   71.74500       -4.1596365E-18
   71.90650       -4.1648056E-18
   72.06800       -4.1742681E-18
   72.22950       -4.1845922E-18
   72.39100       -4.1919127E-18
   72.55250       -4.1935547E-18
   72.71400       -4.1891549E-18
   72.87550       -4.1807966E-18
   73.03700       -4.1721108E-18
   73.19850       -4.1667337E-18
   73.36000       -4.1667879E-18
   73.52150       -4.1720314E-18
   73.68300       -4.1800245E-18
   73.84450       -4.1872296E-18
   74.00600       -4.1905615E-18
   74.16750       -4.1887214E-18
   74.32900       -4.1827554E-18
   74.49050       -4.1756003E-18
   74.65200       -4.1708171E-18
   74.81350       -4.1710413E-18
   74.97500       -4.1768051E-18
   75.13650       -4.1862209E-18
   75.29800       -4.1956760E-18
   75.45950       -4.2012627E-18
   75.62100       -4.2003727E-18
   75.78250       -4.1927978E-18
   75.94400       -4.1808839E-18
   76.10550       -4.1686598E-18
   76.26700       -4.1602730E-18
   76.42850       -4.1583714E-18
   76.59000       -4.1630838E-18
   76.75150       -4.1720260E-18
   76.91300       -4.1813318E-18
   77.07450       -4.1872826E-18
   77.23600       -4.1878537E-18
   77.39750       -4.1835197E-18
   77.55900       -4.1769771E-18
   77.72050       -4.1719094E-18
   77.88200       -4.1713176E-18
   78.04350       -4.1761537E-18
   78.20500       -4.1848486E-18
   78.36650       -4.1939484E-18
   78.52800       -4.1995935E-18
   78.68950       -4.1991969E-18
   78.85100       -4.1926022E-18
   79.01250       -4.1822128E-18
   79.17400       -4.1720293E-18
   79.33550       -4.1660025E-18
   79.49700       -4.1664008E-18
   79.65850       -4.1728756E-18
   79.82000       -4.1826189E-18
   79.98150       -4.1915442E-18
   80.14300       -4.1959948E-18
   80.30450       -4.1942615E-18
   80.46600       -4.1872867E-18
   80.62750       -4.1782588E-18
   80.78900       -4.1712630E-18
   80.95050       -4.1695536E-18
   81.11200       -4.1741622E-18
   81.27350       -4.1834184E-18
   81.43500       -4.1936055E-18
   81.59650       -4.2004864E-18
   81.75800       -4.2010812E-18
   81.91950       -4.1949530E-18
   82.08100       -4.1844573E-18
   82.24250       -4.1738239E-18
   82.40400       -4.1674335E-18
   82.56550       -4.1680010E-18
   82.72700       -4.1754307E-18
   82.88850       -4.1868433E-18
   83.05000       -4.1977720E-18
   83.21150       -4.2040400E-18
   83.37300       -4.2035143E-18
   83.53450       -4.1969771E-18
   83.69600       -4.1877375E-18
   83.85750       -4.1801506E-18
   84.01900       -4.1776831E-18
   84.18050       -4.1813839E-18
   84.34200       -4.1894245E-18
   84.50350       -4.1979213E-18
   84.66500       -4.2026685E-18
   84.82650       -4.2010282E-18
   84.98800       -4.1931382E-18
   85.14950       -4.1819166E-18
   85.31100       -4.1718503E-18
   85.47250       -4.1671031E-18
   85.63400       -4.1697521E-18
   85.79550       -4.1789098E-18
   85.95700       -4.1910967E-18
   86.11850       -4.2017065E-18
   86.28000       -4.2069215E-18
   86.44150       -4.2052837E-18
   86.60300       -4.1982555E-18
   86.76450       -4.1895519E-18
   86.92600       -4.1835301E-18
   87.08750       -4.1833204E-18
   87.24900       -4.1894853E-18
   87.41050       -4.1997672E-18
   87.57200       -4.2100350E-18
   87.73350       -4.2160287E-18
   87.89500       -4.2151751E-18
   88.05650       -4.2076999E-18
   88.21800       -4.1965635E-18
   88.37950       -4.1862316E-18
   88.54100       -4.1808012E-18
   88.70250       -4.1822661E-18
   88.86400       -4.1896781E-18
   89.02550       -4.1995654E-18
   89.18700       -4.2074281E-18
   89.34850       -4.2096814E-18
   89.51000       -4.2051840E-18
   89.67150       -4.1957041E-18
   89.83300       -4.1851104E-18
   89.99450       -4.1776542E-18
   90.15600       -4.1761061E-18
   90.31750       -4.1805634E-18
   90.47900       -4.1884514E-18
   90.64050       -4.1957107E-18
   90.80200       -4.1986273E-18
   90.96350       -4.1955031E-18
   91.12500       -4.1874286E-18
   91.28650       -4.1778353E-18
   91.44800       -4.1710297E-18
   91.60950       -4.1703551E-18
   91.77100       -4.1767695E-18
   91.93250       -4.1884286E-18
   92.09400       -4.2014302E-18
   92.25550       -4.2113920E-18
   92.41700       -4.2151867E-18
   92.57850       -4.2121265E-18
   92.74000       -4.2041318E-18
   92.90150       -4.1948492E-18
   93.06300       -4.1881093E-18
   93.22450       -4.1863772E-18
   93.38600       -4.1898220E-18
   93.54750       -4.1963737E-18
   93.70900       -4.2027173E-18
   93.87050       -4.2057878E-18
   94.03200       -4.2041277E-18
   94.19350       -4.1985322E-18
   94.35500       -4.1917038E-18
   94.51650       -4.1870629E-18
   94.67800       -4.1872209E-18
   94.83950       -4.1927796E-18
   95.00100       -4.2019816E-18
   95.16250       -4.2113866E-18
   95.32400       -4.2172894E-18
   95.48550       -4.2172840E-18
   95.64700       -4.2112969E-18
   95.80850       -4.2016341E-18
   95.97000       -4.1920256E-18
   96.13150       -4.1860745E-18
   96.29300       -4.1857883E-18
   96.45450       -4.1908109E-18
   96.61600       -4.1986782E-18
   96.77750       -4.2059566E-18
   96.93900       -4.2097500E-18
   97.10050       -4.2089133E-18
   97.26200       -4.2044610E-18
   97.42350       -4.1990194E-18
   97.58500       -4.1955912E-18
   97.74650       -4.1961855E-18
   97.90800       -4.2009037E-18
   98.06950       -4.2078607E-18
   98.23100       -4.2139612E-18
   98.39250       -4.2161921E-18
   98.55400       -4.2128987E-18
   98.71550       -4.2045165E-18
   98.87700       -4.1934794E-18
   99.03850       -4.1833365E-18
   99.20000       -4.1774333E-18
   99.36150       -4.1776641E-18
   99.52300       -4.1837861E-18
   99.68450       -4.1935402E-18
   99.84600       -4.2035387E-18
   100.0075       -4.2105549E-18
   100.1690       -4.2127122E-18
   100.3305       -4.2101020E-18
   100.4920       -4.2045954E-18
   100.6535       -4.1989367E-18
   100.8150       -4.1955138E-18
   100.9765       -4.1953285E-18
   101.1380       -4.1976107E-18
   101.2995       -4.2002424E-18
   101.4610       -4.2007987E-18
   101.6225       -4.1977423E-18
   101.7840       -4.1912357E-18
   101.9455       -4.1831930E-18
   102.1070       -4.1765412E-18
   102.2685       -4.1739951E-18
   102.4300       -4.1768899E-18
   102.5915       -4.1845702E-18
   102.7530       -4.1946039E-18
   102.9145       -4.2037352E-18
   103.0760       -4.2091582E-18
   103.2375       -4.2095945E-18
   103.3990       -4.2057246E-18
   103.5605       -4.1998247E-18
   103.7220       -4.1947805E-18
   103.8835       -4.1929012E-18
   104.0450       -4.1950109E-18
   104.2065       -4.2001812E-18
   104.3680       -4.2061721E-18
   104.5295       -4.2103969E-18
   104.6910       -4.2109962E-18
   104.8525       -4.2076043E-18
   105.0140       -4.2014989E-18
   105.1755       -4.1950800E-18
   105.3370       -4.1908957E-18
   105.4985       -4.1905967E-18
   105.6600       -4.1942470E-18
   105.8215       -4.2002834E-18
   105.9830       -4.2061423E-18
   106.1445       -4.2093211E-18
   106.3060       -4.2084311E-18
   106.4675       -4.2037956E-18
   106.6290       -4.1973266E-18
   106.7905       -4.1917109E-18
   106.9520       -4.1892471E-18
   107.1135       -4.1908320E-18
   107.2750       -4.1955535E-18
   107.4365       -4.2010845E-18
   107.5980       -4.2047096E-18
   107.7595       -4.2045516E-18
   107.9210       -4.2004347E-18
   108.0825       -4.1940005E-18
   108.2440       -4.1880167E-18
   108.4055       -4.1851749E-18
   108.5670       -4.1869132E-18
   108.7285       -4.1927767E-18
   108.8900       -4.2005977E-18
   109.0515       -4.2074050E-18
   109.2130       -4.2106661E-18
   109.3745       -4.2093253E-18
   109.5360       -4.2042058E-18
   109.6975       -4.1976223E-18
   109.8590       -4.1923925E-18
   110.0205       -4.1906752E-18
   110.1820       -4.1931179E-18
   110.3435       -4.1986451E-18
   110.5050       -4.2049598E-18
   110.6665       -4.2095242E-18
   110.8280       -4.2106033E-18
   110.9895       -4.2079542E-18
   111.1510       -4.2028848E-18
   111.3125       -4.1976645E-18
   111.4740       -4.1945464E-18
   111.6355       -4.1948033E-18
   111.7970       -4.1981807E-18
   111.9585       -4.2030114E-18
   112.1200       -4.2069413E-18
   112.2815       -4.2079766E-18
   112.4430       -4.2053933E-18
   112.6045       -4.2001142E-18
   112.7660       -4.1943607E-18
   112.9275       -4.1907137E-18
   113.0890       -4.1909805E-18
   113.2505       -4.1953612E-18
   113.4120       -4.2023021E-18
   113.5735       -4.2091139E-18
   113.7350       -4.2130964E-18
   113.8965       -4.2126878E-18
   114.0580       -4.2081221E-18
   114.2195       -4.2013186E-18
   114.3810       -4.1950506E-18
   114.5425       -4.1917688E-18
   114.7040       -4.1926013E-18
   114.8655       -4.1969519E-18
   115.0270       -4.2028522E-18
   115.1885       -4.2078773E-18
   115.3500       -4.2102050E-18
   115.5115       -4.2093534E-18
   115.6730       -4.2062945E-18
   115.8345       -4.2029349E-18
   115.9960       -4.2012152E-18
   116.1575       -4.2022351E-18
   116.3190       -4.2057758E-18
   116.4805       -4.2103969E-18
   116.6420       -4.2140534E-18