  -30.00000        2.6084988E-18
  -29.83850        2.6057926E-18
  -29.67700        2.6007185E-18
  -29.51550        2.5938635E-18
  -29.35400        2.5860094E-18
  -29.19250        2.5780490E-18
  -29.03100        2.5708776E-18
  -28.86950        2.5652682E-18
  -28.70800        2.5617544E-18
  -28.54650        2.5605452E-18
  -28.38500        2.5614913E-18
  -28.22350        2.5641153E-18
  -28.06200        2.5676979E-18
  -27.90050        2.5713972E-18
  -27.73900        2.5743794E-18
  -27.57750        2.5759370E-18
  -27.41600        2.5755660E-18
  -27.25450        2.5730129E-18
  -27.09300        2.5682883E-18
  -26.93150        2.5616543E-18
  -26.77000        2.5536002E-18
  -26.60850        2.5447988E-18
  -26.44700        2.5360437E-18
  -26.28550        2.5281663E-18
  -26.12400        2.5219273E-18
  -25.96250        2.5179051E-18
  -25.80100        2.5163922E-18
  -25.63950        2.5173306E-18
  -25.47800        2.5203110E-18
  -25.31650        2.5246280E-18
  -25.15500        2.5293969E-18
  -24.99350        2.5336947E-18
  -24.83200        2.5367022E-18
  -24.67050        2.5378135E-18
  -24.50900        2.5367026E-18
  -24.34750        2.5333341E-18
  -24.18600        2.5279438E-18
  -24.02450        2.5209876E-18
  -23.86300        2.5130909E-18
  -23.70150        2.5049845E-18
  -23.54000        2.4974436E-18
  -23.37850        2.4912114E-18
  -23.21700        2.4869100E-18
  -23.05550        2.4849469E-18
  -22.89400        2.4854312E-18
  -22.73250        2.4881287E-18
  -22.57100        2.4924701E-18
  -22.40950        2.4976251E-18
  -22.24800        2.5026345E-18
  -22.08650        2.5065690E-18
  -21.92500        2.5086823E-18
  -21.76350        2.5085249E-18
  -21.60200        2.5059960E-18
  -21.44050        2.5013286E-18
  -21.27900        2.4950238E-18
  -21.11750        2.4877562E-18
  -20.95600        2.4802775E-18
  -20.79450        2.4733337E-18
  -20.63300        2.4675970E-18
  -20.47150        2.4636119E-18
  -20.31000        2.4617410E-18
  -20.14850        2.4621136E-18
  -19.98700        2.4645807E-18
  -19.82550        2.4686953E-18
  -19.66400        2.4737434E-18
  -19.50250        2.4788245E-18
  -19.34100        2.4829919E-18
  -19.17950        2.4854145E-18
  -19.01800        2.4855330E-18
  -18.85650        2.4831602E-18
  -18.69500        2.4785075E-18
  -18.53350        2.4721238E-18
  -18.37200        2.4647714E-18
  -18.21050        2.4572769E-18
  -18.04900        2.4503958E-18
  -17.88750        2.4447205E-18
  -17.72600        2.4406446E-18
  -17.56450        2.4383688E-18
  -17.40300        2.4379194E-18
  -17.24150        2.4391668E-18
  -17.08000        2.4418223E-18
  -16.91850        2.4454325E-18
  -16.75700        2.4493877E-18
  -16.59550        2.4529725E-18
  -16.43400        2.4554619E-18
  -16.27250        2.4562558E-18
  -16.11100        2.4550148E-18
  -15.94950        2.4517478E-18
  -15.78800        2.4468265E-18
  -15.62650        2.4409068E-18
  -15.46500        2.4347797E-18
  -15.30350        2.4292007E-18
  -15.14200        2.4247484E-18
  -14.98050        2.4217474E-18
  -14.81900        2.4202730E-18
  -14.65750        2.4202178E-18
  -14.49600        2.4213754E-18
  -14.33450        2.4235048E-18
  -14.17300        2.4263503E-18
  -14.01150        2.4296214E-18
  -13.85000        2.4329559E-18
  -13.68850        2.4359121E-18
  -13.52700        2.4380079E-18
  -13.36550        2.4388149E-18
  -13.20400        2.4380745E-18
  -13.04250        2.4357944E-18
  -12.88100        2.4322791E-18
  -12.71950        2.4280725E-18
  -12.55800        2.4238294E-18
  -12.39650        2.4201526E-18
  -12.23500        2.4174560E-18
  -12.07350        2.4158974E-18
  -11.91200        2.4154003E-18
  -11.75050        2.4157435E-18
  -11.58900        2.4166729E-18
  -11.42750        2.4179922E-18
  -11.26600        2.4195852E-18
  -11.10450        2.4213791E-18
  -10.94300        2.4232711E-18
  -10.78150        2.4250636E-18
  -10.62000        2.4264549E-18
  -10.45850        2.4270972E-18
  -10.29700        2.4267020E-18
  -10.13550        2.4251546E-18
  -9.974000        2.4225790E-18
  -9.812500        2.4193304E-18
  -9.651000        2.4159028E-18
  -9.489500        2.4127922E-18
  -9.328000        2.4103636E-18
  -9.166500        2.4087764E-18
  -9.005000        2.4079891E-18
  -8.843500        2.4078361E-18
  -8.682000        2.4081389E-18
  -8.520500        2.4087921E-18
  -8.359000        2.4097974E-18
  -8.197500        2.4112218E-18
  -8.036000        2.4131096E-18
  -7.874500        2.4153895E-18
  -7.713000        2.4178266E-18
  -7.551500        2.4200420E-18
  -7.390000        2.4216008E-18
  -7.228500        2.4221335E-18
  -7.067000        2.4214513E-18
  -6.905500        2.4196028E-18
  -6.744000        2.4168613E-18
  -6.582500        2.4136502E-18
  -6.421000        2.4104364E-18
  -6.259500        2.4076295E-18
  -6.098000        2.4055248E-18
  -5.936500        2.4042863E-18
  -5.775000        2.4039726E-18
  -5.613500        2.4045640E-18
  -5.452000        2.4059803E-18
  -5.290500        2.4080721E-18
  -5.129000        2.4105954E-18
  -4.967500        2.4131915E-18
  -4.806000        2.4153996E-18
  -4.644500        2.4167107E-18
  -4.483000        2.4166613E-18
  -4.321500        2.4149445E-18
  -4.160000        2.4114987E-18
  -3.998500        2.4065515E-18
  -3.837000        2.4005958E-18
  -3.675500        2.3943107E-18
  -3.514000        2.3884389E-18
  -3.352500        2.3836702E-18
  -3.191000        2.3805383E-18
  -3.029500        2.3793590E-18
  -2.868000        2.3802062E-18
  -2.706500        2.3829185E-18
  -2.545000        2.3871231E-18
  -2.383500        2.3922704E-18
  -2.222000        2.3976814E-18
  -2.060500        2.4026189E-18
  -1.899000        2.4063737E-18
  -1.737500        2.4083696E-18
  -1.576000        2.4082650E-18
  -1.414500        2.4060217E-18
  -1.253000        2.4019240E-18
  -1.091500        2.3965281E-18
 -0.9300000        2.3905565E-18
 -0.7685000        2.3847623E-18
 -0.6070000        2.3797943E-18
 -0.4455000        2.3761011E-18
 -0.2840000        2.3738905E-18
 -0.1225000        2.3731404E-18
  3.9000001E-02    2.3736456E-18
  0.2005000        2.3750787E-18
  0.3620000        2.3770410E-18
  0.5235000        2.3790974E-18
  0.6850000        2.3808090E-18
  0.8465000        2.3817665E-18
   1.008000        2.3816387E-18
   1.169500        2.3802310E-18
   1.331000        2.3775417E-18
   1.492500        2.3737865E-18
   1.654000        2.3693726E-18
   1.815500        2.3648240E-18
   1.977000        2.3606695E-18
   2.138500        2.3573291E-18
   2.300000        2.3550403E-18
   2.461500        2.3538425E-18
   2.623000        2.3536221E-18
   2.784500        2.3541930E-18
   2.946000        2.3553749E-18
   3.107500        2.3570301E-18
   3.269000        2.3590469E-18
   3.430500        2.3612836E-18
   3.592000        2.3635067E-18
   3.753500        2.3653676E-18
   3.915000        2.3664415E-18
   4.076500        2.3663311E-18
   4.238000        2.3647932E-18
   4.399500        2.3618443E-18
   4.561000        2.3577888E-18
   4.722500        2.3531607E-18
   4.884000        2.3485874E-18
   5.045500        2.3446329E-18
   5.207000        2.3416724E-18
   5.368500        2.3398510E-18
   5.530000        2.3391168E-18
   5.691500        2.3393187E-18
   5.853000        2.3402948E-18
   6.014500        2.3419152E-18
   6.176000        2.3440506E-18
   6.337500        2.3464951E-18
   6.499000        2.3488906E-18
   6.660500        2.3507133E-18
   6.822000        2.3513560E-18
   6.983500        2.3502962E-18
   7.145000        2.3472935E-18
   7.306500        2.3425337E-18
   7.468000        2.3366558E-18
   7.629500        2.3306269E-18
   7.791000        2.3255060E-18
   7.952500        2.3221636E-18
   8.114000        2.3210624E-18
   8.275500        2.3221619E-18
   8.437000        2.3249766E-18
   8.598500        2.3287492E-18
   8.760000        2.3326669E-18
   8.921500        2.3360401E-18
   9.083000        2.3383929E-18
   9.244500        2.3394556E-18
   9.406000        2.3390993E-18
   9.567500        2.3372795E-18
   9.729000        2.3340179E-18
   9.890500        2.3294519E-18
   10.05200        2.3239106E-18
   10.21350        2.3179600E-18
   10.37500        2.3123733E-18
   10.53650        2.3080039E-18
   10.69800        2.3055776E-18
   10.85950        2.3054876E-18
   11.02100        2.3076569E-18
   11.18250        2.3115355E-18
   11.34400        2.3162368E-18
   11.50550        2.3207743E-18
   11.66700        2.3243120E-18
   11.82850        2.3263481E-18
   11.99000        2.3267712E-18
   12.15150        2.3257866E-18
   12.31300        2.3237538E-18
   12.47450        2.3210192E-18
   12.63600        2.3178083E-18
   12.79750        2.3142228E-18
   12.95900        2.3103225E-18
   13.12050        2.3062484E-18
   13.28200        2.3023050E-18
   13.44350        2.2989636E-18
   13.60500        2.2967567E-18
   13.76650        2.2961109E-18
   13.92800        2.2971827E-18
   14.08950        2.2997602E-18
   14.25100        2.3032859E-18
   14.41250        2.3069875E-18
   14.57400        2.3100758E-18
   14.73550        2.3119367E-18
   14.89700        2.3122552E-18
   15.05850        2.3110359E-18
   15.22000        2.3085320E-18
   15.38150        2.3051212E-18
   15.54300        2.3011997E-18
   15.70450        2.2971211E-18
   15.86600        2.2931998E-18
   16.02750        2.2897563E-18
   16.18900        2.2871480E-18
   16.35050        2.2857575E-18
   16.51200        2.2859113E-18
   16.67350        2.2877576E-18
   16.83500        2.2911515E-18
   16.99650        2.2956045E-18
   17.15800        2.3003357E-18
   17.31950        2.3044315E-18
   17.48100        2.3070601E-18
   17.64250        2.3076834E-18
   17.80400        2.3061874E-18
   17.96550        2.3028969E-18
   18.12700        2.2984651E-18
   18.28850        2.2936922E-18
   18.45000        2.2893266E-18
   18.61150        2.2859169E-18
   18.77300        2.2837508E-18
   18.93450        2.2828739E-18
   19.09600        2.2831589E-18
   19.25750        2.2843769E-18
   19.41900        2.2862414E-18
   19.58050        2.2884181E-18
   19.74200        2.2905165E-18
   19.90350        2.2920972E-18
   20.06500        2.2927236E-18
   20.22650        2.2920561E-18
   20.38800        2.2899600E-18
   20.54950        2.2865851E-18
   20.71100        2.2823754E-18
   20.87250        2.2779876E-18
   21.03400        2.2741391E-18
   21.19550        2.2714309E-18
   21.35700        2.2702003E-18
   21.51850        2.2704592E-18
   21.68000        2.2719250E-18
   21.84150        2.2741277E-18
   22.00300        2.2765512E-18
   22.16450        2.2787527E-18
   22.32600        2.2804309E-18
   22.48750        2.2814322E-18
   22.64900        2.2817177E-18
   22.81050        2.2813182E-18
   22.97200        2.2803058E-18
   23.13350        2.2787893E-18
   23.29500        2.2769222E-18
   23.45650        2.2749047E-18
   23.61800        2.2729606E-18
   23.77950        2.2712895E-18
   23.94100        2.2700094E-18
   24.10250        2.2691157E-18
   24.26400        2.2684841E-18
   24.42550        2.2679131E-18
   24.58700        2.2672038E-18
   24.74850        2.2662292E-18
   24.91000        2.2649804E-18
   25.07150        2.2635541E-18
   25.23300        2.2621010E-18
   25.39450        2.2607495E-18
   25.55600        2.2595524E-18
   25.71750        2.2584684E-18
   25.87900        2.2573960E-18
   26.04050        2.2562375E-18
   26.20200        2.2549626E-18
   26.36350        2.2536366E-18
   26.52500        2.2524035E-18
   26.68650        2.2514243E-18
   26.84800        2.2508058E-18
   27.00950        2.2505488E-18
   27.17100        2.2505426E-18
   27.33250        2.2506085E-18
   27.49400        2.2505694E-18
   27.65550        2.2503196E-18
   27.81700        2.2498545E-18
   27.97850        2.2492557E-18
   28.14000        2.2486373E-18
   28.30150        2.2480877E-18
   28.46300        2.2476280E-18
   28.62450        2.2472191E-18
   28.78600        2.2468012E-18
   28.94750        2.2463525E-18
   29.10900        2.2459215E-18
   29.27050        2.2456186E-18
   29.43200        2.2455565E-18
   29.59350        2.2457691E-18
   29.75500        2.2461465E-18
   29.91650        2.2464282E-18
   30.07800        2.2462644E-18
   30.23950        2.2453367E-18
   30.40100        2.2434908E-18
   30.56250        2.2408294E-18
   30.72400        2.2377244E-18
   30.88550        2.2347353E-18
   31.04700        2.2324620E-18
   31.20850        2.2313799E-18
   31.37000        2.2317170E-18
   31.53150        2.2334063E-18
   31.69300        2.2361256E-18
   31.85450        2.2393967E-18
   32.01600        2.2426990E-18
   32.17750        2.2455615E-18
   32.33900        2.2476030E-18
   32.50050        2.2485362E-18
   32.66200        2.2481539E-18
   32.82350        2.2463316E-18
   32.98500        2.2430632E-18
   33.14650        2.2385178E-18
   33.30800        2.2330907E-18
   33.46950        2.2274096E-18
   33.63100        2.2222612E-18
   33.79250        2.2184482E-18
   33.95400        2.2165988E-18
   34.11550        2.2169973E-18
   34.27700        2.2194850E-18
   34.43850        2.2234766E-18
   34.60000        2.2280931E-18
   34.76150        2.2323698E-18
   34.92300        2.2354759E-18
   35.08450        2.2368779E-18
   35.24600        2.2364023E-18
   35.40750        2.2341915E-18
   35.56900        2.2305899E-18
   35.73050        2.2260140E-18
   35.89200        2.2208617E-18
   36.05350        2.2154887E-18
   36.21500        2.2102454E-18
   36.37650        2.2055311E-18
   36.53800        2.2018156E-18
   36.69950        2.1995986E-18
   36.86100        2.1992977E-18
   37.02250        2.2011042E-18
   37.18400        2.2048656E-18
   37.34550        2.2100469E-18
   37.50700        2.2158026E-18
   37.66850        2.2211462E-18
   37.83000        2.2251620E-18
   37.99150        2.2271977E-18
   38.15300        2.2269766E-18
   38.31450        2.2246061E-18
   38.47600        2.2204958E-18
   38.63750        2.2152329E-18
   38.79900        2.2094650E-18
   38.96050        2.2038302E-18
   39.12200        2.1989341E-18
   39.28350        2.1953533E-18
   39.44500        2.1936228E-18
   39.60650        2.1941785E-18
   39.76800        2.1972541E-18
   39.92950        2.2027646E-18
   40.09100        2.2102256E-18
   40.25250        2.2187627E-18
   40.41400        2.2272309E-18
   40.57550        2.2344256E-18
   40.73700        2.2393285E-18
   40.89850        2.2413135E-18
   41.06000        2.2402510E-18
   41.22150        2.2364823E-18
   41.38300        2.2306869E-18
   41.54450        2.2236927E-18
   41.70600        2.2163078E-18
   41.86750        2.2092131E-18
   42.02900        2.2029427E-18
   42.19050        2.1979150E-18
   42.35200        2.1944736E-18
   42.51350        2.1928881E-18
   42.67500        2.1932934E-18
   42.83650        2.1955919E-18
   42.99800        2.1993667E-18
   43.15950        2.2038650E-18
   43.32100        2.2080865E-18
   43.48250        2.2109766E-18
   43.64400        2.2116696E-18
   43.80550        2.2097073E-18
   43.96700        2.2051643E-18
   44.12850        2.1986301E-18
   44.29000        2.1910625E-18
   44.45150        2.1835546E-18
   44.61300        2.1770957E-18
   44.77450        2.1723907E-18
   44.93600        2.1697754E-18
   45.09750        2.1692365E-18
   45.25900        2.1704950E-18
   45.42050        2.1731164E-18
   45.58200        2.1765986E-18
   45.74350        2.1804316E-18
   45.90500        2.1841226E-18
   46.06650        2.1872165E-18
   46.22800        2.1893254E-18
   46.38950        2.1901766E-18
   46.55100        2.1896728E-18
   46.71250        2.1879316E-18
   46.87400        2.1852914E-18
   47.03550        2.1822573E-18
   47.19700        2.1794040E-18
   47.35850        2.1772469E-18
   47.52000        2.1761306E-18
   47.68150        2.1761569E-18
   47.84300        2.1771791E-18
   48.00450        2.1788591E-18
   48.16600        2.1807688E-18
   48.32750        2.1824981E-18
   48.48900        2.1837411E-18
   48.65050        2.1843352E-18
   48.81200        2.1842521E-18
   48.97350        2.1835537E-18
   49.13500        2.1823405E-18
   49.29650        2.1807107E-18
   49.45800        2.1787505E-18
   49.61950        2.1765488E-18
   49.78100        2.1742213E-18
   49.94250        2.1719250E-18
   50.10400        2.1698488E-18
   50.26550        2.1681760E-18
   50.42700        2.1670335E-18
   50.58850        2.1664460E-18
   50.75000        2.1663234E-18
   50.91150        2.1664818E-18
   51.07300        2.1667028E-18
   51.23450        2.1668054E-18
   51.39600        2.1667039E-18
   51.55750        2.1664346E-18
   51.71900        2.1661339E-18
   51.88050        2.1659801E-18
   52.04200        2.1661195E-18
   52.20350        2.1666040E-18
   52.36500        2.1673592E-18
   52.52650        2.1681959E-18
   52.68800        2.1688566E-18
   52.84950        2.1690797E-18
   53.01100        2.1686624E-18
   53.17250        2.1674996E-18
   53.33400        2.1655988E-18
   53.49550        2.1630684E-18
   53.65700        2.1600966E-18
   53.81850        2.1569272E-18
   53.98000        2.1538412E-18
   54.14150        2.1511438E-18
   54.30300        2.1491468E-18
   54.46450        2.1481376E-18
   54.62600        2.1483330E-18
   54.78750        2.1498217E-18
   54.94900        2.1525121E-18
   55.11050        2.1561056E-18
   55.27200        2.1601090E-18
   55.43350        2.1638964E-18
   55.59500        2.1668110E-18
   55.75650        2.1682869E-18
   55.91800        2.1679628E-18
   56.07950        2.1657636E-18
   56.24100        2.1619271E-18
   56.40250        2.1569733E-18
   56.56400        2.1516194E-18
   56.72550        2.1466538E-18
   56.88700        2.1427994E-18
   57.04850        2.1405803E-18
   57.21000        2.1402254E-18
   57.37150        2.1416223E-18
   57.53300        2.1443361E-18
   57.69450        2.1476913E-18
   57.85600        2.1509037E-18
   58.01750        2.1532332E-18
   58.17900        2.1541268E-18
   58.34050        2.1533160E-18
   58.50200        2.1508483E-18
   58.66350        2.1470536E-18
   58.82500        2.1424540E-18
   58.98650        2.1376527E-18
   59.14800        2.1332252E-18
   59.30950        2.1296414E-18
   59.47100        2.1272211E-18
   59.63250        2.1261228E-18
   59.79400        2.1263478E-18
   59.95550        2.1277546E-18
   60.11700        2.1300738E-18
   60.27850        2.1329299E-18
   60.44000        2.1358744E-18
   60.60150        2.1384395E-18
   60.76300        2.1402037E-18
   60.92450        2.1408603E-18
   61.08600        2.1402717E-18
   61.24750        2.1384935E-18
   61.40900        2.1357588E-18
   61.57050        2.1324305E-18
   61.73200        2.1289352E-18
   61.89350        2.1256951E-18
   62.05500        2.1230765E-18
   62.21650        2.1213634E-18
   62.37800        2.1207505E-18
   62.53950        2.1213493E-18
   62.70100        2.1231880E-18
   62.86250        2.1262012E-18
   63.02400        2.1302068E-18
   63.18550        2.1348820E-18
   63.34700        2.1397539E-18
   63.50850        2.1442269E-18
   63.67000        2.1476500E-18
   63.83150        2.1494237E-18
   63.99300        2.1491205E-18
   64.15450        2.1465904E-18
   64.31600        2.1420140E-18
   64.47750        2.1358901E-18
   64.63900        2.1289509E-18
   64.80050        2.1220320E-18
   64.96200        2.1159282E-18
   65.12350        2.1112737E-18
   65.28500        2.1084677E-18
   65.44650        2.1076537E-18
   65.60800        2.1087384E-18
   65.76950        2.1114252E-18
   65.93100        2.1152567E-18
   66.09250        2.1196433E-18
   66.25400        2.1239031E-18
   66.41550        2.1273154E-18
   66.57700        2.1292067E-18
   66.73850        2.1290601E-18
   66.90000        2.1266303E-18
   67.06150        2.1220318E-18
   67.22300        2.1157653E-18
   67.38450        2.1086614E-18
   67.54600        2.1017516E-18
   67.70750        2.0960813E-18
   67.86900        2.0925215E-18
   68.03050        2.0916163E-18
   68.19200        2.0935002E-18
   68.35350        2.0979079E-18
   68.51500        2.1042488E-18
   68.67650        2.1117340E-18
   68.83800        2.1195051E-18
   68.99950        2.1267411E-18
   69.16100        2.1327285E-18
   69.32250        2.1368985E-18
   69.48400        2.1388469E-18
   69.64550        2.1383576E-18
   69.80700        2.1354383E-18
   69.96850        2.1303586E-18
   70.13000        2.1236729E-18
   70.29150        2.1161892E-18
   70.45300        2.1088765E-18
   70.61450        2.1027061E-18
   70.77600        2.0984631E-18
   70.93750        2.0965778E-18
   71.09900        2.0970315E-18
   71.26050        2.0993641E-18
   71.42200        2.1027874E-18
   71.58350        2.1063687E-18
   71.74500        2.1092258E-18
   71.90650        2.1106793E-18
   72.06800        2.1103294E-18
   72.22950        2.1080545E-18
   72.39100        2.1039641E-18
   72.55250        2.0983397E-18
   72.71400        2.0916037E-18
   72.87550        2.0843163E-18
   73.03700        2.0771825E-18
   73.19850        2.0710357E-18
   73.36000        2.0667662E-18
   73.52150        2.0651817E-18
   73.68300        2.0668301E-18
   73.84450        2.0718250E-18
   74.00600        2.0797436E-18
   74.16750        2.0896334E-18
   74.32900        2.1001471E-18
   74.49050        2.1097798E-18
   74.65200        2.1171487E-18
   74.81350        2.1212493E-18
   74.97500        2.1216205E-18
   75.13650        2.1183907E-18
   75.29800        2.1122061E-18
   75.45950        2.1040743E-18
   75.62100        2.0951747E-18
   75.78250        2.0866857E-18
   75.94400        2.0796491E-18
   76.10550        2.0748833E-18
   76.26700        2.0729204E-18
   76.42850        2.0739620E-18
   76.59000        2.0778353E-18
   76.75150        2.0839699E-18
   76.91300        2.0914176E-18
   77.07450        2.0989443E-18
   77.23600        2.1052017E-18
   77.39750        2.1089600E-18
   77.55900        2.1093492E-18
   77.72050        2.1060480E-18
   77.88200        2.0993656E-18
   78.04350        2.0901928E-18
   78.20500        2.0798305E-18
   78.36650        2.0697517E-18
   78.52800        2.0613459E-18
   78.68950        2.0557109E-18
   78.85100        2.0535170E-18
   79.01250        2.0549460E-18
   79.17400        2.0596956E-18
   79.33550        2.0670301E-18
   79.49700        2.0758658E-18
   79.65850        2.0848947E-18
   79.82000        2.0927481E-18
   79.98150        2.0981957E-18
   80.14300        2.1003518E-18
   80.30450        2.0988490E-18
   80.46600        2.0939347E-18
   80.62750        2.0864452E-18
   80.78900        2.0776583E-18
   80.95050        2.0690463E-18
   81.11200        2.0619900E-18
   81.27350        2.0575224E-18
   81.43500        2.0561603E-18
   81.59650        2.0578595E-18
   81.75800        2.0620912E-18
   81.91950        2.0680018E-18
   82.08100        2.0746083E-18
   82.24250        2.0809711E-18
   82.40400        2.0863154E-18
   82.56550        2.0900832E-18
   82.72700        2.0919346E-18
   82.88850        2.0917197E-18
   83.05000        2.0894535E-18
   83.21150        2.0853047E-18
   83.37300        2.0796017E-18
   83.53450        2.0728360E-18
   83.69600        2.0656396E-18
   83.85750        2.0587297E-18
   84.01900        2.0528176E-18
   84.18050        2.0485024E-18
   84.34200        2.0461834E-18
   84.50350        2.0460091E-18
   84.66500        2.0478769E-18
   84.82650        2.0514689E-18
   84.98800        2.0563052E-18
   85.14950        2.0617903E-18
   85.31100        2.0672443E-18
   85.47250        2.0719350E-18
   85.63400        2.0751253E-18
   85.79550        2.0761615E-18
   85.95700        2.0746016E-18
   86.11850        2.0703528E-18
   86.28000        2.0637716E-18
   86.44150        2.0556776E-18
   86.60300        2.0472528E-18
   86.76450        2.0398334E-18
   86.92600        2.0346453E-18
   87.08750        2.0325494E-18
   87.24900        2.0338700E-18
   87.41050        2.0383432E-18
   87.57200        2.0451919E-18
   87.73350        2.0532893E-18
   87.89500        2.0613647E-18
   88.05650        2.0681997E-18
   88.21800        2.0727847E-18
   88.37950        2.0744300E-18
   88.54100        2.0728358E-18
   88.70250        2.0681341E-18
   88.86400        2.0608998E-18
   89.02550        2.0521176E-18
   89.18700        2.0430873E-18
   89.34850        2.0352535E-18
   89.51000        2.0299709E-18
   89.67150        2.0282442E-18
   89.83300        2.0304943E-18
   89.99450        2.0364258E-18
   90.15600        2.0450372E-18
   90.31750        2.0547921E-18
   90.47900        2.0639161E-18
   90.64050        2.0707546E-18
   90.80200        2.0740987E-18
   90.96350        2.0733993E-18
   91.12500        2.0688279E-18
   91.28650        2.0611784E-18
   91.44800        2.0516672E-18
   91.60950        2.0416900E-18
   91.77100        2.0326051E-18
   91.93250        2.0255809E-18
   92.09400        2.0215029E-18
   92.25550        2.0209199E-18
   92.41700        2.0239968E-18
   92.57850        2.0304664E-18
   92.74000        2.0395958E-18
   92.90150        2.0502062E-18
   93.06300        2.0607888E-18
   93.22450        2.0697186E-18
   93.38600        2.0755463E-18
   93.54750        2.0772821E-18
   93.70900        2.0746031E-18
   93.87050        2.0679116E-18
   94.03200        2.0582297E-18
   94.19350        2.0469713E-18
   94.35500        2.0356580E-18
   94.51650        2.0256673E-18
   94.67800        2.0180682E-18
   94.83950        2.0135551E-18
   95.00100        2.0124560E-18
   95.16250        2.0147661E-18
   95.32400        2.0201715E-18
   95.48550        2.0280494E-18
   95.64700        2.0374703E-18
   95.80850        2.0472389E-18
   95.97000        2.0560077E-18
   96.13150        2.0624677E-18
   96.29300        2.0655843E-18
   96.45450        2.0648169E-18
   96.61600        2.0602513E-18
   96.77750        2.0526015E-18
   96.93900        2.0430675E-18
   97.10050        2.0330855E-18
   97.26200        2.0240409E-18
   97.42350        2.0170245E-18
   97.58500        2.0126847E-18
   97.74650        2.0112053E-18
   97.90800        2.0123815E-18
   98.06950        2.0157461E-18
   98.23100        2.0206877E-18
   98.39250        2.0265224E-18
   98.55400        2.0325180E-18
   98.71550        2.0378943E-18
   98.87700        2.0418519E-18
   99.03850        2.0436539E-18
   99.20000        2.0427719E-18
   99.36150        2.0390455E-18
   99.52300        2.0328017E-18
   99.68450        2.0248711E-18
   99.84600        2.0164682E-18
   100.0075        2.0089634E-18
   100.1690        2.0036016E-18
   100.3305        2.0012545E-18
   100.4920        2.0022726E-18
   100.6535        2.0064637E-18
   100.8150        2.0131831E-18
   100.9765        2.0214809E-18
   101.1380        2.0302538E-18
   101.2995        2.0383697E-18
   101.4610        2.0447586E-18
   101.6225        2.0484977E-18
   101.7840        2.0489098E-18
   101.9455        2.0456857E-18
   102.1070        2.0390017E-18
   102.2685        2.0295823E-18
   102.4300        2.0186656E-18
   102.5915        2.0078339E-18
   102.7530        1.9987428E-18
   102.9145        1.9927933E-18
   103.0760        1.9908434E-18
   103.2375        1.9930270E-18
   103.3990        1.9987345E-18
   103.5605        2.0067557E-18
   103.7220        2.0155420E-18
   103.8835        2.0235208E-18
   104.0450        2.0293859E-18
   104.2065        2.0323073E-18
   104.3680        2.0320269E-18
   104.5295        2.0288449E-18
   104.6910        2.0235185E-18
   104.8525        2.0171078E-18
   105.0140        2.0108043E-18
   105.1755        2.0057556E-18
   105.3370        2.0029080E-18
   105.4985        2.0028704E-18
   105.6600        2.0058071E-18
   105.8215        2.0113819E-18
   105.9830        2.0187736E-18
   106.1445        2.0267861E-18
   106.3060        2.0340446E-18
   106.4675        2.0392602E-18
   106.6290        2.0414942E-18
   106.7905        2.0403622E-18
   106.9520        2.0361076E-18
   107.1135        2.0295242E-18
   107.2750        2.0217475E-18
   107.4365        2.0139794E-18
   107.5980        2.0072309E-18
   107.7595        2.0021524E-18
   107.9210        1.9989903E-18
   108.0825        1.9976521E-18
   108.2440        1.9978316E-18
   108.4055        1.9991313E-18
   108.5670        2.0011404E-18
   108.7285        2.0034569E-18
   108.8900        2.0056785E-18
   109.0515        2.0073982E-18
   109.2130        2.0082318E-18
   109.3745        2.0078862E-18
   109.5360        2.0062391E-18
   109.6975        2.0033963E-18
   109.8590        1.9996938E-18
   110.0205        1.9956386E-18
   110.1820        1.9918009E-18
   110.3435        1.9887014E-18
   110.5050        1.9867245E-18
   110.6665        1.9860786E-18
   110.8280        1.9868061E-18
   110.9895        1.9888139E-18
   111.1510        1.9919055E-18
   111.3125        1.9957914E-18
   111.4740        2.0000793E-18
   111.6355        2.0042642E-18
   111.7970        2.0077413E-18
   111.9585        2.0098661E-18
   112.1200        2.0100638E-18
   112.2815        2.0079660E-18
   112.4430        2.0035408E-18
   112.6045        1.9971695E-18
   112.7660        1.9896355E-18
   112.9275        1.9820224E-18
   113.0890        1.9755329E-18
   113.2505        1.9712760E-18
   113.4120        1.9700712E-18
   113.5735        1.9723144E-18
   113.7350        1.9779173E-18
   113.8965        1.9863268E-18
   114.0580        1.9965900E-18
   114.2195        2.0074520E-18
   114.3810        2.0174687E-18
   114.5425        2.0251516E-18
   114.7040        2.0291448E-18
   114.8655        2.0284435E-18
   115.0270        2.0226282E-18
   115.1885        2.0120513E-18
   115.3500        1.9979063E-18
   115.5115        1.9821222E-18
   115.6730        1.9670682E-18
   115.8345        1.9551146E-18
   115.9960        1.9481578E-18
   116.1575        1.9472309E-18
   116.3190        1.9523086E-18
   116.4805        1.9623477E-18
   116.6420        1.9755385E-18