  -30.00000        7.3256259E-20
  -29.83850        8.4628680E-20
  -29.67700        1.0512650E-19
  -29.51550        1.3098803E-19
  -29.35400        1.5775288E-19
  -29.19250        1.8122310E-19
  -29.03100        1.9836475E-19
  -28.86950        2.0793304E-19
  -28.70800        2.1068613E-19
  -28.54650        2.0913583E-19
  -28.38500        2.0690686E-19
  -28.22350        2.0785044E-19
  -28.06200        2.1513148E-19
  -27.90050        2.3047666E-19
  -27.73900        2.5375944E-19
  -27.57750        2.8299800E-19
  -27.41600        3.1477438E-19
  -27.25450        3.4498410E-19
  -27.09300        3.6975976E-19
  -26.93150        3.8636053E-19
  -26.77000        3.9381668E-19
  -26.60850        3.9316812E-19
  -26.44700        3.8723015E-19
  -26.28550        3.7994548E-19
  -26.12400        3.7548008E-19
  -25.96250        3.7728605E-19
  -25.80100        3.8735234E-19
  -25.63950        4.0579431E-19
  -25.47800        4.3086292E-19
  -25.31650        4.5934203E-19
  -25.15500        4.8725384E-19
  -24.99350        5.1072437E-19
  -24.83200        5.2683480E-19
  -24.67050        5.3427735E-19
  -24.50900        5.3366333E-19
  -24.34750        5.2738797E-19
  -24.18600        5.1906752E-19
  -24.02450        5.1268391E-19
  -23.86300        5.1164218E-19
  -23.70150        5.1798944E-19
  -23.54000        5.3198275E-19
  -23.37850        5.5208846E-19
  -23.21700        5.7538683E-19
  -23.05550        5.9825890E-19
  -22.89400        6.1719218E-19
  -22.73250        6.2954473E-19
  -22.57100        6.3411748E-19
  -22.40950        6.3143023E-19
  -22.24800        6.2362940E-19
  -22.08650        6.1402646E-19
  -21.92500        6.0634676E-19
  -21.76350        6.0385400E-19
  -21.60200        6.0856779E-19
  -21.44050        6.2078731E-19
  -21.27900        6.3904407E-19
  -21.11750        6.6048749E-19
  -20.95600        6.8158881E-19
  -20.79450        6.9895929E-19
  -20.63300        7.1009464E-19
  -20.47150        7.1389094E-19
  -20.31000        7.1084531E-19
  -20.14850        7.0293183E-19
  -19.98700        6.9317286E-19
  -19.82550        6.8499075E-19
  -19.66400        6.8145078E-19
  -19.50250        6.8456051E-19
  -19.34100        6.9479702E-19
  -19.17950        7.1099565E-19
  -19.01800        7.3064548E-19
  -18.85650        7.5051550E-19
  -18.69500        7.6744080E-19
  -18.53350        7.7905586E-19
  -18.37200        7.8429492E-19
  -18.21050        7.8355537E-19
  -18.04900        7.7852730E-19
  -17.88750        7.7176163E-19
  -17.72600        7.6607683E-19
  -17.56450        7.6393299E-19
  -17.40300        7.6688245E-19
  -17.24150        7.7521470E-19
  -17.08000        7.8787769E-19
  -16.91850        8.0271814E-19
  -16.75700        8.1700179E-19
  -16.59550        8.2808534E-19
  -16.43400        8.3406761E-19
  -16.27250        8.3424324E-19
  -16.11100        8.2924355E-19
  -15.94950        8.2084761E-19
  -15.78800        8.1153480E-19
  -15.62650        8.0391295E-19
  -15.46500        8.0014995E-19
  -15.30350        8.0152871E-19
  -15.14200        8.0820240E-19
  -14.98050        8.1918519E-19
  -14.81900        8.3259632E-19
  -14.65750        8.4609777E-19
  -14.49600        8.5744839E-19
  -14.33450        8.6503503E-19
  -14.17300        8.6823927E-19
  -14.01150        8.6754361E-19
  -13.85000        8.6435375E-19
  -13.68850        8.6059612E-19
  -13.52700        8.5821198E-19
  -13.36550        8.5868720E-19
  -13.20400        8.6272327E-19
  -13.04250        8.7010777E-19
  -12.88100        8.7979478E-19
  -12.71950        8.9016731E-19
  -12.55800        8.9943050E-19
  -12.39650        9.0604960E-19
  -12.23500        9.0914377E-19
  -12.07350        9.0872521E-19
  -11.91200        9.0570776E-19
  -11.75050        9.0167888E-19
  -11.58900        8.9848317E-19
  -11.42750        8.9774419E-19
  -11.26600        9.0046923E-19
  -11.10450        9.0682735E-19
  -10.94300        9.1615092E-19
  -10.78150        9.2712926E-19
  -10.62000        9.3812663E-19
  -10.45850        9.4754739E-19
  -10.29700        9.5418127E-19
  -10.13550        9.5746776E-19
  -9.974000        9.5762214E-19
  -9.812500        9.5559203E-19
  -9.651000        9.5281570E-19
  -9.489500        9.5083967E-19
  -9.328000        9.5089571E-19
  -9.166500        9.5355933E-19
  -9.005000        9.5861475E-19
  -8.843500        9.6515827E-19
  -8.682000        9.7190424E-19
  -8.520500        9.7757518E-19
  -8.359000        9.8126110E-19
  -8.197500        9.8264528E-19
  -8.036000        9.8207204E-19
  -7.874500        9.8046597E-19
  -7.713000        9.7912924E-19
  -7.551500        9.7946084E-19
  -7.390000        9.8262998E-19
  -7.228500        9.8925662E-19
  -7.067000        9.9918641E-19
  -6.905500        1.0114407E-18
  -6.744000        1.0243983E-18
  -6.582500        1.0361837E-18
  -6.421000        1.0451597E-18
  -6.259500        1.0503665E-18
  -6.098000        1.0517664E-18
  -5.936500        1.0502238E-18
  -5.775000        1.0472449E-18
  -5.613500        1.0445771E-18
  -5.452000        1.0437859E-18
  -5.290500        1.0459070E-18
  -5.129000        1.0512299E-18
  -4.967500        1.0592276E-18
  -4.806000        1.0686487E-18
  -4.644500        1.0777707E-18
  -4.483000        1.0847960E-18
  -4.321500        1.0883261E-18
  -4.160000        1.0877959E-18
  -3.998500        1.0837221E-18
  -3.837000        1.0776673E-18
  -3.675500        1.0718909E-18
  -3.514000        1.0687851E-18
  -3.352500        1.0702600E-18
  -3.191000        1.0772607E-18
  -3.029500        1.0895384E-18
  -2.868000        1.1057097E-18
  -2.706500        1.1235613E-18
  -2.545000        1.1405116E-18
  -2.383500        1.1541347E-18
  -2.222000        1.1626585E-18
  -2.060500        1.1653620E-18
  -1.899000        1.1627790E-18
  -1.737500        1.1566363E-18
  -1.576000        1.1494983E-18
  -1.414500        1.1441657E-18
  -1.253000        1.1429710E-18
  -1.091500        1.1471648E-18
 -0.9300000        1.1565758E-18
 -0.7685000        1.1696481E-18
 -0.6070000        1.1838339E-18
 -0.4455000        1.1962264E-18
 -0.2840000        1.2042534E-18
 -0.1225000        1.2062730E-18
  3.9000001E-02    1.2019510E-18
  0.2005000        1.1923626E-18
  0.3620000        1.1798033E-18
  0.5235000        1.1673385E-18
  0.6850000        1.1581581E-18
  0.8465000        1.1548512E-18
   1.008000        1.1587672E-18
   1.169500        1.1696309E-18
   1.331000        1.1855407E-18
   1.492500        1.2033793E-18
   1.654000        1.2195422E-18
   1.815500        1.2307987E-18
   1.977000        1.2350608E-18
   2.138500        1.2318699E-18
   2.300000        1.2225044E-18
   2.461500        1.2096977E-18
   2.623000        1.1970480E-18
   2.784500        1.1882405E-18
   2.946000        1.1862411E-18
   3.107500        1.1926166E-18
   3.269000        1.2071363E-18
   3.430500        1.2277630E-18
   3.592000        1.2510630E-18
   3.753500        1.2729659E-18
   3.915000        1.2897003E-18
   4.076500        1.2986767E-18
   4.238000        1.2990924E-18
   4.399500        1.2921099E-18
   4.561000        1.2805757E-18
   4.722500        1.2683556E-18
   4.884000        1.2594517E-18
   5.045500        1.2570893E-18
   5.207000        1.2629818E-18
   5.368500        1.2769111E-18
   5.530000        1.2967370E-18
   5.691500        1.3188418E-18
   5.853000        1.3389346E-18
   6.014500        1.3530397E-18
   6.176000        1.3584423E-18
   6.337500        1.3543553E-18
   6.499000        1.3421359E-18
   6.660500        1.3249978E-18
   6.822000        1.3072954E-18
   6.983500        1.2935517E-18
   7.145000        1.2874538E-18
   7.306500        1.2910368E-18
   7.468000        1.3042233E-18
   7.629500        1.3248158E-18
   7.791000        1.3489534E-18
   7.952500        1.3719477E-18
   8.114000        1.3893313E-18
   8.275500        1.3978831E-18
   8.437000        1.3963841E-18
   8.598500        1.3859099E-18
   8.760000        1.3695797E-18
   8.921500        1.3518205E-18
   9.083000        1.3373386E-18
   9.244500        1.3300443E-18
   9.406000        1.3321839E-18
   9.567500        1.3438557E-18
   9.729000        1.3630011E-18
   9.890500        1.3858584E-18
   10.05200        1.4077875E-18
   10.21350        1.4243035E-18
   10.37500        1.4321033E-18
   10.53650        1.4298558E-18
   10.69800        1.4185591E-18
   10.85950        1.4013428E-18
   11.02100        1.3827574E-18
   11.18250        1.3677100E-18
   11.34400        1.3603203E-18
   11.50550        1.3629829E-18
   11.66700        1.3758527E-18
   11.82850        1.3968491E-18
   11.99000        1.4221509E-18
   12.15150        1.4470405E-18
   12.31300        1.4669210E-18
   12.47450        1.4782991E-18
   12.63600        1.4795467E-18
   12.79750        1.4712735E-18
   12.95900        1.4562149E-18
   13.12050        1.4386252E-18
   13.28200        1.4232989E-18
   13.44350        1.4144436E-18
   13.60500        1.4146957E-18
   13.76650        1.4245268E-18
   13.92800        1.4421884E-18
   14.08950        1.4641821E-18
   14.25100        1.4861094E-18
   14.41250        1.5036797E-18
   14.57400        1.5136495E-18
   14.73550        1.5145025E-18
   14.89700        1.5067652E-18
   15.05850        1.4928907E-18
   15.22000        1.4767356E-18
   15.38150        1.4627113E-18
   15.54300        1.4547776E-18
   15.70450        1.4555044E-18
   15.86600        1.4654471E-18
   16.02750        1.4830049E-18
   16.18900        1.5048120E-18
   16.35050        1.5265554E-18
   16.51200        1.5439942E-18
   16.67350        1.5539199E-18
   16.83500        1.5548343E-18
   16.99650        1.5472197E-18
   17.15800        1.5333835E-18
   17.31950        1.5169350E-18
   17.48100        1.5020124E-18
   17.64250        1.4924026E-18
   17.80400        1.4907229E-18
   17.96550        1.4978431E-18
   18.12700        1.5126901E-18
   18.28850        1.5325110E-18
   18.45000        1.5535469E-18
   18.61150        1.5719457E-18
   18.77300        1.5846709E-18
   18.93450        1.5901695E-18
   19.09600        1.5886421E-18
   19.25750        1.5818842E-18
   19.41900        1.5727784E-18
   19.58050        1.5645904E-18
   19.74200        1.5602299E-18
   19.90350        1.5616214E-18
   20.06500        1.5692934E-18
   20.22650        1.5822622E-18
   20.38800        1.5982500E-18
   20.54950        1.6142027E-18
   20.71100        1.6270071E-18
   20.87250        1.6342361E-18
   21.03400        1.6347227E-18
   21.19550        1.6288090E-18
   21.35700        1.6182112E-18
   21.51850        1.6055623E-18
   21.68000        1.5937735E-18
   21.84150        1.5853895E-18
   22.00300        1.5820856E-18
   22.16450        1.5843867E-18
   22.32600        1.5916367E-18
   22.48750        1.6022016E-18
   22.64900        1.6138635E-18
   22.81050        1.6243334E-18
   22.97200        1.6317792E-18
   23.13350        1.6352478E-18
   23.29500        1.6348649E-18
   23.45650        1.6317538E-18
   23.61800        1.6276916E-18
   23.77950        1.6246117E-18
   23.94100        1.6241006E-18
   24.10250        1.6270250E-18
   24.26400        1.6333748E-18
   24.42550        1.6423248E-18
   24.58700        1.6524735E-18
   24.74850        1.6621840E-18
   24.91000        1.6699536E-18
   25.07150        1.6747492E-18
   25.23300        1.6762406E-18
   25.39450        1.6748763E-18
   25.55600        1.6717696E-18
   25.71750        1.6684100E-18
   25.87900        1.6662707E-18
   26.04050        1.6664326E-18
   26.20200        1.6693327E-18
   26.36350        1.6747156E-18
   26.52500        1.6817838E-18
   26.68650        1.6894739E-18
   26.84800        1.6967711E-18
   27.00950        1.7029659E-18
   27.17100        1.7078032E-18
   27.33250        1.7115065E-18
   27.49400        1.7146821E-18
   27.65550        1.7181281E-18
   27.81700        1.7225764E-18
   27.97850        1.7284319E-18
   28.14000        1.7355852E-18
   28.30150        1.7433694E-18
   28.46300        1.7507030E-18
   28.62450        1.7563927E-18
   28.78600        1.7594961E-18
   28.94750        1.7596260E-18
   29.10900        1.7570919E-18
   29.27050        1.7528303E-18
   29.43200        1.7481612E-18
   29.59350        1.7444472E-18
   29.75500        1.7427513E-18
   29.91650        1.7435729E-18
   30.07800        1.7467083E-18
   30.23950        1.7512675E-18
   30.40100        1.7558579E-18
   30.56250        1.7589121E-18
   30.72400        1.7591129E-18
   30.88550        1.7558083E-18
   31.04700        1.7492858E-18
   31.20850        1.7408051E-18
   31.37000        1.7323461E-18
   31.53150        1.7261289E-18
   31.69300        1.7240440E-18
   31.85450        1.7271609E-18
   32.01600        1.7354456E-18
   32.17750        1.7477561E-18
   32.33900        1.7620930E-18
   32.50050        1.7760387E-18
   32.66200        1.7872900E-18
   32.82350        1.7941823E-18
   32.98500        1.7961057E-18
   33.14650        1.7937157E-18
   33.30800        1.7888606E-18
   33.46950        1.7842007E-18
   33.63100        1.7825802E-18
   33.79250        1.7862969E-18
   33.95400        1.7964684E-18
   34.11550        1.8126815E-18
   34.27700        1.8330295E-18
   34.43850        1.8545284E-18
   34.60000        1.8737874E-18
   34.76150        1.8877703E-18
   34.92300        1.8944609E-18
   35.08450        1.8933064E-18
   35.24600        1.8853586E-18
   35.40750        1.8730845E-18
   35.56900        1.8598730E-18
   35.73050        1.8493138E-18
   35.89200        1.8443809E-18
   36.05350        1.8467105E-18
   36.21500        1.8561592E-18
   36.37650        1.8707833E-18
   36.53800        1.8872715E-18
   36.69950        1.9017314E-18
   36.86100        1.9106292E-18
   37.02250        1.9116417E-18
   37.18400        1.9042155E-18
   37.34550        1.8897150E-18
   37.50700        1.8711456E-18
   37.66850        1.8525243E-18
   37.83000        1.8380261E-18
   37.99150        1.8310764E-18
   38.15300        1.8335685E-18
   38.31450        1.8453754E-18
   38.47600        1.8642930E-18
   38.63750        1.8864586E-18
   38.79900        1.9071840E-18
   38.96050        1.9220207E-18
   39.12200        1.9278029E-18
   39.28350        1.9234007E-18
   39.44500        1.9099956E-18
   39.60650        1.8908211E-18
   39.76800        1.8704303E-18
   39.92950        1.8536756E-18
   40.09100        1.8446339E-18
   40.25250        1.8457053E-18
   40.41400        1.8570744E-18
   40.57550        1.8766511E-18
   40.73700        1.9005145E-18
   40.89850        1.9237779E-18
   41.06000        1.9417037E-18
   41.22150        1.9508124E-18
   41.38300        1.9497253E-18
   41.54450        1.9395185E-18
   41.70600        1.9234908E-18
   41.86750        1.9063972E-18
   42.02900        1.8933256E-18
   42.19050        1.8884957E-18
   42.35200        1.8942637E-18
   42.51350        1.9105593E-18
   42.67500        1.9348801E-18
   42.83650        1.9628345E-18
   42.99800        1.9891152E-18
   43.15950        2.0086882E-18
   43.32100        2.0179301E-18
   43.48250        2.0154644E-18
   43.64400        2.0024922E-18
   43.80550        1.9825385E-18
   43.96700        1.9606586E-18
   44.12850        1.9422916E-18
   44.29000        1.9320298E-18
   44.45150        1.9325896E-18
   44.61300        1.9442254E-18
   44.77450        1.9647128E-18
   44.93600        1.9898963E-18
   45.09750        2.0146588E-18
   45.25900        2.0340963E-18
   45.42050        2.0446232E-18
   45.58200        2.0447621E-18
   45.74350        2.0354446E-18
   45.90500        2.0197548E-18
   46.06650        2.0021805E-18
   46.22800        1.9875506E-18
   46.38950        1.9799075E-18
   46.55100        1.9815788E-18
   46.71250        1.9926626E-18
   46.87400        2.0110272E-18
   47.03550        2.0328203E-18
   47.19700        2.0533582E-18
   47.35850        2.0681854E-18
   47.52000        2.0740780E-18
   47.68150        2.0697620E-18
   47.84300        2.0561983E-18
   48.00450        2.0363658E-18
   48.16600        2.0145926E-18
   48.32750        1.9955854E-18
   48.48900        1.9833773E-18
   48.65050        1.9804489E-18
   48.81200        1.9872170E-18
   48.97350        2.0020085E-18
   49.13500        2.0215095E-18
   49.29650        2.0415636E-18
   49.45800        2.0581292E-18
   49.61950        2.0681726E-18
   49.78100        2.0703117E-18
   49.94250        2.0650740E-18
   50.10400        2.0547315E-18
   50.26550        2.0427449E-18
   50.42700        2.0329409E-18
   50.58850        2.0286077E-18
   50.75000        2.0317103E-18
   50.91150        2.0424276E-18
   51.07300        2.0591224E-18
   51.23450        2.0787555E-18
   51.39600        2.0976382E-18
   51.55750        2.1123207E-18
   51.71900        2.1203894E-18
   51.88050        2.1209821E-18
   52.04200        2.1149104E-18
   52.20350        2.1043934E-18
   52.36500        2.0924903E-18
   52.52650        2.0823740E-18
   52.68800        2.0766121E-18
   52.84950        2.0766084E-18
   53.01100        2.0823207E-18
   53.17250        2.0923168E-18
   53.33400        2.1041605E-18
   53.49550        2.1150429E-18
   53.65700        2.1224971E-18
   53.81850        2.1250152E-18
   53.98000        2.1223953E-18
   54.14150        2.1157332E-18
   54.30300        2.1070701E-18
   54.46450        2.0988211E-18
   54.62600        2.0931470E-18
   54.78750        2.0914542E-18
   54.94900        2.0941225E-18
   55.11050        2.1005056E-18
   55.27200        2.1091704E-18
   55.43350        2.1182921E-18
   55.59500        2.1261129E-18
   55.75650        2.1313669E-18
   55.91800        2.1335819E-18
   56.07950        2.1331871E-18
   56.24100        2.1313907E-18
   56.40250        2.1298410E-18
   56.56400        2.1301514E-18
   56.72550        2.1334247E-18
   56.88700        2.1399183E-18
   57.04850        2.1489668E-18
   57.21000        2.1591753E-18
   57.37150        2.1688235E-18
   57.53300        2.1763428E-18
   57.69450        2.1807258E-18
   57.85600        2.1817571E-18
   58.01750        2.1800314E-18
   58.17900        2.1767742E-18
   58.34050        2.1735285E-18
   58.50200        2.1717766E-18
   58.66350        2.1725750E-18
   58.82500        2.1762696E-18
   58.98650        2.1823676E-18
   59.14800        2.1896213E-18
   59.30950        2.1963380E-18
   59.47100        2.2008517E-18
   59.63250        2.2020433E-18
   59.79400        2.1997317E-18
   59.95550        2.1948042E-18
   60.11700        2.1890297E-18
   60.27850        2.1845979E-18
   60.44000        2.1835254E-18
   60.60150        2.1871055E-18
   60.76300        2.1955398E-18
   60.92450        2.2078418E-18
   61.08600        2.2220197E-18
   61.24750        2.2354885E-18
   61.40900        2.2456285E-18
   61.57050        2.2503875E-18
   61.73200        2.2488022E-18
   61.89350        2.2413069E-18
   62.05500        2.2297243E-18
   62.21650        2.2168972E-18
   62.37800        2.2060185E-18
   62.53950        2.1998180E-18
   62.70100        2.1998409E-18
   62.86250        2.2060222E-18
   63.02400        2.2166929E-18
   63.18550        2.2290032E-18
   63.34700        2.2396529E-18
   63.50850        2.2457217E-18
   63.67000        2.2454022E-18
   63.83150        2.2384653E-18
   63.99300        2.2263690E-18
   64.15450        2.2119792E-18
   64.31600        2.1989490E-18
   64.47750        2.1908784E-18
   64.63900        2.1904272E-18
   64.80050        2.1986076E-18
   64.96200        2.2144452E-18
   65.12350        2.2351338E-18
   65.28500        2.2566591E-18
   65.44650        2.2747485E-18
   65.60800        2.2858934E-18
   65.76950        2.2881842E-18
   65.93100        2.2817577E-18
   66.09250        2.2687567E-18
   66.25400        2.2528359E-18
   66.41550        2.2383296E-18
   66.57700        2.2292656E-18
   66.73850        2.2284376E-18
   66.90000        2.2367386E-18
   67.06150        2.2529224E-18
   67.22300        2.2738688E-18
   67.38450        2.2953125E-18
   67.54600        2.3128708E-18
   67.70750        2.3231163E-18
   67.86900        2.3244162E-18
   68.03050        2.3173279E-18
   68.19200        2.3044629E-18
   68.35350        2.2898593E-18
   68.51500        2.2780335E-18
   68.67650        2.2729234E-18
   68.83800        2.2769590E-18
   68.99950        2.2904517E-18
   69.16100        2.3114534E-18
   69.32250        2.3361262E-18
   69.48400        2.3595753E-18
   69.64550        2.3769707E-18
   69.80700        2.3846891E-18
   69.96850        2.3811918E-18
   70.13000        2.3674019E-18
   70.29150        2.3464876E-18
   70.45300        2.3231163E-18
   70.61450        2.3023793E-18
   70.77600        2.2886617E-18
   70.93750        2.2846987E-18
   71.09900        2.2910144E-18
   71.26050        2.3058375E-18
   71.42200        2.3255072E-18
   71.58350        2.3452990E-18
   71.74500        2.3605100E-18
   71.90650        2.3675799E-18
   72.06800        2.3649704E-18
   72.22950        2.3535621E-18
   72.39100        2.3364459E-18
   72.55250        2.3181408E-18
   72.71400        2.3034596E-18
   72.87550        2.2963274E-18
   73.03700        2.2988629E-18
   73.19850        2.3109243E-18
   73.36000        2.3301878E-18
   73.52150        2.3526989E-18
   73.68300        2.3737480E-18
   73.84450        2.3889030E-18
   74.00600        2.3949981E-18
   74.16750        2.3908928E-18
   74.32900        2.3778101E-18
   74.49050        2.3591317E-18
   74.65200        2.3396504E-18
   74.81350        2.3244274E-18
   74.97500        2.3175560E-18
   75.13650        2.3211596E-18
   75.29800        2.3349127E-18
   75.45950        2.3561789E-18
   75.62100        2.3806967E-18
   75.78250        2.4035941E-18
   75.94400        2.4204682E-18
   76.10550        2.4283088E-18
   76.26700        2.4261021E-18
   76.42850        2.4150272E-18
   76.59000        2.3982063E-18
   76.75150        2.3800265E-18
   76.91300        2.3651350E-18
   77.07450        2.3573152E-18
   77.23600        2.3585299E-18
   77.39750        2.3684119E-18
   77.55900        2.3843717E-18
   77.72050        2.4023056E-18
   77.88200        2.4176930E-18
   78.04350        2.4267523E-18
   78.20500        2.4273458E-18
   78.36650        2.4194282E-18
   78.52800        2.4049821E-18
   78.68950        2.3875156E-18
   78.85100        2.3712603E-18
   79.01250        2.3602313E-18
   79.17400        2.3573148E-18
   79.33550        2.3635710E-18
   79.49700        2.3779232E-18
   79.65850        2.3973578E-18
   79.82000        2.4176399E-18
   79.98150        2.4343845E-18
   80.14300        2.4441928E-18
   80.30450        2.4455142E-18
   80.46600        2.4389906E-18
   80.62750        2.4272054E-18
   80.78900        2.4139471E-18
   80.95050        2.4032362E-18
   81.11200        2.3983688E-18
   81.27350        2.4011953E-18
   81.43500        2.4117472E-18
   81.59650        2.4282623E-18
   81.75800        2.4475927E-18
   81.91950        2.4659362E-18
   82.08100        2.4797533E-18
   82.24250        2.4866631E-18
   82.40400        2.4860783E-18
   82.56550        2.4793682E-18
   82.72700        2.4694762E-18
   82.88850        2.4600951E-18
   83.05000        2.4546512E-18
   83.21150        2.4553986E-18
   83.37300        2.4628815E-18
   83.53450        2.4758661E-18
   83.69600        2.4917116E-18
   83.85750        2.5070413E-18
   84.01900        2.5185427E-18
   84.18050        2.5237349E-18
   84.34200        2.5215540E-18
   84.50350        2.5126308E-18
   84.66500        2.4991775E-18
   84.82650        2.4844657E-18
   84.98800        2.4719989E-18
   85.14950        2.4645896E-18
   85.31100        2.4636199E-18
   85.47250        2.4687032E-18
   85.63400        2.4778549E-18
   85.79550        2.4880931E-18
   85.95700        2.4962671E-18
   86.11850        2.4998701E-18
   86.28000        2.4976351E-18
   86.44150        2.4898095E-18
   86.60300        2.4780809E-18
   86.76450        2.4651957E-18
   86.92600        2.4543379E-18
   87.08750        2.4483727E-18
   87.24900        2.4491124E-18
   87.41050        2.4567926E-18
   87.57200        2.4699332E-18
   87.73350        2.4856666E-18
   87.89500        2.5004669E-18
   88.05650        2.5110740E-18
   88.21800        2.5153392E-18
   88.37950        2.5127470E-18
   88.54100        2.5044988E-18
   88.70250        2.4931768E-18
   88.86400        2.4821147E-18
   89.02550        2.4746345E-18
   89.18700        2.4732973E-18
   89.34850        2.4793049E-18
   89.51000        2.4921591E-18
   89.67150        2.5096848E-18
   89.83300        2.5284705E-18
   89.99450        2.5446725E-18
   90.15600        2.5550033E-18
   90.31750        2.5576261E-18
   90.47900        2.5526713E-18
   90.64050        2.5422089E-18
   90.80200        2.5296804E-18
   90.96350        2.5189819E-18
   91.12500        2.5134654E-18
   91.28650        2.5151256E-18
   91.44800        2.5241346E-18
   91.60950        2.5387966E-18
   91.77100        2.5558963E-18
   91.93250        2.5713873E-18
   92.09400        2.5813062E-18
   92.25550        2.5827482E-18
   92.41700        2.5746760E-18
   92.57850        2.5583234E-18
   92.74000        2.5370256E-18
   92.90150        2.5154618E-18
   93.06300        2.4985071E-18
   93.22450        2.4900190E-18
   93.38600        2.4919101E-18
   93.54750        2.5037523E-18
   93.70900        2.5229666E-18
   93.87050        2.5454982E-18
   94.03200        2.5667654E-18
   94.19350        2.5826678E-18
   94.35500        2.5904726E-18
   94.51650        2.5894229E-18
   94.67800        2.5809421E-18
   94.83950        2.5683542E-18
   95.00100        2.5561136E-18
   95.16250        2.5486891E-18
   95.32400        2.5493731E-18
   95.48550        2.5593690E-18
   95.64700        2.5774288E-18
   95.80850        2.6001668E-18
   95.97000        2.6229364E-18
   96.13150        2.6410001E-18
   96.29300        2.6506626E-18
   96.45450        2.6501024E-18
   96.61600        2.6397530E-18
   96.77750        2.6222033E-18
   96.93900        2.6016551E-18
   97.10050        2.5830357E-18
   97.26200        2.5709026E-18
   97.42350        2.5683542E-18
   97.58500        2.5762114E-18
   97.74650        2.5927259E-18
   97.90800        2.6139550E-18
   98.06950        2.6347446E-18
   98.23100        2.6500549E-18
   98.39250        2.6562453E-18
   98.55400        2.6519566E-18
   98.71550        2.6383728E-18
   98.87700        2.6188499E-18
   99.03850        2.5980695E-18
   99.20000        2.5809462E-18
   99.36150        2.5715275E-18
   99.52300        2.5720883E-18
   99.68450        2.5825873E-18
   99.84600        2.6006118E-18
   100.0075        2.6218757E-18
   100.1690        2.6412166E-18
   100.3305        2.6538752E-18
   100.4920        2.6567286E-18
   100.6535        2.6491090E-18
   100.8150        2.6329614E-18
   100.9765        2.6123001E-18
   101.1380        2.5921437E-18
   101.2995        2.5772599E-18
   101.4610        2.5710537E-18
   101.6225        2.5748482E-18
   101.7840        2.5876573E-18
   101.9455        2.6064556E-18
   102.1070        2.6268543E-18
   102.2685        2.6440717E-18
   102.4300        2.6540270E-18
   102.5915        2.6543320E-18
   102.7530        2.6449309E-18
   102.9145        2.6281764E-18
   103.0760        2.6082779E-18
   103.2375        2.5902433E-18
   103.3990        2.5786127E-18
   103.5605        2.5763510E-18
   103.7220        2.5841921E-18
   103.8835        2.6005727E-18
   104.0450        2.6221036E-18
   104.2065        2.6444054E-18
   104.3680        2.6630983E-18
   104.5295        2.6747534E-18
   104.6910        2.6776449E-18
   104.8525        2.6721697E-18
   105.0140        2.6608165E-18
   105.1755        2.6476403E-18
   105.3370        2.6373008E-18
   105.4985        2.6338816E-18
   105.6600        2.6398042E-18
   105.8215        2.6551594E-18
   105.9830        2.6776558E-18
   106.1445        2.7031925E-18
   106.3060        2.7268662E-18
   106.4675        2.7441289E-18
   106.6290        2.7518012E-18
   106.7905        2.7487476E-18
   106.9520        2.7361065E-18
   107.1135        2.7170542E-18
   107.2750        2.6961456E-18
   107.4365        2.6783242E-18
   107.5980        2.6677772E-18
   107.7595        2.6668956E-18
   107.9210        2.6756243E-18
   108.0825        2.6914259E-18
   108.2440        2.7099125E-18
   108.4055        2.7259851E-18
   108.5670        2.7351585E-18
   108.7285        2.7346936E-18
   108.8900        2.7242474E-18
   109.0515        2.7059071E-18
   109.2130        2.6836667E-18
   109.3745        2.6624969E-18
   109.5360        2.6472261E-18
   109.6975        2.6414472E-18
   109.8590        2.6466622E-18
   110.0205        2.6618567E-18
   110.1820        2.6836483E-18
   110.3435        2.7070377E-18
   110.5050        2.7266228E-18
   110.6665        2.7379699E-18
   110.8280        2.7387576E-18
   110.9895        2.7293610E-18
   111.1510        2.7127132E-18
   111.3125        2.6935174E-18
   111.4740        2.6770592E-18
   111.6355        2.6679460E-18
   111.7970        2.6690666E-18
   111.9585        2.6809678E-18
   112.1200        2.7017338E-18
   112.2815        2.7273888E-18
   112.4430        2.7527508E-18
   112.6045        2.7726068E-18
   112.7660        2.7829584E-18
   112.9275        2.7820334E-18
   113.0890        2.7707651E-18
   113.2505        2.7525669E-18
   113.4120        2.7324423E-18
   113.5735        2.7156896E-18
   113.7350        2.7065740E-18
   113.8965        2.7073388E-18
   114.0580        2.7177693E-18
   114.2195        2.7353585E-18
   114.3810        2.7559609E-18
   114.5425        2.7747567E-18
   114.7040        2.7873311E-18
   114.8655        2.7906741E-18
   115.0270        2.7839165E-18
   115.1885        2.7686118E-18
   115.3500        2.7484455E-18
   115.5115        2.7283756E-18
   115.6730        2.7133954E-18
   115.8345        2.7072534E-18
   115.9960        2.7115059E-18
   116.1575        2.7251751E-18
   116.3190        2.7450812E-18
   116.4805        2.7667010E-18
   116.6420        2.7852720E-18