  -30.00000        8.5165730E-18
  -29.83850        8.5017747E-18
  -29.67700        8.4750353E-18
  -29.51550        8.4411730E-18
  -29.35400        8.4059938E-18
  -29.19250        8.3750606E-18
  -29.03100        8.3524794E-18
  -28.86950        8.3399873E-18
  -28.70800        8.3365984E-18
  -28.54650        8.3389227E-18
  -28.38500        8.3420718E-18
  -28.22350        8.3409080E-18
  -28.06200        8.3313027E-18
  -27.90050        8.3110956E-18
  -27.73900        8.2805651E-18
  -27.57750        8.2423444E-18
  -27.41600        8.2008555E-18
  -27.25450        8.1613734E-18
  -27.09300        8.1288974E-18
  -26.93150        8.1070450E-18
  -26.77000        8.0971883E-18
  -26.60850        8.0980742E-18
  -26.44700        8.1060482E-18
  -26.28550        8.1158801E-18
  -26.12400        8.1219855E-18
  -25.96250        8.1197455E-18
  -25.80100        8.1065462E-18
  -25.63950        8.0823206E-18
  -25.47800        8.0494749E-18
  -25.31650        8.0122799E-18
  -25.15500        7.9759079E-18
  -24.99350        7.9453295E-18
  -24.83200        7.9242761E-18
  -24.67050        7.9144426E-18
  -24.50900        7.9151002E-18
  -24.34750        7.9232206E-18
  -24.18600        7.9341328E-18
  -24.02450        7.9426064E-18
  -23.86300        7.9440954E-18
  -23.70150        7.9358236E-18
  -23.54000        7.9174196E-18
  -23.37850        7.8909349E-18
  -23.21700        7.8602689E-18
  -23.05550        7.8302133E-18
  -22.89400        7.8053474E-18
  -22.73250        7.7890586E-18
  -22.57100        7.7828489E-18
  -22.40950        7.7860385E-18
  -22.24800        7.7959035E-18
  -22.08650        7.8082359E-18
  -21.92500        7.8182564E-18
  -21.76350        7.8217049E-18
  -21.60200        7.8158567E-18
  -21.44050        7.8002032E-18
  -21.27900        7.7765772E-18
  -21.11750        7.7486855E-18
  -20.95600        7.7211851E-18
  -20.79450        7.6985625E-18
  -20.63300        7.6841257E-18
  -20.47150        7.6793256E-18
  -20.31000        7.6835202E-18
  -20.14850        7.6941776E-18
  -19.98700        7.7074340E-18
  -19.82550        7.7189029E-18
  -19.66400        7.7246096E-18
  -19.50250        7.7218650E-18
  -19.34100        7.7099040E-18
  -19.17950        7.6900889E-18
  -19.01800        7.6655944E-18
  -18.85650        7.6406301E-18
  -18.69500        7.6193955E-18
  -18.53350        7.6050762E-18
  -18.37200        7.5991412E-18
  -18.21050        7.6011008E-18
  -18.04900        7.6087439E-18
  -17.88750        7.6187230E-18
  -17.72600        7.6273307E-18
  -17.56450        7.6313003E-18
  -17.40300        7.6285069E-18
  -17.24150        7.6184335E-18
  -17.08000        7.6023275E-18
  -16.91850        7.5829607E-18
  -16.75700        7.5639993E-18
  -16.59550        7.5491158E-18
  -16.43400        7.5410640E-18
  -16.27250        7.5409871E-18
  -16.11100        7.5481480E-18
  -15.94950        7.5601603E-18
  -15.78800        7.5736070E-18
  -15.62650        7.5848550E-18
  -15.46500        7.5908388E-18
  -15.30350        7.5896658E-18
  -15.14200        7.5809523E-18
  -14.98050        7.5658654E-18
  -14.81900        7.5468791E-18
  -14.65750        7.5272600E-18
  -14.49600        7.5103525E-18
  -14.33450        7.4988001E-18
  -14.17300        7.4938990E-18
  -14.01150        7.4952862E-18
  -13.85000        7.5010707E-18
  -13.68850        7.5083755E-18
  -13.52700        7.5141203E-18
  -13.36550        7.5158019E-18
  -13.20400        7.5120440E-18
  -13.04250        7.5028235E-18
  -12.88100        7.4893752E-18
  -12.71950        7.4738531E-18
  -12.55800        7.4588514E-18
  -12.39650        7.4468548E-18
  -12.23500        7.4396939E-18
  -12.07350        7.4380982E-18
  -11.91200        7.4414549E-18
  -11.75050        7.4479045E-18
  -11.58900        7.4547783E-18
  -11.42750        7.4592898E-18
  -11.26600        7.4592832E-18
  -11.10450        7.4537832E-18
  -10.94300        7.4431804E-18
  -10.78150        7.4290282E-18
  -10.62000        7.4135690E-18
  -10.45850        7.3991504E-18
  -10.29700        7.3877221E-18
  -10.13550        7.3804661E-18
  -9.974000        7.3776082E-18
  -9.812500        7.3783832E-18
  -9.651000        7.3811899E-18
  -9.489500        7.3839162E-18
  -9.328000        7.3844580E-18
  -9.166500        7.3812842E-18
  -9.005000        7.3739107E-18
  -8.843500        7.3630680E-18
  -8.682000        7.3504998E-18
  -8.520500        7.3384238E-18
  -8.359000        7.3288690E-18
  -8.197500        7.3231069E-18
  -8.036000        7.3213607E-18
  -7.874500        7.3228339E-18
  -7.713000        7.3259706E-18
  -7.551500        7.3288484E-18
  -7.390000        7.3295779E-18
  -7.228500        7.3266820E-18
  -7.067000        7.3194251E-18
  -6.905500        7.3080539E-18
  -6.744000        7.2938512E-18
  -6.582500        7.2789280E-18
  -6.421000        7.2657386E-18
  -6.259500        7.2564163E-18
  -6.098000        7.2521505E-18
  -5.936500        7.2528420E-18
  -5.775000        7.2571475E-18
  -5.613500        7.2629039E-18
  -5.452000        7.2677404E-18
  -5.290500        7.2696801E-18
  -5.129000        7.2675493E-18
  -4.967500        7.2611453E-18
  -4.806000        7.2512034E-18
  -4.644500        7.2392118E-18
  -4.483000        7.2271076E-18
  -4.321500        7.2168671E-18
  -4.160000        7.2100114E-18
  -3.998500        7.2071353E-18
  -3.837000        7.2076259E-18
  -3.675500        7.2097079E-18
  -3.514000        7.2108932E-18
  -3.352500        7.2086896E-18
  -3.191000        7.2013542E-18
  -3.029500        7.1884220E-18
  -2.868000        7.1708337E-18
  -2.706500        7.1506770E-18
  -2.545000        7.1306650E-18
  -2.383500        7.1135316E-18
  -2.222000        7.1014829E-18
  -2.060500        7.0957811E-18
  -1.899000        7.0964702E-18
  -1.737500        7.1023018E-18
  -1.576000        7.1108945E-18
  -1.414500        7.1191903E-18
  -1.253000        7.1241658E-18
  -1.091500        7.1236356E-18
 -0.9300000        7.1168817E-18
 -0.7685000        7.1048975E-18
 -0.6070000        7.0901207E-18
 -0.4455000        7.0757493E-18
 -0.2840000        7.0648801E-18
 -0.1225000        7.0597334E-18
  3.9000001E-02    7.0611661E-18
  0.2005000        7.0685272E-18
  0.3620000        7.0798248E-18
  0.5235000        7.0921159E-18
  0.6850000        7.1020702E-18
  0.8465000        7.1066395E-18
   1.008000        7.1037733E-18
   1.169500        7.0930001E-18
   1.331000        7.0756930E-18
   1.492500        7.0548605E-18
   1.654000        7.0344498E-18
   1.815500        7.0183446E-18
   1.977000        7.0093589E-18
   2.138500        7.0085409E-18
   2.300000        7.0149738E-18
   2.461500        7.0260663E-18
   2.623000        7.0382002E-18
   2.784500        7.0475292E-18
   2.946000        7.0507560E-18
   3.107500        7.0458037E-18
   3.269000        7.0322793E-18
   3.430500        7.0116610E-18
   3.592000        6.9871028E-18
   3.753500        6.9628135E-18
   3.915000        6.9430803E-18
   4.076500        6.9311825E-18
   4.238000        6.9285165E-18
   4.399500        6.9342162E-18
   4.561000        6.9453980E-18
   4.722500        6.9579356E-18
   4.884000        6.9675003E-18
   5.045500        6.9705658E-18
   5.207000        6.9651577E-18
   5.368500        6.9512239E-18
   5.530000        6.9306337E-18
   5.691500        6.9068340E-18
   5.853000        6.8841838E-18
   6.014500        6.8670462E-18
   6.176000        6.8587649E-18
   6.337500        6.8607733E-18
   6.499000        6.8721049E-18
   6.660500        6.8895125E-18
   6.822000        6.9082183E-18
   6.983500        6.9230869E-18
   7.145000        6.9298797E-18
   7.306500        6.9262252E-18
   7.468000        6.9120813E-18
   7.629500        6.8896427E-18
   7.791000        6.8628020E-18
   7.952500        6.8363202E-18
   8.114000        6.8148714E-18
   8.275500        6.8020956E-18
   8.437000        6.7997985E-18
   8.598500        6.8074714E-18
   8.760000        6.8223086E-18
   8.921500        6.8397948E-18
   9.083000        6.8547825E-18
   9.244500        6.8627896E-18
   9.406000        6.8611344E-18
   9.567500        6.8495725E-18
   9.729000        6.8302781E-18
   9.890500        6.8072274E-18
   10.05200        6.7852029E-18
   10.21350        6.7687077E-18
   10.37500        6.7610075E-18
   10.53650        6.7634472E-18
   10.69800        6.7751308E-18
   10.85950        6.7930152E-18
   11.02100        6.8124635E-18
   11.18250        6.8282101E-18
   11.34400        6.8355836E-18
   11.50550        6.8316752E-18
   11.66700        6.8161229E-18
   11.82850        6.7912446E-18
   11.99000        6.7614690E-18
   12.15150        6.7322410E-18
   12.31300        6.7087317E-18
   12.47450        6.6947019E-18
   12.63600        6.6917638E-18
   12.79750        6.6991298E-18
   12.95900        6.7138383E-18
   13.12050        6.7313700E-18
   13.28200        6.7465777E-18
   13.44350        6.7547846E-18
   13.60500        6.7528738E-18
   13.76650        6.7400901E-18
   13.92800        6.7183125E-18
   14.08950        6.6916504E-18
   14.25100        6.6654313E-18
   14.41250        6.6448630E-18
   14.57400        6.6337619E-18
   14.73550        6.6336924E-18
   14.89700        6.6437108E-18
   15.05850        6.6606903E-18
   15.22000        6.6800794E-18
   15.38150        6.6968786E-18
   15.54300        6.7066617E-18
   15.70450        6.7064942E-18
   15.86600        6.6955957E-18
   16.02750        6.6755945E-18
   16.18900        6.6502496E-18
   16.35050        6.6246178E-18
   16.51200        6.6038378E-18
   16.67350        6.5918466E-18
   16.83500        6.5904073E-18
   16.99650        6.5987361E-18
   17.15800        6.6138028E-18
   17.31950        6.6311542E-18
   17.48100        6.6459946E-18
   17.64250        6.6542222E-18
   17.80400        6.6532354E-18
   17.96550        6.6424092E-18
   18.12700        6.6232046E-18
   18.28850        6.5988958E-18
   18.45000        6.5739158E-18
   18.61150        6.5528793E-18
   18.77300        6.5394815E-18
   18.93450        6.5355478E-18
   19.09600        6.5405494E-18
   19.25750        6.5517502E-18
   19.41900        6.5649603E-18
   19.58050        6.5756429E-18
   19.74200        6.5800336E-18
   19.90350        6.5759647E-18
   20.06500        6.5632455E-18
   20.22650        6.5436025E-18
   20.38800        6.5202636E-18
   20.54950        6.4973110E-18
   20.71100        6.4788773E-18
   20.87250        6.4682807E-18
   21.03400        6.4672537E-18
   21.19550        6.4754585E-18
   21.35700        6.4904801E-18
   21.51850        6.5083745E-18
   21.68000        6.5246447E-18
   21.84150        6.5353687E-18
   22.00300        6.5381187E-18
   22.16450        6.5324231E-18
   22.32600        6.5196949E-18
   22.48750        6.5027356E-18
   22.64900        6.4850195E-18
   22.81050        6.4699474E-18
   22.97200        6.4601801E-18
   23.13350        6.4571299E-18
   23.29500        6.4606450E-18
   23.45650        6.4689941E-18
   23.61800        6.4792081E-18
   23.77950        6.4877798E-18
   23.94100        6.4915728E-18
   24.10250        6.4886678E-18
   24.26400        6.4788669E-18
   24.42550        6.4636944E-18
   24.58700        6.4459067E-18
   24.74850        6.4287270E-18
   24.91000        6.4150524E-18
   25.07150        6.4068559E-18
   25.23300        6.4048566E-18
   25.39450        6.4084511E-18
   25.55600        6.4158560E-18
   25.71750        6.4244388E-18
   25.87900        6.4312259E-18
   26.04050        6.4335531E-18
   26.20200        6.4297258E-18
   26.36350        6.4194898E-18
   26.52500        6.4041291E-18
   26.68650        6.3861143E-18
   26.84800        6.3684094E-18
   27.00950        6.3536814E-18
   27.17100        6.3436688E-18
   27.33250        6.3388873E-18
   27.49400        6.3386797E-18
   27.65550        6.3415094E-18
   27.81700        6.3453629E-18
   27.97850        6.3481703E-18
   28.14000        6.3482158E-18
   28.30150        6.3445175E-18
   28.46300        6.3371084E-18
   28.62450        6.3271115E-18
   28.78600        6.3165133E-18
   28.94750        6.3076405E-18
   29.10900        6.3024814E-18
   29.27050        6.3020926E-18
   29.43200        6.3063075E-18
   29.59350        6.3138411E-18
   29.75500        6.3227085E-18
   29.91650        6.3307743E-18
   30.07800        6.3362403E-18
   30.23950        6.3379637E-18
   30.40100        6.3356050E-18
   30.56250        6.3296477E-18
   30.72400        6.3213163E-18
   30.88550        6.3123600E-18
   31.04700        6.3046871E-18
   31.20850        6.2998745E-18
   31.37000        6.2986900E-18
   31.53150        6.3008142E-18
   31.69300        6.3049055E-18
   31.85450        6.3090149E-18
   32.01600        6.3111949E-18
   32.17750        6.3100708E-18
   32.33900        6.3051726E-18
   32.50050        6.2969505E-18
   32.66200        6.2865491E-18
   32.82350        6.2754723E-18
   32.98500        6.2652467E-18
   33.14650        6.2571238E-18
   33.30800        6.2518145E-18
   33.46950        6.2492697E-18
   33.63100        6.2485736E-18
   33.79250        6.2480513E-18
   33.95400        6.2456582E-18
   34.11550        6.2395710E-18
   34.27700        6.2287982E-18
   34.43850        6.2135636E-18
   34.60000        6.1953082E-18
   34.76150        6.1763045E-18
   34.92300        6.1590442E-18
   35.08450        6.1456281E-18
   35.24600        6.1373290E-18
   35.40750        6.1344008E-18
   35.56900        6.1360924E-18
   35.73050        6.1408172E-18
   35.89200        6.1464359E-18
   36.05350        6.1506714E-18
   36.21500        6.1516227E-18
   36.37650        6.1482937E-18
   36.53800        6.1409516E-18
   36.69950        6.1311496E-18
   36.86100        6.1213334E-18
   37.02250        6.1141299E-18
   37.18400        6.1115644E-18
   37.34550        6.1144719E-18
   37.50700        6.1222900E-18
   37.66850        6.1332485E-18
   37.83000        6.1448369E-18
   37.99150        6.1543793E-18
   38.15300        6.1595822E-18
   38.31450        6.1589941E-18
   38.47600        6.1523361E-18
   38.63750        6.1406609E-18
   38.79900        6.1262456E-18
   38.96050        6.1121699E-18
   39.12200        6.1015960E-18
   39.28350        6.0969353E-18
   39.44500        6.0991538E-18
   39.60650        6.1074736E-18
   39.76800        6.1195756E-18
   39.92950        6.1322282E-18
   40.09100        6.1421147E-18
   40.25250        6.1466063E-18
   40.41400        6.1442943E-18
   40.57550        6.1352242E-18
   40.73700        6.1208421E-18
   40.89850        6.1037116E-18
   41.06000        6.0870178E-18
   41.22150        6.0738987E-18
   41.38300        6.0666915E-18
   41.54450        6.0662796E-18
   41.70600        6.0717518E-18
   41.86750        6.0805431E-18
   42.02900        6.0890676E-18
   42.19050        6.0936646E-18
   42.35200        6.0915615E-18
   42.51350        6.0815613E-18
   42.67500        6.0642894E-18
   42.83650        6.0419973E-18
   42.99800        6.0180442E-18
   43.15950        5.9962041E-18
   43.32100        5.9799323E-18
   43.48250        5.9716658E-18
   43.64400        5.9722643E-18
   43.80550        5.9807110E-18
   43.96700        5.9942069E-18
   44.12850        6.0087285E-18
   44.29000        6.0199612E-18
   44.45150        6.0243721E-18
   44.61300        6.0201014E-18
   44.77450        6.0073951E-18
   44.93600        5.9884712E-18
   45.09750        5.9669095E-18
   45.25900        5.9467747E-18
   45.42050        5.9317258E-18
   45.58200        5.9242857E-18
   45.74350        5.9253565E-18
   45.90500        5.9340312E-18
   46.06650        5.9477280E-18
   46.22800        5.9626781E-18
   46.38950        5.9747413E-18
   46.55100        5.9804037E-18
   46.71250        5.9777080E-18
   46.87400        5.9668247E-18
   47.03550        5.9500491E-18
   47.19700        5.9312084E-18
   47.35850        5.9146598E-18
   47.52000        5.9041981E-18
   47.68150        5.9021636E-18
   47.84300        5.9089577E-18
   48.00450        5.9229974E-18
   48.16600        5.9410618E-18
   48.32750        5.9589326E-18
   48.48900        5.9722316E-18
   48.65050        5.9773502E-18
   48.81200        5.9723023E-18
   48.97350        5.9572936E-18
   49.13500        5.9347942E-18
   49.29650        5.9090263E-18
   49.45800        5.8849545E-18
   49.61950        5.8670539E-18
   49.78100        5.8582254E-18
   49.94250        5.8591593E-18
   50.10400        5.8682869E-18
   50.26550        5.8822675E-18
   50.42700        5.8968209E-18
   50.58850        5.9076789E-18
   50.75000        5.9114831E-18
   50.91150        5.9064894E-18
   51.07300        5.8929757E-18
   51.23450        5.8732512E-18
   51.39600        5.8512035E-18
   51.55750        5.8314136E-18
   51.71900        5.8180207E-18
   51.88050        5.8136371E-18
   52.04200        5.8186457E-18
   52.20350        5.8311026E-18
   52.36500        5.8472670E-18
   52.52650        5.8625665E-18
   52.68800        5.8727098E-18
   52.84950        5.8746392E-18
   53.01100        5.8671499E-18
   53.17250        5.8510956E-18
   53.33400        5.8291972E-18
   53.49550        5.8055076E-18
   53.65700        5.7845836E-18
   53.81850        5.7705009E-18
   53.98000        5.7658931E-18
   54.14150        5.7712755E-18
   54.30300        5.7848752E-18
   54.46450        5.8030682E-18
   54.62600        5.8213092E-18
   54.78750        5.8352873E-18
   54.94900        5.8419461E-18
   55.11050        5.8401061E-18
   55.27200        5.8305753E-18
   55.43350        5.8158056E-18
   55.59500        5.7992479E-18
   55.75650        5.7845745E-18
   55.91800        5.7748961E-18
   56.07950        5.7720837E-18
   56.24100        5.7763098E-18
   56.40250        5.7859385E-18
   56.56400        5.7978537E-18
   56.72550        5.8082058E-18
   56.88700        5.8134055E-18
   57.04850        5.8110679E-18
   57.21000        5.8006214E-18
   57.37150        5.7833838E-18
   57.53300        5.7621393E-18
   57.69450        5.7403886E-18
   57.85600        5.7215260E-18
   58.01750        5.7081501E-18
   58.17900        5.7016166E-18
   58.34050        5.7018420E-18
   58.50200        5.7073498E-18
   58.66350        5.7155612E-18
   58.82500        5.7233226E-18
   58.98650        5.7276202E-18
   59.14800        5.7263294E-18
   59.30950        5.7187777E-18
   59.47100        5.7059179E-18
   59.63250        5.6900278E-18
   59.79400        5.6740342E-18
   59.95550        5.6607075E-18
   60.11700        5.6519886E-18
   60.27850        5.6486303E-18
   60.44000        5.6501883E-18
   60.60150        5.6552556E-18
   60.76300        5.6618379E-18
   60.92450        5.6677642E-18
   61.08600        5.6711197E-18
   61.24750        5.6706631E-18
   61.40900        5.6661719E-18
   61.57050        5.6585829E-18
   61.73200        5.6498289E-18
   61.89350        5.6423437E-18
   62.05500        5.6383687E-18
   62.21650        5.6392935E-18
   62.37800        5.6452715E-18
   62.53950        5.6552250E-18
   62.70100        5.6672001E-18
   62.86250        5.6789001E-18
   63.02400        5.6881968E-18
   63.18550        5.6935040E-18
   63.34700        5.6939891E-18
   63.50850        5.6896634E-18
   63.67000        5.6813755E-18
   63.83150        5.6706825E-18
   63.99300        5.6595594E-18
   64.15450        5.6499472E-18
   64.31600        5.6432420E-18
   64.47750        5.6399064E-18
   64.63900        5.6393663E-18
   64.80050        5.6402505E-18
   64.96200        5.6408866E-18
   65.12350        5.6398398E-18
   65.28500        5.6362958E-18
   65.44650        5.6301891E-18
   65.60800        5.6220985E-18
   65.76950        5.6130231E-18
   65.93100        5.6041495E-18
   66.09250        5.5966399E-18
   66.25400        5.5914307E-18
   66.41550        5.5890183E-18
   66.57700        5.5892656E-18
   66.73850        5.5913265E-18
   66.90000        5.5937816E-18
   67.06150        5.5949955E-18
   67.22300        5.5935918E-18
   67.38450        5.5888648E-18
   67.54600        5.5809578E-18
   67.70750        5.5707541E-18
   67.86900        5.5595558E-18
   68.03050        5.5487052E-18
   68.19200        5.5392915E-18
   68.35350        5.5319953E-18
   68.51500        5.5270434E-18
   68.67650        5.5242141E-18
   68.83800        5.5228703E-18
   68.99950        5.5220551E-18
   69.16100        5.5206919E-18
   69.32250        5.5178940E-18
   69.48400        5.5132862E-18
   69.64550        5.5072006E-18
   69.80700        5.5006307E-18
   69.96850        5.4949298E-18
   70.13000        5.4913721E-18
   70.29150        5.4907463E-18
   70.45300        5.4931447E-18
   70.61450        5.4979755E-18
   70.77600        5.5041520E-18
   70.93750        5.5103497E-18
   71.09900        5.5152499E-18
   71.26050        5.5177554E-18
   71.42200        5.5171896E-18
   71.58350        5.5134793E-18
   71.74500        5.5072602E-18
   71.90650        5.4998151E-18
   72.06800        5.4927928E-18
   72.22950        5.4877565E-18
   72.39100        5.4857047E-18
   72.55250        5.4867572E-18
   72.71400        5.4901317E-18
   72.87550        5.4944062E-18
   73.03700        5.4979540E-18
   73.19850        5.4993771E-18
   73.36000        5.4978104E-18
   73.52150        5.4930550E-18
   73.68300        5.4855756E-18
   73.84450        5.4764063E-18
   74.00600        5.4669744E-18
   74.16750        5.4588325E-18
   74.32900        5.4532974E-18
   74.49050        5.4510681E-18
   74.65200        5.4519528E-18
   74.81350        5.4548492E-18
   74.97500        5.4580226E-18
   75.13650        5.4596170E-18
   75.29800        5.4582034E-18
   75.45950        5.4531758E-18
   75.62100        5.4448630E-18
   75.78250        5.4343752E-18
   75.94400        5.4232802E-18
   76.10550        5.4132523E-18
   76.26700        5.4057647E-18
   76.42850        5.4018414E-18
   76.59000        5.4018641E-18
   76.75150        5.4054421E-18
   76.91300        5.4114180E-18
   77.07450        5.4180740E-18
   77.23600        5.4235371E-18
   77.39750        5.4262928E-18
   77.55900        5.4256191E-18
   77.72050        5.4217764E-18
   77.88200        5.4158778E-18
   78.04350        5.4095089E-18
   78.20500        5.4042609E-18
   78.36650        5.4013405E-18
   78.52800        5.4013533E-18
   78.68950        5.4042369E-18
   78.85100        5.4093001E-18
   79.01250        5.4153137E-18
   79.17400        5.4206676E-18
   79.33550        5.4236421E-18
   79.49700        5.4227889E-18
   79.65850        5.4173485E-18
   79.82000        5.4075419E-18
   79.98150        5.3946031E-18
   80.14300        5.3804951E-18
   80.30450        5.3673972E-18
   80.46600        5.3571533E-18
   80.62750        5.3508618E-18
   80.78900        5.3487087E-18
   80.95050        5.3500259E-18
   81.11200        5.3534881E-18
   81.27350        5.3573651E-18
   81.43500        5.3598053E-18
   81.59650        5.3591700E-18
   81.75800        5.3544038E-18
   81.91950        5.3453718E-18
   82.08100        5.3330249E-18
   82.24250        5.3192635E-18
   82.40400        5.3064852E-18
   82.56550        5.2969251E-18
   82.72700        5.2920232E-18
   82.88850        5.2920402E-18
   83.05000        5.2960292E-18
   83.21150        5.3021372E-18
   83.37300        5.3080879E-18
   83.53450        5.3116948E-18
   83.69600        5.3112953E-18
   83.85750        5.3060754E-18
   84.01900        5.2962745E-18
   84.18050        5.2832303E-18
   84.34200        5.2691988E-18
   84.50350        5.2569115E-18
   84.66500        5.2489155E-18
   84.82650        5.2468707E-18
   84.98800        5.2510447E-18
   85.14950        5.2602094E-18
   85.31100        5.2719839E-18
   85.47250        5.2835066E-18
   85.63400        5.2921874E-18
   85.79550        5.2963043E-18
   85.95700        5.2953051E-18
   86.11850        5.2898122E-18
   86.28000        5.2814035E-18
   86.44150        5.2722581E-18
   86.60300        5.2647147E-18
   86.76450        5.2607707E-18
   86.92600        5.2615888E-18
   87.08750        5.2671317E-18
   87.24900        5.2760756E-18
   87.41050        5.2860940E-18
   87.57200        5.2944741E-18
   87.73350        5.2988714E-18
   87.89500        5.2979500E-18
   88.05650        5.2916832E-18
   88.21800        5.2812670E-18
   88.37950        5.2687257E-18
   88.54100        5.2563920E-18
   88.70250        5.2464212E-18
   88.86400        5.2404121E-18
   89.02550        5.2391432E-18
   89.18700        5.2424056E-18
   89.34850        5.2489738E-18
   89.51000        5.2567812E-18
   89.67150        5.2633333E-18
   89.83300        5.2663194E-18
   89.99450        5.2642386E-18
   90.15600        5.2568213E-18
   90.31750        5.2450939E-18
   90.47900        5.2310567E-18
   90.64050        5.2171253E-18
   90.80200        5.2055386E-18
   90.96350        5.1979087E-18
   91.12500        5.1949850E-18
   91.28650        5.1965943E-18
   91.44800        5.2016992E-18
   91.60950        5.2085623E-18
   91.77100        5.2150326E-18
   91.93250        5.2189815E-18
   92.09400        5.2188293E-18
   92.25550        5.2140143E-18
   92.41700        5.2052032E-18
   92.57850        5.1941363E-18
   92.74000        5.1831216E-18
   92.90150        5.1743671E-18
   93.06300        5.1693941E-18
   93.22450        5.1687133E-18
   93.38600        5.1718128E-18
   93.54750        5.1773747E-18
   93.70900        5.1835931E-18
   93.87050        5.1885040E-18
   94.03200        5.1903168E-18
   94.19350        5.1877501E-18
   94.35500        5.1803538E-18
   94.51650        5.1687133E-18
   94.67800        5.1544114E-18
   94.83950        5.1396892E-18
   95.00100        5.1268654E-18
   95.16250        5.1177172E-18
   95.32400        5.1130490E-18
   95.48550        5.1125920E-18
   95.64700        5.1152204E-18
   95.80850        5.1193451E-18
   95.97000        5.1233090E-18
   96.13150        5.1256751E-18
   96.29300        5.1254117E-18
   96.45450        5.1220314E-18
   96.61600        5.1157093E-18
   96.77750        5.1073365E-18
   96.93900        5.0984175E-18
   97.10050        5.0907482E-18
   97.26200        5.0859353E-18
   97.42350        5.0849175E-18
   97.58500        5.0876897E-18
   97.74650        5.0933419E-18
   97.90800        5.1003696E-18
   98.06950        5.1071095E-18
   98.23100        5.1121118E-18
   98.39250        5.1143605E-18
   98.55400        5.1133543E-18
   98.71550        5.1091394E-18
   98.87700        5.1023308E-18
   99.03850        5.0941021E-18
   99.20000        5.0860441E-18
   99.36150        5.0798357E-18
   99.52300        5.0767863E-18
   99.68450        5.0774091E-18
   99.84600        5.0812307E-18
   100.0075        5.0869329E-18
   100.1690        5.0927769E-18
   100.3305        5.0971188E-18
   100.4920        5.0988124E-18
   100.6535        5.0973872E-18
   100.8150        5.0930263E-18
   100.9765        5.0864515E-18
   101.1380        5.0787980E-18
   101.2995        5.0714824E-18
   101.4610        5.0659974E-18
   101.6225        5.0635878E-18
   101.7840        5.0648629E-18
   101.9455        5.0695005E-18
   102.1070        5.0762287E-18
   102.2685        5.0831436E-18
   102.4300        5.0882766E-18
   102.5915        5.0901734E-18
   102.7530        5.0882531E-18
   102.9145        5.0828421E-18
   103.0760        5.0749342E-18
   103.2375        5.0658530E-18
   103.3990        5.0569641E-18
   103.5605        5.0494831E-18
   103.7220        5.0443310E-18
   103.8835        5.0419665E-18
   104.0450        5.0422006E-18
   104.2065        5.0441048E-18
   104.3680        5.0461388E-18
   104.5295        5.0465466E-18
   104.6910        5.0439038E-18
   104.8525        5.0375870E-18
   105.0140        5.0279561E-18
   105.1755        5.0161721E-18
   105.3370        5.0037661E-18
   105.4985        4.9921802E-18
   105.6600        4.9824778E-18
   105.8215        4.9752705E-18
   105.9830        4.9707789E-18
   106.1445        4.9688868E-18
   106.3060        4.9691324E-18
   106.4675        4.9706813E-18
   106.6290        4.9724118E-18
   106.7905        4.9731728E-18
   106.9520        4.9721574E-18
   107.1135        4.9692156E-18
   107.2750        4.9649250E-18
   107.4365        4.9603610E-18
   107.5980        4.9566830E-18
   107.7595        4.9547411E-18
   107.9210        4.9548884E-18
   108.0825        4.9570258E-18
   108.2440        4.9607767E-18
   108.4055        4.9656206E-18
   108.5670        4.9709088E-18
   108.7285        4.9758127E-18
   108.8900        4.9793382E-18
   109.0515        4.9805120E-18
   109.2130        4.9787054E-18
   109.3745        4.9739346E-18
   109.5360        4.9669478E-18
   109.6975        4.9590177E-18
   109.8590        4.9515238E-18
   110.0205        4.9455264E-18
   110.1820        4.9415286E-18
   110.3435        4.9394813E-18
   110.5050        4.9389569E-18
   110.6665        4.9393291E-18
   110.8280        4.9398717E-18
   110.9895        4.9397911E-18
   111.1510        4.9382935E-18
   111.3125        4.9347726E-18
   111.4740        4.9290737E-18
   111.6355        4.9216953E-18
   111.7970        4.9137564E-18
   111.9585        4.9066865E-18
   112.1200        4.9017400E-18
   112.2815        4.8995665E-18
   112.4430        4.9000372E-18
   112.6045        4.9023794E-18
   112.7660        4.9055189E-18
   112.9275        4.9084219E-18
   113.0890        4.9103046E-18
   113.2505        4.9106756E-18
   113.4120        4.9093132E-18
   113.5735        4.9062713E-18
   113.7350        4.9019352E-18
   113.8965        4.8970412E-18
   114.0580        4.8925574E-18
   114.2195        4.8893972E-18
   114.3810        4.8880634E-18
   114.5425        4.8884186E-18
   114.7040        4.8897140E-18
   114.8655        4.8908878E-18
   115.0270        4.8909783E-18
   115.1885        4.8894402E-18
   115.3500        4.8862303E-18
   115.5115        4.8816812E-18
   115.6730        4.8762942E-18
   115.8345        4.8706049E-18
   115.9960        4.8651658E-18
   116.1575        4.8605799E-18
   116.3190        4.8574597E-18
   116.4805        4.8562541E-18
   116.6420        4.8570172E-18