  -30.00000        7.3256259E-20
  -29.83850        8.4628680E-20
  -29.67700        1.0512650E-19
  -29.51550        1.3098803E-19
  -29.35400        1.5775288E-19
  -29.19250        1.8122310E-19
  -29.03100        1.9836475E-19
  -28.86950        2.0793304E-19
  -28.70800        2.1068613E-19
  -28.54650        2.0913583E-19
  -28.38500        2.0690686E-19
  -28.22350        2.0785044E-19
  -28.06200        2.1513148E-19
  -27.90050        2.3047666E-19
  -27.73900        2.5375944E-19
  -27.57750        2.8299800E-19
  -27.41600        3.1477438E-19
  -27.25450        3.4498410E-19
  -27.09300        3.6975976E-19
  -26.93150        3.8636053E-19
  -26.77000        3.9381668E-19
  -26.60850        3.9316812E-19
  -26.44700        3.8723015E-19
  -26.28550        3.7994551E-19
  -26.12400        3.7548013E-19
  -25.96250        3.7728607E-19
  -25.80100        3.8735227E-19
  -25.63950        4.0579408E-19
  -25.47800        4.3086264E-19
  -25.31650        4.5934177E-19
  -25.15500        4.8725400E-19
  -24.99350        5.1072478E-19
  -24.83200        5.2683490E-19
  -24.67050        5.3427746E-19
  -24.50900        5.3366364E-19
  -24.34750        5.2738777E-19
  -24.18600        5.1906726E-19
  -24.02450        5.1268339E-19
  -23.86300        5.1164161E-19
  -23.70150        5.1798898E-19
  -23.54000        5.3198286E-19
  -23.37850        5.5208883E-19
  -23.21700        5.7538782E-19
  -23.05550        5.9825967E-19
  -22.89400        6.1719270E-19
  -22.73250        6.2954514E-19
  -22.57100        6.3411754E-19
  -22.40950        6.3142972E-19
  -22.24800        6.2362847E-19
  -22.08650        6.1402532E-19
  -21.92500        6.0634577E-19
  -21.76350        6.0385296E-19
  -21.60200        6.0856701E-19
  -21.44050        6.2078685E-19
  -21.27900        6.3904340E-19
  -21.11750        6.6048702E-19
  -20.95600        6.8158814E-19
  -20.79450        6.9895774E-19
  -20.63300        7.1009304E-19
  -20.47150        7.1388923E-19
  -20.31000        7.1084386E-19
  -20.14850        7.0293048E-19
  -19.98700        6.9317249E-19
  -19.82550        6.8499085E-19
  -19.66400        6.8145067E-19
  -19.50250        6.8456046E-19
  -19.34100        6.9479739E-19
  -19.17950        7.1099710E-19
  -19.01800        7.3064781E-19
  -18.85650        7.5051772E-19
  -18.69500        7.6744215E-19
  -18.53350        7.7905726E-19
  -18.37200        7.8429616E-19
  -18.21050        7.8355630E-19
  -18.04900        7.7852833E-19
  -17.88750        7.7176256E-19
  -17.72600        7.6607802E-19
  -17.56450        7.6393485E-19
  -17.40300        7.6688514E-19
  -17.24150        7.7521816E-19
  -17.08000        7.8788168E-19
  -16.91850        8.0272181E-19
  -16.75700        8.1700433E-19
  -16.59550        8.2808565E-19
  -16.43400        8.3406555E-19
  -16.27250        8.3424029E-19
  -16.11100        8.2923993E-19
  -15.94950        8.2084338E-19
  -15.78800        8.1153123E-19
  -15.62650        8.0391042E-19
  -15.46500        8.0014856E-19
  -15.30350        8.0152881E-19
  -15.14200        8.0820375E-19
  -14.98050        8.1918824E-19
  -14.81900        8.3259973E-19
  -14.65750        8.4610102E-19
  -14.49600        8.5745160E-19
  -14.33450        8.6503700E-19
  -14.17300        8.6823979E-19
  -14.01150        8.6754361E-19
  -13.85000        8.6435339E-19
  -13.68850        8.6059592E-19
  -13.52700        8.5821209E-19
  -13.36550        8.5868782E-19
  -13.20400        8.6272415E-19
  -13.04250        8.7010839E-19
  -12.88100        8.7979530E-19
  -12.71950        8.9016793E-19
  -12.55800        8.9943019E-19
  -12.39650        9.0604887E-19
  -12.23500        9.0914253E-19
  -12.07350        9.0872253E-19
  -11.91200        9.0570518E-19
  -11.75050        9.0167681E-19
  -11.58900        8.9848193E-19
  -11.42750        8.9774460E-19
  -11.26600        9.0047078E-19
  -11.10450        9.0682932E-19
  -10.94300        9.1615278E-19
  -10.78150        9.2713019E-19
  -10.62000        9.3812621E-19
  -10.45850        9.4754594E-19
  -10.29700        9.5417879E-19
  -10.13550        9.5746373E-19
  -9.974000        9.5761893E-19
  -9.812500        9.5558913E-19
  -9.651000        9.5281291E-19
  -9.489500        9.5083770E-19
  -9.328000        9.5089395E-19
  -9.166500        9.5355851E-19
  -9.005000        9.5861393E-19
  -8.843500        9.6515806E-19
  -8.682000        9.7190424E-19
  -8.520500        9.7757590E-19
  -8.359000        9.8126234E-19
  -8.197500        9.8264735E-19
  -8.036000        9.8207494E-19
  -7.874500        9.8046897E-19
  -7.713000        9.7913183E-19
  -7.551500        9.7946312E-19
  -7.390000        9.8263111E-19
  -7.228500        9.8925766E-19
  -7.067000        9.9918744E-19
  -6.905500        1.0114425E-18
  -6.744000        1.0244010E-18
  -6.582500        1.0361873E-18
  -6.421000        1.0451639E-18
  -6.259500        1.0503702E-18
  -6.098000        1.0517689E-18
  -5.936500        1.0502241E-18
  -5.775000        1.0472426E-18
  -5.613500        1.0445729E-18
  -5.452000        1.0437797E-18
  -5.290500        1.0459005E-18
  -5.129000        1.0512241E-18
  -4.967500        1.0592239E-18
  -4.806000        1.0686476E-18
  -4.644500        1.0777720E-18
  -4.483000        1.0847985E-18
  -4.321500        1.0883290E-18
  -4.160000        1.0877978E-18
  -3.998500        1.0837227E-18
  -3.837000        1.0776673E-18
  -3.675500        1.0718904E-18
  -3.514000        1.0687848E-18
  -3.352500        1.0702610E-18
  -3.191000        1.0772636E-18
  -3.029500        1.0895431E-18
  -2.868000        1.1057158E-18
  -2.706500        1.1235679E-18
  -2.545000        1.1405175E-18
  -2.383500        1.1541385E-18
  -2.222000        1.1626594E-18
  -2.060500        1.1653596E-18
  -1.899000        1.1627737E-18
  -1.737500        1.1566296E-18
  -1.576000        1.1494915E-18
  -1.414500        1.1441602E-18
  -1.253000        1.1429674E-18
  -1.091500        1.1471632E-18
 -0.9300000        1.1565758E-18
 -0.7685000        1.1696488E-18
 -0.6070000        1.1838344E-18
 -0.4455000        1.1962261E-18
 -0.2840000        1.2042519E-18
 -0.1225000        1.2062706E-18
  3.9000001E-02    1.2019481E-18
  0.2005000        1.1923600E-18
  0.3620000        1.1798019E-18
  0.5235000        1.1673388E-18
  0.6850000        1.1581604E-18
  0.8465000        1.1548552E-18
   1.008000        1.1587723E-18
   1.169500        1.1696369E-18
   1.331000        1.1855464E-18
   1.492500        1.2033839E-18
   1.654000        1.2195455E-18
   1.815500        1.2308011E-18
   1.977000        1.2350628E-18
   2.138500        1.2318719E-18
   2.300000        1.2225066E-18
   2.461500        1.2096999E-18
   2.623000        1.1970498E-18
   2.784500        1.1882426E-18
   2.946000        1.1862432E-18
   3.107500        1.1926186E-18
   3.269000        1.2071378E-18
   3.430500        1.2277634E-18
   3.592000        1.2510621E-18
   3.753500        1.2729631E-18
   3.915000        1.2896959E-18
   4.076500        1.2986714E-18
   4.238000        1.2990877E-18
   4.399500        1.2921073E-18
   4.561000        1.2805761E-18
   4.722500        1.2683600E-18
   4.884000        1.2594585E-18
   5.045500        1.2570978E-18
   5.207000        1.2629894E-18
   5.368500        1.2769159E-18
   5.530000        1.2967374E-18
   5.691500        1.3188375E-18
   5.853000        1.3389258E-18
   6.014500        1.3530268E-18
   6.176000        1.3584278E-18
   6.337500        1.3543418E-18
   6.499000        1.3421250E-18
   6.660500        1.3249909E-18
   6.822000        1.3072922E-18
   6.983500        1.2935507E-18
   7.145000        1.2874532E-18
   7.306500        1.2910341E-18
   7.468000        1.3042174E-18
   7.629500        1.3248068E-18
   7.791000        1.3489418E-18
   7.952500        1.3719349E-18
   8.114000        1.3893195E-18
   8.275500        1.3978745E-18
   8.437000        1.3963805E-18
   8.598500        1.3859121E-18
   8.760000        1.3695867E-18
   8.921500        1.3518317E-18
   9.083000        1.3373515E-18
   9.244500        1.3300572E-18
   9.406000        1.3321952E-18
   9.567500        1.3438647E-18
   9.729000        1.3630081E-18
   9.890500        1.3858641E-18
   10.05200        1.4077928E-18
   10.21350        1.4243085E-18
   10.37500        1.4321073E-18
   10.53650        1.4298591E-18
   10.69800        1.4185604E-18
   10.85950        1.4013419E-18
   11.02100        1.3827542E-18
   11.18250        1.3677049E-18
   11.34400        1.3603140E-18
   11.50550        1.3629762E-18
   11.66700        1.3758462E-18
   11.82850        1.3968440E-18
   11.99000        1.4221471E-18
   12.15150        1.4470385E-18
   12.31300        1.4669205E-18
   12.47450        1.4783000E-18
   12.63600        1.4795481E-18
   12.79750        1.4712749E-18
   12.95900        1.4562158E-18
   13.12050        1.4386255E-18
   13.28200        1.4232989E-18
   13.44350        1.4144439E-18
   13.60500        1.4146968E-18
   13.76650        1.4245288E-18
   13.92800        1.4421913E-18
   14.08950        1.4641860E-18
   14.25100        1.4861145E-18
   14.41250        1.5036855E-18
   14.57400        1.5136538E-18
   14.73550        1.5145050E-18
   14.89700        1.5067644E-18
   15.05850        1.4928862E-18
   15.22000        1.4767282E-18
   15.38150        1.4627023E-18
   15.54300        1.4547681E-18
   15.70450        1.4554960E-18
   15.86600        1.4654410E-18
   16.02750        1.4830018E-18
   16.18900        1.5048118E-18
   16.35050        1.5265578E-18
   16.51200        1.5439985E-18
   16.67350        1.5539253E-18
   16.83500        1.5548399E-18
   16.99650        1.5472245E-18
   17.15800        1.5333869E-18
   17.31950        1.5169373E-18
   17.48100        1.5020139E-18
   17.64250        1.4924042E-18
   17.80400        1.4907259E-18
   17.96550        1.4978470E-18
   18.12700        1.5126940E-18
   18.28850        1.5325142E-18
   18.45000        1.5535483E-18
   18.61150        1.5719446E-18
   18.77300        1.5846673E-18
   18.93450        1.5901637E-18
   19.09600        1.5886349E-18
   19.25750        1.5818761E-18
   19.41900        1.5727702E-18
   19.58050        1.5645826E-18
   19.74200        1.5602236E-18
   19.90350        1.5616176E-18
   20.06500        1.5692926E-18
   20.22650        1.5822646E-18
   20.38800        1.5982543E-18
   20.54950        1.6142074E-18
   20.71100        1.6270115E-18
   20.87250        1.6342400E-18
   21.03400        1.6347256E-18
   21.19550        1.6288113E-18
   21.35700        1.6182136E-18
   21.51850        1.6055655E-18
   21.68000        1.5937780E-18
   21.84150        1.5853962E-18
   22.00300        1.5820952E-18
   22.16450        1.5843988E-18
   22.32600        1.5916493E-18
   22.48750        1.6022125E-18
   22.64900        1.6138705E-18
   22.81050        1.6243354E-18
   22.97200        1.6317766E-18
   23.13350        1.6352423E-18
   23.29500        1.6348593E-18
   23.45650        1.6317503E-18
   23.61800        1.6276916E-18
   23.77950        1.6246160E-18
   23.94100        1.6241086E-18
   24.10250        1.6270355E-18
   24.26400        1.6333856E-18
   24.42550        1.6423341E-18
   24.58700        1.6524798E-18
   24.74850        1.6621868E-18
   24.91000        1.6699530E-18
   25.07150        1.6747465E-18
   25.23300        1.6762377E-18
   25.39450        1.6748746E-18
   25.55600        1.6717698E-18
   25.71750        1.6684118E-18
   25.87900        1.6662737E-18
   26.04050        1.6664353E-18
   26.20200        1.6693339E-18
   26.36350        1.6747150E-18
   26.52500        1.6817811E-18
   26.68650        1.6894697E-18
   26.84800        1.6967657E-18
   27.00950        1.7029603E-18
   27.17100        1.7077978E-18
   27.33250        1.7115014E-18
   27.49400        1.7146775E-18
   27.65550        1.7181240E-18
   27.81700        1.7225728E-18
   27.97850        1.7284294E-18
   28.14000        1.7355827E-18
   28.30150        1.7433659E-18
   28.46300        1.7506984E-18
   28.62450        1.7563867E-18
   28.78600        1.7594888E-18
   28.94750        1.7596183E-18
   29.10900        1.7570840E-18
   29.27050        1.7528228E-18
   29.43200        1.7481546E-18
   29.59350        1.7444420E-18
   29.75500        1.7427480E-18
   29.91650        1.7435708E-18
   30.07800        1.7467075E-18
   30.23950        1.7512679E-18
   30.40100        1.7558588E-18
   30.56250        1.7589131E-18
   30.72400        1.7591146E-18
   30.88550        1.7558110E-18
   31.04700        1.7492897E-18
   31.20850        1.7408109E-18
   31.37000        1.7323547E-18
   31.53150        1.7261400E-18
   31.69300        1.7240570E-18
   31.85450        1.7271741E-18
   32.01600        1.7354580E-18
   32.17750        1.7477660E-18
   32.33900        1.7620996E-18
   32.50050        1.7760420E-18
   32.66200        1.7872896E-18
   32.82350        1.7941789E-18
   32.98500        1.7961003E-18
   33.14650        1.7937097E-18
   33.30800        1.7888550E-18
   33.46950        1.7841965E-18
   33.63100        1.7825781E-18
   33.79250        1.7862967E-18
   33.95400        1.7964690E-18
   34.11550        1.8126819E-18
   34.27700        1.8330291E-18
   34.43850        1.8545265E-18
   34.60000        1.8737849E-18
   34.76150        1.8877676E-18
   34.92300        1.8944589E-18
   35.08450        1.8933056E-18
   35.24600        1.8853599E-18
   35.40750        1.8730874E-18
   35.56900        1.8598780E-18
   35.73050        1.8493196E-18
   35.89200        1.8443861E-18
   36.05350        1.8467134E-18
   36.21500        1.8561579E-18
   36.37650        1.8707769E-18
   36.53800        1.8872608E-18
   36.69950        1.9017176E-18
   36.86100        1.9106141E-18
   37.02250        1.9116262E-18
   37.18400        1.9042004E-18
   37.34550        1.8897003E-18
   37.50700        1.8711320E-18
   37.66850        1.8525107E-18
   37.83000        1.8380115E-18
   37.99150        1.8310602E-18
   38.15300        1.8335503E-18
   38.31450        1.8453560E-18
   38.47600        1.8642736E-18
   38.63750        1.8864418E-18
   38.79900        1.9071718E-18
   38.96050        1.9220147E-18
   39.12200        1.9278038E-18
   39.28350        1.9234059E-18
   39.44500        1.9100028E-18
   39.60650        1.8908276E-18
   39.76800        1.8704336E-18
   39.92950        1.8536751E-18
   40.09100        1.8446306E-18
   40.25250        1.8457007E-18
   40.41400        1.8570711E-18
   40.57550        1.8766515E-18
   40.73700        1.9005200E-18
   40.89850        1.9237895E-18
   41.06000        1.9417207E-18
   41.22150        1.9508329E-18
   41.38300        1.9497466E-18
   41.54450        1.9395373E-18
   41.70600        1.9235053E-18
   41.86750        1.9064056E-18
   42.02900        1.8933279E-18
   42.19050        1.8884935E-18
   42.35200        1.8942599E-18
   42.51350        1.9105564E-18
   42.67500        1.9348801E-18
   42.83650        1.9628376E-18
   42.99800        1.9891214E-18
   43.15950        2.0086967E-18
   43.32100        2.0179390E-18
   43.48250        2.0154717E-18
   43.64400        2.0024961E-18
   43.80550        1.9825373E-18
   43.96700        1.9606517E-18
   44.12850        1.9422796E-18
   44.29000        1.9320143E-18
   44.45150        1.9325731E-18
   44.61300        1.9442105E-18
   44.77450        1.9647020E-18
   44.93600        1.9898895E-18
   45.09750        2.0146555E-18
   45.25900        2.0340950E-18
   45.42050        2.0446217E-18
   45.58200        2.0447590E-18
   45.74350        2.0354388E-18
   45.90500        2.0197453E-18
   46.06650        2.0021681E-18
   46.22800        1.9875363E-18
   46.38950        1.9798928E-18
   46.55100        1.9815664E-18
   46.71250        1.9926539E-18
   46.87400        2.0110231E-18
   47.03550        2.0328210E-18
   47.19700        2.0533621E-18
   47.35850        2.0681916E-18
   47.52000        2.0740847E-18
   47.68150        2.0697676E-18
   47.84300        2.0562025E-18
   48.00450        2.0363687E-18
   48.16600        2.0145957E-18
   48.32750        1.9955896E-18
   48.48900        1.9833841E-18
   48.65050        1.9804590E-18
   48.81200        1.9872303E-18
   48.97350        2.0020244E-18
   49.13500        2.0215264E-18
   49.29650        2.0415802E-18
   49.45800        2.0581430E-18
   49.61950        2.0681825E-18
   49.78100        2.0703164E-18
   49.94250        2.0650750E-18
   50.10400        2.0547303E-18
   50.26550        2.0427430E-18
   50.42700        2.0329405E-18
   50.58850        2.0286098E-18
   50.75000        2.0317152E-18
   50.91150        2.0424349E-18
   51.07300        2.0591303E-18
   51.23450        2.0787624E-18
   51.39600        2.0976424E-18
   51.55750        2.1123219E-18
   51.71900        2.1203884E-18
   51.88050        2.1209798E-18
   52.04200        2.1149081E-18
   52.20350        2.1043932E-18
   52.36500        2.0924938E-18
   52.52650        2.0823811E-18
   52.68800        2.0766222E-18
   52.84950        2.0766191E-18
   53.01100        2.0823296E-18
   53.17250        2.0923209E-18
   53.33400        2.1041583E-18
   53.49550        2.1150330E-18
   53.65700        2.1224805E-18
   53.81850        2.1249933E-18
   53.98000        2.1223707E-18
   54.14150        2.1157069E-18
   54.30300        2.1070437E-18
   54.46450        2.0987938E-18
   54.62600        2.0931185E-18
   54.78750        2.0914230E-18
   54.94900        2.0940869E-18
   55.11050        2.1004645E-18
   55.27200        2.1091238E-18
   55.43350        2.1182410E-18
   55.59500        2.1260597E-18
   55.75650        2.1313142E-18
   55.91800        2.1335310E-18
   56.07950        2.1331387E-18
   56.24100        2.1313442E-18
   56.40250        2.1297949E-18
   56.56400        2.1301034E-18
   56.72550        2.1333722E-18
   56.88700        2.1398600E-18
   57.04850        2.1489025E-18
   57.21000        2.1591054E-18
   57.37150        2.1687491E-18
   57.53300        2.1762650E-18
   57.69450        2.1806458E-18
   57.85600        2.1816756E-18
   58.01750        2.1799485E-18
   58.17900        2.1766894E-18
   58.34050        2.1734396E-18
   58.50200        2.1716825E-18
   58.66350        2.1724749E-18
   58.82500        2.1761629E-18
   58.98650        2.1822553E-18
   59.14800        2.1895045E-18
   59.30950        2.1962168E-18
   59.47100        2.2007277E-18
   59.63250        2.2019172E-18
   59.79400        2.1996023E-18
   59.95550        2.1946708E-18
   60.11700        2.1888911E-18
   60.27850        2.1844525E-18
   60.44000        2.1833726E-18
   60.60150        2.1869444E-18
   60.76300        2.1953696E-18
   60.92450        2.2076634E-18
   61.08600        2.2218350E-18
   61.24750        2.2352991E-18
   61.40900        2.2454366E-18
   61.57050        2.2501956E-18
   61.73200        2.2486121E-18
   61.89350        2.2411195E-18
   62.05500        2.2295404E-18
   62.21650        2.2167173E-18
   62.37800        2.2058419E-18
   62.53950        2.1996439E-18
   62.70100        2.1996678E-18
   62.86250        2.2058487E-18
   63.02400        2.2165173E-18
   63.18550        2.2288243E-18
   63.34700        2.2394712E-18
   63.50850        2.2455387E-18
   63.67000        2.2452190E-18
   63.83150        2.2382833E-18
   63.99300        2.2261891E-18
   64.15450        2.2118015E-18
   64.31600        2.1987728E-18
   64.47750        2.1907016E-18
   64.63900        2.1902473E-18
   64.80050        2.1984219E-18
   64.96200        2.2142521E-18
   65.12350        2.2349316E-18
   65.28500        2.2564468E-18
   65.44650        2.2745273E-18
   65.60800        2.2856651E-18
   65.76950        2.2879514E-18
   65.93100        2.2815219E-18
   66.09250        2.2685195E-18
   66.25400        2.2525975E-18
   66.41550        2.2380889E-18
   66.57700        2.2290206E-18
   66.73850        2.2281851E-18
   66.90000        2.2364768E-18
   67.06150        2.2526500E-18
   67.22300        2.2735853E-18
   67.38450        2.2950188E-18
   67.54600        2.3125695E-18
   67.70750        2.3228102E-18
   67.86900        2.3241089E-18
   68.03050        2.3170233E-18
   68.19200        2.3041627E-18
   68.35350        2.2895642E-18
   68.51500        2.2777423E-18
   68.67650        2.2726345E-18
   68.83800        2.2766686E-18
   68.99950        2.2901577E-18
   69.16100        2.3111530E-18
   69.32250        2.3358178E-18
   69.48400        2.3592585E-18
   69.64550        2.3766460E-18
   69.80700        2.3843582E-18
   69.96850        2.3808570E-18
   70.13000        2.3670658E-18
   70.29150        2.3461518E-18
   70.45300        2.3227809E-18
   70.61450        2.3020434E-18
   70.77600        2.2883232E-18
   70.93750        2.2843548E-18
   71.09900        2.2906625E-18
   71.26050        2.3054754E-18
   71.42200        2.3251342E-18
   71.58350        2.3449160E-18
   71.74500        2.3601194E-18
   71.90650        2.3671835E-18
   72.06800        2.3645704E-18
   72.22950        2.3531607E-18
   72.39100        2.3360441E-18
   72.55250        2.3177394E-18
   72.71400        2.3030584E-18
   72.87550        2.2959258E-18
   73.03700        2.2984599E-18
   73.19850        2.3105196E-18
   73.36000        2.3297821E-18
   73.52150        2.3522940E-18
   73.68300        2.3733466E-18
   73.84450        2.3885072E-18
   74.00600        2.3946095E-18
   74.16750        2.3905114E-18
   74.32900        2.3774341E-18
   74.49050        2.3587582E-18
   74.65200        2.3392765E-18
   74.81350        2.3240504E-18
   74.97500        2.3171734E-18
   75.13650        2.3207702E-18
   75.29800        2.3345163E-18
   75.45950        2.3557758E-18
   75.62100        2.3802885E-18
   75.78250        2.4031824E-18
   75.94400        2.4200558E-18
   76.10550        2.4278967E-18
   76.26700        2.4256904E-18
   76.42850        2.4146140E-18
   76.59000        2.3977908E-18
   76.75150        2.3796071E-18
   76.91300        2.3647111E-18
   77.07450        2.3568868E-18
   77.23600        2.3580980E-18
   77.39750        2.3679776E-18
   77.55900        2.3839347E-18
   77.72050        2.4018674E-18
   77.88200        2.4172532E-18
   78.04350        2.4263108E-18
   78.20500        2.4269030E-18
   78.36650        2.4189834E-18
   78.52800        2.4045348E-18
   78.68950        2.3870652E-18
   78.85100        2.3708063E-18
   79.01250        2.3597734E-18
   79.17400        2.3568526E-18
   79.33550        2.3631040E-18
   79.49700        2.3774505E-18
   79.65850        2.3968785E-18
   79.82000        2.4171533E-18
   79.98150        2.4338904E-18
   80.14300        2.4436909E-18
   80.30450        2.4450055E-18
   80.46600        2.4384772E-18
   80.62750        2.4266888E-18
   80.78900        2.4134289E-18
   80.95050        2.4027173E-18
   81.11200        2.3978492E-18
   81.27350        2.4006746E-18
   81.43500        2.4112251E-18
   81.59650        2.4277391E-18
   81.75800        2.4470695E-18
   81.91950        2.4654145E-18
   82.08100        2.4792344E-18
   82.24250        2.4861494E-18
   82.40400        2.4855723E-18
   82.56550        2.4788715E-18
   82.72700        2.4689892E-18
   82.88850        2.4596174E-18
   83.05000        2.4541802E-18
   83.21150        2.4549312E-18
   83.37300        2.4624135E-18
   83.53450        2.4753944E-18
   83.69600        2.4912331E-18
   83.85750        2.5065541E-18
   84.01900        2.5180470E-18
   84.18050        2.5232317E-18
   84.34200        2.5210443E-18
   84.50350        2.5121146E-18
   84.66500        2.4986535E-18
   84.82650        2.4839324E-18
   84.98800        2.4714527E-18
   85.14950        2.4640273E-18
   85.31100        2.4630384E-18
   85.47250        2.4680997E-18
   85.63400        2.4772277E-18
   85.79550        2.4874421E-18
   85.95700        2.4955942E-18
   86.11850        2.4991790E-18
   86.28000        2.4969307E-18
   86.44150        2.4890967E-18
   86.60300        2.4773644E-18
   86.76450        2.4644800E-18
   86.92600        2.4536257E-18
   87.08750        2.4476671E-18
   87.24900        2.4484153E-18
   87.41050        2.4561064E-18
   87.57200        2.4692607E-18
   87.73350        2.4850094E-18
   87.89500        2.4998269E-18
   88.05650        2.5104532E-18
   88.21800        2.5147389E-18
   88.37950        2.5121678E-18
   88.54100        2.5039413E-18
   88.70250        2.4926414E-18
   88.86400        2.4816006E-18
   89.02550        2.4741404E-18
   89.18700        2.4728217E-18
   89.34850        2.4788465E-18
   89.51000        2.4917157E-18
   89.67150        2.5092549E-18
   89.83300        2.5280511E-18
   89.99450        2.5442599E-18
   90.15600        2.5545939E-18
   90.31750        2.5572156E-18
   90.47900        2.5522563E-18
   90.64050        2.5417858E-18
   90.80200        2.5292472E-18
   90.96350        2.5185365E-18
   91.12500        2.5130057E-18
   91.28650        2.5146491E-18
   91.44800        2.5236393E-18
   91.60950        2.5382802E-18
   91.77100        2.5553580E-18
   91.93250        2.5708277E-18
   92.09400        2.5807266E-18
   92.25550        2.5821495E-18
   92.41700        2.5740589E-18
   92.57850        2.5576890E-18
   92.74000        2.5363744E-18
   92.90150        2.5147941E-18
   93.06300        2.4978234E-18
   93.22450        2.4893196E-18
   93.38600        2.4911961E-18
   93.54750        2.5030254E-18
   93.70900        2.5222304E-18
   93.87050        2.5447570E-18
   94.03200        2.5660239E-18
   94.19350        2.5819308E-18
   94.35500        2.5897447E-18
   94.51650        2.5887062E-18
   94.67800        2.5802375E-18
   94.83950        2.5676602E-18
   95.00100        2.5554287E-18
   95.16250        2.5480122E-18
   95.32400        2.5487046E-18
   95.48550        2.5587103E-18
   95.64700        2.5767830E-18
   95.80850        2.5995373E-18
   95.97000        2.6223261E-18
   96.13150        2.6404110E-18
   96.29300        2.6500944E-18
   96.45450        2.6495530E-18
   96.61600        2.6392186E-18
   96.77750        2.6216778E-18
   96.93900        2.6011333E-18
   97.10050        2.5825129E-18
   97.26200        2.5703763E-18
   97.42350        2.5678230E-18
   97.58500        2.5756756E-18
   97.74650        2.5921870E-18
   97.90800        2.6134145E-18
   98.06950        2.6342028E-18
   98.23100        2.6495114E-18
   98.39250        2.6557000E-18
   98.55400        2.6514081E-18
   98.71550        2.6378192E-18
   98.87700        2.6182901E-18
   99.03850        2.5975020E-18
   99.20000        2.5803697E-18
   99.36150        2.5709412E-18
   99.52300        2.5714921E-18
   99.68450        2.5819822E-18
   99.84600        2.5999997E-18
   100.0075        2.6212593E-18
   100.1690        2.6405990E-18
   100.3305        2.6532594E-18
   100.4920        2.6561167E-18
   100.6535        2.6485027E-18
   100.8150        2.6323621E-18
   100.9765        2.6117070E-18
   101.1380        2.5915544E-18
   101.2995        2.5766709E-18
   101.4610        2.5704615E-18
   101.6225        2.5742487E-18
   101.7840        2.5870498E-18
   101.9455        2.6058402E-18
   102.1070        2.6262327E-18
   102.2685        2.6434469E-18
   102.4300        2.6534014E-18
   102.5915        2.6537067E-18
   102.7530        2.6443049E-18
   102.9145        2.6275477E-18
   103.0760        2.6076430E-18
   103.2375        2.5895973E-18
   103.3990        2.5779512E-18
   103.5605        2.5756702E-18
   103.7220        2.5834902E-18
   103.8835        2.5998506E-18
   104.0450        2.6213643E-18
   104.2065        2.6436539E-18
   104.3680        2.6623404E-18
   104.5295        2.6739935E-18
   104.6910        2.6768876E-18
   104.8525        2.6714172E-18
   105.0140        2.6600708E-18
   105.1755        2.6469014E-18
   105.3370        2.6365695E-18
   105.4985        2.6331591E-18
   105.6600        2.6390927E-18
   105.8215        2.6544602E-18
   105.9830        2.6769711E-18
   106.1445        2.7025246E-18
   106.3060        2.7262173E-18
   106.4675        2.7435006E-18
   106.6290        2.7511942E-18
   106.7905        2.7481622E-18
   106.9520        2.7355403E-18
   107.1135        2.7165044E-18
   107.2750        2.6956091E-18
   107.4365        2.6777981E-18
   107.5980        2.6672588E-18
   107.7595        2.6663828E-18
   107.9210        2.6751153E-18
   108.0825        2.6909201E-18
   108.2440        2.7094082E-18
   108.4055        2.7254811E-18
   108.5670        2.7346539E-18
   108.7285        2.7341876E-18
   108.8900        2.7237378E-18
   109.0515        2.7053912E-18
   109.2130        2.6831417E-18
   109.3745        2.6619594E-18
   109.5360        2.6466740E-18
   109.6975        2.6408790E-18
   109.8590        2.6460786E-18
   110.0205        2.6612588E-18
   110.1820        2.6830383E-18
   110.3435        2.7064179E-18
   110.5050        2.7259936E-18
   110.6665        2.7373309E-18
   110.8280        2.7381076E-18
   110.9895        2.7286982E-18
   111.1510        2.7120359E-18
   111.3125        2.6928253E-18
   111.4740        2.6763524E-18
   111.6355        2.6672265E-18
   111.7970        2.6683393E-18
   111.9585        2.6802374E-18
   112.1200        2.7010069E-18
   112.2815        2.7266694E-18
   112.4430        2.7520417E-18
   112.6045        2.7719079E-18
   112.7660        2.7822683E-18
   112.9275        2.7813499E-18
   113.0890        2.7700866E-18
   113.2505        2.7518934E-18
   113.4120        2.7317749E-18
   113.5735        2.7150301E-18
   113.7350        2.7059255E-18
   113.8965        2.7067039E-18
   114.0580        2.7171514E-18
   114.2195        2.7347586E-18
   114.3810        2.7553781E-18
   114.5425        2.7741892E-18
   114.7040        2.7867748E-18
   114.8655        2.7901243E-18
   115.0270        2.7833691E-18
   115.1885        2.7680642E-18
   115.3500        2.7478967E-18
   115.5115        2.7278258E-18
   115.6730        2.7128455E-18
   115.8345        2.7067049E-18
   115.9960        2.7109602E-18
   116.1575        2.7246328E-18
   116.3190        2.7445425E-18
   116.4805        2.7661643E-18
   116.6420        2.7847337E-18