  -30.00000        8.5165730E-18
  -29.83850        8.5017747E-18
  -29.67700        8.4750353E-18
  -29.51550        8.4411730E-18
  -29.35400        8.4059938E-18
  -29.19250        8.3750606E-18
  -29.03100        8.3524794E-18
  -28.86950        8.3399873E-18
  -28.70800        8.3365984E-18
  -28.54650        8.3389227E-18
  -28.38500        8.3420718E-18
  -28.22350        8.3409080E-18
  -28.06200        8.3313027E-18
  -27.90050        8.3110956E-18
  -27.73900        8.2805651E-18
  -27.57750        8.2423444E-18
  -27.41600        8.2008555E-18
  -27.25450        8.1613734E-18
  -27.09300        8.1288974E-18
  -26.93150        8.1070450E-18
  -26.77000        8.0971883E-18
  -26.60850        8.0980742E-18
  -26.44700        8.1060482E-18
  -26.28550        8.1158801E-18
  -26.12400        8.1219855E-18
  -25.96250        8.1197455E-18
  -25.80100        8.1065462E-18
  -25.63950        8.0823206E-18
  -25.47800        8.0494749E-18
  -25.31650        8.0122799E-18
  -25.15500        7.9759071E-18
  -24.99350        7.9453287E-18
  -24.83200        7.9242753E-18
  -24.67050        7.9144418E-18
  -24.50900        7.9151002E-18
  -24.34750        7.9232198E-18
  -24.18600        7.9341336E-18
  -24.02450        7.9426073E-18
  -23.86300        7.9440954E-18
  -23.70150        7.9358236E-18
  -23.54000        7.9174196E-18
  -23.37850        7.8909341E-18
  -23.21700        7.8602689E-18
  -23.05550        7.8302133E-18
  -22.89400        7.8053474E-18
  -22.73250        7.7890586E-18
  -22.57100        7.7828497E-18
  -22.40950        7.7860393E-18
  -22.24800        7.7959043E-18
  -22.08650        7.8082367E-18
  -21.92500        7.8182580E-18
  -21.76350        7.8217057E-18
  -21.60200        7.8158567E-18
  -21.44050        7.8002015E-18
  -21.27900        7.7765747E-18
  -21.11750        7.7486839E-18
  -20.95600        7.7211834E-18
  -20.79450        7.6985625E-18
  -20.63300        7.6841266E-18
  -20.47150        7.6793256E-18
  -20.31000        7.6835202E-18
  -20.14850        7.6941785E-18
  -19.98700        7.7074340E-18
  -19.82550        7.7189029E-18
  -19.66400        7.7246088E-18
  -19.50250        7.7218642E-18
  -19.34100        7.7099032E-18
  -19.17950        7.6900881E-18
  -19.01800        7.6655936E-18
  -18.85650        7.6406301E-18
  -18.69500        7.6193964E-18
  -18.53350        7.6050779E-18
  -18.37200        7.5991420E-18
  -18.21050        7.6011008E-18
  -18.04900        7.6087439E-18
  -17.88750        7.6187222E-18
  -17.72600        7.6273307E-18
  -17.56450        7.6313012E-18
  -17.40300        7.6285069E-18
  -17.24150        7.6184327E-18
  -17.08000        7.6023267E-18
  -16.91850        7.5829599E-18
  -16.75700        7.5639976E-18
  -16.59550        7.5491133E-18
  -16.43400        7.5410624E-18
  -16.27250        7.5409854E-18
  -16.11100        7.5481472E-18
  -15.94950        7.5601595E-18
  -15.78800        7.5736078E-18
  -15.62650        7.5848558E-18
  -15.46500        7.5908404E-18
  -15.30350        7.5896675E-18
  -15.14200        7.5809540E-18
  -14.98050        7.5658670E-18
  -14.81900        7.5468808E-18
  -14.65750        7.5272609E-18
  -14.49600        7.5103533E-18
  -14.33450        7.4988009E-18
  -14.17300        7.4939007E-18
  -14.01150        7.4952878E-18
  -13.85000        7.5010715E-18
  -13.68850        7.5083755E-18
  -13.52700        7.5141203E-18
  -13.36550        7.5158028E-18
  -13.20400        7.5120440E-18
  -13.04250        7.5028235E-18
  -12.88100        7.4893727E-18
  -12.71950        7.4738490E-18
  -12.55800        7.4588464E-18
  -12.39650        7.4468490E-18
  -12.23500        7.4396889E-18
  -12.07350        7.4380933E-18
  -11.91200        7.4414524E-18
  -11.75050        7.4479045E-18
  -11.58900        7.4547800E-18
  -11.42750        7.4592931E-18
  -11.26600        7.4592881E-18
  -11.10450        7.4537874E-18
  -10.94300        7.4431821E-18
  -10.78150        7.4290282E-18
  -10.62000        7.4135665E-18
  -10.45850        7.3991480E-18
  -10.29700        7.3877204E-18
  -10.13550        7.3804661E-18
  -9.974000        7.3776106E-18
  -9.812500        7.3783882E-18
  -9.651000        7.3811956E-18
  -9.489500        7.3839220E-18
  -9.328000        7.3844614E-18
  -9.166500        7.3812850E-18
  -9.005000        7.3739082E-18
  -8.843500        7.3630639E-18
  -8.682000        7.3504948E-18
  -8.520500        7.3384213E-18
  -8.359000        7.3288699E-18
  -8.197500        7.3231119E-18
  -8.036000        7.3213706E-18
  -7.874500        7.3228455E-18
  -7.713000        7.3259822E-18
  -7.551500        7.3288566E-18
  -7.390000        7.3295812E-18
  -7.228500        7.3266795E-18
  -7.067000        7.3194193E-18
  -6.905500        7.3080456E-18
  -6.744000        7.2938421E-18
  -6.582500        7.2789222E-18
  -6.421000        7.2657378E-18
  -6.259500        7.2564196E-18
  -6.098000        7.2521580E-18
  -5.936500        7.2528511E-18
  -5.775000        7.2571566E-18
  -5.613500        7.2629096E-18
  -5.452000        7.2677412E-18
  -5.290500        7.2696768E-18
  -5.129000        7.2675419E-18
  -4.967500        7.2611353E-18
  -4.806000        7.2511926E-18
  -4.644500        7.2392027E-18
  -4.483000        7.2271010E-18
  -4.321500        7.2168630E-18
  -4.160000        7.2100106E-18
  -3.998500        7.2071370E-18
  -3.837000        7.2076283E-18
  -3.675500        7.2097112E-18
  -3.514000        7.2108957E-18
  -3.352500        7.2086896E-18
  -3.191000        7.2013525E-18
  -3.029500        7.1884187E-18
  -2.868000        7.1708279E-18
  -2.706500        7.1506712E-18
  -2.545000        7.1306600E-18
  -2.383500        7.1135291E-18
  -2.222000        7.1014829E-18
  -2.060500        7.0957836E-18
  -1.899000        7.0964759E-18
  -1.737500        7.1023101E-18
  -1.576000        7.1109028E-18
  -1.414500        7.1191978E-18
  -1.253000        7.1241716E-18
  -1.091500        7.1236389E-18
 -0.9300000        7.1168825E-18
 -0.7685000        7.1048975E-18
 -0.6070000        7.0901199E-18
 -0.4455000        7.0757485E-18
 -0.2840000        7.0648801E-18
 -0.1225000        7.0597359E-18
  3.9000001E-02    7.0611694E-18
  0.2005000        7.0685321E-18
  0.3620000        7.0798289E-18
  0.5235000        7.0921200E-18
  0.6850000        7.1020727E-18
  0.8465000        7.1066403E-18
   1.008000        7.1037725E-18
   1.169500        7.0929977E-18
   1.331000        7.0756889E-18
   1.492500        7.0548555E-18
   1.654000        7.0344448E-18
   1.815500        7.0183388E-18
   1.977000        7.0093531E-18
   2.138500        7.0085359E-18
   2.300000        7.0149681E-18
   2.461500        7.0260605E-18
   2.623000        7.0381945E-18
   2.784500        7.0475226E-18
   2.946000        7.0507494E-18
   3.107500        7.0457962E-18
   3.269000        7.0322710E-18
   3.430500        7.0116519E-18
   3.592000        6.9870937E-18
   3.753500        6.9628044E-18
   3.915000        6.9430712E-18
   4.076500        6.9311738E-18
   4.238000        6.9285111E-18
   4.399500        6.9342145E-18
   4.561000        6.9454005E-18
   4.722500        6.9579439E-18
   4.884000        6.9675119E-18
   5.045500        6.9705799E-18
   5.207000        6.9651710E-18
   5.368500        6.9512354E-18
   5.530000        6.9306420E-18
   5.691500        6.9068390E-18
   5.853000        6.8841867E-18
   6.014500        6.8670483E-18
   6.176000        6.8587678E-18
   6.337500        6.8607779E-18
   6.499000        6.8721119E-18
   6.660500        6.8895216E-18
   6.822000        6.9082278E-18
   6.983500        6.9230964E-18
   7.145000        6.9298867E-18
   7.306500        6.9262285E-18
   7.468000        6.9120800E-18
   7.629500        6.8896378E-18
   7.791000        6.8627958E-18
   7.952500        6.8363136E-18
   8.114000        6.8148673E-18
   8.275500        6.8020952E-18
   8.437000        6.7998014E-18
   8.598500        6.8074772E-18
   8.760000        6.8223152E-18
   8.921500        6.8397997E-18
   9.083000        6.8547845E-18
   9.244500        6.8627887E-18
   9.406000        6.8611302E-18
   9.567500        6.8495658E-18
   9.729000        6.8302702E-18
   9.890500        6.8072183E-18
   10.05200        6.7851946E-18
   10.21350        6.7687011E-18
   10.37500        6.7610025E-18
   10.53650        6.7634443E-18
   10.69800        6.7751287E-18
   10.85950        6.7930127E-18
   11.02100        6.8124593E-18
   11.18250        6.8282051E-18
   11.34400        6.8355766E-18
   11.50550        6.8316669E-18
   11.66700        6.8161142E-18
   11.82850        6.7912364E-18
   11.99000        6.7614616E-18
   12.15150        6.7322352E-18
   12.31300        6.7087272E-18
   12.47450        6.6946998E-18
   12.63600        6.6917638E-18
   12.79750        6.6991323E-18
   12.95900        6.7138425E-18
   13.12050        6.7313758E-18
   13.28200        6.7465839E-18
   13.44350        6.7547912E-18
   13.60500        6.7528800E-18
   13.76650        6.7400959E-18
   13.92800        6.7183175E-18
   14.08950        6.6916538E-18
   14.25100        6.6654330E-18
   14.41250        6.6448635E-18
   14.57400        6.6337619E-18
   14.73550        6.6336924E-18
   14.89700        6.6437112E-18
   15.05850        6.6606924E-18
   15.22000        6.6800832E-18
   15.38150        6.6968828E-18
   15.54300        6.7066658E-18
   15.70450        6.7064975E-18
   15.86600        6.6955973E-18
   16.02750        6.6755949E-18
   16.18900        6.6502480E-18
   16.35050        6.6246153E-18
   16.51200        6.6038353E-18
   16.67350        6.5918453E-18
   16.83500        6.5904081E-18
   16.99650        6.5987403E-18
   17.15800        6.6138090E-18
   17.31950        6.6311620E-18
   17.48100        6.6460012E-18
   17.64250        6.6542263E-18
   17.80400        6.6532358E-18
   17.96550        6.6424051E-18
   18.12700        6.6231963E-18
   18.28850        6.5988859E-18
   18.45000        6.5739062E-18
   18.61150        6.5528723E-18
   18.77300        6.5394778E-18
   18.93450        6.5355474E-18
   19.09600        6.5405510E-18
   19.25750        6.5517523E-18
   19.41900        6.5649607E-18
   19.58050        6.5756400E-18
   19.74200        6.5800266E-18
   19.90350        6.5759548E-18
   20.06500        6.5632356E-18
   20.22650        6.5435955E-18
   20.38800        6.5202619E-18
   20.54950        6.4973164E-18
   20.71100        6.4788876E-18
   20.87250        6.4682943E-18
   21.03400        6.4672678E-18
   21.19550        6.4754701E-18
   21.35700        6.4904872E-18
   21.51850        6.5083762E-18
   21.68000        6.5246419E-18
   21.84150        6.5353634E-18
   22.00300        6.5381129E-18
   22.16450        6.5324194E-18
   22.32600        6.5196949E-18
   22.48750        6.5027394E-18
   22.64900        6.4850253E-18
   22.81050        6.4699516E-18
   22.97200        6.4601809E-18
   23.13350        6.4571249E-18
   23.29500        6.4606346E-18
   23.45650        6.4689800E-18
   23.61800        6.4791928E-18
   23.77950        6.4877670E-18
   23.94100        6.4915641E-18
   24.10250        6.4886636E-18
   24.26400        6.4788677E-18
   24.42550        6.4636977E-18
   24.58700        6.4459112E-18
   24.74850        6.4287303E-18
   24.91000        6.4150537E-18
   25.07150        6.4068555E-18
   25.23300        6.4048545E-18
   25.39450        6.4084490E-18
   25.55600        6.4158556E-18
   25.71750        6.4244409E-18
   25.87900        6.4312308E-18
   26.04050        6.4335598E-18
   26.20200        6.4297332E-18
   26.36350        6.4194973E-18
   26.52500        6.4041353E-18
   26.68650        6.3861193E-18
   26.84800        6.3684139E-18
   27.00950        6.3536864E-18
   27.17100        6.3436742E-18
   27.33250        6.3388931E-18
   27.49400        6.3386846E-18
   27.65550        6.3415128E-18
   27.81700        6.3453633E-18
   27.97850        6.3481674E-18
   28.14000        6.3482108E-18
   28.30150        6.3445117E-18
   28.46300        6.3371035E-18
   28.62450        6.3271095E-18
   28.78600        6.3165162E-18
   28.94750        6.3076484E-18
   29.10900        6.3024938E-18
   29.27050        6.3021075E-18
   29.43200        6.3063228E-18
   29.59350        6.3138539E-18
   29.75500        6.3227171E-18
   29.91650        6.3307784E-18
   30.07800        6.3362411E-18
   30.23950        6.3379633E-18
   30.40100        6.3356063E-18
   30.56250        6.3296530E-18
   30.72400        6.3213262E-18
   30.88550        6.3123741E-18
   31.04700        6.3047028E-18
   31.20850        6.2998890E-18
   31.37000        6.2987004E-18
   31.53150        6.3008179E-18
   31.69300        6.3049013E-18
   31.85450        6.3090033E-18
   32.01600        6.3111776E-18
   32.17750        6.3100518E-18
   32.33900        6.3051540E-18
   32.50050        6.2969347E-18
   32.66200        6.2865375E-18
   32.82350        6.2754653E-18
   32.98500        6.2652426E-18
   33.14650        6.2571205E-18
   33.30800        6.2518100E-18
   33.46950        6.2492635E-18
   33.63100        6.2485645E-18
   33.79250        6.2480405E-18
   33.95400        6.2456462E-18
   34.11550        6.2395590E-18
   34.27700        6.2287862E-18
   34.43850        6.2135520E-18
   34.60000        6.1952982E-18
   34.76150        6.1762967E-18
   34.92300        6.1590404E-18
   35.08450        6.1456289E-18
   35.24600        6.1373365E-18
   35.40750        6.1344140E-18
   35.56900        6.1361110E-18
   35.73050        6.1408391E-18
   35.89200        6.1464594E-18
   36.05350        6.1506942E-18
   36.21500        6.1516425E-18
   36.37650        6.1483090E-18
   36.53800        6.1409616E-18
   36.69950        6.1311562E-18
   36.86100        6.1213380E-18
   37.02250        6.1141361E-18
   37.18400        6.1115739E-18
   37.34550        6.1144856E-18
   37.50700        6.1223066E-18
   37.66850        6.1332655E-18
   37.83000        6.1448514E-18
   37.99150        6.1543884E-18
   38.15300        6.1595851E-18
   38.31450        6.1589904E-18
   38.47600        6.1523279E-18
   38.63750        6.1406506E-18
   38.79900        6.1262369E-18
   38.96050        6.1121645E-18
   39.12200        6.1015956E-18
   39.28350        6.0969394E-18
   39.44500        6.0991608E-18
   39.60650        6.1074806E-18
   39.76800        6.1195806E-18
   39.92950        6.1322286E-18
   40.09100        6.1421105E-18
   40.25250        6.1465988E-18
   40.41400        6.1442860E-18
   40.57550        6.1352180E-18
   40.73700        6.1208404E-18
   40.89850        6.1037161E-18
   41.06000        6.0870286E-18
   41.22150        6.0739136E-18
   41.38300        6.0667085E-18
   41.54450        6.0662957E-18
   41.70600        6.0717642E-18
   41.86750        6.0805505E-18
   42.02900        6.0890696E-18
   42.19050        6.0936613E-18
   42.35200        6.0915549E-18
   42.51350        6.0815526E-18
   42.67500        6.0642807E-18
   42.83650        6.0419907E-18
   42.99800        6.0180405E-18
   43.15950        5.9962045E-18
   43.32100        5.9799364E-18
   43.48250        5.9716724E-18
   43.64400        5.9722726E-18
   43.80550        5.9807193E-18
   43.96700        5.9942148E-18
   44.12850        6.0087355E-18
   44.29000        6.0199657E-18
   44.45150        6.0243738E-18
   44.61300        6.0201006E-18
   44.77450        6.0073918E-18
   44.93600        5.9884675E-18
   45.09750        5.9669062E-18
   45.25900        5.9467727E-18
   45.42050        5.9317262E-18
   45.58200        5.9242878E-18
   45.74350        5.9253598E-18
   45.90500        5.9340341E-18
   46.06650        5.9477285E-18
   46.22800        5.9626760E-18
   46.38950        5.9747359E-18
   46.55100        5.9803955E-18
   46.71250        5.9776985E-18
   46.87400        5.9668152E-18
   47.03550        5.9500417E-18
   47.19700        5.9312043E-18
   47.35850        5.9146598E-18
   47.52000        5.9042018E-18
   47.68150        5.9021702E-18
   47.84300        5.9089655E-18
   48.00450        5.9230049E-18
   48.16600        5.9410680E-18
   48.32750        5.9589363E-18
   48.48900        5.9722333E-18
   48.65050        5.9773510E-18
   48.81200        5.9723040E-18
   48.97350        5.9572965E-18
   49.13500        5.9347996E-18
   49.29650        5.9090342E-18
   49.45800        5.8849641E-18
   49.61950        5.8670647E-18
   49.78100        5.8582358E-18
   49.94250        5.8591680E-18
   50.10400        5.8682935E-18
   50.26550        5.8822720E-18
   50.42700        5.8968238E-18
   50.58850        5.9076809E-18
   50.75000        5.9114855E-18
   50.91150        5.9064931E-18
   51.07300        5.8929815E-18
   51.23450        5.8732586E-18
   51.39600        5.8512114E-18
   51.55750        5.8314211E-18
   51.71900        5.8180257E-18
   51.88050        5.8136392E-18
   52.04200        5.8186436E-18
   52.20350        5.8310968E-18
   52.36500        5.8472574E-18
   52.52650        5.8625557E-18
   52.68800        5.8726995E-18
   52.84950        5.8746330E-18
   53.01100        5.8671495E-18
   53.17250        5.8511026E-18
   53.33400        5.8292129E-18
   53.49550        5.8055316E-18
   53.65700        5.7846146E-18
   53.81850        5.7705377E-18
   53.98000        5.7659344E-18
   54.14150        5.7713202E-18
   54.30300        5.7849244E-18
   54.46450        5.8031228E-18
   54.62600        5.8213717E-18
   54.78750        5.8353609E-18
   54.94900        5.8420334E-18
   55.11050        5.8402086E-18
   55.27200        5.8306927E-18
   55.43350        5.8159358E-18
   55.59500        5.7993873E-18
   55.75650        5.7847189E-18
   55.91800        5.7750413E-18
   56.07950        5.7722264E-18
   56.24100        5.7764479E-18
   56.40250        5.7860717E-18
   56.56400        5.7979827E-18
   56.72550        5.8083328E-18
   56.88700        5.8135321E-18
   57.04850        5.8111969E-18
   57.21000        5.8007521E-18
   57.37150        5.7835157E-18
   57.53300        5.7622700E-18
   57.69450        5.7405152E-18
   57.85600        5.7216455E-18
   58.01750        5.7082626E-18
   58.17900        5.7017241E-18
   58.34050        5.7019475E-18
   58.50200        5.7074581E-18
   58.66350        5.7156778E-18
   58.82500        5.7234529E-18
   58.98650        5.7277671E-18
   59.14800        5.7264949E-18
   59.30950        5.7189617E-18
   59.47100        5.7061189E-18
   59.63250        5.6902428E-18
   59.79400        5.6742605E-18
   59.95550        5.6609425E-18
   60.11700        5.6522306E-18
   60.27850        5.6488809E-18
   60.44000        5.6504480E-18
   60.60150        5.6555277E-18
   60.76300        5.6621233E-18
   60.92450        5.6680632E-18
   61.08600        5.6714303E-18
   61.24750        5.6709828E-18
   61.40900        5.6664961E-18
   61.57050        5.6589076E-18
   61.73200        5.6501498E-18
   61.89350        5.6426564E-18
   62.05500        5.6386698E-18
   62.21650        5.6395822E-18
   62.37800        5.6455486E-18
   62.53950        5.6554926E-18
   62.70100        5.6674623E-18
   62.86250        5.6791603E-18
   63.02400        5.6884582E-18
   63.18550        5.6937675E-18
   63.34700        5.6942555E-18
   63.50850        5.6899318E-18
   63.67000        5.6816451E-18
   63.83150        5.6709530E-18
   63.99300        5.6598299E-18
   64.15450        5.6502185E-18
   64.31600        5.6435162E-18
   64.47750        5.6401868E-18
   64.63900        5.6396562E-18
   64.80050        5.6405541E-18
   64.96200        5.6412080E-18
   65.12350        5.6401806E-18
   65.28500        5.6366560E-18
   65.44650        5.6305671E-18
   65.60800        5.6224901E-18
   65.76950        5.6134247E-18
   65.93100        5.6045565E-18
   66.09250        5.5970490E-18
   66.25400        5.5918414E-18
   66.41550        5.5894302E-18
   66.57700        5.5896796E-18
   66.73850        5.5917438E-18
   66.90000        5.5942039E-18
   67.06150        5.5954240E-18
   67.22300        5.5940273E-18
   67.38450        5.5893070E-18
   67.54600        5.5814045E-18
   67.70750        5.5712016E-18
   67.86900        5.5600008E-18
   68.03050        5.5491453E-18
   68.19200        5.5397249E-18
   68.35350        5.5324226E-18
   68.51500        5.5274653E-18
   68.67650        5.5246338E-18
   68.83800        5.5232909E-18
   68.99950        5.5224795E-18
   69.16100        5.5211233E-18
   69.32250        5.5183336E-18
   69.48400        5.5137349E-18
   69.64550        5.5076580E-18
   69.80700        5.5010960E-18
   69.96850        5.4954009E-18
   70.13000        5.4918461E-18
   70.29150        5.4912236E-18
   70.45300        5.4936266E-18
   70.61450        5.4984647E-18
   70.77600        5.5046529E-18
   70.93750        5.5108667E-18
   71.09900        5.5157863E-18
   71.26050        5.5183113E-18
   71.42200        5.5177633E-18
   71.58350        5.5140670E-18
   71.74500        5.5078570E-18
   71.90650        5.5004140E-18
   72.06800        5.4933875E-18
   72.22950        5.4883421E-18
   72.39100        5.4862795E-18
   72.55250        5.4873230E-18
   72.71400        5.4906921E-18
   72.87550        5.4949654E-18
   73.03700        5.4985177E-18
   73.19850        5.4999491E-18
   73.36000        5.4983915E-18
   73.52150        5.4936435E-18
   73.68300        5.4861687E-18
   73.84450        5.4769998E-18
   74.00600        5.4675658E-18
   74.16750        5.4594198E-18
   74.32900        5.4538810E-18
   74.49050        5.4516488E-18
   74.65200        5.4525335E-18
   74.81350        5.4554319E-18
   74.97500        5.4586099E-18
   75.13650        5.4602101E-18
   75.29800        5.4588027E-18
   75.45950        5.4537800E-18
   75.62100        5.4454714E-18
   75.78250        5.4349861E-18
   75.94400        5.4238923E-18
   76.10550        5.4138665E-18
   76.26700        5.4063822E-18
   76.42850        5.4024638E-18
   76.59000        5.4024928E-18
   76.75150        5.4060774E-18
   76.91300        5.4120604E-18
   77.07450        5.4187225E-18
   77.23600        5.4241914E-18
   77.39750        5.4269513E-18
   77.55900        5.4262812E-18
   77.72050        5.4224415E-18
   77.88200        5.4165457E-18
   78.04350        5.4101802E-18
   78.20500        5.4049346E-18
   78.36650        5.4020184E-18
   78.52800        5.4020358E-18
   78.68950        5.4049263E-18
   78.85100        5.4099982E-18
   79.01250        5.4160213E-18
   79.17400        5.4213847E-18
   79.33550        5.4243684E-18
   79.49700        5.4235238E-18
   79.65850        5.4180897E-18
   79.82000        5.4082876E-18
   79.98150        5.3953505E-18
   80.14300        5.3812425E-18
   80.30450        5.3681424E-18
   80.46600        5.3578949E-18
   80.62750        5.3516001E-18
   80.78900        5.3494444E-18
   80.95050        5.3507613E-18
   81.11200        5.3542247E-18
   81.27350        5.3581042E-18
   81.43500        5.3605481E-18
   81.59650        5.3599165E-18
   81.75800        5.3551541E-18
   81.91950        5.3461258E-18
   82.08100        5.3337818E-18
   82.24250        5.3200241E-18
   82.40400        5.3072504E-18
   82.56550        5.2976948E-18
   82.72700        5.2927987E-18
   82.88850        5.2928219E-18
   83.05000        5.2968176E-18
   83.21150        5.3029321E-18
   83.37300        5.3088894E-18
   83.53450        5.3125021E-18
   83.69600        5.3121072E-18
   83.85750        5.3068914E-18
   84.01900        5.2970947E-18
   84.18050        5.2840537E-18
   84.34200        5.2700264E-18
   84.50350        5.2577440E-18
   84.66500        5.2497530E-18
   84.82650        5.2477124E-18
   84.98800        5.2518901E-18
   85.14950        5.2610561E-18
   85.31100        5.2728301E-18
   85.47250        5.2843507E-18
   85.63400        5.2930282E-18
   85.79550        5.2971422E-18
   85.95700        5.2961413E-18
   86.11850        5.2906480E-18
   86.28000        5.2822410E-18
   86.44150        5.2730990E-18
   86.60300        5.2655596E-18
   86.76450        5.2616185E-18
   86.92600        5.2624383E-18
   87.08750        5.2679808E-18
   87.24900        5.2769218E-18
   87.41050        5.2869361E-18
   87.57200        5.2953113E-18
   87.73350        5.2997061E-18
   87.89500        5.2987833E-18
   88.05650        5.2925191E-18
   88.21800        5.2821082E-18
   88.37950        5.2695731E-18
   88.54100        5.2572456E-18
   88.70250        5.2472781E-18
   88.86400        5.2412691E-18
   89.02550        5.2399952E-18
   89.18700        5.2432485E-18
   89.34850        5.2498056E-18
   89.51000        5.2576005E-18
   89.67150        5.2641414E-18
   89.83300        5.2671201E-18
   89.99450        5.2650356E-18
   90.15600        5.2576204E-18
   90.31750        5.2458980E-18
   90.47900        5.2318673E-18
   90.64050        5.2179413E-18
   90.80200        5.2063567E-18
   90.96350        5.1987259E-18
   91.12500        5.1957985E-18
   91.28650        5.1974016E-18
   91.44800        5.2025012E-18
   91.60950        5.2093622E-18
   91.77100        5.2158349E-18
   91.93250        5.2197917E-18
   92.09400        5.2196528E-18
   92.25550        5.2148547E-18
   92.41700        5.2060634E-18
   92.57850        5.1950160E-18
   92.74000        5.1840178E-18
   92.90150        5.1752749E-18
   93.06300        5.1703081E-18
   93.22450        5.1696278E-18
   93.38600        5.1727239E-18
   93.54750        5.1782797E-18
   93.70900        5.1844914E-18
   93.87050        5.1893966E-18
   94.03200        5.1912044E-18
   94.19350        5.1886343E-18
   94.35500        5.1812356E-18
   94.51650        5.1695918E-18
   94.67800        5.1552857E-18
   94.83950        5.1405569E-18
   95.00100        5.1277241E-18
   95.16250        5.1185647E-18
   95.32400        5.1138841E-18
   95.48550        5.1134155E-18
   95.64700        5.1160343E-18
   95.80850        5.1201541E-18
   95.97000        5.1241184E-18
   96.13150        5.1264903E-18
   96.29300        5.1262384E-18
   96.45450        5.1228735E-18
   96.61600        5.1165687E-18
   96.77750        5.1082133E-18
   96.93900        5.0993104E-18
   97.10050        5.0916544E-18
   97.26200        5.0868531E-18
   97.42350        5.0858447E-18
   97.58500        5.0886253E-18
   97.74650        5.0942849E-18
   97.90800        5.1013192E-18
   98.06950        5.1080644E-18
   98.23100        5.1130705E-18
   98.39250        5.1153196E-18
   98.55400        5.1143097E-18
   98.71550        5.1100853E-18
   98.87700        5.1032614E-18
   99.03850        5.0950128E-18
   99.20000        5.0869308E-18
   99.36150        5.0806992E-18
   99.52300        5.0776288E-18
   99.68450        5.0782363E-18
   99.84600        5.0820496E-18
   100.0075        5.0877501E-18
   100.1690        5.0935983E-18
   100.3305        5.0979472E-18
   100.4920        5.0996491E-18
   100.6535        5.0982318E-18
   100.8150        5.0938771E-18
   100.9765        5.0873059E-18
   101.1380        5.0796541E-18
   101.2995        5.0723393E-18
   101.4610        5.0668560E-18
   101.6225        5.0644505E-18
   101.7840        5.0657327E-18
   101.9455        5.0703810E-18
   102.1070        5.0771204E-18
   102.2685        5.0840456E-18
   102.4300        5.0891861E-18
   102.5915        5.0910857E-18
   102.7530        5.0891630E-18
   102.9145        5.0837445E-18
   103.0760        5.0758243E-18
   103.2375        5.0667294E-18
   103.3990        5.0578260E-18
   103.5605        5.0503322E-18
   103.7220        5.0451706E-18
   103.8835        5.0428003E-18
   104.0450        5.0430315E-18
   104.2065        5.0449353E-18
   104.3680        5.0469701E-18
   104.5295        5.0473788E-18
   104.6910        5.0447355E-18
   104.8525        5.0384171E-18
   105.0140        5.0287837E-18
   105.1755        5.0169968E-18
   105.3370        5.0045887E-18
   105.4985        4.9930024E-18
   105.6600        4.9833012E-18
   105.8215        4.9760965E-18
   105.9830        4.9716086E-18
   106.1445        4.9697210E-18
   106.3060        4.9699712E-18
   106.4675        4.9715246E-18
   106.6290        4.9732584E-18
   106.7905        4.9740207E-18
   106.9520        4.9730061E-18
   107.1135        4.9700638E-18
   107.2750        4.9657720E-18
   107.4365        4.9612072E-18
   107.5980        4.9575296E-18
   107.7595        4.9555902E-18
   107.9210        4.9557424E-18
   108.0825        4.9578882E-18
   108.2440        4.9616502E-18
   108.4055        4.9665057E-18
   108.5670        4.9718055E-18
   108.7285        4.9767189E-18
   108.8900        4.9802506E-18
   109.0515        4.9814268E-18
   109.2130        4.9796186E-18
   109.3745        4.9748425E-18
   109.5360        4.9678478E-18
   109.6975        4.9599073E-18
   109.8590        4.9524027E-18
   110.0205        4.9463961E-18
   110.1820        4.9423901E-18
   110.3435        4.9403358E-18
   110.5050        4.9398039E-18
   110.6665        4.9401675E-18
   110.8280        4.9406985E-18
   110.9895        4.9406034E-18
   111.1510        4.9390892E-18
   111.3125        4.9355506E-18
   111.4740        4.9298331E-18
   111.6355        4.9224364E-18
   111.7970        4.9144814E-18
   111.9585        4.9073991E-18
   112.1200        4.9024435E-18
   112.2815        4.9002659E-18
   112.4430        4.9007366E-18
   112.6045        4.9030829E-18
   112.7660        4.9062282E-18
   112.9275        4.9091374E-18
   113.0890        4.9110263E-18
   113.2505        4.9114031E-18
   113.4120        4.9100449E-18
   113.5735        4.9070066E-18
   113.7350        4.9026722E-18
   113.8965        4.8977778E-18
   114.0580        4.8932920E-18
   114.2195        4.8901272E-18
   114.3810        4.8887867E-18
   114.5425        4.8891325E-18
   114.7040        4.8904171E-18
   114.8655        4.8915793E-18
   115.0270        4.8916570E-18
   115.1885        4.8901057E-18
   115.3500        4.8868838E-18
   115.5115        4.8823252E-18
   115.6730        4.8769328E-18
   115.8345        4.8712426E-18
   115.9960        4.8658072E-18
   116.1575        4.8612304E-18
   116.3190        4.8581231E-18
   116.4805        4.8569337E-18
   116.6420        4.8577149E-18