  -30.00000       -7.0165198E-18
  -29.83850       -7.0284544E-18
  -29.67700       -7.0454497E-18
  -29.51550       -7.0587822E-18
  -29.35400       -7.0638445E-18
  -29.19250       -7.0630471E-18
  -29.03100       -7.0636369E-18
  -28.86950       -7.0720667E-18
  -28.70800       -7.0890619E-18
  -28.54650       -7.1089358E-18
  -28.38500       -7.1236439E-18
  -28.22350       -7.1285871E-18
  -28.06200       -7.1259616E-18
  -27.90050       -7.1232121E-18
  -27.73900       -7.1277392E-18
  -27.57750       -7.1416607E-18
  -27.41600       -7.1603856E-18
  -27.25450       -7.1759663E-18
  -27.09300       -7.1827633E-18
  -26.93150       -7.1813331E-18
  -26.77000       -7.1778184E-18
  -26.60850       -7.1793867E-18
  -26.44700       -7.1890689E-18
  -26.28550       -7.2037290E-18
  -26.12400       -7.2165379E-18
  -25.96250       -7.2220411E-18
  -25.80100       -7.2201105E-18
  -25.63950       -7.2159514E-18
  -25.47800       -7.2162426E-18
  -25.31650       -7.2242919E-18
  -25.15500       -7.2377096E-18
  -24.99350       -7.2502149E-18
  -24.83200       -7.2561681E-18
  -24.67050       -7.2545278E-18
  -24.50900       -7.2494142E-18
  -24.34750       -7.2470096E-18
  -24.18600       -7.2511430E-18
  -24.02450       -7.2607590E-18
  -23.86300       -7.2709895E-18
  -23.70150       -7.2768890E-18
  -23.54000       -7.2770114E-18
  -23.37850       -7.2742569E-18
  -23.21700       -7.2734951E-18
  -23.05550       -7.2778444E-18
  -22.89400       -7.2863759E-18
  -22.73250       -7.2948694E-18
  -22.57100       -7.2989540E-18
  -22.40950       -7.2972600E-18
  -22.24800       -7.2923027E-18
  -22.08650       -7.2885713E-18
  -21.92500       -7.2893207E-18
  -21.76350       -7.2944600E-18
  -21.60200       -7.3009806E-18
  -21.44050       -7.3054325E-18
  -21.27900       -7.3064971E-18
  -21.11750       -7.3057543E-18
  -20.95600       -7.3061902E-18
  -20.79450       -7.3097115E-18
  -20.63300       -7.3156217E-18
  -20.47150       -7.3211771E-18
  -20.31000       -7.3237314E-18
  -20.14850       -7.3227620E-18
  -19.98700       -7.3202498E-18
  -19.82550       -7.3191662E-18
  -19.66400       -7.3212945E-18
  -19.50250       -7.3260492E-18
  -19.34100       -7.3311438E-18
  -19.17950       -7.3344872E-18
  -19.01800       -7.3357843E-18
  -18.85650       -7.3365866E-18
  -18.69500       -7.3388208E-18
  -18.53350       -7.3430271E-18
  -18.37200       -7.3477610E-18
  -18.21050       -7.3506876E-18
  -18.04900       -7.3505081E-18
  -17.88750       -7.3481878E-18
  -17.72600       -7.3464483E-18
  -17.56450       -7.3478644E-18
  -17.40300       -7.3529813E-18
  -17.24150       -7.3599355E-18
  -17.08000       -7.3658804E-18
  -16.91850       -7.3691552E-18
  -16.75700       -7.3704977E-18
  -16.59550       -7.3723432E-18
  -16.43400       -7.3767247E-18
  -16.27250       -7.3834108E-18
  -16.11100       -7.3898025E-18
  -15.94950       -7.3927853E-18
  -15.78800       -7.3911905E-18
  -15.62650       -7.3869917E-18
  -15.46500       -7.3841917E-18
  -15.30350       -7.3861306E-18
  -15.14200       -7.3931294E-18
  -14.98050       -7.4022391E-18
  -14.81900       -7.4093562E-18
  -14.65750       -7.4121727E-18
  -14.49600       -7.4118079E-18
  -14.33450       -7.4118584E-18
  -14.17300       -7.4155493E-18
  -14.01150       -7.4231089E-18
  -13.85000       -7.4313708E-18
  -13.68850       -7.4360079E-18
  -13.52700       -7.4348061E-18
  -13.36550       -7.4295584E-18
  -13.20400       -7.4250850E-18
  -13.04250       -7.4259651E-18
  -12.88100       -7.4333072E-18
  -12.71950       -7.4438918E-18
  -12.55800       -7.4523845E-18
  -12.39650       -7.4550678E-18
  -12.23500       -7.4524267E-18
  -12.07350       -7.4487085E-18
  -11.91200       -7.4487589E-18
  -11.75050       -7.4544541E-18
  -11.58900       -7.4633248E-18
  -11.42750       -7.4704228E-18
  -11.26600       -7.4720763E-18
  -11.10450       -7.4687899E-18
  -10.94300       -7.4651057E-18
  -10.78150       -7.4664424E-18
  -10.62000       -7.4751534E-18
  -10.45850       -7.4886481E-18
  -10.29700       -7.5009822E-18
  -10.13550       -7.5068460E-18
  -9.974000       -7.5051329E-18
  -9.812500       -7.4995710E-18
  -9.651000       -7.4959727E-18
  -9.489500       -7.4981151E-18
  -9.328000       -7.5051884E-18
  -9.166500       -7.5126421E-18
  -9.005000       -7.5157539E-18
  -8.843500       -7.5132980E-18
  -8.682000       -7.5086071E-18
  -8.520500       -7.5072232E-18
  -8.359000       -7.5128290E-18
  -8.197500       -7.5244005E-18
  -8.036000       -7.5366750E-18
  -7.874500       -7.5436407E-18
  -7.713000       -7.5425951E-18
  -7.551500       -7.5359074E-18
  -7.390000       -7.5292701E-18
  -7.228500       -7.5277158E-18
  -7.067000       -7.5322562E-18
  -6.905500       -7.5394866E-18
  -6.744000       -7.5443529E-18
  -6.582500       -7.5439931E-18
  -6.421000       -7.5398514E-18
  -6.259500       -7.5365551E-18
  -6.098000       -7.5384063E-18
  -5.936500       -7.5460875E-18
  -5.775000       -7.5559789E-18
  -5.613500       -7.5626121E-18
  -5.452000       -7.5624863E-18
  -5.290500       -7.5565397E-18
  -5.129000       -7.5495195E-18
  -4.967500       -7.5467410E-18
  -4.806000       -7.5505510E-18
  -4.644500       -7.5589717E-18
  -4.483000       -7.5673766E-18
  -4.321500       -7.5719071E-18
  -4.160000       -7.5721139E-18
  -3.998500       -7.5709873E-18
  -3.837000       -7.5724630E-18
  -3.675500       -7.5783178E-18
  -3.514000       -7.5867641E-18
  -3.352500       -7.5937430E-18
  -3.191000       -7.5959417E-18
  -3.029500       -7.5933104E-18
  -2.868000       -7.5892432E-18
  -2.706500       -7.5883151E-18
  -2.545000       -7.5931913E-18
  -2.383500       -7.6029065E-18
  -2.222000       -7.6136475E-18
  -2.060500       -7.6214023E-18
  -1.899000       -7.6245282E-18
  -1.737500       -7.6244620E-18
  -1.576000       -7.6242139E-18
  -1.414500       -7.6258856E-18
  -1.253000       -7.6291083E-18
  -1.091500       -7.6315071E-18
 -0.9300000       -7.6307610E-18
 -0.7685000       -7.6266557E-18
 -0.6070000       -7.6215586E-18
 -0.4455000       -7.6189547E-18
 -0.2840000       -7.6211210E-18
 -0.1225000       -7.6276103E-18
  3.9000001E-02   -7.6356075E-18
  0.2005000       -7.6418502E-18
  0.3620000       -7.6446866E-18
  0.5235000       -7.6448495E-18
  0.6850000       -7.6445178E-18
  0.8465000       -7.6454947E-18
   1.008000       -7.6479300E-18
   1.169500       -7.6504826E-18
   1.331000       -7.6517102E-18
   1.492500       -7.6514951E-18
   1.654000       -7.6513702E-18
   1.815500       -7.6534605E-18
   1.977000       -7.6588430E-18
   2.138500       -7.6665862E-18
   2.300000       -7.6742012E-18
   2.461500       -7.6791842E-18
   2.623000       -7.6805275E-18
   2.784500       -7.6791345E-18
   2.946000       -7.6769177E-18
   3.107500       -7.6753353E-18
   3.269000       -7.6745155E-18
   3.430500       -7.6735717E-18
   3.592000       -7.6717677E-18
   3.753500       -7.6695202E-18
   3.915000       -7.6683762E-18
   4.076500       -7.6699115E-18
   4.238000       -7.6744204E-18
   4.399500       -7.6804340E-18
   4.561000       -7.6855352E-18
   4.722500       -7.6879059E-18
   4.884000       -7.6875106E-18
   5.045500       -7.6860258E-18
   5.207000       -7.6855898E-18
   5.368500       -7.6872980E-18
   5.530000       -7.6905877E-18
   5.691500       -7.6939171E-18
   5.853000       -7.6961968E-18
   6.014500       -7.6977800E-18
   6.176000       -7.7002276E-18
   6.337500       -7.7049608E-18
   6.499000       -7.7118685E-18
   6.660500       -7.7189906E-18
   6.822000       -7.7236344E-18
   6.983500       -7.7241968E-18
   7.145000       -7.7213464E-18
   7.306500       -7.7176687E-18
   7.468000       -7.7159755E-18
   7.629500       -7.7174545E-18
   7.791000       -7.7210056E-18
   7.952500       -7.7242150E-18
   8.114000       -7.7252358E-18
   8.275500       -7.7241604E-18
   8.437000       -7.7228444E-18
   8.598500       -7.7233399E-18
   8.760000       -7.7261283E-18
   8.921500       -7.7295545E-18
   9.083000       -7.7309690E-18
   9.244500       -7.7287902E-18
   9.406000       -7.7239628E-18
   9.567500       -7.7196614E-18
   9.729000       -7.7193529E-18
   9.890500       -7.7245360E-18
   10.05200       -7.7337582E-18
   10.21350       -7.7436108E-18
   10.37500       -7.7509983E-18
   10.53650       -7.7550523E-18
   10.69800       -7.7573552E-18
   10.85950       -7.7603595E-18
   11.02100       -7.7652449E-18
   11.18250       -7.7708399E-18
   11.34400       -7.7744497E-18
   11.50550       -7.7739857E-18
   11.66700       -7.7698076E-18
   11.82850       -7.7648337E-18
   11.99000       -7.7627550E-18
   12.15150       -7.7655584E-18
   12.31300       -7.7721394E-18
   12.47450       -7.7789984E-18
   12.63600       -7.7825726E-18
   12.79750       -7.7815626E-18
   12.95900       -7.7776368E-18
   13.12050       -7.7740700E-18
   13.28200       -7.7733595E-18
   13.44350       -7.7755499E-18
   13.60500       -7.7784806E-18
   13.76650       -7.7796833E-18
   13.92800       -7.7784988E-18
   14.08950       -7.7767766E-18
   14.25100       -7.7776112E-18
   14.41250       -7.7830152E-18
   14.57400       -7.7922341E-18
   14.73550       -7.8019733E-18
   14.89700       -7.8084377E-18
   15.05850       -7.8097604E-18
   15.22000       -7.8071416E-18
   15.38150       -7.8039222E-18
   15.54300       -7.8032819E-18
   15.70450       -7.8062077E-18
   15.86600       -7.8111294E-18
   16.02750       -7.8153720E-18
   16.18900       -7.8172886E-18
   16.35050       -7.8174615E-18
   16.51200       -7.8181116E-18
   16.67350       -7.8211978E-18
   16.83500       -7.8266663E-18
   16.99650       -7.8321836E-18
   17.15800       -7.8346081E-18
   17.31950       -7.8321638E-18
   17.48100       -7.8257754E-18
   17.64250       -7.8186054E-18
   17.80400       -7.8141246E-18
   17.96550       -7.8140535E-18
   18.12700       -7.8175715E-18
   18.28850       -7.8222393E-18
   18.45000       -7.8258739E-18
   18.61150       -7.8279683E-18
   18.77300       -7.8297012E-18
   18.93450       -7.8326187E-18
   19.09600       -7.8370971E-18
   19.25750       -7.8417864E-18
   19.41900       -7.8444821E-18
   19.58050       -7.8437890E-18
   19.74200       -7.8403347E-18
   19.90350       -7.8366165E-18
   20.06500       -7.8355478E-18
   20.22650       -7.8386952E-18
   20.38800       -7.8453987E-18
   20.54950       -7.8533264E-18
   20.71100       -7.8599852E-18
   20.87250       -7.8641186E-18
   21.03400       -7.8660558E-18
   21.19550       -7.8669335E-18
   21.35700       -7.8675084E-18
   21.51850       -7.8675340E-18
   21.68000       -7.8661443E-18
   21.84150       -7.8629051E-18
   22.00300       -7.8586311E-18
   22.16450       -7.8552677E-18
   22.32600       -7.8548327E-18
   22.48750       -7.8581414E-18
   22.64900       -7.8642154E-18
   22.81050       -7.8707939E-18
   22.97200       -7.8755957E-18
   23.13350       -7.8774693E-18
   23.29500       -7.8767240E-18
   23.45650       -7.8745328E-18
   23.61800       -7.8719834E-18
   23.77950       -7.8695093E-18
   23.94100       -7.8670708E-18
   24.10250       -7.8648101E-18
   24.26400       -7.8635247E-18
   24.42550       -7.8644685E-18
   24.58700       -7.8685564E-18
   24.74850       -7.8755428E-18
   24.91000       -7.8838551E-18
   25.07150       -7.8912782E-18
   25.23300       -7.8960784E-18
   25.39450       -7.8978278E-18
   25.55600       -7.8973936E-18
   25.71750       -7.8961751E-18
   25.87900       -7.8951867E-18
   26.04050       -7.8946473E-18
   26.20200       -7.8943057E-18
   26.36350       -7.8941419E-18
   26.52500       -7.8947813E-18
   26.68650       -7.8972083E-18
   26.84800       -7.9019538E-18
   27.00950       -7.9083860E-18
   27.17100       -7.9147305E-18
   27.33250       -7.9189201E-18
   27.49400       -7.9197605E-18
   27.65550       -7.9176124E-18
   27.81700       -7.9141084E-18
   27.97850       -7.9111091E-18
   28.14000       -7.9096267E-18
   28.30150       -7.9094605E-18
   28.46300       -7.9097500E-18
   28.62450       -7.9099560E-18
   28.78600       -7.9104639E-18
   28.94750       -7.9123101E-18
   29.10900       -7.9162053E-18
   29.27050       -7.9216242E-18
   29.43200       -7.9267295E-18
   29.59350       -7.9293045E-18
   29.75500       -7.9281300E-18
   29.91650       -7.9238567E-18
   30.07800       -7.9187299E-18
   30.23950       -7.9153136E-18
   30.40100       -7.9150613E-18
   30.56250       -7.9176802E-18
   30.72400       -7.9216730E-18
   30.88550       -7.9256046E-18
   31.04700       -7.9291275E-18
   31.20850       -7.9330103E-18
   31.37000       -7.9381909E-18
   31.53150       -7.9446016E-18
   31.69300       -7.9507335E-18
   31.85450       -7.9543706E-18
   32.01600       -7.9540546E-18
   32.17750       -7.9502430E-18
   32.33900       -7.9453030E-18
   32.50050       -7.9422508E-18
   32.66200       -7.9430258E-18
   32.82350       -7.9474504E-18
   32.98500       -7.9535484E-18
   33.14650       -7.9589490E-18
   33.30800       -7.9624000E-18
   33.46950       -7.9643373E-18
   33.63100       -7.9661736E-18
   33.79250       -7.9689091E-18
   33.95400       -7.9721310E-18
   34.11550       -7.9741898E-18
   34.27700       -7.9734404E-18
   34.43850       -7.9696379E-18
   34.60000       -7.9644308E-18
   34.76150       -7.9605265E-18
   34.92300       -7.9600302E-18
   35.08450       -7.9631081E-18
   35.24600       -7.9678867E-18
   35.40750       -7.9716744E-18
   35.56900       -7.9726670E-18
   35.73050       -7.9709746E-18
   35.89200       -7.9683069E-18
   36.05350       -7.9665947E-18
   36.21500       -7.9665889E-18
   36.37650       -7.9674268E-18
   36.53800       -7.9674690E-18
   36.69950       -7.9657485E-18
   36.86100       -7.9629286E-18
   37.02250       -7.9610369E-18
   37.18400       -7.9621221E-18
   37.34550       -7.9667816E-18
   37.50700       -7.9736059E-18
   37.66850       -7.9799718E-18
   37.83000       -7.9836379E-18
   37.99150       -7.9840581E-18
   38.15300       -7.9825419E-18
   38.31450       -7.9811845E-18
   38.47600       -7.9813913E-18
   38.63750       -7.9830423E-18
   38.79900       -7.9848497E-18
   38.96050       -7.9855801E-18
   39.12200       -7.9851889E-18
   39.28350       -7.9849912E-18
   39.44500       -7.9867340E-18
   39.60650       -7.9912471E-18
   39.76800       -7.9976810E-18
   39.92950       -8.0039071E-18
   40.09100       -8.0078238E-18
   40.25250       -8.0086717E-18
   40.41400       -8.0074152E-18
   40.57550       -8.0059916E-18
   40.73700       -8.0059643E-18
   40.89850       -8.0075732E-18
   41.06000       -8.0098049E-18
   41.22150       -8.0113683E-18
   41.38300       -8.0117869E-18
   41.54450       -8.0117678E-18
   41.70600       -8.0125834E-18
   41.86750       -8.0149632E-18
   42.02900       -8.0183729E-18
   42.19050       -8.0212407E-18
   42.35200       -8.0220075E-18
   42.51350       -8.0202258E-18
   42.67500       -8.0168831E-18
   42.83650       -8.0137365E-18
   42.99800       -8.0121252E-18
   43.15950       -8.0121558E-18
   43.32100       -8.0128241E-18
   43.48250       -8.0129433E-18
   43.64400       -8.0121442E-18
   43.80550       -8.0111657E-18
   43.96700       -8.0112260E-18
   44.12850       -8.0129846E-18
   44.29000       -8.0159195E-18
   44.45150       -8.0186492E-18
   44.61300       -8.0199586E-18
   44.77450       -8.0197634E-18
   44.93600       -8.0192398E-18
   45.09750       -8.0199743E-18
   45.25900       -8.0227594E-18
   45.42050       -8.0269540E-18
   45.58200       -8.0308956E-18
   45.74350       -8.0331083E-18
   45.90500       -8.0333887E-18
   46.06650       -8.0329370E-18
   46.22800       -8.0334226E-18
   46.38950       -8.0356808E-18
   46.55100       -8.0390350E-18
   46.71250       -8.0417928E-18
   46.87400       -8.0425671E-18
   47.03550       -8.0414115E-18
   47.19700       -8.0398705E-18
   47.35850       -8.0398481E-18
   47.52000       -8.0421187E-18
   47.68150       -8.0456177E-18
   47.84300       -8.0481183E-18
   48.00450       -8.0478552E-18
   48.16600       -8.0449221E-18
   48.32750       -8.0413710E-18
   48.48900       -8.0398705E-18
   48.65050       -8.0418640E-18
   48.81200       -8.0465615E-18
   48.97350       -8.0515246E-18
   49.13500       -8.0544479E-18
   49.29650       -8.0548110E-18
   49.45800       -8.0541873E-18
   49.61950       -8.0549334E-18
   49.78100       -8.0582372E-18
   49.94250       -8.0630108E-18
   50.10400       -8.0665065E-18
   50.26550       -8.0662881E-18
   50.42700       -8.0621307E-18
   50.58850       -8.0564017E-18
   50.75000       -8.0525793E-18
   50.91150       -8.0529019E-18
   51.07300       -8.0568359E-18
   51.23450       -8.0614880E-18
   51.39600       -8.0636982E-18
   51.55750       -8.0622986E-18
   51.71900       -8.0589180E-18
   51.88050       -8.0567119E-18
   52.04200       -8.0579791E-18
   52.20350       -8.0623979E-18
   52.36500       -8.0672311E-18
   52.52650       -8.0693570E-18
   52.68800       -8.0676580E-18
   52.84950       -8.0639679E-18
   53.01100       -8.0618487E-18
   53.17250       -8.0640175E-18
   53.33400       -8.0703132E-18
   53.49550       -8.0776792E-18
   53.65700       -8.0822387E-18
   53.81850       -8.0819913E-18
   53.98000       -8.0781789E-18
   54.14150       -8.0743622E-18
   54.30300       -8.0738602E-18
   54.46450       -8.0774187E-18
   54.62600       -8.0827912E-18
   54.78750       -8.0865044E-18
   54.94900       -8.0864920E-18
   55.11050       -8.0836366E-18
   55.27200       -8.0810740E-18
   55.43350       -8.0817878E-18
   55.59500       -8.0862555E-18
   55.75650       -8.0919249E-18
   55.91800       -8.0949359E-18
   56.07950       -8.0928588E-18
   56.24100       -8.0864788E-18
   56.40250       -8.0793286E-18
   56.56400       -8.0753036E-18
   56.72550       -8.0760803E-18
   56.88700       -8.0801682E-18
   57.04850       -8.0842330E-18
   57.21000       -8.0856500E-18
   57.37150       -8.0843960E-18
   57.53300       -8.0829062E-18
   57.69450       -8.0840543E-18
   57.85600       -8.0888015E-18
   58.01750       -8.0953007E-18
   58.17900       -8.1001322E-18
   58.34050       -8.1007758E-18
   58.50200       -8.0974861E-18
   58.66350       -8.0931955E-18
   58.82500       -8.0915147E-18
   58.98650       -8.0942783E-18
   59.14800       -8.1004044E-18
   59.30950       -8.1068407E-18
   59.47100       -8.1108417E-18
   59.63250       -8.1118625E-18
   59.79400       -8.1117028E-18
   59.95550       -8.1128758E-18
   60.11700       -8.1164782E-18
   60.27850       -8.1212220E-18
   60.44000       -8.1243430E-18
   60.60150       -8.1236994E-18
   60.76300       -8.1194659E-18
   60.92450       -8.1141339E-18
   61.08600       -8.1108227E-18
   61.24750       -8.1111420E-18
   61.40900       -8.1141935E-18
   61.57050       -8.1174038E-18
   61.73200       -8.1185271E-18
   61.89350       -8.1172772E-18
   62.05500       -8.1153904E-18
   62.21650       -8.1151158E-18
   62.37800       -8.1173376E-18
   62.53950       -8.1208027E-18
   62.70100       -8.1230584E-18
   62.86250       -8.1223759E-18
   63.02400       -8.1191723E-18
   63.18550       -8.1158205E-18
   63.34700       -8.1149462E-18
   63.50850       -8.1175088E-18
   63.67000       -8.1221088E-18
   63.83150       -8.1260420E-18
   63.99300       -8.1273175E-18
   64.15450       -8.1260983E-18
   64.31600       -8.1244671E-18
   64.47750       -8.1247276E-18
   64.63900       -8.1275450E-18
   64.80050       -8.1313997E-18
   64.96200       -8.1337877E-18
   65.12350       -8.1332608E-18
   65.28500       -8.1307023E-18
   65.44650       -8.1288064E-18
   65.60800       -8.1300753E-18
   65.76950       -8.1348267E-18
   65.93100       -8.1407642E-18
   66.09250       -8.1444989E-18
   66.25400       -8.1439587E-18
   66.41550       -8.1399006E-18
   66.57700       -8.1353817E-18
   66.73850       -8.1335561E-18
   66.90000       -8.1354222E-18
   67.06150       -8.1392157E-18
   67.22300       -8.1419049E-18
   67.38450       -8.1416534E-18
   67.54600       -8.1393480E-18
   67.70750       -8.1379906E-18
   67.86900       -8.1403357E-18
   68.03050       -8.1465627E-18
   68.19200       -8.1537972E-18
   68.35350       -8.1579538E-18
   68.51500       -8.1566419E-18
   68.67650       -8.1509989E-18
   68.83800       -8.1450448E-18
   68.99950       -8.1429529E-18
   69.16100       -8.1461673E-18
   69.32250       -8.1524638E-18
   69.48400       -8.1576378E-18
   69.64550       -8.1585907E-18
   69.80700       -8.1555302E-18
   69.96850       -8.1516557E-18
   70.13000       -8.1505911E-18
   70.29150       -8.1534746E-18
   70.45300       -8.1579546E-18
   70.61450       -8.1598894E-18
   70.77600       -8.1565509E-18
   70.93750       -8.1489276E-18
   71.09900       -8.1413597E-18
   71.26050       -8.1386524E-18
   71.42200       -8.1427031E-18
   71.58350       -8.1510981E-18
   71.74500       -8.1587256E-18
   71.90650       -8.1612816E-18
   72.06800       -8.1581664E-18
   72.22950       -8.1526929E-18
   72.39100       -8.1495108E-18
   72.55250       -8.1511519E-18
   72.71400       -8.1562556E-18
   72.87550       -8.1607621E-18
   73.03700       -8.1611418E-18
   73.19850       -8.1572366E-18
   73.36000       -8.1525441E-18
   73.52150       -8.1516780E-18
   73.68300       -8.1568619E-18
   73.84450       -8.1660362E-18
   74.00600       -8.1740433E-18
   74.16750       -8.1760749E-18
   74.32900       -8.1709538E-18
   74.49050       -8.1618804E-18
   74.65200       -8.1541554E-18
   74.81350       -8.1515349E-18
   74.97500       -8.1538642E-18
   75.13650       -8.1576205E-18
   75.29800       -8.1588786E-18
   75.45950       -8.1564219E-18
   75.62100       -8.1526582E-18
   75.78250       -8.1516821E-18
   75.94400       -8.1559496E-18
   76.10550       -8.1640857E-18
   76.26700       -8.1715072E-18
   76.42850       -8.1734668E-18
   76.59000       -8.1683523E-18
   76.75150       -8.1588513E-18
   76.91300       -8.1501734E-18
   77.07450       -8.1466223E-18
   77.23600       -8.1489756E-18
   77.39750       -8.1544706E-18
   77.55900       -8.1592492E-18
   77.72050       -8.1613419E-18
   77.88200       -8.1619483E-18
   78.04350       -8.1641072E-18
   78.20500       -8.1698735E-18
   78.36650       -8.1782015E-18
   78.52800       -8.1852425E-18
   78.68950       -8.1868861E-18
   78.85100       -8.1817278E-18
   79.01250       -8.1722649E-18
   79.17400       -8.1634397E-18
   79.33550       -8.1595387E-18
   79.49700       -8.1616480E-18
   79.65850       -8.1673895E-18
   79.82000       -8.1729754E-18
   79.98150       -8.1759516E-18
   80.14300       -8.1765952E-18
   80.30450       -8.1770542E-18
   80.46600       -8.1790494E-18
   80.62750       -8.1820620E-18
   80.78900       -8.1834657E-18
   80.95050       -8.1805772E-18
   81.11200       -8.1730234E-18
   81.27350       -8.1635820E-18
   81.43500       -8.1567395E-18
   81.59650       -8.1559264E-18
   81.75800       -8.1613792E-18
   81.91950       -8.1701274E-18
   82.08100       -8.1780535E-18
   82.24250       -8.1824930E-18
   82.40400       -8.1835253E-18
   82.56550       -8.1831564E-18
   82.72700       -8.1832093E-18
   82.88850       -8.1836709E-18
   83.05000       -8.1828247E-18
   83.21150       -8.1790171E-18
   83.37300       -8.1726065E-18
   83.53450       -8.1664349E-18
   83.69600       -8.1642801E-18
   83.85750       -8.1683143E-18
   84.01900       -8.1774306E-18
   84.18050       -8.1877158E-18
   84.34200       -8.1947931E-18
   84.50350       -8.1964094E-18
   84.66500       -8.1934531E-18
   84.82650       -8.1887969E-18
   84.98800       -8.1849356E-18
   85.14950       -8.1822738E-18
   85.31100       -8.1793240E-18
   85.47250       -8.1745686E-18
   85.63400       -8.1684077E-18
   85.79550       -8.1635257E-18
   85.95700       -8.1632287E-18
   86.11850       -8.1689106E-18
   86.28000       -8.1785969E-18
   86.44150       -8.1877695E-18
   86.60300       -8.1920494E-18
   86.76450       -8.1898904E-18
   86.92600       -8.1833888E-18
   87.08750       -8.1766580E-18
   87.24900       -8.1729853E-18
   87.41050       -8.1728307E-18
   87.57200       -8.1740979E-18
   87.73350       -8.1743378E-18
   87.89500       -8.1730995E-18
   88.05650       -8.1725329E-18
   88.21800       -8.1757051E-18
   88.37950       -8.1838901E-18
   88.54100       -8.1949486E-18
   88.70250       -8.2041998E-18
   88.86400       -8.2073150E-18
   89.02550       -8.2032337E-18
   89.18700       -8.1949718E-18
   89.34850       -8.1876910E-18
   89.51000       -8.1853484E-18
   89.67150       -8.1882915E-18
   89.83300       -8.1934729E-18
   89.99450       -8.1970232E-18
   90.15600       -8.1972060E-18
   90.31750       -8.1955384E-18
   90.47900       -8.1952564E-18
   90.64050       -8.1983541E-18
   90.80200       -8.2035282E-18
   90.96350       -8.2066979E-18
   91.12500       -8.2038706E-18
   91.28650       -8.1942637E-18
   91.44800       -8.1813440E-18
   91.60950       -8.1709083E-18
   91.77100       -8.1674548E-18
   91.93250       -8.1714005E-18
   92.09400       -8.1790899E-18
   92.25550       -8.1855403E-18
   92.41700       -8.1879011E-18
   92.57850       -8.1871177E-18
   92.74000       -8.1866619E-18
   92.90150       -8.1893858E-18
   93.06300       -8.1949610E-18
   93.22450       -8.1998803E-18
   93.38600       -8.2001045E-18
   93.54750       -8.1943655E-18
   93.70900       -8.1856114E-18
   93.87050       -8.1793919E-18
   94.03200       -8.1802405E-18
   94.19350       -8.1886017E-18
   94.35500       -8.2005098E-18
   94.51650       -8.2102449E-18
   94.67800       -8.2140491E-18
   94.83950       -8.2122847E-18
   95.00100       -8.2085558E-18
   95.16250       -8.2066028E-18
   95.32400       -8.2073712E-18
   95.48550       -8.2084590E-18
   95.64700       -8.2063282E-18
   95.80850       -8.1995263E-18
   95.97000       -8.1904149E-18
   96.13150       -8.1839571E-18
   96.29300       -8.1843566E-18
   96.45450       -8.1919733E-18
   96.61600       -8.2027771E-18
   96.77750       -8.2108198E-18
   96.93900       -8.2119927E-18
   97.10050       -8.2064498E-18
   97.26200       -8.1980572E-18
   97.42350       -8.1913984E-18
   97.58500       -8.1886124E-18
   97.74650       -8.1883544E-18
   97.90800       -8.1875156E-18
   98.06950       -8.1842499E-18
   98.23100       -8.1798807E-18
   98.39250       -8.1781651E-18
   98.55400       -8.1824243E-18
   98.71550       -8.1927037E-18
   98.87700       -8.2051676E-18
   99.03850       -8.2142898E-18
   99.20000       -8.2163544E-18
   99.36150       -8.2117702E-18
   99.52300       -8.2045969E-18
   99.68450       -8.1996718E-18
   99.84600       -8.1994460E-18
   100.0075       -8.2027713E-18
   100.1690       -8.2063538E-18
   100.3305       -8.2076252E-18
   100.4920       -8.2067624E-18
   100.6535       -8.2063240E-18
   100.8150       -8.2088494E-18
   100.9765       -8.2143601E-18
   101.1380       -8.2197773E-18
   101.2995       -8.2208336E-18
   101.4610       -8.2151236E-18
   101.6225       -8.2040542E-18
   101.7840       -8.1922098E-18
   101.9455       -8.1845535E-18
   102.1070       -8.1834136E-18
   102.2685       -8.1874006E-18
   102.4300       -8.1928716E-18
   102.5915       -8.1967544E-18
   102.7530       -8.1985733E-18
   102.9145       -8.2002310E-18
   103.0760       -8.2038599E-18
   103.2375       -8.2095583E-18
   103.3990       -8.2148564E-18
   103.5605       -8.2164231E-18
   103.7220       -8.2127248E-18
   103.8835       -8.2055804E-18
   104.0450       -8.1993228E-18
   104.2065       -8.1980638E-18
   104.3680       -8.2030054E-18
   104.5295       -8.2117222E-18
   104.6910       -8.2198981E-18
   104.8525       -8.2242184E-18
   105.0140       -8.2243078E-18
   105.1755       -8.2223672E-18
   105.3370       -8.2209552E-18
   105.4985       -8.2207178E-18
   105.6600       -8.2198840E-18
   105.8215       -8.2159127E-18
   105.9830       -8.2079834E-18
   106.1445       -8.1983244E-18
   106.3060       -8.1912015E-18
   106.4675       -8.1902023E-18
   106.6290       -8.1957651E-18
   106.7905       -8.2047789E-18
   106.9520       -8.2125998E-18
   107.1135       -8.2160260E-18
   107.2750       -8.2151153E-18
   107.4365       -8.2125874E-18
   107.5980       -8.2113822E-18
   107.7595       -8.2123062E-18
   107.9210       -8.2135801E-18
   108.0825       -8.2125982E-18
   108.2440       -8.2084722E-18
   108.4055       -8.2033073E-18
   108.5670       -8.2010723E-18
   108.7285       -8.2048037E-18
   108.8900       -8.2141938E-18
   109.0515       -8.2254112E-18
   109.2130       -8.2333877E-18
   109.3745       -8.2349891E-18
   109.5360       -8.2308326E-18
   109.6975       -8.2244757E-18
   109.8590       -8.2196789E-18
   110.0205       -8.2177830E-18
   110.1820       -8.2171485E-18
   110.3435       -8.2149838E-18
   110.5050       -8.2100496E-18
   110.6665       -8.2040782E-18
   110.8280       -8.2007166E-18
   110.9895       -8.2027390E-18
   111.1510       -8.2096352E-18
   111.3125       -8.2174885E-18
   111.4740       -8.2213812E-18
   111.6355       -8.2186714E-18
   111.7970       -8.2107883E-18
   111.9585       -8.2022411E-18
   112.1200       -8.1975650E-18
   112.2815       -8.1984029E-18
   112.4430       -8.2027978E-18
   112.6045       -8.2071123E-18
   112.7660       -8.2090289E-18
   112.9275       -8.2093126E-18
   113.0890       -8.2110059E-18
   113.2505       -8.2166836E-18
   113.4120       -8.2259224E-18
   113.5735       -8.2349941E-18
   113.7350       -8.2391523E-18
   113.8965       -8.2359098E-18
   114.0580       -8.2269134E-18
   114.2195       -8.2170004E-18
   114.3810       -8.2110720E-18
   114.5425       -8.2110034E-18
   114.7040       -8.2147646E-18
   114.8655       -8.2182892E-18
   115.0270       -8.2186333E-18
   115.1885       -8.2160434E-18
   115.3500       -8.2134345E-18
   115.5115       -8.2137662E-18
   115.6730       -8.2173743E-18
   115.8345       -8.2213613E-18
   115.9960       -8.2215748E-18
   116.1575       -8.2157423E-18
   116.3190       -8.2054199E-18
   116.4805       -8.1952572E-18
   116.6420       -8.1900459E-18