  -30.00000        7.9045536E-18
  -29.83850        7.9015551E-18
  -29.67700        7.8970710E-18
  -29.51550        7.8932238E-18
  -29.35400        7.8915628E-18
  -29.19250        7.8922129E-18
  -29.03100        7.8938210E-18
  -28.86950        7.8943363E-18
  -28.70800        7.8921923E-18
  -28.54650        7.8872250E-18
  -28.38500        7.8808111E-18
  -28.22350        7.8751424E-18
  -28.06200        7.8720488E-18
  -27.90050        7.8720074E-18
  -27.73900        7.8739091E-18
  -27.57750        7.8756991E-18
  -27.41600        7.8755386E-18
  -27.25450        7.8728321E-18
  -27.09300        7.8685374E-18
  -26.93150        7.8645868E-18
  -26.77000        7.8627430E-18
  -26.60850        7.8635420E-18
  -26.44700        7.8659235E-18
  -26.28550        7.8677797E-18
  -26.12400        7.8671130E-18
  -25.96250        7.8631756E-18
  -25.80100        7.8569304E-18
  -25.63950        7.8505776E-18
  -25.47800        7.8463979E-18
  -25.31650        7.8455542E-18
  -25.15500        7.8475113E-18
  -24.99350        7.8503948E-18
  -24.83200        7.8520690E-18
  -24.67050        7.8513320E-18
  -24.50900        7.8485345E-18
  -24.34750        7.8452961E-18
  -24.18600        7.8434697E-18
  -24.02450        7.8439784E-18
  -23.86300        7.8461944E-18
  -23.70150        7.8482342E-18
  -23.54000        7.8480216E-18
  -23.37850        7.8445127E-18
  -23.21700        7.8383933E-18
  -23.05550        7.8318197E-18
  -22.89400        7.8273355E-18
  -22.73250        7.8265547E-18
  -22.57100        7.8293257E-18
  -22.40950        7.8338405E-18
  -22.24800        7.8376223E-18
  -22.08650        7.8388251E-18
  -21.92500        7.8371401E-18
  -21.76350        7.8338074E-18
  -21.60200        7.8307592E-18
  -21.44050        7.8294200E-18
  -21.27900        7.8298559E-18
  -21.11750        7.8307691E-18
  -20.95600        7.8303332E-18
  -20.79450        7.8273760E-18
  -20.63300        7.8222086E-18
  -20.47150        7.8166020E-18
  -20.31000        7.8129029E-18
  -20.14850        7.8127540E-18
  -19.98700        7.8161595E-18
  -19.82550        7.8213930E-18
  -19.66400        7.8258441E-18
  -19.50250        7.8273198E-18
  -19.34100        7.8251178E-18
  -19.17950        7.8202821E-18
  -19.01800        7.8149477E-18
  -18.85650        7.8111492E-18
  -18.69500        7.8097753E-18
  -18.53350        7.8102369E-18
  -18.37200        7.8109913E-18
  -18.21050        7.8105925E-18
  -18.04900        7.8086305E-18
  -17.88750        7.8060050E-18
  -17.72600        7.8043771E-18
  -17.56450        7.8051241E-18
  -17.40300        7.8084038E-18
  -17.24150        7.8128938E-18
  -17.08000        7.8163745E-18
  -16.91850        7.8168593E-18
  -16.75700        7.8136564E-18
  -16.59550        7.8077834E-18
  -16.43400        7.8014969E-18
  -16.27250        7.7971972E-18
  -16.11100        7.7962906E-18
  -15.94950        7.7985902E-18
  -15.78800        7.8025664E-18
  -15.62650        7.8062416E-18
  -15.46500        7.8082367E-18
  -15.30350        7.8083683E-18
  -15.14200        7.8075262E-18
  -14.98050        7.8069323E-18
  -14.81900        7.8072565E-18
  -14.65750        7.8081259E-18
  -14.49600        7.8083104E-18
  -14.33450        7.8064815E-18
  -14.17300        7.8021115E-18
  -14.01150        7.7959622E-18
  -13.85000        7.7898750E-18
  -13.68850        7.7859409E-18
  -13.52700        7.7854818E-18
  -13.36550        7.7883844E-18
  -13.20400        7.7931473E-18
  -13.04250        7.7976000E-18
  -12.88100        7.7999393E-18
  -12.71950        7.7995092E-18
  -12.55800        7.7969689E-18
  -12.39650        7.7937909E-18
  -12.23500        7.7913887E-18
  -12.07350        7.7903870E-18
  -11.91200        7.7904052E-18
  -11.75050        7.7904342E-18
  -11.58900        7.7895722E-18
  -11.42750        7.7876482E-18
  -11.26600        7.7853884E-18
  -11.10450        7.7840078E-18
  -10.94300        7.7844809E-18
  -10.78150        7.7868938E-18
  -10.62000        7.7902695E-18
  -10.45850        7.7929885E-18
  -10.29700        7.7935717E-18
  -10.13550        7.7914458E-18
  -9.974000        7.7872454E-18
  -9.812500        7.7825189E-18
  -9.651000        7.7789719E-18
  -9.489500        7.7776550E-18
  -9.328000        7.7785079E-18
  -9.166500        7.7804823E-18
  -9.005000        7.7821533E-18
  -8.843500        7.7824759E-18
  -8.682000        7.7812789E-18
  -8.520500        7.7792515E-18
  -8.359000        7.7774640E-18
  -8.197500        7.7767021E-18
  -8.036000        7.7770123E-18
  -7.874500        7.7776931E-18
  -7.713000        7.7777460E-18
  -7.551500        7.7765036E-18
  -7.390000        7.7740808E-18
  -7.228500        7.7713801E-18
  -7.067000        7.7696273E-18
  -6.905500        7.7696926E-18
  -6.744000        7.7715645E-18
  -6.582500        7.7742702E-18
  -6.421000        7.7763117E-18
  -6.259500        7.7763861E-18
  -6.098000        7.7740320E-18
  -5.936500        7.7698556E-18
  -5.775000        7.7652283E-18
  -5.613500        7.7616127E-18
  -5.452000        7.7598798E-18
  -5.290500        7.7599592E-18
  -5.129000        7.7609923E-18
  -4.967500        7.7618741E-18
  -4.806000        7.7618774E-18
  -4.644500        7.7610080E-18
  -4.483000        7.7599062E-18
  -4.321500        7.7593686E-18
  -4.160000        7.7597871E-18
  -3.998500        7.7608360E-18
  -3.837000        7.7616028E-18
  -3.675500        7.7610974E-18
  -3.514000        7.7588739E-18
  -3.352500        7.7553873E-18
  -3.191000        7.7518826E-18
  -3.029500        7.7498403E-18
  -2.868000        7.7502646E-18
  -2.706500        7.7531779E-18
  -2.545000        7.7575967E-18
  -2.383500        7.7619957E-18
  -2.222000        7.7650116E-18
  -2.060500        7.7660298E-18
  -1.899000        7.7653499E-18
  -1.737500        7.7638734E-18
  -1.576000        7.7625276E-18
  -1.414500        7.7617401E-18
  -1.253000        7.7612752E-18
  -1.091500        7.7604935E-18
 -0.9300000        7.7588640E-18
 -0.7685000        7.7564213E-18
 -0.6070000        7.7538719E-18
 -0.4455000        7.7522788E-18
 -0.2840000        7.7524856E-18
 -0.1225000        7.7546090E-18
  3.9000001E-02    7.7578755E-18
  0.2005000        7.7609162E-18
  0.3620000        7.7623704E-18
  0.5235000        7.7614928E-18
  0.6850000        7.7584529E-18
  0.8465000        7.7541896E-18
   1.008000        7.7499089E-18
   1.169500        7.7465150E-18
   1.331000        7.7442502E-18
   1.492500        7.7427298E-18
   1.654000        7.7412996E-18
   1.815500        7.7394989E-18
   1.977000        7.7373631E-18
   2.138500        7.7354027E-18
   2.300000        7.7342760E-18
   2.461500        7.7343621E-18
   2.623000        7.7354746E-18
   2.784500        7.7368825E-18
   2.946000        7.7376418E-18
   3.107500        7.7370562E-18
   3.269000        7.7350437E-18
   3.430500        7.7322048E-18
   3.592000        7.7295603E-18
   3.753500        7.7280854E-18
   3.915000        7.7282657E-18
   4.076500        7.7298920E-18
   4.238000        7.7321816E-18
   4.399500        7.7341710E-18
   4.561000        7.7351611E-18
   4.722500        7.7350147E-18
   4.884000        7.7341495E-18
   5.045500        7.7332520E-18
   5.207000        7.7328731E-18
   5.368500        7.7331155E-18
   5.530000        7.7335969E-18
   5.691500        7.7337036E-18
   5.853000        7.7330022E-18
   6.014500        7.7315720E-18
   6.176000        7.7300624E-18
   6.337500        7.7294039E-18
   6.499000        7.7303130E-18
   6.660500        7.7328492E-18
   6.822000        7.7362646E-18
   6.983500        7.7392739E-18
   7.145000        7.7406164E-18
   7.306500        7.7396478E-18
   7.468000        7.7366467E-18
   7.629500        7.7326672E-18
   7.791000        7.7290168E-18
   7.952500        7.7266296E-18
   8.114000        7.7256808E-18
   8.275500        7.7256345E-18
   8.437000        7.7256899E-18
   8.598500        7.7253599E-18
   8.760000        7.7248139E-18
   8.921500        7.7247858E-18
   9.083000        7.7260787E-18
   9.244500        7.7289490E-18
   9.406000        7.7327565E-18
   9.567500        7.7361182E-18
   9.729000        7.7375194E-18
   9.890500        7.7360809E-18
   10.05200        7.7320518E-18
   10.21350        7.7267520E-18
   10.37500        7.7219692E-18
   10.53650        7.7191246E-18
   10.69800        7.7186432E-18
   10.85950        7.7198641E-18
   11.02100        7.7215060E-18
   11.18250        7.7224225E-18
   11.34400        7.7222042E-18
   11.50550        7.7213067E-18
   11.66700        7.7206433E-18
   11.82850        7.7209146E-18
   11.99000        7.7220793E-18
   12.15150        7.7232845E-18
   12.31300        7.7233333E-18
   12.47450        7.7213993E-18
   12.63600        7.7175926E-18
   12.79750        7.7130266E-18
   12.95900        7.7093266E-18
   13.12050        7.7078228E-18
   13.28200        7.7088750E-18
   13.44350        7.7116766E-18
   13.60500        7.7146710E-18
   13.76650        7.7163469E-18
   13.92800        7.7159920E-18
   14.08950        7.7140068E-18
   14.25100        7.7116270E-18
   14.41250        7.7102092E-18
   14.57400        7.7104847E-18
   14.73550        7.7121870E-18
   14.89700        7.7142409E-18
   15.05850        7.7154014E-18
   15.22000        7.7149688E-18
   15.38150        7.7131813E-18
   15.54300        7.7110587E-18
   15.70450        7.7097915E-18
   15.86600        7.7100198E-18
   16.02750        7.7114301E-18
   16.18900        7.7128959E-18
   16.35050        7.7131168E-18
   16.51200        7.7113954E-18
   16.67350        7.7081148E-18
   16.83500        7.7046291E-18
   16.99650        7.7025901E-18
   17.15800        7.7030740E-18
   17.31950        7.7059732E-18
   17.48100        7.7099950E-18
   17.64250        7.7132938E-18
   17.80400        7.7143964E-18
   17.96550        7.7129340E-18
   18.12700        7.7097683E-18
   18.28850        7.7064745E-18
   18.45000        7.7044496E-18
   18.61150        7.7041733E-18
   18.77300        7.7050187E-18
   18.93450        7.7057185E-18
   19.09600        7.7052015E-18
   19.25750        7.7033006E-18
   19.41900        7.7009051E-18
   19.58050        7.6994459E-18
   19.74200        7.7000175E-18
   19.90350        7.7026356E-18
   20.06500        7.7060998E-18
   20.22650        7.7085706E-18
   20.38800        7.7085482E-18
   20.54950        7.7057242E-18
   20.71100        7.7012020E-18
   20.87250        7.6969586E-18
   21.03400        7.6948071E-18
   21.19550        7.6954631E-18
   21.35700        7.6982027E-18
   21.51850        7.7013038E-18
   21.68000        7.7030185E-18
   21.84150        7.7025073E-18
   22.00300        7.7002227E-18
   22.16450        7.6975327E-18
   22.32600        7.6958427E-18
   22.48750        7.6957236E-18
   22.64900        7.6965740E-18
   22.81050        7.6970240E-18
   22.97200        7.6958097E-18
   23.13350        7.6926258E-18
   23.29500        7.6884213E-18
   23.45650        7.6849463E-18
   23.61800        7.6838081E-18
   23.77950        7.6855543E-18
   23.94100        7.6893221E-18
   24.10250        7.6932661E-18
   24.26400        7.6955309E-18
   24.42550        7.6952290E-18
   24.58700        7.6928798E-18
   24.74850        7.6900732E-18
   24.91000        7.6885520E-18
   25.07150        7.6892410E-18
   25.23300        7.6917639E-18
   25.39450        7.6947070E-18
   25.55600        7.6964681E-18
   25.71750        7.6961802E-18
   25.87900        7.6941925E-18
   26.04050        7.6918260E-18
   26.20200        7.6905645E-18
   26.36350        7.6911683E-18
   26.52500        7.6932181E-18
   26.68650        7.6953663E-18
   26.84800        7.6961488E-18
   27.00950        7.6948725E-18
   27.17100        7.6920667E-18
   27.33250        7.6892162E-18
   27.49400        7.6879233E-18
   27.65550        7.6889796E-18
   27.81700        7.6918723E-18
   27.97850        7.6950205E-18
   28.14000        7.6966170E-18
   28.30150        7.6956020E-18
   28.46300        7.6922230E-18
   28.62450        7.6878778E-18
   28.78600        7.6843400E-18
   28.94750        7.6828105E-18
   29.10900        7.6833283E-18
   29.27050        7.6848644E-18
   29.43200        7.6860134E-18
   29.59350        7.6858587E-18
   29.75500        7.6844980E-18
   29.91650        7.6829354E-18
   30.07800        7.6824044E-18
   30.23950        7.6835517E-18
   30.40100        7.6859513E-18
   30.56250        7.6882724E-18
   30.72400        7.6889887E-18
   30.88550        7.6872376E-18
   31.04700        7.6833333E-18
   31.20850        7.6786424E-18
   31.37000        7.6748820E-18
   31.53150        7.6732483E-18
   31.69300        7.6738488E-18
   31.85450        7.6757447E-18
   32.01600        7.6775447E-18
   32.17750        7.6782031E-18
   32.33900        7.6775678E-18
   32.50050        7.6763726E-18
   32.66200        7.6757150E-18
   32.82350        7.6763411E-18
   32.98500        7.6781593E-18
   33.14650        7.6802570E-18
   33.30800        7.6814126E-18
   33.46950        7.6807839E-18
   33.63100        7.6784008E-18
   33.79250        7.6751682E-18
   33.95400        7.6723930E-18
   34.11550        7.6711067E-18
   34.27700        7.6715559E-18
   34.43850        7.6731391E-18
   34.60000        7.6747976E-18
   34.76150        7.6756488E-18
   34.92300        7.6754734E-18
   35.08450        7.6748200E-18
   35.24600        7.6746504E-18
   35.40750        7.6757530E-18
   35.56900        7.6782445E-18
   35.73050        7.6814465E-18
   35.89200        7.6842076E-18
   36.05350        7.6854914E-18
   36.21500        7.6849082E-18
   36.37650        7.6829073E-18
   36.53800        7.6805143E-18
   36.69950        7.6787788E-18
   36.86100        7.6782288E-18
   37.02250        7.6786316E-18
   37.18400        7.6791924E-18
   37.34550        7.6790692E-18
   37.50700        7.6778929E-18
   37.66850        7.6760045E-18
   37.83000        7.6742608E-18
   37.99150        7.6735155E-18
   38.15300        7.6740945E-18
   38.31450        7.6755545E-18
   38.47600        7.6769036E-18
   38.63750        7.6771485E-18
   38.79900        7.6758688E-18
   38.96050        7.6734816E-18
   39.12200        7.6710306E-18
   39.28350        7.6696203E-18
   39.44500        7.6698023E-18
   39.60650        7.6712813E-18
   39.76800        7.6730903E-18
   39.92950        7.6741475E-18
   40.09100        7.6738480E-18
   40.25250        7.6723707E-18
   40.41400        7.6705070E-18
   40.57550        7.6691471E-18
   40.73700        7.6687286E-18
   40.89850        7.6689925E-18
   41.06000        7.6691811E-18
   41.22150        7.6685557E-18
   41.38300        7.6669038E-18
   41.54450        7.6647201E-18
   41.70600        7.6629449E-18
   41.86750        7.6624122E-18
   42.02900        7.6633445E-18
   42.19050        7.6651907E-18
   42.35200        7.6669121E-18
   42.51350        7.6675482E-18
   42.67500        7.6667144E-18
   42.83650        7.6647705E-18
   42.99800        7.6625611E-18
   43.15950        7.6609093E-18
   43.32100        7.6601755E-18
   43.48250        7.6601342E-18
   43.64400        7.6602053E-18
   43.80550        7.6598926E-18
   43.96700        7.6591217E-18
   44.12850        7.6582871E-18
   44.29000        7.6579860E-18
   44.45150        7.6586246E-18
   44.61300        7.6601491E-18
   44.77450        7.6620657E-18
   44.93600        7.6637291E-18
   45.09750        7.6647201E-18
   45.25900        7.6650741E-18
   45.42050        7.6652346E-18
   45.58200        7.6657623E-18
   45.74350        7.6669973E-18
   45.90500        7.6688618E-18
   46.06650        7.6709165E-18
   46.22800        7.6726039E-18
   46.38950        7.6735337E-18
   46.55100        7.6736396E-18
   46.71250        7.6731251E-18
   46.87400        7.6722797E-18
   47.03550        7.6712846E-18
   47.19700        7.6701422E-18
   47.35850        7.6687633E-18
   47.52000        7.6671263E-18
   47.68150        7.6653934E-18
   47.84300        7.6639020E-18
   48.00450        7.6630136E-18
   48.16600        7.6629176E-18
   48.32750        7.6635033E-18
   48.48900        7.6643834E-18
   48.65050        7.6650493E-18
   48.81200        7.6650832E-18
   48.97350        7.6643040E-18
   49.13500        7.6628027E-18
   49.29650        7.6608447E-18
   49.45800        7.6587263E-18
   49.61950        7.6566700E-18
   49.78100        7.6547964E-18
   49.94250        7.6531793E-18
   50.10400        7.6519145E-18
   50.26550        7.6511510E-18
   50.42700        7.6510451E-18
   50.58850        7.6516605E-18
   50.75000        7.6528798E-18
   50.91150        7.6543828E-18
   51.07300        7.6557270E-18
   51.23450        7.6564938E-18
   51.39600        7.6564499E-18
   51.55750        7.6556335E-18
   51.71900        7.6543365E-18
   51.88050        7.6529857E-18
   52.04200        7.6519740E-18
   52.20350        7.6515290E-18
   52.36500        7.6516680E-18
   52.52650        7.6522561E-18
   52.68800        7.6531147E-18
   52.84950        7.6541206E-18
   53.01100        7.6552381E-18
   53.17250        7.6564681E-18
   53.33400        7.6577577E-18
   53.49550        7.6589315E-18
   53.65700        7.6597090E-18
   53.81850        7.6598132E-18
   53.98000        7.6591126E-18
   54.14150        7.6577254E-18
   54.30300        7.6560082E-18
   54.46450        7.6544225E-18
   54.62600        7.6533397E-18
   54.78750        7.6528732E-18
   54.94900        7.6528434E-18
   55.11050        7.6528773E-18
   55.27200        7.6526118E-18
   55.43350        7.6518781E-18
   55.59500        7.6507804E-18
   55.75650        7.6496224E-18
   55.91800        7.6487381E-18
   56.07950        7.6483229E-18
   56.24100        7.6483568E-18
   56.40250        7.6486653E-18
   56.56400        7.6490640E-18
   56.72550        7.6494966E-18
   56.88700        7.6500641E-18
   57.04850        7.6509277E-18
   57.21000        7.6521320E-18
   57.37150        7.6534704E-18
   57.53300        7.6544796E-18
   57.69450        7.6545979E-18
   57.85600        7.6534183E-18
   58.01750        7.6509062E-18
   58.17900        7.6474717E-18
   58.34050        7.6438453E-18
   58.50200        7.6408104E-18
   58.66350        7.6389319E-18
   58.82500        7.6383917E-18
   58.98650        7.6390154E-18
   59.14800        7.6404349E-18
   59.30950        7.6422952E-18
   59.47100        7.6443797E-18
   59.63250        7.6465949E-18
   59.79400        7.6488506E-18
   59.95550        7.6509326E-18
   60.11700        7.6524670E-18
   60.27850        7.6530229E-18
   60.44000        7.6523132E-18
   60.60150        7.6503718E-18
   60.76300        7.6476041E-18
   60.92450        7.6446651E-18
   61.08600        7.6422133E-18
   61.24750        7.6406632E-18
   61.40900        7.6400602E-18
   61.57050        7.6401288E-18
   61.73200        7.6404671E-18
   61.89350        7.6407641E-18
   62.05500        7.6409378E-18
   62.21650        7.6411123E-18
   62.37800        7.6414837E-18
   62.53950        7.6421562E-18
   62.70100        7.6430587E-18
   62.86250        7.6439744E-18
   63.02400        7.6446684E-18
   63.18550        7.6450158E-18
   63.34700        7.6450505E-18
   63.50850        7.6449058E-18
   63.67000        7.6446932E-18
   63.83150        7.6443938E-18
   63.99300        7.6438495E-18
   64.15450        7.6428519E-18
   64.31600        7.6412877E-18
   64.47750        7.6392545E-18
   64.63900        7.6370699E-18
   64.80050        7.6351765E-18
   64.96200        7.6339911E-18
   65.12350        7.6337620E-18
   65.28500        7.6345090E-18
   65.44650        7.6360434E-18
   65.60800        7.6380509E-18
   65.76950        7.6401776E-18
   65.93100        7.6420851E-18
   66.09250        7.6434938E-18
   66.25400        7.6442043E-18
   66.41550        7.6441373E-18
   66.57700        7.6433631E-18
   66.73850        7.6421107E-18
   66.90000        7.6407178E-18
   67.06150        7.6395341E-18
   67.22300        7.6388103E-18
   67.38450        7.6386234E-18
   67.54600        7.6388756E-18
   67.70750        7.6393629E-18
   67.86900        7.6398608E-18
   68.03050        7.6401909E-18
   68.19200        7.6402306E-18
   68.35350        7.6398798E-18
   68.51500        7.6390394E-18
   68.67650        7.6376332E-18
   68.83800        7.6356836E-18
   68.99950        7.6333832E-18
   69.16100        7.6311134E-18
   69.32250        7.6293598E-18
   69.48400        7.6285384E-18
   69.64550        7.6288196E-18
   69.80700        7.6300430E-18
   69.96850        7.6317669E-18
   70.13000        7.6334485E-18
   70.29150        7.6346579E-18
   70.45300        7.6352195E-18
   70.61450        7.6352203E-18
   70.77600        7.6348862E-18
   70.93750        7.6344213E-18
   71.09900        7.6339084E-18
   71.26050        7.6333162E-18
   71.42200        7.6326098E-18
   71.58350        7.6318719E-18
   71.74500        7.6313417E-18
   71.90650        7.6313367E-18
   72.06800        7.6320861E-18
   72.22950        7.6335792E-18
   72.39100        7.6355214E-18
   72.55250        7.6374355E-18
   72.71400        7.6388649E-18
   72.87550        7.6395639E-18
   73.03700        7.6395854E-18
   73.19850        7.6392098E-18
   73.36000        7.6387706E-18
   73.52150        7.6384645E-18
   73.68300        7.6382726E-18
   73.84450        7.6380030E-18
   74.00600        7.6374579E-18
   74.16750        7.6365868E-18
   74.32900        7.6355702E-18
   74.49050        7.6347530E-18
   74.65200        7.6344916E-18
   74.81350        7.6349838E-18
   74.97500        7.6361708E-18
   75.13650        7.6377763E-18
   75.29800        7.6394241E-18
   75.45950        7.6407947E-18
   75.62100        7.6417120E-18
   75.78250        7.6421471E-18
   75.94400        7.6421323E-18
   76.10550        7.6416707E-18
   76.26700        7.6406888E-18
   76.42850        7.6390775E-18
   76.59000        7.6367920E-18
   76.75150        7.6339572E-18
   76.91300        7.6309041E-18
   77.07450        7.6281206E-18
   77.23600        7.6261180E-18
   77.39750        7.6252735E-18
   77.55900        7.6257102E-18
   77.72050        7.6272703E-18
   77.88200        7.6295732E-18
   78.04350        7.6321399E-18
   78.20500        7.6345305E-18
   78.36650        7.6364363E-18
   78.52800        7.6377135E-18
   78.68950        7.6383504E-18
   78.85100        7.6384050E-18
   79.01250        7.6379393E-18
   79.17400        7.6369888E-18
   79.33550        7.6355884E-18
   79.49700        7.6338125E-18
   79.65850        7.6318355E-18
   79.82000        7.6299355E-18
   79.98150        7.6284548E-18
   80.14300        7.6277021E-18
   80.30450        7.6278510E-18
   80.46600        7.6288833E-18
   80.62750        7.6306121E-18
   80.78900        7.6327760E-18
   80.95050        7.6351633E-18
   81.11200        7.6376878E-18
   81.27350        7.6403712E-18
   81.43500        7.6432299E-18
   81.59650        7.6461358E-18
   81.75800        7.6487381E-18
   81.91950        7.6505223E-18
   82.08100        7.6509872E-18
   82.24250        7.6498771E-18
   82.40400        7.6473278E-18
   82.56550        7.6438495E-18
   82.72700        7.6401321E-18
   82.88850        7.6367796E-18
   83.05000        7.6341003E-18
   83.21150        7.6320762E-18
   83.37300        7.6305112E-18
   83.53450        7.6292613E-18
   83.69600        7.6283977E-18
   83.85750        7.6281876E-18
   84.01900        7.6289023E-18
   84.18050        7.6305691E-18
   84.34200        7.6328364E-18
   84.50350        7.6350582E-18
   84.66500        7.6365744E-18
   84.82650        7.6370310E-18
   84.98800        7.6365637E-18
   85.14950        7.6357092E-18
   85.31100        7.6350971E-18
   85.47250        7.6350896E-18
   85.63400        7.6355711E-18
   85.79550        7.6360268E-18
   85.95700        7.6358515E-18
   86.11850        7.6347315E-18
   86.28000        7.6328488E-18
   86.44150        7.6308131E-18
   86.60300        7.6293482E-18
   86.76450        7.6289238E-18
   86.92600        7.6295492E-18
   87.08750        7.6308404E-18
   87.24900        7.6323062E-18
   87.41050        7.6336611E-18
   87.57200        7.6349738E-18
   87.73350        7.6365471E-18
   87.89500        7.6386167E-18
   88.05650        7.6410561E-18
   88.21800        7.6433027E-18
   88.37950        7.6445650E-18
   88.54100        7.6442052E-18
   88.70250        7.6421008E-18
   88.86400        7.6387516E-18
   89.02550        7.6350772E-18
   89.18700        7.6320034E-18
   89.34850        7.6300579E-18
   89.51000        7.6291943E-18
   89.67150        7.6289263E-18
   89.83300        7.6286757E-18
   89.99450        7.6281281E-18
   90.15600        7.6273969E-18
   90.31750        7.6269055E-18
   90.47900        7.6270883E-18
   90.64050        7.6280859E-18
   90.80200        7.6296319E-18
   90.96350        7.6311920E-18
   91.12500        7.6322665E-18
   91.28650        7.6326883E-18
   91.44800        7.6327131E-18
   91.60950        7.6328720E-18
   91.77100        7.6336462E-18
   91.93250        7.6351599E-18
   92.09400        7.6370691E-18
   92.25550        7.6387036E-18
   92.41700        7.6394050E-18
   92.57850        7.6388682E-18
   92.74000        7.6373015E-18
   92.90150        7.6353320E-18
   93.06300        7.6337008E-18
   93.22450        7.6329100E-18
   93.38600        7.6330176E-18
   93.54750        7.6336652E-18
   93.70900        7.6343187E-18
   93.87050        7.6345735E-18
   94.03200        7.6343493E-18
   94.19350        7.6338861E-18
   94.35500        7.6335370E-18
   94.51650        7.6335031E-18
   94.67800        7.6336719E-18
   94.83950        7.6336586E-18
   95.00100        7.6330407E-18
   95.16250        7.6316428E-18
   95.32400        7.6297196E-18
   95.48550        7.6279014E-18
   95.64700        7.6269171E-18
   95.80850        7.6272356E-18
   95.97000        7.6288130E-18
   96.13150        7.6310853E-18
   96.29300        7.6332252E-18
   96.45450        7.6345338E-18
   96.61600        7.6347637E-18
   96.77750        7.6341971E-18
   96.93900        7.6334526E-18
   97.10050        7.6331135E-18
   97.26200        7.6334005E-18
   97.42350        7.6340557E-18
   97.58500        7.6345139E-18
   97.74650        7.6342476E-18
   97.90800        7.6330994E-18
   98.06950        7.6314029E-18
   98.23100        7.6298188E-18
   98.39250        7.6289809E-18
   98.55400        7.6291546E-18
   98.71550        7.6301001E-18
   98.87700        7.6312300E-18
   99.03850        7.6319579E-18
   99.20000        7.6320506E-18
   99.36150        7.6317627E-18
   99.52300        7.6316792E-18
   99.68450        7.6323384E-18
   99.84600        7.6338720E-18
   100.0075        7.6358515E-18
   100.1690        7.6374612E-18
   100.3305        7.6379004E-18
   100.4920        7.6368011E-18
   100.6535        7.6344188E-18
   100.8150        7.6315071E-18
   100.9765        7.6289354E-18
   101.1380        7.6272612E-18
   101.2995        7.6265068E-18
   101.4610        7.6262322E-18
   101.6225        7.6258707E-18
   101.7840        7.6251081E-18
   101.9455        7.6240890E-18
   102.1070        7.6233371E-18
   102.2685        7.6234314E-18
   102.4300        7.6246490E-18
   102.5915        7.6267649E-18
   102.7530        7.6291455E-18
   102.9145        7.6310679E-18
   103.0760        7.6320911E-18
   103.2375        7.6322698E-18
   103.3990        7.6320795E-18
   103.5605        7.6321209E-18
   103.7220        7.6327495E-18
   103.8835        7.6338489E-18
   104.0450        7.6348762E-18
   104.2065        7.6351434E-18
   104.3680        7.6341930E-18
   104.5295        7.6320646E-18
   104.6910        7.6293085E-18
   104.8525        7.6267525E-18
   105.0140        7.6251287E-18
   105.1755        7.6247648E-18
   105.3370        7.6254770E-18
   105.4985        7.6267153E-18
   105.6600        7.6278675E-18
   105.8215        7.6285657E-18
   105.9830        7.6288419E-18
   106.1445        7.6290496E-18
   106.3060        7.6296178E-18
   106.4675        7.6307643E-18
   106.6290        7.6323260E-18
   106.7905        7.6338166E-18
   106.9520        7.6346694E-18
   107.1135        7.6345420E-18
   107.2750        7.6335279E-18
   107.4365        7.6321184E-18
   107.5980        7.6309513E-18
   107.7595        7.6304442E-18
   107.9210        7.6305286E-18
   108.0825        7.6306320E-18
   108.2440        7.6299595E-18
   108.4055        7.6279271E-18
   108.5670        7.6245356E-18
   108.7285        7.6204709E-18
   108.8900        7.6168478E-18
   109.0515        7.6147236E-18
   109.2130        7.6146194E-18
   109.3745        7.6163077E-18
   109.5360        7.6189828E-18
   109.6975        7.6217125E-18
   109.8590        7.6239277E-18
   110.0205        7.6256598E-18
   110.1820        7.6274134E-18
   110.3435        7.6297295E-18
   110.5050        7.6327280E-18
   110.6665        7.6359003E-18
   110.8280        7.6383090E-18
   110.9895        7.6390882E-18
   111.1510        7.6379583E-18
   111.3125        7.6354503E-18
   111.4740        7.6326759E-18
   111.6355        7.6307536E-18
   111.7970        7.6302060E-18
   111.9585        7.6306667E-18
   112.1200        7.6310910E-18
   112.2815        7.6303557E-18
   112.4430        7.6279246E-18
   112.6045        7.6242073E-18
   112.7660        7.6204039E-18
   112.9275        7.6179058E-18
   113.0890        7.6175997E-18
   113.2505        7.6194443E-18
   113.4120        7.6225512E-18
   113.5735        7.6257086E-18
   113.7350        7.6280346E-18
   113.8965        7.6293904E-18
   114.0580        7.6303094E-18
   114.2195        7.6315137E-18
   114.3810        7.6333178E-18
   114.5425        7.6352923E-18
   114.7040        7.6364015E-18
   114.8655        7.6355677E-18
   115.0270        7.6323269E-18
   115.1885        7.6272083E-18
   115.3500        7.6215942E-18
   115.5115        7.6171175E-18
   115.6730        7.6149155E-18
   115.8345        7.6151397E-18
   115.9960        7.6169835E-18
   116.1575        7.6191970E-18
   116.3190        7.6207910E-18
   116.4805        7.6215388E-18
   116.6420        7.6220053E-18