  -30.00000       -7.6940403E-18
  -29.83850       -7.7076201E-18
  -29.67700       -7.7324662E-18
  -29.51550       -7.7646625E-18
  -29.35400       -7.7993892E-18
  -29.19250       -7.8317808E-18
  -29.03100       -7.8577840E-18
  -28.86950       -7.8748496E-18
  -28.70800       -7.8823529E-18
  -28.54650       -7.8816515E-18
  -28.38500       -7.8757827E-18
  -28.22350       -7.8688658E-18
  -28.06200       -7.8652998E-18
  -27.90050       -7.8689154E-18
  -27.73900       -7.8822330E-18
  -27.57750       -7.9059565E-18
  -27.41600       -7.9388130E-18
  -27.25450       -7.9777517E-18
  -27.09300       -8.0184912E-18
  -26.93150       -8.0563057E-18
  -26.77000       -8.0868973E-18
  -26.60850       -8.1072079E-18
  -26.44700       -8.1159901E-18
  -26.28550       -8.1140537E-18
  -26.12400       -8.1041201E-18
  -25.96250       -8.0903285E-18
  -25.80100       -8.0774840E-18
  -25.63950       -8.0701825E-18
  -25.47800       -8.0719783E-18
  -25.31650       -8.0847442E-18
  -25.15500       -8.1083312E-18
  -24.99350       -8.1405971E-18
  -24.83200       -8.1777962E-18
  -24.67050       -8.2152592E-18
  -24.50900       -8.2482522E-18
  -24.34750       -8.2728500E-18
  -24.18600       -8.2866706E-18
  -24.02450       -8.2893225E-18
  -23.86300       -8.2824817E-18
  -23.70150       -8.2695851E-18
  -23.54000       -8.2551806E-18
  -23.37850       -8.2440790E-18
  -23.21700       -8.2404510E-18
  -23.05550       -8.2470503E-18
  -22.89400       -8.2647106E-18
  -22.73250       -8.2921961E-18
  -22.57100       -8.3264389E-18
  -22.40950       -8.3631037E-18
  -22.24800       -8.3973920E-18
  -22.08650       -8.4249181E-18
  -21.92500       -8.4425246E-18
  -21.76350       -8.4488658E-18
  -21.60200       -8.4446687E-18
  -21.44050       -8.4326133E-18
  -21.27900       -8.4168448E-18
  -21.11750       -8.4022037E-18
  -20.95600       -8.3933190E-18
  -20.79450       -8.3937317E-18
  -20.63300       -8.4052229E-18
  -20.47150       -8.4274708E-18
  -20.31000       -8.4581120E-18
  -20.14850       -8.4931853E-18
  -19.98700       -8.5278773E-18
  -19.82550       -8.5574241E-18
  -19.66400       -8.5779961E-18
  -19.50250       -8.5874078E-18
  -19.34100       -8.5855276E-18
  -19.17950       -8.5743069E-18
  -19.01800       -8.5574366E-18
  -18.85650       -8.5396795E-18
  -18.69500       -8.5260062E-18
  -18.53350       -8.5206775E-18
  -18.37200       -8.5264545E-18
  -18.21050       -8.5440710E-18
  -18.04900       -8.5720760E-18
  -17.88750       -8.6070939E-18
  -17.72600       -8.6444402E-18
  -17.56450       -8.6789916E-18
  -17.40300       -8.7061429E-18
  -17.24150       -8.7226601E-18
  -17.08000       -8.7272749E-18
  -16.91850       -8.7209098E-18
  -16.75700       -8.7064871E-18
  -16.59550       -8.6883726E-18
  -16.43400       -8.6715478E-18
  -16.27250       -8.6606828E-18
  -16.11100       -8.6592592E-18
  -15.94950       -8.6689140E-18
  -15.78800       -8.6891270E-18
  -15.62650       -8.7173000E-18
  -15.46500       -8.7492399E-18
  -15.30350       -8.7799357E-18
  -15.14200       -8.8045162E-18
  -14.98050       -8.8191921E-18
  -14.81900       -8.8220028E-18
  -14.65750       -8.8132306E-18
  -14.49600       -8.7953825E-18
  -14.33450       -8.7727484E-18
  -14.17300       -8.7506064E-18
  -14.01150       -8.7342373E-18
  -13.85000       -8.7279317E-18
  -13.68850       -8.7341819E-18
  -13.52700       -8.7532054E-18
  -13.36550       -8.7828979E-18
  -13.20400       -8.8192152E-18
  -13.04250       -8.8569181E-18
  -12.88100       -8.8905314E-18
  -12.71950       -8.9153560E-18
  -12.55800       -8.9283328E-18
  -12.39650       -8.9286165E-18
  -12.23500       -8.9177258E-18
  -12.07350       -8.8992574E-18
  -11.91200       -8.8782064E-18
  -11.75050       -8.8600060E-18
  -11.58900       -8.8494900E-18
  -11.42750       -8.8499524E-18
  -11.26600       -8.8625132E-18
  -11.10450       -8.8858951E-18
  -10.94300       -8.9166745E-18
  -10.78150       -8.9499462E-18
  -10.62000       -8.9802747E-18
  -10.45850       -9.0027468E-18
  -10.29700       -9.0139261E-18
  -10.13550       -9.0125141E-18
  -9.974000       -8.9996150E-18
  -9.812500       -8.9785344E-18
  -9.651000       -8.9541747E-18
  -9.489500       -8.9321188E-18
  -9.328000       -8.9175778E-18
  -9.166500       -8.9144105E-18
  -9.005000       -8.9243772E-18
  -8.843500       -8.9467938E-18
  -8.682000       -8.9786394E-18
  -8.520500       -9.0151263E-18
  -8.359000       -9.0505992E-18
  -8.197500       -9.0796100E-18
  -8.036000       -9.0979569E-18
  -7.874500       -9.1034643E-18
  -7.713000       -9.0963786E-18
  -7.551500       -9.0792783E-18
  -7.390000       -9.0565416E-18
  -7.228500       -9.0334798E-18
  -7.067000       -9.0153025E-18
  -6.905500       -9.0061241E-18
  -6.744000       -9.0081937E-18
  -6.582500       -9.0214849E-18
  -6.421000       -9.0437302E-18
  -6.259500       -9.0708734E-18
  -6.098000       -9.0978684E-18
  -5.936500       -9.1196588E-18
  -5.775000       -9.1321674E-18
  -5.613500       -9.1330939E-18
  -5.452000       -9.1223596E-18
  -5.290500       -9.1021259E-18
  -5.129000       -9.0763700E-18
  -4.967500       -9.0500995E-18
  -4.806000       -9.0283819E-18
  -4.644500       -9.0153770E-18
  -4.483000       -9.0135514E-18
  -4.321500       -9.0232542E-18
  -4.160000       -9.0426979E-18
  -3.998500       -9.0683488E-18
  -3.837000       -9.0956449E-18
  -3.675500       -9.1198813E-18
  -3.514000       -9.1371115E-18
  -3.352500       -9.1448762E-18
  -3.191000       -9.1426536E-18
  -3.029500       -9.1319218E-18
  -2.868000       -9.1158488E-18
  -2.706500       -9.0986575E-18
  -2.545000       -9.0847915E-18
  -2.383500       -9.0780458E-18
  -2.222000       -9.0808343E-18
  -2.060500       -9.0937366E-18
  -1.899000       -9.1154145E-18
  -1.737500       -9.1429051E-18
  -1.576000       -9.1722179E-18
  -1.414500       -9.1991244E-18
  -1.253000       -9.2199611E-18
  -1.091500       -9.2322968E-18
 -0.9300000       -9.2353533E-18
 -0.7685000       -9.2300891E-18
 -0.6070000       -9.2189676E-18
 -0.4455000       -9.2054416E-18
 -0.2840000       -9.1932746E-18
 -0.1225000       -9.1858134E-18
  3.9000001E-02   -9.1853609E-18
  0.2005000       -9.1927518E-18
  0.3620000       -9.2072208E-18
  0.5235000       -9.2265843E-18
  0.6850000       -9.2476907E-18
  0.8465000       -9.2670616E-18
   1.008000       -9.2815769E-18
   1.169500       -9.2890819E-18
   1.331000       -9.2887833E-18
   1.492500       -9.2813825E-18
   1.654000       -9.2689062E-18
   1.815500       -9.2543048E-18
   1.977000       -9.2408813E-18
   2.138500       -9.2316806E-18
   2.300000       -9.2289393E-18
   2.461500       -9.2336989E-18
   2.623000       -9.2456459E-18
   2.784500       -9.2631937E-18
   2.946000       -9.2838029E-18
   3.107500       -9.3044625E-18
   3.269000       -9.3222552E-18
   3.430500       -9.3348879E-18
   3.592000       -9.3411058E-18
   3.753500       -9.3408800E-18
   3.915000       -9.3353759E-18
   4.076500       -9.3266823E-18
   4.238000       -9.3173781E-18
   4.399500       -9.3100204E-18
   4.561000       -9.3066546E-18
   4.722500       -9.3084347E-18
   4.884000       -9.3154293E-18
   5.045500       -9.3266277E-18
   5.207000       -9.3401554E-18
   5.368500       -9.3536434E-18
   5.530000       -9.3646904E-18
   5.691500       -9.3713360E-18
   5.853000       -9.3724419E-18
   6.014500       -9.3679263E-18
   6.176000       -9.3587967E-18
   6.337500       -9.3469647E-18
   6.499000       -9.3348929E-18
   6.660500       -9.3251296E-18
   6.822000       -9.3198324E-18
   6.983500       -9.3203659E-18
   7.145000       -9.3270619E-18
   7.306500       -9.3391710E-18
   7.468000       -9.3550190E-18
   7.629500       -9.3723360E-18
   7.791000       -9.3886861E-18
   7.952500       -9.4019234E-18
   8.114000       -9.4105915E-18
   8.275500       -9.4141872E-18
   8.437000       -9.4132393E-18
   8.598500       -9.4091886E-18
   8.760000       -9.4040907E-18
   8.921500       -9.4001864E-18
   9.083000       -9.3994419E-18
   9.244500       -9.4031435E-18
   9.406000       -9.4116279E-18
   9.567500       -9.4242143E-18
   9.729000       -9.4393451E-18
   9.890500       -9.4549118E-18
   10.05200       -9.4686819E-18
   10.21350       -9.4787594E-18
   10.37500       -9.4839673E-18
   10.53650       -9.4840873E-18
   10.69800       -9.4799092E-18
   10.85950       -9.4730825E-18
   11.02100       -9.4657942E-18
   11.18250       -9.4603414E-18
   11.34400       -9.4586713E-18
   11.50550       -9.4619933E-18
   11.66700       -9.4705265E-18
   11.82850       -9.4834495E-18
   11.99000       -9.4990642E-18
   12.15150       -9.5151388E-18
   12.31300       -9.5293655E-18
   12.47450       -9.5398293E-18
   12.63600       -9.5453905E-18
   12.79750       -9.5459050E-18
   12.95900       -9.5422356E-18
   13.12050       -9.5360574E-18
   13.28200       -9.5295053E-18
   13.44350       -9.5247440E-18
   13.60500       -9.5235339E-18
   13.76650       -9.5268947E-18
   13.92800       -9.5349134E-18
   14.08950       -9.5467338E-18
   14.25100       -9.5607372E-18
   14.41250       -9.5748629E-18
   14.57400       -9.5870291E-18
   14.73550       -9.5955457E-18
   14.89700       -9.5994633E-18
   15.05850       -9.5987602E-18
   15.22000       -9.5943447E-18
   15.38150       -9.5878579E-18
   15.54300       -9.5813290E-18
   15.70450       -9.5767572E-18
   15.86600       -9.5757050E-18
   16.02750       -9.5789988E-18
   16.18900       -9.5865824E-18
   16.35050       -9.5975533E-18
   16.51200       -9.6103630E-18
   16.67350       -9.6231264E-18
   16.83500       -9.6339873E-18
   16.99650       -9.6414683E-18
   17.15800       -9.6447448E-18
   17.31950       -9.6438043E-18
   17.48100       -9.6394417E-18
   17.64250       -9.6331212E-18
   17.80400       -9.6266916E-18
   17.96550       -9.6220337E-18
   18.12700       -9.6206887E-18
   18.28850       -9.6235640E-18
   18.45000       -9.6307630E-18
   18.61150       -9.6415874E-18
   18.77300       -9.6546941E-18
   18.93450       -9.6683831E-18
   19.09600       -9.6809257E-18
   19.25750       -9.6908858E-18
   19.41900       -9.6973601E-18
   19.58050       -9.7001088E-18
   19.74200       -9.6995620E-18
   19.90350       -9.6967306E-18
   20.06500       -9.6930075E-18
   20.22650       -9.6899237E-18
   20.38800       -9.6888707E-18
   20.54950       -9.6908419E-18
   20.71100       -9.6962293E-18
   20.87250       -9.7047344E-18
   21.03400       -9.7154092E-18
   21.19550       -9.7268251E-18
   21.35700       -9.7373526E-18
   21.51850       -9.7454722E-18
   21.68000       -9.7500738E-18
   21.84150       -9.7506562E-18
   22.00300       -9.7474211E-18
   22.16450       -9.7412346E-18
   22.32600       -9.7334847E-18
   22.48750       -9.7258573E-18
   22.64900       -9.7200753E-18
   22.81050       -9.7176153E-18
   22.97200       -9.7194591E-18
   23.13350       -9.7258995E-18
   23.29500       -9.7364460E-18
   23.45650       -9.7498703E-18
   23.61800       -9.7643989E-18
   23.77950       -9.7780234E-18
   23.94100       -9.7888909E-18
   24.10250       -9.7956689E-18
   24.26400       -9.7978195E-18
   24.42550       -9.7957110E-18
   24.58700       -9.7905403E-18
   24.74850       -9.7840916E-18
   24.91000       -9.7783882E-18
   25.07150       -9.7752929E-18
   25.23300       -9.7761490E-18
   25.39450       -9.7815174E-18
   25.55600       -9.7910507E-18
   25.71750       -9.8035304E-18
   25.87900       -9.8170862E-18
   26.04050       -9.8295394E-18
   26.20200       -9.8388526E-18
   26.36350       -9.8435709E-18
   26.52500       -9.8431714E-18
   26.68650       -9.8382331E-18
   26.84800       -9.8303616E-18
   27.00950       -9.8218880E-18
   27.17100       -9.8153789E-18
   27.33250       -9.8130909E-18
   27.49400       -9.8164791E-18
   27.65550       -9.8258734E-18
   27.81700       -9.8403978E-18
   27.97850       -9.8581384E-18
   28.14000       -9.8765241E-18
   28.30150       -9.8928378E-18
   28.46300       -9.9047583E-18
   28.62450       -9.9108265E-18
   28.78600       -9.9107495E-18
   28.94750       -9.9054771E-18
   29.10900       -9.8970225E-18
   29.27050       -9.8880666E-18
   29.43200       -9.8813904E-18
   29.59350       -9.8792786E-18
   29.75500       -9.8830051E-18
   29.91650       -9.8925267E-18
   30.07800       -9.9064722E-18
   30.23950       -9.9224235E-18
   30.40100       -9.9374476E-18
   30.56250       -9.9487304E-18
   30.72400       -9.9542038E-18
   30.88550       -9.9529928E-18
   31.04700       -9.9456069E-18
   31.20850       -9.9338395E-18
   31.37000       -9.9203928E-18
   31.53150       -9.9083234E-18
   31.69300       -9.9004114E-18
   31.85450       -9.8985891E-18
   32.01600       -9.9035291E-18
   32.17750       -9.9144925E-18
   32.33900       -9.9294587E-18
   32.50050       -9.9455333E-18
   32.66200       -9.9595557E-18
   32.82350       -9.9687705E-18
   32.98500       -9.9714373E-18
   33.14650       -9.9672228E-18
   33.30800       -9.9572908E-18
   33.46950       -9.9440626E-18
   33.63100       -9.9307044E-18
   33.79250       -9.9204565E-18
   33.95400       -9.9159550E-18
   34.11550       -9.9186979E-18
   34.27700       -9.9287630E-18
   34.43850       -9.9448161E-18
   34.60000       -9.9644120E-18
   34.76150       -9.9844976E-18
   34.92300       -1.0002029E-17
   35.08450       -1.0014566E-17
   35.24600       -1.0020753E-17
   35.40750       -1.0020558E-17
   35.56900       -1.0015262E-17
   35.73050       -1.0007178E-17
   35.89200       -9.9991412E-18
   36.05350       -9.9939118E-18
   36.21500       -9.9935784E-18
   36.37650       -9.9991255E-18
   36.53800       -1.0010242E-17
   36.69950       -1.0025416E-17
   36.86100       -1.0042287E-17
   37.02250       -1.0058163E-17
   37.18400       -1.0070577E-17
   37.34550       -1.0077773E-17
   37.50700       -1.0079026E-17
   37.66850       -1.0074727E-17
   37.83000       -1.0066267E-17
   37.99150       -1.0055729E-17
   38.15300       -1.0045473E-17
   38.31450       -1.0037684E-17
   38.47600       -1.0033968E-17
   38.63750       -1.0035077E-17
   38.79900       -1.0040798E-17
   38.96050       -1.0050051E-17
   39.12200       -1.0061155E-17
   39.28350       -1.0072214E-17
   39.44500       -1.0081534E-17
   39.60650       -1.0087958E-17
   39.76800       -1.0091069E-17
   39.92950       -1.0091205E-17
   40.09100       -1.0089299E-17
   40.25250       -1.0086617E-17
   40.41400       -1.0084443E-17
   40.57550       -1.0083804E-17
   40.73700       -1.0085283E-17
   40.89850       -1.0088942E-17
   41.06000       -1.0094361E-17
   41.22150       -1.0100762E-17
   41.38300       -1.0107194E-17
   41.54450       -1.0112744E-17
   41.70600       -1.0116719E-17
   41.86750       -1.0118788E-17
   42.02900       -1.0119029E-17
   42.19050       -1.0117895E-17
   42.35200       -1.0116086E-17
   42.51350       -1.0114384E-17
   42.67500       -1.0113469E-17
   42.83650       -1.0113780E-17
   42.99800       -1.0115449E-17
   43.15950       -1.0118320E-17
   43.32100       -1.0122033E-17
   43.48250       -1.0126150E-17
   43.64400       -1.0130272E-17
   43.80550       -1.0134122E-17
   43.96700       -1.0137585E-17
   44.12850       -1.0140685E-17
   44.29000       -1.0143540E-17
   44.45150       -1.0146303E-17
   44.61300       -1.0149102E-17
   44.77450       -1.0152010E-17
   44.93600       -1.0155047E-17
   45.09750       -1.0158194E-17
   45.25900       -1.0161427E-17
   45.42050       -1.0164753E-17
   45.58200       -1.0168228E-17
   45.74350       -1.0171971E-17
   45.90500       -1.0176141E-17
   46.06650       -1.0180906E-17
   46.22800       -1.0186381E-17
   46.38950       -1.0192573E-17
   46.55100       -1.0199329E-17
   46.71250       -1.0206322E-17
   46.87400       -1.0213079E-17
   47.03550       -1.0219057E-17
   47.19700       -1.0223759E-17
   47.35850       -1.0226866E-17
   47.52000       -1.0228332E-17
   47.68150       -1.0228433E-17
   47.84300       -1.0227726E-17
   48.00450       -1.0226939E-17
   48.16600       -1.0226807E-17
   48.32750       -1.0227901E-17
   48.48900       -1.0230491E-17
   48.65050       -1.0234489E-17
   48.81200       -1.0239461E-17
   48.97350       -1.0244721E-17
   49.13500       -1.0249477E-17
   49.29650       -1.0252999E-17
   49.45800       -1.0254776E-17
   49.61950       -1.0254639E-17
   49.78100       -1.0252819E-17
   49.94250       -1.0249928E-17
   50.10400       -1.0246863E-17
   50.26550       -1.0244631E-17
   50.42700       -1.0244141E-17
   50.58850       -1.0245993E-17
   50.75000       -1.0250335E-17
   50.91150       -1.0256797E-17
   51.07300       -1.0264557E-17
   51.23450       -1.0272506E-17
   51.39600       -1.0279479E-17
   51.55750       -1.0284494E-17
   51.71900       -1.0286964E-17
   51.88050       -1.0286807E-17
   52.04200       -1.0284459E-17
   52.20350       -1.0280785E-17
   52.36500       -1.0276909E-17
   52.52650       -1.0273991E-17
   52.68800       -1.0273004E-17
   52.84950       -1.0274550E-17
   53.01100       -1.0278732E-17
   53.17250       -1.0285141E-17
   53.33400       -1.0292924E-17
   53.49550       -1.0300967E-17
   53.65700       -1.0308128E-17
   53.81850       -1.0313473E-17
   53.98000       -1.0316491E-17
   54.14150       -1.0317199E-17
   54.30300       -1.0316144E-17
   54.46450       -1.0314289E-17
   54.62600       -1.0312799E-17
   54.78750       -1.0312799E-17
   54.94900       -1.0315135E-17
   55.11050       -1.0320199E-17
   55.27200       -1.0327850E-17
   55.43350       -1.0337438E-17
   55.59500       -1.0347936E-17
   55.75650       -1.0358133E-17
   55.91800       -1.0366866E-17
   56.07950       -1.0373236E-17
   56.24100       -1.0376781E-17
   56.40250       -1.0377557E-17
   56.56400       -1.0376121E-17
   56.72550       -1.0373421E-17
   56.88700       -1.0370591E-17
   57.04850       -1.0368716E-17
   57.21000       -1.0368611E-17
   57.37150       -1.0370650E-17
   57.53300       -1.0374701E-17
   57.69450       -1.0380165E-17
   57.85600       -1.0386121E-17
   58.01750       -1.0391537E-17
   58.17900       -1.0395491E-17
   58.34050       -1.0397377E-17
   58.50200       -1.0397028E-17
   58.66350       -1.0394754E-17
   58.82500       -1.0391283E-17
   58.98650       -1.0387608E-17
   59.14800       -1.0384799E-17
   59.30950       -1.0383779E-17
   59.47100       -1.0385139E-17
   59.63250       -1.0389010E-17
   59.79400       -1.0395041E-17
   59.95550       -1.0402470E-17
   60.11700       -1.0410287E-17
   60.27850       -1.0417456E-17
   60.44000       -1.0423133E-17
   60.60150       -1.0426850E-17
   60.76300       -1.0428594E-17
   60.92450       -1.0428805E-17
   61.08600       -1.0428256E-17
   61.24750       -1.0427874E-17
   61.40900       -1.0428529E-17
   61.57050       -1.0430852E-17
   61.73200       -1.0435097E-17
   61.89350       -1.0441097E-17
   62.05500       -1.0448299E-17
   62.21650       -1.0455886E-17
   62.37800       -1.0462936E-17
   62.53950       -1.0468624E-17
   62.70100       -1.0472380E-17
   62.86250       -1.0474010E-17
   63.02400       -1.0473726E-17
   63.18550       -1.0472102E-17
   63.34700       -1.0469937E-17
   63.50850       -1.0468077E-17
   63.67000       -1.0467231E-17
   63.83150       -1.0467821E-17
   63.99300       -1.0469900E-17
   64.15450       -1.0473166E-17
   64.31600       -1.0477061E-17
   64.47750       -1.0480922E-17
   64.63900       -1.0484150E-17
   64.80050       -1.0486362E-17
   64.96200       -1.0487465E-17
   65.12350       -1.0487679E-17
   65.28500       -1.0487468E-17
   65.44650       -1.0487428E-17
   65.60800       -1.0488143E-17
   65.76950       -1.0490044E-17
   65.93100       -1.0493302E-17
   66.09250       -1.0497780E-17
   66.25400       -1.0503047E-17
   66.41550       -1.0508479E-17
   66.57700       -1.0513398E-17
   66.73850       -1.0517256E-17
   66.90000       -1.0519781E-17
   67.06150       -1.0521060E-17
   67.22300       -1.0521526E-17
   67.38450       -1.0521842E-17
   67.54600       -1.0522716E-17
   67.70750       -1.0524703E-17
   67.86900       -1.0528043E-17
   68.03050       -1.0532595E-17
   68.19200       -1.0537872E-17
   68.35350       -1.0543163E-17
   68.51500       -1.0547713E-17
   68.67650       -1.0550907E-17
   68.83800       -1.0552413E-17
   68.99950       -1.0552281E-17
   69.16100       -1.0550949E-17
   69.32250       -1.0549183E-17
   69.48400       -1.0547941E-17
   69.64550       -1.0548175E-17
   69.80700       -1.0550618E-17
   69.96850       -1.0555592E-17
   70.13000       -1.0562885E-17
   70.29150       -1.0571746E-17
   70.45300       -1.0581016E-17
   70.61450       -1.0589368E-17
   70.77600       -1.0595604E-17
   70.93750       -1.0598927E-17
   71.09900       -1.0599126E-17
   71.26050       -1.0596626E-17
   71.42200       -1.0592403E-17
   71.58350       -1.0587773E-17
   71.74500       -1.0584124E-17
   71.90650       -1.0582644E-17
   72.06800       -1.0584087E-17
   72.22950       -1.0588615E-17
   72.39100       -1.0595761E-17
   72.55250       -1.0604499E-17
   72.71400       -1.0613442E-17
   72.87550       -1.0621121E-17
   73.03700       -1.0626308E-17
   73.19850       -1.0628302E-17
   73.36000       -1.0627106E-17
   73.52150       -1.0623448E-17
   73.68300       -1.0618618E-17
   73.84450       -1.0614176E-17
   74.00600       -1.0611592E-17
   74.16750       -1.0611910E-17
   74.32900       -1.0615521E-17
   74.49050       -1.0622103E-17
   74.65200       -1.0630705E-17
   74.81350       -1.0639987E-17
   74.97500       -1.0648505E-17
   75.13650       -1.0655019E-17
   75.29800       -1.0658738E-17
   75.45950       -1.0659462E-17
   75.62100       -1.0657618E-17
   75.78250       -1.0654150E-17
   75.94400       -1.0650323E-17
   76.10550       -1.0647429E-17
   76.26700       -1.0646508E-17
   76.42850       -1.0648101E-17
   76.59000       -1.0652116E-17
   76.75150       -1.0657858E-17
   76.91300       -1.0664187E-17
   77.07450       -1.0669797E-17
   77.23600       -1.0673532E-17
   77.39750       -1.0674668E-17
   77.55900       -1.0673079E-17
   77.72050       -1.0669262E-17
   77.88200       -1.0664213E-17
   78.04350       -1.0659197E-17
   78.20500       -1.0655453E-17
   78.36650       -1.0653936E-17
   78.52800       -1.0655104E-17
   78.68950       -1.0658833E-17
   78.85100       -1.0664451E-17
   79.01250       -1.0670884E-17
   79.17400       -1.0676900E-17
   79.33550       -1.0681389E-17
   79.49700       -1.0683622E-17
   79.65850       -1.0683444E-17
   79.82000       -1.0681332E-17
   79.98150       -1.0678308E-17
   80.14300       -1.0675713E-17
   80.30450       -1.0674896E-17
   80.46600       -1.0676888E-17
   80.62750       -1.0682141E-17
   80.78900       -1.0690414E-17
   80.95050       -1.0700821E-17
   81.11200       -1.0712022E-17
   81.27350       -1.0722533E-17
   81.43500       -1.0731050E-17
   81.59650       -1.0736730E-17
   81.75800       -1.0739348E-17
   81.91950       -1.0739340E-17
   82.08100       -1.0737689E-17
   82.24250       -1.0735713E-17
   82.40400       -1.0734789E-17
   82.56550       -1.0736055E-17
   82.72700       -1.0740172E-17
   82.88850       -1.0747157E-17
   83.05000       -1.0756357E-17
   83.21150       -1.0766565E-17
   83.37300       -1.0776251E-17
   83.53450       -1.0783900E-17
   83.69600       -1.0788341E-17
   83.85750       -1.0789020E-17
   84.01900       -1.0786137E-17
   84.18050       -1.0780602E-17
   84.34200       -1.0773840E-17
   84.50350       -1.0767480E-17
   84.66500       -1.0763000E-17
   84.82650       -1.0761434E-17
   84.98800       -1.0763168E-17
   85.14950       -1.0767903E-17
   85.31100       -1.0774732E-17
   85.47250       -1.0782351E-17
   85.63400       -1.0789334E-17
   85.79550       -1.0794431E-17
   85.95700       -1.0796825E-17
   86.11850       -1.0796312E-17
   86.28000       -1.0793357E-17
   86.44150       -1.0789004E-17
   86.60300       -1.0784653E-17
   86.76450       -1.0781745E-17
   86.92600       -1.0781417E-17
   87.08750       -1.0784219E-17
   87.24900       -1.0789976E-17
   87.41050       -1.0797801E-17
   87.57200       -1.0806303E-17
   87.73350       -1.0813885E-17
   87.89500       -1.0819105E-17
   88.05650       -1.0820967E-17
   88.21800       -1.0819129E-17
   88.37950       -1.0813952E-17
   88.54100       -1.0806426E-17
   88.70250       -1.0797974E-17
   88.86400       -1.0790191E-17
   89.02550       -1.0784549E-17
   89.18700       -1.0782126E-17
   89.34850       -1.0783394E-17
   89.51000       -1.0788113E-17
   89.67150       -1.0795372E-17
   89.83300       -1.0803768E-17
   89.99450       -1.0811696E-17
   90.15600       -1.0817701E-17
   90.31750       -1.0820792E-17
   90.47900       -1.0820662E-17
   90.64050       -1.0817736E-17
   90.80200       -1.0813053E-17
   90.96350       -1.0808024E-17
   91.12500       -1.0804110E-17
   91.28650       -1.0802523E-17
   91.44800       -1.0804002E-17
   91.60950       -1.0808693E-17
   91.77100       -1.0816165E-17
   91.93250       -1.0825520E-17
   92.09400       -1.0835581E-17
   92.25550       -1.0845127E-17
   92.41700       -1.0853118E-17
   92.57850       -1.0858897E-17
   92.74000       -1.0862304E-17
   92.90150       -1.0863699E-17
   93.06300       -1.0863863E-17
   93.22450       -1.0863818E-17
   93.38600       -1.0864571E-17
   93.54750       -1.0866890E-17
   93.70900       -1.0871121E-17
   93.87050       -1.0877139E-17
   94.03200       -1.0884393E-17
   94.19350       -1.0892057E-17
   94.35500       -1.0899215E-17
   94.51650       -1.0905050E-17
   94.67800       -1.0908972E-17
   94.83950       -1.0910704E-17
   95.00100       -1.0910296E-17
   95.16250       -1.0908089E-17
   95.32400       -1.0904661E-17
   95.48550       -1.0900733E-17
   95.64700       -1.0897066E-17
   95.80850       -1.0894339E-17
   95.97000       -1.0893037E-17
   96.13150       -1.0893372E-17
   96.29300       -1.0895256E-17
   96.45450       -1.0898335E-17
   96.61600       -1.0902090E-17
   96.77750       -1.0905956E-17
   96.93900       -1.0909451E-17
   97.10050       -1.0912246E-17
   97.26200       -1.0914204E-17
   97.42350       -1.0915354E-17
   97.58500       -1.0915844E-17
   97.74650       -1.0915891E-17
   97.90800       -1.0915732E-17
   98.06950       -1.0915609E-17
   98.23100       -1.0915738E-17
   98.39250       -1.0916297E-17
   98.55400       -1.0917399E-17
   98.71550       -1.0919075E-17
   98.87700       -1.0921259E-17
   99.03850       -1.0923804E-17
   99.20000       -1.0926517E-17
   99.36150       -1.0929191E-17
   99.52300       -1.0931657E-17
   99.68450       -1.0933801E-17
   99.84600       -1.0935573E-17
   100.0075       -1.0936990E-17
   100.1690       -1.0938132E-17
   100.3305       -1.0939140E-17
   100.4920       -1.0940225E-17
   100.6535       -1.0941651E-17
   100.8150       -1.0943695E-17
   100.9765       -1.0946584E-17
   101.1380       -1.0950404E-17
   101.2995       -1.0955035E-17
   101.4610       -1.0960120E-17
   101.6225       -1.0965096E-17
   101.7840       -1.0969302E-17
   101.9455       -1.0972121E-17
   102.1070       -1.0973133E-17
   102.2685       -1.0972235E-17
   102.4300       -1.0969692E-17
   102.5915       -1.0966109E-17
   102.7530       -1.0962323E-17
   102.9145       -1.0959249E-17
   103.0760       -1.0957705E-17
   103.2375       -1.0958244E-17
   103.3990       -1.0961028E-17
   103.5605       -1.0965775E-17
   103.7220       -1.0971784E-17
   103.8835       -1.0978040E-17
   104.0450       -1.0983406E-17
   104.2065       -1.0986845E-17
   104.3680       -1.0987648E-17
   104.5295       -1.0985597E-17
   104.6910       -1.0981036E-17
   104.8525       -1.0974818E-17
   105.0140       -1.0968143E-17
   105.1755       -1.0962314E-17
   105.3370       -1.0958485E-17
   105.4985       -1.0957427E-17
   105.6600       -1.0959399E-17
   105.8215       -1.0964107E-17
   105.9830       -1.0970771E-17
   106.1445       -1.0978287E-17
   106.3060       -1.0985441E-17
   106.4675       -1.0991138E-17
   106.6290       -1.0994616E-17
   106.7905       -1.0995594E-17
   106.9520       -1.0994345E-17
   107.1135       -1.0991645E-17
   107.2750       -1.0988635E-17
   107.4365       -1.0986593E-17
   107.5980       -1.0986677E-17
   107.7595       -1.0989673E-17
   107.9210       -1.0995843E-17
   108.0825       -1.1004837E-17
   108.2440       -1.1015772E-17
   108.4055       -1.1027380E-17
   108.5670       -1.1038252E-17
   108.7285       -1.1047086E-17
   108.8900       -1.1052931E-17
   109.0515       -1.1055350E-17
   109.2130       -1.1054497E-17
   109.3745       -1.1051092E-17
   109.5360       -1.1046290E-17
   109.6975       -1.1041472E-17
   109.8590       -1.1037998E-17
   110.0205       -1.1036955E-17
   110.1820       -1.1038963E-17
   110.3435       -1.1044066E-17
   110.5050       -1.1051727E-17
   110.6665       -1.1060942E-17
   110.8280       -1.1070422E-17
   110.9895       -1.1078834E-17
   111.1510       -1.1085025E-17
   111.3125       -1.1088220E-17
   111.4740       -1.1088136E-17
   111.6355       -1.1085019E-17
   111.7970       -1.1079598E-17
   111.9585       -1.1072964E-17
   112.1200       -1.1066392E-17
   112.2815       -1.1061138E-17
   112.4430       -1.1058228E-17
   112.6045       -1.1058289E-17
   112.7660       -1.1061433E-17
   112.9275       -1.1067234E-17
   113.0890       -1.1074794E-17
   113.2505       -1.1082900E-17
   113.4120       -1.1090249E-17
   113.5735       -1.1095672E-17
   113.7350       -1.1098353E-17
   113.8965       -1.1097981E-17
   114.0580       -1.1094807E-17
   114.2195       -1.1089608E-17
   114.3810       -1.1083552E-17
   114.5425       -1.1078001E-17
   114.7040       -1.1074258E-17
   114.8655       -1.1073311E-17
   115.0270       -1.1075637E-17
   115.1885       -1.1081069E-17
   115.3500       -1.1088806E-17
   115.5115       -1.1097530E-17
   115.6730       -1.1105660E-17
   115.8345       -1.1111663E-17
   115.9960       -1.1114371E-17
   116.1575       -1.1113230E-17
   116.3190       -1.1108429E-17
   116.4805       -1.1100870E-17
   116.6420       -1.1091996E-17