  -30.00000       -7.6940403E-18
  -29.83850       -7.7076201E-18
  -29.67700       -7.7324662E-18
  -29.51550       -7.7646625E-18
  -29.35400       -7.7993892E-18
  -29.19250       -7.8317808E-18
  -29.03100       -7.8577840E-18
  -28.86950       -7.8748496E-18
  -28.70800       -7.8823529E-18
  -28.54650       -7.8816515E-18
  -28.38500       -7.8757827E-18
  -28.22350       -7.8688658E-18
  -28.06200       -7.8652998E-18
  -27.90050       -7.8689154E-18
  -27.73900       -7.8822330E-18
  -27.57750       -7.9059565E-18
  -27.41600       -7.9388130E-18
  -27.25450       -7.9777517E-18
  -27.09300       -8.0184912E-18
  -26.93150       -8.0563057E-18
  -26.77000       -8.0868973E-18
  -26.60850       -8.1072079E-18
  -26.44700       -8.1159901E-18
  -26.28550       -8.1140537E-18
  -26.12400       -8.1041201E-18
  -25.96250       -8.0903285E-18
  -25.80100       -8.0774840E-18
  -25.63950       -8.0701825E-18
  -25.47800       -8.0719783E-18
  -25.31650       -8.0847442E-18
  -25.15500       -8.1083304E-18
  -24.99350       -8.1405954E-18
  -24.83200       -8.1777946E-18
  -24.67050       -8.2152584E-18
  -24.50900       -8.2482513E-18
  -24.34750       -8.2728492E-18
  -24.18600       -8.2866697E-18
  -24.02450       -8.2893217E-18
  -23.86300       -8.2824817E-18
  -23.70150       -8.2695851E-18
  -23.54000       -8.2551823E-18
  -23.37850       -8.2440815E-18
  -23.21700       -8.2404535E-18
  -23.05550       -8.2470519E-18
  -22.89400       -8.2647114E-18
  -22.73250       -8.2921961E-18
  -22.57100       -8.3264381E-18
  -22.40950       -8.3631020E-18
  -22.24800       -8.3973903E-18
  -22.08650       -8.4249173E-18
  -21.92500       -8.4425255E-18
  -21.76350       -8.4488666E-18
  -21.60200       -8.4446703E-18
  -21.44050       -8.4326158E-18
  -21.27900       -8.4168473E-18
  -21.11750       -8.4022062E-18
  -20.95600       -8.3933206E-18
  -20.79450       -8.3937325E-18
  -20.63300       -8.4052229E-18
  -20.47150       -8.4274699E-18
  -20.31000       -8.4581104E-18
  -20.14850       -8.4931845E-18
  -19.98700       -8.5278773E-18
  -19.82550       -8.5574250E-18
  -19.66400       -8.5779978E-18
  -19.50250       -8.5874094E-18
  -19.34100       -8.5855276E-18
  -19.17950       -8.5743052E-18
  -19.01800       -8.5574341E-18
  -18.85650       -8.5396778E-18
  -18.69500       -8.5260045E-18
  -18.53350       -8.5206766E-18
  -18.37200       -8.5264553E-18
  -18.21050       -8.5440718E-18
  -18.04900       -8.5720768E-18
  -17.88750       -8.6070939E-18
  -17.72600       -8.6444386E-18
  -17.56450       -8.6789883E-18
  -17.40300       -8.7061380E-18
  -17.24150       -8.7226526E-18
  -17.08000       -8.7272683E-18
  -16.91850       -8.7209048E-18
  -16.75700       -8.7064846E-18
  -16.59550       -8.6883718E-18
  -16.43400       -8.6715503E-18
  -16.27250       -8.6606877E-18
  -16.11100       -8.6592650E-18
  -15.94950       -8.6689206E-18
  -15.78800       -8.6891312E-18
  -15.62650       -8.7173024E-18
  -15.46500       -8.7492391E-18
  -15.30350       -8.7799324E-18
  -15.14200       -8.8045121E-18
  -14.98050       -8.8191871E-18
  -14.81900       -8.8219995E-18
  -14.65750       -8.8132306E-18
  -14.49600       -8.7953858E-18
  -14.33450       -8.7727550E-18
  -14.17300       -8.7506147E-18
  -14.01150       -8.7342464E-18
  -13.85000       -8.7279408E-18
  -13.68850       -8.7341885E-18
  -13.52700       -8.7532087E-18
  -13.36550       -8.7828979E-18
  -13.20400       -8.8192136E-18
  -13.04250       -8.8569140E-18
  -12.88100       -8.8905248E-18
  -12.71950       -8.9153477E-18
  -12.55800       -8.9283245E-18
  -12.39650       -8.9286074E-18
  -12.23500       -8.9177176E-18
  -12.07350       -8.8992516E-18
  -11.91200       -8.8782015E-18
  -11.75050       -8.8600019E-18
  -11.58900       -8.8494867E-18
  -11.42750       -8.8499516E-18
  -11.26600       -8.8625132E-18
  -11.10450       -8.8858959E-18
  -10.94300       -8.9166761E-18
  -10.78150       -8.9499478E-18
  -10.62000       -8.9802747E-18
  -10.45850       -9.0027468E-18
  -10.29700       -9.0139253E-18
  -10.13550       -9.0125133E-18
  -9.974000       -8.9996142E-18
  -9.812500       -8.9785352E-18
  -9.651000       -8.9541772E-18
  -9.489500       -8.9321212E-18
  -9.328000       -8.9175819E-18
  -9.166500       -8.9144146E-18
  -9.005000       -8.9243821E-18
  -8.843500       -8.9467979E-18
  -8.682000       -8.9786444E-18
  -8.520500       -9.0151313E-18
  -8.359000       -9.0506033E-18
  -8.197500       -9.0796142E-18
  -8.036000       -9.0979602E-18
  -7.874500       -9.1034684E-18
  -7.713000       -9.0963836E-18
  -7.551500       -9.0792833E-18
  -7.390000       -9.0565466E-18
  -7.228500       -9.0334831E-18
  -7.067000       -9.0153050E-18
  -6.905500       -9.0061266E-18
  -6.744000       -9.0081946E-18
  -6.582500       -9.0214849E-18
  -6.421000       -9.0437294E-18
  -6.259500       -9.0708725E-18
  -6.098000       -9.0978667E-18
  -5.936500       -9.1196563E-18
  -5.775000       -9.1321650E-18
  -5.613500       -9.1330906E-18
  -5.452000       -9.1223554E-18
  -5.290500       -9.1021226E-18
  -5.129000       -9.0763667E-18
  -4.967500       -9.0500962E-18
  -4.806000       -9.0283803E-18
  -4.644500       -9.0153753E-18
  -4.483000       -9.0135506E-18
  -4.321500       -9.0232534E-18
  -4.160000       -9.0426954E-18
  -3.998500       -9.0683463E-18
  -3.837000       -9.0956408E-18
  -3.675500       -9.1198780E-18
  -3.514000       -9.1371090E-18
  -3.352500       -9.1448754E-18
  -3.191000       -9.1426544E-18
  -3.029500       -9.1319251E-18
  -2.868000       -9.1158546E-18
  -2.706500       -9.0986650E-18
  -2.545000       -9.0847998E-18
  -2.383500       -9.0780533E-18
  -2.222000       -9.0808384E-18
  -2.060500       -9.0937383E-18
  -1.899000       -9.1154129E-18
  -1.737500       -9.1429009E-18
  -1.576000       -9.1722129E-18
  -1.414500       -9.1991203E-18
  -1.253000       -9.2199586E-18
  -1.091500       -9.2322968E-18
 -0.9300000       -9.2353557E-18
 -0.7685000       -9.2300949E-18
 -0.6070000       -9.2189759E-18
 -0.4455000       -9.2054507E-18
 -0.2840000       -9.1932828E-18
 -0.1225000       -9.1858192E-18
  3.9000001E-02   -9.1853634E-18
  0.2005000       -9.1927510E-18
  0.3620000       -9.2072167E-18
  0.5235000       -9.2265777E-18
  0.6850000       -9.2476840E-18
  0.8465000       -9.2670541E-18
   1.008000       -9.2815711E-18
   1.169500       -9.2890770E-18
   1.331000       -9.2887808E-18
   1.492500       -9.2813817E-18
   1.654000       -9.2689070E-18
   1.815500       -9.2543064E-18
   1.977000       -9.2408830E-18
   2.138500       -9.2316806E-18
   2.300000       -9.2289385E-18
   2.461500       -9.2336964E-18
   2.623000       -9.2456426E-18
   2.784500       -9.2631895E-18
   2.946000       -9.2837979E-18
   3.107500       -9.3044576E-18
   3.269000       -9.3222511E-18
   3.430500       -9.3348862E-18
   3.592000       -9.3411050E-18
   3.753500       -9.3408800E-18
   3.915000       -9.3353784E-18
   4.076500       -9.3266856E-18
   4.238000       -9.3173839E-18
   4.399500       -9.3100270E-18
   4.561000       -9.3066595E-18
   4.722500       -9.3084380E-18
   4.884000       -9.3154301E-18
   5.045500       -9.3266260E-18
   5.207000       -9.3401521E-18
   5.368500       -9.3536384E-18
   5.530000       -9.3646871E-18
   5.691500       -9.3713335E-18
   5.853000       -9.3724402E-18
   6.014500       -9.3679271E-18
   6.176000       -9.3587984E-18
   6.337500       -9.3469672E-18
   6.499000       -9.3348945E-18
   6.660500       -9.3251296E-18
   6.822000       -9.3198299E-18
   6.983500       -9.3203618E-18
   7.145000       -9.3270561E-18
   7.306500       -9.3391652E-18
   7.468000       -9.3550149E-18
   7.629500       -9.3723327E-18
   7.791000       -9.3886844E-18
   7.952500       -9.4019234E-18
   8.114000       -9.4105939E-18
   8.275500       -9.4141914E-18
   8.437000       -9.4132434E-18
   8.598500       -9.4091927E-18
   8.760000       -9.4040940E-18
   8.921500       -9.4001888E-18
   9.083000       -9.3994444E-18
   9.244500       -9.4031460E-18
   9.406000       -9.4116296E-18
   9.567500       -9.4242143E-18
   9.729000       -9.4393443E-18
   9.890500       -9.4549085E-18
   10.05200       -9.4686777E-18
   10.21350       -9.4787553E-18
   10.37500       -9.4839632E-18
   10.53650       -9.4840848E-18
   10.69800       -9.4799084E-18
   10.85950       -9.4730841E-18
   11.02100       -9.4657975E-18
   11.18250       -9.4603447E-18
   11.34400       -9.4586738E-18
   11.50550       -9.4619949E-18
   11.66700       -9.4705265E-18
   11.82850       -9.4834479E-18
   11.99000       -9.4990626E-18
   12.15150       -9.5151380E-18
   12.31300       -9.5293663E-18
   12.47450       -9.5398318E-18
   12.63600       -9.5453938E-18
   12.79750       -9.5459091E-18
   12.95900       -9.5422397E-18
   13.12050       -9.5360607E-18
   13.28200       -9.5295061E-18
   13.44350       -9.5247424E-18
   13.60500       -9.5235306E-18
   13.76650       -9.5268914E-18
   13.92800       -9.5349109E-18
   14.08950       -9.5467346E-18
   14.25100       -9.5607421E-18
   14.41250       -9.5748737E-18
   14.57400       -9.5870432E-18
   14.73550       -9.5955615E-18
   14.89700       -9.5994773E-18
   15.05850       -9.5987709E-18
   15.22000       -9.5943496E-18
   15.38150       -9.5878563E-18
   15.54300       -9.5813232E-18
   15.70450       -9.5767489E-18
   15.86600       -9.5756975E-18
   16.02750       -9.5789930E-18
   16.18900       -9.5865783E-18
   16.35050       -9.5975533E-18
   16.51200       -9.6103655E-18
   16.67350       -9.6231314E-18
   16.83500       -9.6339939E-18
   16.99650       -9.6414741E-18
   17.15800       -9.6447506E-18
   17.31950       -9.6438059E-18
   17.48100       -9.6394401E-18
   17.64250       -9.6331155E-18
   17.80400       -9.6266825E-18
   17.96550       -9.6220221E-18
   18.12700       -9.6206771E-18
   18.28850       -9.6235541E-18
   18.45000       -9.6307563E-18
   18.61150       -9.6415841E-18
   18.77300       -9.6546941E-18
   18.93450       -9.6683856E-18
   19.09600       -9.6809306E-18
   19.25750       -9.6908932E-18
   19.41900       -9.6973675E-18
   19.58050       -9.7001146E-18
   19.74200       -9.6995662E-18
   19.90350       -9.6967306E-18
   20.06500       -9.6930033E-18
   20.22650       -9.6899155E-18
   20.38800       -9.6888616E-18
   20.54950       -9.6908328E-18
   20.71100       -9.6962219E-18
   20.87250       -9.7047319E-18
   21.03400       -9.7154117E-18
   21.19550       -9.7268317E-18
   21.35700       -9.7373609E-18
   21.51850       -9.7454805E-18
   21.68000       -9.7500796E-18
   21.84150       -9.7506586E-18
   22.00300       -9.7474202E-18
   22.16450       -9.7412304E-18
   22.32600       -9.7334765E-18
   22.48750       -9.7258474E-18
   22.64900       -9.7200629E-18
   22.81050       -9.7176037E-18
   22.97200       -9.7194491E-18
   23.13350       -9.7258937E-18
   23.29500       -9.7364436E-18
   23.45650       -9.7498720E-18
   23.61800       -9.7644023E-18
   23.77950       -9.7780267E-18
   23.94100       -9.7888926E-18
   24.10250       -9.7956672E-18
   24.26400       -9.7978146E-18
   24.42550       -9.7957028E-18
   24.58700       -9.7905296E-18
   24.74850       -9.7840817E-18
   24.91000       -9.7783791E-18
   25.07150       -9.7752855E-18
   25.23300       -9.7761441E-18
   25.39450       -9.7815166E-18
   25.55600       -9.7910515E-18
   25.71750       -9.8035345E-18
   25.87900       -9.8170904E-18
   26.04050       -9.8295444E-18
   26.20200       -9.8388568E-18
   26.36350       -9.8435725E-18
   26.52500       -9.8431722E-18
   26.68650       -9.8382331E-18
   26.84800       -9.8303625E-18
   27.00950       -9.8218905E-18
   27.17100       -9.8153839E-18
   27.33250       -9.8130984E-18
   27.49400       -9.8164882E-18
   27.65550       -9.8258833E-18
   27.81700       -9.8404069E-18
   27.97850       -9.8581450E-18
   28.14000       -9.8765282E-18
   28.30150       -9.8928386E-18
   28.46300       -9.9047574E-18
   28.62450       -9.9108256E-18
   28.78600       -9.9107487E-18
   28.94750       -9.9054779E-18
   29.10900       -9.8970266E-18
   29.27050       -9.8880732E-18
   29.43200       -9.8813995E-18
   29.59350       -9.8792894E-18
   29.75500       -9.8830158E-18
   29.91650       -9.8925358E-18
   30.07800       -9.9064780E-18
   30.23950       -9.9224260E-18
   30.40100       -9.9374443E-18
   30.56250       -9.9487229E-18
   30.72400       -9.9541947E-18
   30.88550       -9.9529829E-18
   31.04700       -9.9455995E-18
   31.20850       -9.9338345E-18
   31.37000       -9.9203903E-18
   31.53150       -9.9083218E-18
   31.69300       -9.9004098E-18
   31.85450       -9.8985858E-18
   32.01600       -9.9035233E-18
   32.17750       -9.9144826E-18
   32.33900       -9.9294463E-18
   32.50050       -9.9455201E-18
   32.66200       -9.9595416E-18
   32.82350       -9.9687572E-18
   32.98500       -9.9714257E-18
   33.14650       -9.9672145E-18
   33.30800       -9.9572859E-18
   33.46950       -9.9440617E-18
   33.63100       -9.9307069E-18
   33.79250       -9.9204606E-18
   33.95400       -9.9159591E-18
   34.11550       -9.9187012E-18
   34.27700       -9.9287647E-18
   34.43850       -9.9448170E-18
   34.60000       -9.9644120E-18
   34.76150       -9.9844968E-18
   34.92300       -1.0002027E-17
   35.08450       -1.0014566E-17
   35.24600       -1.0020754E-17
   35.40750       -1.0020559E-17
   35.56900       -1.0015265E-17
   35.73050       -1.0007182E-17
   35.89200       -9.9991478E-18
   36.05350       -9.9939192E-18
   36.21500       -9.9935875E-18
   36.37650       -9.9991354E-18
   36.53800       -1.0010252E-17
   36.69950       -1.0025424E-17
   36.86100       -1.0042294E-17
   37.02250       -1.0058166E-17
   37.18400       -1.0070574E-17
   37.34550       -1.0077768E-17
   37.50700       -1.0079018E-17
   37.66850       -1.0074717E-17
   37.83000       -1.0066258E-17
   37.99150       -1.0055722E-17
   38.15300       -1.0045469E-17
   38.31450       -1.0037682E-17
   38.47600       -1.0033970E-17
   38.63750       -1.0035080E-17
   38.79900       -1.0040801E-17
   38.96050       -1.0050053E-17
   39.12200       -1.0061154E-17
   39.28350       -1.0072211E-17
   39.44500       -1.0081528E-17
   39.60650       -1.0087951E-17
   39.76800       -1.0091064E-17
   39.92950       -1.0091203E-17
   40.09100       -1.0089303E-17
   40.25250       -1.0086628E-17
   40.41400       -1.0084459E-17
   40.57550       -1.0083825E-17
   40.73700       -1.0085304E-17
   40.89850       -1.0088963E-17
   41.06000       -1.0094380E-17
   41.22150       -1.0100777E-17
   41.38300       -1.0107205E-17
   41.54450       -1.0112750E-17
   41.70600       -1.0116721E-17
   41.86750       -1.0118785E-17
   42.02900       -1.0119024E-17
   42.19050       -1.0117887E-17
   42.35200       -1.0116078E-17
   42.51350       -1.0114378E-17
   42.67500       -1.0113466E-17
   42.83650       -1.0113780E-17
   42.99800       -1.0115451E-17
   43.15950       -1.0118323E-17
   43.32100       -1.0122036E-17
   43.48250       -1.0126153E-17
   43.64400       -1.0130274E-17
   43.80550       -1.0134124E-17
   43.96700       -1.0137586E-17
   44.12850       -1.0140685E-17
   44.29000       -1.0143540E-17
   44.45150       -1.0146303E-17
   44.61300       -1.0149102E-17
   44.77450       -1.0152012E-17
   44.93600       -1.0155051E-17
   45.09750       -1.0158201E-17
   45.25900       -1.0161438E-17
   45.42050       -1.0164766E-17
   45.58200       -1.0168243E-17
   45.74350       -1.0171986E-17
   45.90500       -1.0176158E-17
   46.06650       -1.0180923E-17
   46.22800       -1.0186398E-17
   46.38950       -1.0192589E-17
   46.55100       -1.0199345E-17
   46.71250       -1.0206338E-17
   46.87400       -1.0213094E-17
   47.03550       -1.0219071E-17
   47.19700       -1.0223773E-17
   47.35850       -1.0226879E-17
   47.52000       -1.0228344E-17
   47.68150       -1.0228445E-17
   47.84300       -1.0227738E-17
   48.00450       -1.0226952E-17
   48.16600       -1.0226819E-17
   48.32750       -1.0227912E-17
   48.48900       -1.0230501E-17
   48.65050       -1.0234498E-17
   48.81200       -1.0239469E-17
   48.97350       -1.0244727E-17
   49.13500       -1.0249480E-17
   49.29650       -1.0252998E-17
   49.45800       -1.0254770E-17
   49.61950       -1.0254628E-17
   49.78100       -1.0252804E-17
   49.94250       -1.0249912E-17
   50.10400       -1.0246848E-17
   50.26550       -1.0244620E-17
   50.42700       -1.0244136E-17
   50.58850       -1.0245997E-17
   50.75000       -1.0250345E-17
   50.91150       -1.0256812E-17
   51.07300       -1.0264575E-17
   51.23450       -1.0272525E-17
   51.39600       -1.0279494E-17
   51.55750       -1.0284506E-17
   51.71900       -1.0286973E-17
   51.88050       -1.0286811E-17
   52.04200       -1.0284461E-17
   52.20350       -1.0280788E-17
   52.36500       -1.0276914E-17
   52.52650       -1.0273999E-17
   52.68800       -1.0273017E-17
   52.84950       -1.0274567E-17
   53.01100       -1.0278752E-17
   53.17250       -1.0285161E-17
   53.33400       -1.0292943E-17
   53.49550       -1.0300986E-17
   53.65700       -1.0308144E-17
   53.81850       -1.0313488E-17
   53.98000       -1.0316506E-17
   54.14150       -1.0317216E-17
   54.30300       -1.0316163E-17
   54.46450       -1.0314309E-17
   54.62600       -1.0312821E-17
   54.78750       -1.0312821E-17
   54.94900       -1.0315156E-17
   55.11050       -1.0320218E-17
   55.27200       -1.0327868E-17
   55.43350       -1.0337456E-17
   55.59500       -1.0347954E-17
   55.75650       -1.0358152E-17
   55.91800       -1.0366887E-17
   56.07950       -1.0373259E-17
   56.24100       -1.0376808E-17
   56.40250       -1.0377588E-17
   56.56400       -1.0376159E-17
   56.72550       -1.0373465E-17
   56.88700       -1.0370638E-17
   57.04850       -1.0368766E-17
   57.21000       -1.0368662E-17
   57.37150       -1.0370702E-17
   57.53300       -1.0374752E-17
   57.69450       -1.0380216E-17
   57.85600       -1.0386172E-17
   58.01750       -1.0391590E-17
   58.17900       -1.0395548E-17
   58.34050       -1.0397437E-17
   58.50200       -1.0397092E-17
   58.66350       -1.0394823E-17
   58.82500       -1.0391354E-17
   58.98650       -1.0387682E-17
   59.14800       -1.0384875E-17
   59.30950       -1.0383854E-17
   59.47100       -1.0385210E-17
   59.63250       -1.0389075E-17
   59.79400       -1.0395101E-17
   59.95550       -1.0402524E-17
   60.11700       -1.0410338E-17
   60.27850       -1.0417506E-17
   60.44000       -1.0423187E-17
   60.60150       -1.0426909E-17
   60.76300       -1.0428662E-17
   60.92450       -1.0428881E-17
   61.08600       -1.0428340E-17
   61.24750       -1.0427961E-17
   61.40900       -1.0428617E-17
   61.57050       -1.0430937E-17
   61.73200       -1.0435178E-17
   61.89350       -1.0441172E-17
   62.05500       -1.0448370E-17
   62.21650       -1.0455952E-17
   62.37800       -1.0463003E-17
   62.53950       -1.0468696E-17
   62.70100       -1.0472461E-17
   62.86250       -1.0474103E-17
   63.02400       -1.0473831E-17
   63.18550       -1.0472218E-17
   63.34700       -1.0470060E-17
   63.50850       -1.0468202E-17
   63.67000       -1.0467354E-17
   63.83150       -1.0467938E-17
   63.99300       -1.0470008E-17
   64.15450       -1.0473268E-17
   64.31600       -1.0477159E-17
   64.47750       -1.0481019E-17
   64.63900       -1.0484252E-17
   64.80050       -1.0486471E-17
   64.96200       -1.0487585E-17
   65.12350       -1.0487811E-17
   65.28500       -1.0487610E-17
   65.44650       -1.0487578E-17
   65.60800       -1.0488298E-17
   65.76950       -1.0490199E-17
   65.93100       -1.0493455E-17
   66.09250       -1.0497927E-17
   66.25400       -1.0503188E-17
   66.41550       -1.0508613E-17
   66.57700       -1.0513528E-17
   66.73850       -1.0517386E-17
   66.90000       -1.0519915E-17
   67.06150       -1.0521202E-17
   67.22300       -1.0521679E-17
   67.38450       -1.0522010E-17
   67.54600       -1.0522897E-17
   67.70750       -1.0524894E-17
   67.86900       -1.0528240E-17
   68.03050       -1.0532794E-17
   68.19200       -1.0538068E-17
   68.35350       -1.0543354E-17
   68.51500       -1.0547897E-17
   68.67650       -1.0551081E-17
   68.83800       -1.0552580E-17
   68.99950       -1.0552443E-17
   69.16100       -1.0551111E-17
   69.32250       -1.0549350E-17
   69.48400       -1.0548116E-17
   69.64550       -1.0548361E-17
   69.80700       -1.0550817E-17
   69.96850       -1.0555802E-17
   70.13000       -1.0563101E-17
   70.29150       -1.0571964E-17
   70.45300       -1.0581232E-17
   70.61450       -1.0589581E-17
   70.77600       -1.0595812E-17
   70.93750       -1.0599129E-17
   71.09900       -1.0599323E-17
   71.26050       -1.0596821E-17
   71.42200       -1.0592598E-17
   71.58350       -1.0587968E-17
   71.74500       -1.0584322E-17
   71.90650       -1.0582849E-17
   72.06800       -1.0584298E-17
   72.22950       -1.0588834E-17
   72.39100       -1.0595988E-17
   72.55250       -1.0604734E-17
   72.71400       -1.0613683E-17
   72.87550       -1.0621365E-17
   73.03700       -1.0626552E-17
   73.19850       -1.0628544E-17
   73.36000       -1.0627344E-17
   73.52150       -1.0623682E-17
   73.68300       -1.0618847E-17
   73.84450       -1.0614405E-17
   74.00600       -1.0611824E-17
   74.16750       -1.0612151E-17
   74.32900       -1.0615775E-17
   74.49050       -1.0622371E-17
   74.65200       -1.0630988E-17
   74.81350       -1.0640281E-17
   74.97500       -1.0648806E-17
   75.13650       -1.0655321E-17
   75.29800       -1.0659034E-17
   75.45950       -1.0659748E-17
   75.62100       -1.0657892E-17
   75.78250       -1.0654416E-17
   75.94400       -1.0650584E-17
   76.10550       -1.0647691E-17
   76.26700       -1.0646777E-17
   76.42850       -1.0648379E-17
   76.59000       -1.0652407E-17
   76.75150       -1.0658163E-17
   76.91300       -1.0664503E-17
   77.07450       -1.0670120E-17
   77.23600       -1.0673859E-17
   77.39750       -1.0674995E-17
   77.55900       -1.0673403E-17
   77.72050       -1.0669583E-17
   77.88200       -1.0664530E-17
   78.04350       -1.0659511E-17
   78.20500       -1.0655767E-17
   78.36650       -1.0654252E-17
   78.52800       -1.0655422E-17
   78.68950       -1.0659155E-17
   78.85100       -1.0664777E-17
   79.01250       -1.0671213E-17
   79.17400       -1.0677233E-17
   79.33550       -1.0681724E-17
   79.49700       -1.0683961E-17
   79.65850       -1.0683785E-17
   79.82000       -1.0681674E-17
   79.98150       -1.0678649E-17
   80.14300       -1.0676053E-17
   80.30450       -1.0675232E-17
   80.46600       -1.0677218E-17
   80.62750       -1.0682467E-17
   80.78900       -1.0690739E-17
   80.95050       -1.0701146E-17
   81.11200       -1.0712352E-17
   81.27350       -1.0722872E-17
   81.43500       -1.0731402E-17
   81.59650       -1.0737093E-17
   81.75800       -1.0739721E-17
   81.91950       -1.0739721E-17
   82.08100       -1.0738074E-17
   82.24250       -1.0736099E-17
   82.40400       -1.0735171E-17
   82.56550       -1.0736432E-17
   82.72700       -1.0740542E-17
   82.88850       -1.0747520E-17
   83.05000       -1.0756715E-17
   83.21150       -1.0766919E-17
   83.37300       -1.0776604E-17
   83.53450       -1.0784253E-17
   83.69600       -1.0788694E-17
   83.85750       -1.0789375E-17
   84.01900       -1.0786492E-17
   84.18050       -1.0780958E-17
   84.34200       -1.0774196E-17
   84.50350       -1.0767837E-17
   84.66500       -1.0763359E-17
   84.82650       -1.0761797E-17
   84.98800       -1.0763538E-17
   85.14950       -1.0768279E-17
   85.31100       -1.0775115E-17
   85.47250       -1.0782739E-17
   85.63400       -1.0789728E-17
   85.79550       -1.0794829E-17
   85.95700       -1.0797229E-17
   86.11850       -1.0796724E-17
   86.28000       -1.0793778E-17
   86.44150       -1.0789436E-17
   86.60300       -1.0785099E-17
   86.76450       -1.0782204E-17
   86.92600       -1.0781887E-17
   87.08750       -1.0784700E-17
   87.24900       -1.0790461E-17
   87.41050       -1.0798290E-17
   87.57200       -1.0806790E-17
   87.73350       -1.0814369E-17
   87.89500       -1.0819584E-17
   88.05650       -1.0821440E-17
   88.21800       -1.0819597E-17
   88.37950       -1.0814415E-17
   88.54100       -1.0806886E-17
   88.70250       -1.0798433E-17
   88.86400       -1.0790649E-17
   89.02550       -1.0785006E-17
   89.18700       -1.0782581E-17
   89.34850       -1.0783843E-17
   89.51000       -1.0788555E-17
   89.67150       -1.0795809E-17
   89.83300       -1.0804200E-17
   89.99450       -1.0812125E-17
   90.15600       -1.0818127E-17
   90.31750       -1.0821218E-17
   90.47900       -1.0821087E-17
   90.64050       -1.0818159E-17
   90.80200       -1.0813473E-17
   90.96350       -1.0808440E-17
   91.12500       -1.0804523E-17
   91.28650       -1.0802937E-17
   91.44800       -1.0804416E-17
   91.60950       -1.0809112E-17
   91.77100       -1.0816592E-17
   91.93250       -1.0825955E-17
   92.09400       -1.0836025E-17
   92.25550       -1.0845577E-17
   92.41700       -1.0853576E-17
   92.57850       -1.0859359E-17
   92.74000       -1.0862768E-17
   92.90150       -1.0864165E-17
   93.06300       -1.0864330E-17
   93.22450       -1.0864284E-17
   93.38600       -1.0865038E-17
   93.54750       -1.0867357E-17
   93.70900       -1.0871591E-17
   93.87050       -1.0877613E-17
   94.03200       -1.0884873E-17
   94.19350       -1.0892543E-17
   94.35500       -1.0899708E-17
   94.51650       -1.0905547E-17
   94.67800       -1.0909473E-17
   94.83950       -1.0911210E-17
   95.00100       -1.0910808E-17
   95.16250       -1.0908606E-17
   95.32400       -1.0905184E-17
   95.48550       -1.0901262E-17
   95.64700       -1.0897600E-17
   95.80850       -1.0894876E-17
   95.97000       -1.0893577E-17
   96.13150       -1.0893913E-17
   96.29300       -1.0895798E-17
   96.45450       -1.0898878E-17
   96.61600       -1.0902633E-17
   96.77750       -1.0906500E-17
   96.93900       -1.0909994E-17
   97.10050       -1.0912789E-17
   97.26200       -1.0914744E-17
   97.42350       -1.0915890E-17
   97.58500       -1.0916374E-17
   97.74650       -1.0916413E-17
   97.90800       -1.0916248E-17
   98.06950       -1.0916117E-17
   98.23100       -1.0916240E-17
   98.39250       -1.0916793E-17
   98.55400       -1.0917892E-17
   98.71550       -1.0919566E-17
   98.87700       -1.0921751E-17
   99.03850       -1.0924300E-17
   99.20000       -1.0927015E-17
   99.36150       -1.0929695E-17
   99.52300       -1.0932165E-17
   99.68450       -1.0934311E-17
   99.84600       -1.0936086E-17
   100.0075       -1.0937506E-17
   100.1690       -1.0938651E-17
   100.3305       -1.0939664E-17
   100.4920       -1.0940754E-17
   100.6535       -1.0942184E-17
   100.8150       -1.0944231E-17
   100.9765       -1.0947120E-17
   101.1380       -1.0950937E-17
   101.2995       -1.0955563E-17
   101.4610       -1.0960640E-17
   101.6225       -1.0965611E-17
   101.7840       -1.0969813E-17
   101.9455       -1.0972630E-17
   102.1070       -1.0973643E-17
   102.2685       -1.0972748E-17
   102.4300       -1.0970210E-17
   102.5915       -1.0966632E-17
   102.7530       -1.0962848E-17
   102.9145       -1.0959777E-17
   103.0760       -1.0958233E-17
   103.2375       -1.0958771E-17
   103.3990       -1.0961553E-17
   103.5605       -1.0966297E-17
   103.7220       -1.0972305E-17
   103.8835       -1.0978562E-17
   104.0450       -1.0983931E-17
   104.2065       -1.0987377E-17
   104.3680       -1.0988188E-17
   104.5295       -1.0986146E-17
   104.6910       -1.0981594E-17
   104.8525       -1.0975385E-17
   105.0140       -1.0968717E-17
   105.1755       -1.0962893E-17
   105.3370       -1.0959069E-17
   105.4985       -1.0958016E-17
   105.6600       -1.0959995E-17
   105.8215       -1.0964707E-17
   105.9830       -1.0971374E-17
   106.1445       -1.0978892E-17
   106.3060       -1.0986045E-17
   106.4675       -1.0991739E-17
   106.6290       -1.0995212E-17
   106.7905       -1.0996185E-17
   106.9520       -1.0994929E-17
   107.1135       -1.0992224E-17
   107.2750       -1.0989208E-17
   107.4365       -1.0987161E-17
   107.5980       -1.0987240E-17
   107.7595       -1.0990234E-17
   107.9210       -1.0996400E-17
   108.0825       -1.1005393E-17
   108.2440       -1.1016326E-17
   108.4055       -1.1027932E-17
   108.5670       -1.1038799E-17
   108.7285       -1.1047628E-17
   108.8900       -1.1053469E-17
   109.0515       -1.1055884E-17
   109.2130       -1.1055032E-17
   109.3745       -1.1051631E-17
   109.5360       -1.1046835E-17
   109.6975       -1.1042025E-17
   109.8590       -1.1038558E-17
   110.0205       -1.1037523E-17
   110.1820       -1.1039538E-17
   110.3435       -1.1044646E-17
   110.5050       -1.1052313E-17
   110.6665       -1.1061532E-17
   110.8280       -1.1071018E-17
   110.9895       -1.1079436E-17
   111.1510       -1.1085633E-17
   111.3125       -1.1088833E-17
   111.4740       -1.1088752E-17
   111.6355       -1.1085636E-17
   111.7970       -1.1080216E-17
   111.9585       -1.1073583E-17
   112.1200       -1.1067011E-17
   112.2815       -1.1061756E-17
   112.4430       -1.1058845E-17
   112.6045       -1.1058904E-17
   112.7660       -1.1062045E-17
   112.9275       -1.1067840E-17
   113.0890       -1.1075393E-17
   113.2505       -1.1083496E-17
   113.4120       -1.1090840E-17
   113.5735       -1.1096259E-17
   113.7350       -1.1098938E-17
   113.8965       -1.1098565E-17
   114.0580       -1.1095390E-17
   114.2195       -1.1090190E-17
   114.3810       -1.1084134E-17
   114.5425       -1.1078581E-17
   114.7040       -1.1074834E-17
   114.8655       -1.1073884E-17
   115.0270       -1.1076204E-17
   115.1885       -1.1081634E-17
   115.3500       -1.1089369E-17
   115.5115       -1.1098096E-17
   115.6730       -1.1106236E-17
   115.8345       -1.1112256E-17
   115.9960       -1.1114984E-17
   116.1575       -1.1113866E-17
   116.3190       -1.1109086E-17
   116.4805       -1.1101544E-17
   116.6420       -1.1092681E-17