  -30.00000        2.9782504E-19
  -29.83850        2.8486319E-19
  -29.67700        2.6115560E-19
  -29.51550        2.3044944E-19
  -29.35400        1.9734632E-19
  -29.19250        1.6647860E-19
  -29.03100        1.4169666E-19
  -28.86950        1.2541070E-19
  -28.70800        1.1821029E-19
  -28.54650        1.1881058E-19
  -28.38500        1.2433884E-19
  -28.22350        1.3090215E-19
  -28.06200        1.3433612E-19
  -27.90050        1.3100093E-19
  -27.73900        1.1849013E-19
  -27.57750        9.6113450E-20
  -27.41600        6.5063119E-20
  -27.25450        2.8224592E-20
  -27.09300       -1.0344002E-20
  -26.93150       -4.6162863E-20
  -26.77000       -7.5176203E-20
  -26.60850       -9.4510794E-20
  -26.44700       -1.0301607E-19
  -26.28550       -1.0147009E-19
  -26.12400       -9.2426764E-20
  -25.96250       -7.9739326E-20
  -25.80100       -6.7859338E-20
  -25.63950       -6.1037082E-20
  -25.47800       -6.2569751E-20
  -25.31650       -7.4219065E-20
  -25.15500       -9.5898926E-20
  -24.99350       -1.2568667E-19
  -24.83200       -1.6016363E-19
  -24.67050       -1.9503387E-19
  -24.50900       -2.2591885E-19
  -24.34750       -2.4917699E-19
  -24.18600       -2.6259363E-19
  -24.02450       -2.6579978E-19
  -23.86300       -2.6033010E-19
  -23.70150       -2.4931459E-19
  -23.54000       -2.3686583E-19
  -23.37850       -2.2729742E-19
  -23.21700       -2.2432311E-19
  -23.05550       -2.3038989E-19
  -22.89400       -2.4625831E-19
  -22.73250       -2.7088630E-19
  -22.57100       -3.0162766E-19
  -22.40950       -3.3470920E-19
  -22.24800       -3.6590479E-19
  -22.08650       -3.9130161E-19
  -21.92500       -4.0802754E-19
  -21.76350       -4.1480427E-19
  -21.60200       -4.1221452E-19
  -21.44050       -4.0260731E-19
  -21.27900       -3.8965850E-19
  -21.11750       -3.7765722E-19
  -20.95600       -3.7066814E-19
  -20.79450       -3.7174557E-19
  -20.63300       -3.8235824E-19
  -20.47150       -4.0213424E-19
  -20.31000       -4.2896338E-19
  -20.14850       -4.5941746E-19
  -19.98700       -4.8940032E-19
  -19.82550       -5.1490256E-19
  -19.66400       -5.3273647E-19
  -19.50250       -5.4112403E-19
  -19.34100       -5.4004316E-19
  -19.17950       -5.3126068E-19
  -19.01800       -5.1803018E-19
  -18.85650       -5.0449771E-19
  -18.69500       -4.9490816E-19
  -18.53350       -4.9277558E-19
  -18.37200       -5.0018169E-19
  -18.21050       -5.1736301E-19
  -18.04900       -5.4267060E-19
  -17.88750       -5.7291832E-19
  -17.72600       -6.0402734E-19
  -17.56450       -6.3183261E-19
  -17.40300       -6.5287298E-19
  -17.24150       -6.6502230E-19
  -17.08000       -6.6785265E-19
  -16.91850       -6.6267047E-19
  -16.75700       -6.5223951E-19
  -16.59550       -6.4024167E-19
  -16.43400       -6.3056583E-19
  -16.27250       -6.2655323E-19
  -16.11100       -6.3034352E-19
  -15.94950       -6.4244114E-19
  -15.78800       -6.6160894E-19
  -15.62650       -6.8512465E-19
  -15.46500       -7.0934677E-19
  -15.30350       -7.3047684E-19
  -15.14200       -7.4534691E-19
  -14.98050       -7.5206739E-19
  -14.81900       -7.5038920E-19
  -14.65750       -7.4172634E-19
  -14.49600       -7.2884517E-19
  -14.33450       -7.1530180E-19
  -14.17300       -7.0474920E-19
  -14.01150       -7.0024628E-19
  -13.85000       -7.0369149E-19
  -13.68850       -7.1548460E-19
  -13.52700       -7.3446488E-19
  -13.36550       -7.5815585E-19
  -13.20400       -7.8325593E-19
  -13.04250       -8.0630475E-19
  -12.88100       -8.2437750E-19
  -12.71950       -8.3566609E-19
  -12.55800       -8.3981678E-19
  -12.39650       -8.3795500E-19
  -12.23500       -8.3238942E-19
  -12.07350       -8.2607524E-19
  -11.91200       -8.2196157E-19
  -11.75050       -8.2236751E-19
  -11.58900       -8.2852271E-19
  -11.42750       -8.4034431E-19
  -11.26600       -8.5649155E-19
  -11.10450       -8.7467019E-19
  -10.94300       -8.9211894E-19
  -10.78150       -9.0618804E-19
  -10.62000       -9.1489288E-19
  -10.45850       -9.1733916E-19
  -10.29700       -9.1392425E-19
  -10.13550       -9.0626787E-19
  -9.974000       -8.9687730E-19
  -9.812500       -8.8861842E-19
  -9.651000       -8.8411008E-19
  -9.489500       -8.8517528E-19
  -9.328000       -8.9248021E-19
  -9.166500       -9.0543014E-19
  -9.005000       -9.2233492E-19
  -8.843500       -9.4079583E-19
  -8.682000       -9.5821398E-19
  -8.520500       -9.7231483E-19
  -8.359000       -9.8158618E-19
  -8.197500       -9.8554889E-19
  -8.036000       -9.8481756E-19
  -7.874500       -9.8094522E-19
  -7.713000       -9.7607798E-19
  -7.551500       -9.7248636E-19
  -7.390000       -9.7206595E-19
  -7.228500       -9.7591720E-19
  -7.067000       -9.8410050E-19
  -6.905500       -9.9562602E-19
  -6.744000       -1.0086856E-18
  -6.582500       -1.0210664E-18
  -6.421000       -1.0306474E-18
  -6.259500       -1.0358563E-18
  -6.098000       -1.0359931E-18
  -5.936500       -1.0313515E-18
  -5.775000       -1.0231378E-18
  -5.613500       -1.0132148E-18
  -5.452000       -1.0037328E-18
  -5.290500       -9.9671976E-19
  -5.129000       -9.9369683E-19
  -4.967500       -9.9539110E-19
  -4.806000       -1.0015880E-18
  -4.644500       -1.0111680E-18
  -4.483000       -1.0223274E-18
  -4.321500       -1.0329498E-18
  -4.160000       -1.0410520E-18
  -3.998500       -1.0452147E-18
  -3.837000       -1.0448861E-18
  -3.675500       -1.0404929E-18
  -3.514000       -1.0333393E-18
  -3.352500       -1.0253158E-18
  -3.191000       -1.0185083E-18
  -3.029500       -1.0147816E-18
  -2.868000       -1.0154370E-18
  -2.706500       -1.0209852E-18
  -2.545000       -1.0310771E-18
  -2.383500       -1.0445787E-18
  -2.222000       -1.0597821E-18
  -2.060500       -1.0747172E-18
  -1.899000       -1.0875169E-18
  -1.737500       -1.0967786E-18
  -1.576000       -1.1018511E-18
  -1.414500       -1.1029835E-18
  -1.253000       -1.1012894E-18
  -1.091500       -1.0985256E-18
 -0.9300000       -1.0967298E-18
 -0.7685000       -1.0977901E-18
 -0.6070000       -1.1030497E-18
 -0.4455000       -1.1130289E-18
 -0.2840000       -1.1273185E-18
 -0.1225000       -1.1446615E-18
  3.9000001E-02   -1.1631888E-18
  0.2005000       -1.1807611E-18
  0.3620000       -1.1953509E-18
  0.5235000       -1.2053952E-18
  0.6850000       -1.2100734E-18
  0.8465000       -1.2094554E-18
   1.008000       -1.2045015E-18
   1.169500       -1.1969030E-18
   1.331000       -1.1887887E-18
   1.492500       -1.1823350E-18
   1.654000       -1.1793604E-18
   1.815500       -1.1809762E-18
   1.977000       -1.1873712E-18
   2.138500       -1.1977750E-18
   2.300000       -1.2106148E-18
   2.461500       -1.2238274E-18
   2.623000       -1.2352737E-18
   2.784500       -1.2431574E-18
   2.946000       -1.2463773E-18
   3.107500       -1.2447363E-18
   3.269000       -1.2389759E-18
   3.430500       -1.2306323E-18
   3.592000       -1.2217422E-18
   3.753500       -1.2144586E-18
   3.915000       -1.2106463E-18
   4.076500       -1.2115281E-18
   4.238000       -1.2174399E-18
   4.399500       -1.2277460E-18
   4.561000       -1.2409322E-18
   4.722500       -1.2548670E-18
   4.884000       -1.2671979E-18
   5.045500       -1.2758095E-18
   5.207000       -1.2792568E-18
   5.368500       -1.2770809E-18
   5.530000       -1.2699297E-18
   5.691500       -1.2594523E-18
   5.853000       -1.2479775E-18
   6.014500       -1.2380554E-18
   6.176000       -1.2319511E-18
   6.337500       -1.2312134E-18
   6.499000       -1.2363917E-18
   6.660500       -1.2469596E-18
   6.822000       -1.2614434E-18
   6.983500       -1.2777132E-18
   7.145000       -1.2933904E-18
   7.306500       -1.3062896E-18
   7.468000       -1.3148302E-18
   7.629500       -1.3183432E-18
   7.791000       -1.3172163E-18
   7.952500       -1.3128280E-18
   8.114000       -1.3072738E-18
   8.275500       -1.3029249E-18
   8.437000       -1.3019089E-18
   8.598500       -1.3056358E-18
   8.760000       -1.3144791E-18
   8.921500       -1.3277024E-18
   9.083000       -1.3436282E-18
   9.244500       -1.3600119E-18
   9.406000       -1.3745169E-18
   9.567500       -1.3851839E-18
   9.729000       -1.3907983E-18
   9.890500       -1.3910990E-18
   10.05200       -1.3868085E-18
   10.21350       -1.3794914E-18
   10.37500       -1.3712668E-18
   10.53650       -1.3644212E-18
   10.69800       -1.3609785E-18
   10.85950       -1.3623034E-18
   11.02100       -1.3688213E-18
   11.18250       -1.3799263E-18
   11.34400       -1.3941088E-18
   11.50550       -1.4092818E-18
   11.66700       -1.4232330E-18
   11.82850       -1.4340910E-18
   11.99000       -1.4406934E-18
   12.15150       -1.4427816E-18
   12.31300       -1.4409910E-18
   12.47450       -1.4366677E-18
   12.63600       -1.4315626E-18
   12.79750       -1.4274836E-18
   12.95900       -1.4259626E-18
   13.12050       -1.4279867E-18
   13.28200       -1.4338349E-18
   13.44350       -1.4430343E-18
   13.60500       -1.4544511E-18
   13.76650       -1.4665078E-18
   13.92800       -1.4774912E-18
   14.08950       -1.4858946E-18
   14.25100       -1.4907252E-18
   14.41250       -1.4917012E-18
   14.57400       -1.4893022E-18
   14.73550       -1.4846604E-18
   14.89700       -1.4793257E-18
   15.05850       -1.4749597E-18
   15.22000       -1.4730272E-18
   15.38150       -1.4745376E-18
   15.54300       -1.4798811E-18
   15.70450       -1.4887738E-18
   15.86600       -1.5003167E-18
   16.02750       -1.5131484E-18
   16.18900       -1.5256735E-18
   16.35050       -1.5363281E-18
   16.51200       -1.5438434E-18
   16.67350       -1.5474623E-18
   16.83500       -1.5470773E-18
   16.99650       -1.5432616E-18
   17.15800       -1.5371799E-18
   17.31950       -1.5303994E-18
   17.48100       -1.5246259E-18
   17.64250       -1.5214069E-18
   17.80400       -1.5218564E-18
   17.96550       -1.5264538E-18
   18.12700       -1.5349467E-18
   18.28850       -1.5463937E-18
   18.45000       -1.5593259E-18
   18.61150       -1.5720158E-18
   18.77300       -1.5827879E-18
   18.93450       -1.5903269E-18
   19.09600       -1.5939178E-18
   19.25750       -1.5935860E-18
   19.41900       -1.5901064E-18
   19.58050       -1.5848808E-18
   19.74200       -1.5796999E-18
   19.90350       -1.5764236E-18
   20.06500       -1.5766226E-18
   20.22650       -1.5812571E-18
   20.38800       -1.5904404E-18
   20.54950       -1.6033640E-18
   20.71100       -1.6184022E-18
   20.87250       -1.6333930E-18
   21.03400       -1.6460490E-18
   21.19550       -1.6544079E-18
   21.35700       -1.6572343E-18
   21.51850       -1.6542821E-18
   21.68000       -1.6463671E-18
   21.84150       -1.6352345E-18
   22.00300       -1.6232520E-18
   22.16450       -1.6129874E-18
   22.32600       -1.6067387E-18
   22.48750       -1.6061067E-18
   22.64900       -1.6116774E-18
   22.81050       -1.6228833E-18
   22.97200       -1.6380782E-18
   23.13350       -1.6548254E-18
   23.29500       -1.6703602E-18
   23.45650       -1.6821368E-18
   23.61800       -1.6883513E-18
   23.77950       -1.6883209E-18
   23.94100       -1.6826380E-18
   24.10250       -1.6730560E-18
   24.26400       -1.6621363E-18
   24.42550       -1.6527330E-18
   24.58700       -1.6474227E-18
   24.74850       -1.6479978E-18
   24.91000       -1.6551184E-18
   25.07150       -1.6681826E-18
   25.23300       -1.6854344E-18
   25.39450       -1.7042931E-18
   25.55600       -1.7218382E-18
   25.71750       -1.7353716E-18
   25.87900       -1.7429506E-18
   26.04050       -1.7437815E-18
   26.20200       -1.7383974E-18
   26.36350       -1.7285673E-18
   26.52500       -1.7169520E-18
   26.68650       -1.7065700E-18
   26.84800       -1.7001942E-18
   27.00950       -1.6998025E-18
   27.17100       -1.7062004E-18
   27.33250       -1.7188893E-18
   27.49400       -1.7361957E-18
   27.65550       -1.7556185E-18
   27.81700       -1.7743223E-18
   27.97850       -1.7896723E-18
   28.14000       -1.7997124E-18
   28.30150       -1.8035128E-18
   28.46300       -1.8013144E-18
   28.62450       -1.7944654E-18
   28.78600       -1.7851426E-18
   28.94750       -1.7759191E-18
   29.10900       -1.7692510E-18
   29.27050       -1.7669868E-18
   29.43200       -1.7700071E-18
   29.59350       -1.7780648E-18
   29.75500       -1.7898613E-18
   29.91650       -1.8033371E-18
   30.07800       -1.8161058E-18
   30.23950       -1.8259381E-18
   30.40100       -1.8311868E-18
   30.56250       -1.8310873E-18
   30.72400       -1.8258780E-18
   30.88550       -1.8167335E-18
   31.04700       -1.8055376E-18
   31.20850       -1.7945334E-18
   31.37000       -1.7859164E-18
   31.53150       -1.7814433E-18
   31.69300       -1.7821137E-18
   31.85450       -1.7879995E-18
   32.01600       -1.7982404E-18
   32.17750       -1.8112207E-18
   32.33900       -1.8248795E-18
   32.50050       -1.8371034E-18
   32.66200       -1.8461120E-18
   32.82350       -1.8507664E-18
   32.98500       -1.8507540E-18
   33.14650       -1.8466143E-18
   33.30800       -1.8396214E-18
   33.46950       -1.8315406E-18
   33.63100       -1.8243148E-18
   33.79250       -1.8197235E-18
   33.95400       -1.8190816E-18
   34.11550       -1.8230198E-18
   34.27700       -1.8313930E-18
   34.43850       -1.8433213E-18
   34.60000       -1.8573611E-18
   34.76150       -1.8717714E-18
   34.92300       -1.8848224E-18
   35.08450       -1.8950937E-18
   35.24600       -1.9017133E-18
   35.40750       -1.9044971E-18
   35.56900       -1.9039712E-18
   35.73050       -1.9012699E-18
   35.89200       -1.8979159E-18
   36.05350       -1.8955317E-18
   36.21500       -1.8955162E-18
   36.37650       -1.8987608E-18
   36.53800       -1.9054684E-18
   36.69950       -1.9151074E-18
   36.86100       -1.9265169E-18
   37.02250       -1.9381398E-18
   37.18400       -1.9483253E-18
   37.34550       -1.9556442E-18
   37.50700       -1.9591514E-18
   37.66850       -1.9585598E-18
   37.83000       -1.9543015E-18
   37.99150       -1.9474677E-18
   38.15300       -1.9396331E-18
   38.31450       -1.9325830E-18
   38.47600       -1.9279857E-18
   38.63750       -1.9270632E-18
   38.79900       -1.9303341E-18
   38.96050       -1.9374942E-18
   39.12200       -1.9474716E-18
   39.28350       -1.9586477E-18
   39.44500       -1.9691961E-18
   39.60650       -1.9774559E-18
   39.76800       -1.9822521E-18
   39.92950       -1.9831055E-18
   40.09100       -1.9802935E-18
   40.25250       -1.9747781E-18
   40.41400       -1.9680163E-18
   40.57550       -1.9616927E-18
   40.73700       -1.9574172E-18
   40.89850       -1.9564213E-18
   41.06000       -1.9593115E-18
   41.22150       -1.9659279E-18
   41.38300       -1.9753551E-18
   41.54450       -1.9860954E-18
   41.70600       -1.9963770E-18
   41.86750       -2.0045330E-18
   42.02900       -2.0093520E-18
   42.19050       -2.0103239E-18
   42.35200       -2.0077198E-18
   42.51350       -2.0025091E-18
   42.67500       -1.9961429E-18
   42.83650       -1.9902611E-18
   42.99800       -1.9863886E-18
   43.15950       -1.9856684E-18
   43.32100       -1.9886708E-18
   43.48250       -1.9953048E-18
   43.64400       -2.0048457E-18
   43.80550       -2.0160813E-18
   43.96700       -2.0275543E-18
   44.12850       -2.0378570E-18
   44.29000       -2.0459152E-18
   44.45150       -2.0511904E-18
   44.61300       -2.0537534E-18
   44.77450       -2.0542197E-18
   44.93600       -2.0535671E-18
   45.09750       -2.0528906E-18
   45.25900       -2.0531564E-18
   45.42050       -2.0550080E-18
   45.58200       -2.0586588E-18
   45.74350       -2.0638766E-18
   45.90500       -2.0700571E-18
   46.06650       -2.0763712E-18
   46.22800       -2.0819559E-18
   46.38950       -2.0861115E-18
   46.55100       -2.0884669E-18
   46.71250       -2.0890759E-18
   46.87400       -2.0884087E-18
   47.03550       -2.0872470E-18
   47.19700       -2.0864994E-18
   47.35850       -2.0869914E-18
   47.52000       -2.0892793E-18
   47.68150       -2.0935321E-18
   47.84300       -2.0995031E-18
   48.00450       -2.1065889E-18
   48.16600       -2.1139523E-18
   48.32750       -2.1206822E-18
   48.48900       -2.1259613E-18
   48.65050       -2.1292158E-18
   48.81200       -2.1302231E-18
   48.97350       -2.1291592E-18
   49.13500       -2.1265699E-18
   49.29650       -2.1232668E-18
   49.45800       -2.1201683E-18
   49.61950       -2.1181182E-18
   49.78100       -2.1177174E-18
   49.94250       -2.1192204E-18
   50.10400       -2.1225076E-18
   50.26550       -2.1271400E-18
   50.42700       -2.1324739E-18
   50.58850       -2.1378063E-18
   50.75000       -2.1425155E-18
   50.91150       -2.1461720E-18
   51.07300       -2.1486060E-18
   51.23450       -2.1499216E-18
   51.39600       -2.1504591E-18
   51.55750       -2.1507155E-18
   51.71900       -2.1512354E-18
   51.88050       -2.1524915E-18
   52.04200       -2.1547815E-18
   52.20350       -2.1581587E-18
   52.36500       -2.1624182E-18
   52.52650       -2.1671390E-18
   52.68800       -2.1717718E-18
   52.84950       -2.1757600E-18
   53.01100       -2.1786622E-18
   53.17250       -2.1802552E-18
   53.33400       -2.1805947E-18
   53.49550       -2.1800182E-18
   53.65700       -2.1790884E-18
   53.81850       -2.1784889E-18
   53.98000       -2.1788893E-18
   54.14150       -2.1808123E-18
   54.30300       -2.1845313E-18
   54.46450       -2.1900192E-18
   54.62600       -2.1969592E-18
   54.78750       -2.2048108E-18
   54.94900       -2.2129125E-18
   55.11050       -2.2205963E-18
   55.27200       -2.2272973E-18
   55.43350       -2.2326349E-18
   55.59500       -2.2364662E-18
   55.75650       -2.2388930E-18
   55.91800       -2.2402338E-18
   56.07950       -2.2409512E-18
   56.24100       -2.2415490E-18
   56.40250       -2.2424564E-18
   56.56400       -2.2439282E-18
   56.72550       -2.2459889E-18
   56.88700       -2.2484401E-18
   57.04850       -2.2509336E-18
   57.21000       -2.2530874E-18
   57.37150       -2.2546108E-18
   57.53300       -2.2553983E-18
   57.69450       -2.2555652E-18
   57.85600       -2.2554188E-18
   58.01750       -2.2553811E-18
   58.17900       -2.2558837E-18
   58.34050       -2.2572684E-18
   58.50200       -2.2597112E-18
   58.66350       -2.2631765E-18
   58.82500       -2.2674092E-18
   58.98650       -2.2719645E-18
   59.14800       -2.2762743E-18
   59.30950       -2.2797536E-18
   59.47100       -2.2819303E-18
   59.63250       -2.2825788E-18
   59.79400       -2.2818195E-18
   59.95550       -2.2801434E-18
   60.11700       -2.2783439E-18
   60.27850       -2.2773562E-18
   60.44000       -2.2780430E-18
   60.60150       -2.2809840E-18
   60.76300       -2.2863225E-18
   60.92450       -2.2937156E-18
   61.08600       -2.3024008E-18
   61.24750       -2.3113519E-18
   61.40900       -2.3194854E-18
   61.57050       -2.3258737E-18
   61.73200       -2.3299203E-18
   61.89350       -2.3314739E-18
   62.05500       -2.3308647E-18
   62.21650       -2.3288582E-18
   62.37800       -2.3265199E-18
   62.53950       -2.3250116E-18
   62.70100       -2.3253443E-18
   62.86250       -2.3281360E-18
   63.02400       -2.3334411E-18
   63.18550       -2.3406972E-18
   63.34700       -2.3488263E-18
   63.50850       -2.3564665E-18
   63.67000       -2.3622887E-18
   63.83150       -2.3653114E-18
   63.99300       -2.3651379E-18
   64.15450       -2.3620568E-18
   64.31600       -2.3569920E-18
   64.47750       -2.3513109E-18
   64.63900       -2.3465522E-18
   64.80050       -2.3441147E-18
   64.96200       -2.3449712E-18
   65.12350       -2.3494574E-18
   65.28500       -2.3571779E-18
   65.44650       -2.3670532E-18
   65.60800       -2.3775129E-18
   65.76950       -2.3868137E-18
   65.93100       -2.3934157E-18
   66.09250       -2.3963364E-18
   66.25400       -2.3953920E-18
   66.41550       -2.3912576E-18
   66.57700       -2.3853275E-18
   66.73850       -2.3794049E-18
   66.90000       -2.3752963E-18
   67.06150       -2.3744151E-18
   67.22300       -2.3774765E-18
   67.38450       -2.3843510E-18
   67.54600       -2.3940973E-18
   67.70750       -2.4051596E-18
   67.86900       -2.4156887E-18
   68.03050       -2.4239268E-18
   68.19200       -2.4285783E-18
   68.35350       -2.4291013E-18
   68.51500       -2.4258500E-18
   68.67650       -2.4200288E-18
   68.83800       -2.4134568E-18
   68.99950       -2.4081782E-18
   69.16100       -2.4060089E-18
   69.32250       -2.4081223E-18
   69.48400       -2.4147733E-18
   69.64550       -2.4252294E-18
   69.80700       -2.4379223E-18
   69.96850       -2.4507871E-18
   70.13000       -2.4616984E-18
   70.29150       -2.4689170E-18
   70.45300       -2.4714473E-18
   70.61450       -2.4692421E-18
   70.77600       -2.4632136E-18
   70.93750       -2.4550572E-18
   71.09900       -2.4469171E-18
   71.26050       -2.4409523E-18
   71.42200       -2.4388951E-18
   71.58350       -2.4416796E-18
   71.74500       -2.4492322E-18
   71.90650       -2.4604731E-18
   72.06800       -2.4735374E-18
   72.22950       -2.4861757E-18
   72.39100       -2.4962400E-18
   72.55250       -2.5021515E-18
   72.71400       -2.5032332E-18
   72.87550       -2.4998399E-18
   73.03700       -2.4932582E-18
   73.19850       -2.4854122E-18
   73.36000       -2.4784469E-18
   73.52150       -2.4742829E-18
   73.68300       -2.4742416E-18
   73.84450       -2.4788018E-18
   74.00600       -2.4875348E-18
   74.16750       -2.4992114E-18
   74.32900       -2.5120590E-18
   74.49050       -2.5241106E-18
   74.65200       -2.5335874E-18
   74.81350       -2.5392381E-18
   74.97500       -2.5405715E-18
   75.13650       -2.5379357E-18
   75.29800       -2.5324259E-18
   75.45950       -2.5256409E-18
   75.62100       -2.5193388E-18
   75.78250       -2.5150724E-18
   75.94400       -2.5138844E-18
   76.10550       -2.5161275E-18
   76.26700       -2.5214417E-18
   76.42850       -2.5288804E-18
   76.59000       -2.5371426E-18
   76.75150       -2.5448511E-18
   76.91300       -2.5508089E-18
   77.07450       -2.5541944E-18
   77.23600       -2.5546692E-18
   77.39750       -2.5523917E-18
   77.55900       -2.5479500E-18
   77.72050       -2.5422327E-18
   77.88200       -2.5362627E-18
   78.04350       -2.5310149E-18
   78.20500       -2.5272498E-18
   78.36650       -2.5253965E-18
   78.52800       -2.5255046E-18
   78.68950       -2.5272845E-18
   78.85100       -2.5302165E-18
   79.01250       -2.5337018E-18
   79.17400       -2.5372173E-18
   79.33550       -2.5404206E-18
   79.49700       -2.5431928E-18
   79.65850       -2.5456124E-18
   79.82000       -2.5478873E-18
   79.98150       -2.5502783E-18
   80.14300       -2.5530413E-18
   80.30450       -2.5563978E-18
   80.46600       -2.5605262E-18
   80.62750       -2.5655565E-18
   80.78900       -2.5715527E-18
   80.95050       -2.5784824E-18
   81.11200       -2.5861874E-18
   81.27350       -2.5943740E-18
   81.43500       -2.6026429E-18
   81.59650       -2.6105504E-18
   81.75800       -2.6176871E-18
   81.91950       -2.6237513E-18
   82.08100       -2.6285885E-18
   82.24250       -2.6321975E-18
   82.40400       -2.6347113E-18
   82.56550       -2.6363623E-18
   82.72700       -2.6374610E-18
   82.88850       -2.6383724E-18
   83.05000       -2.6394880E-18
   83.21150       -2.6411827E-18
   83.37300       -2.6437395E-18
   83.53450       -2.6472708E-18
   83.69600       -2.6516534E-18
   83.85750       -2.6565145E-18
   84.01900       -2.6612826E-18
   84.18050       -2.6652967E-18
   84.34200       -2.6679474E-18
   84.50350       -2.6688066E-18
   84.66500       -2.6677139E-18
   84.82650       -2.6648023E-18
   84.98800       -2.6604647E-18
   85.14950       -2.6552891E-18
   85.31100       -2.6499697E-18
   85.47250       -2.6452206E-18
   85.63400       -2.6416877E-18
   85.79550       -2.6398605E-18
   85.95700       -2.6399949E-18
   86.11850       -2.6420591E-18
   86.28000       -2.6457279E-18
   86.44150       -2.6504327E-18
   86.60300       -2.6554752E-18
   86.76450       -2.6601717E-18
   86.92600       -2.6639931E-18
   87.08750       -2.6666605E-18
   87.24900       -2.6681763E-18
   87.41050       -2.6687824E-18
   87.57200       -2.6688738E-18
   87.73350       -2.6688941E-18
   87.89500       -2.6692417E-18
   88.05650       -2.6702046E-18
   88.21800       -2.6719224E-18
   88.37950       -2.6743756E-18
   88.54100       -2.6774006E-18
   88.70250       -2.6807160E-18
   88.86400       -2.6839765E-18
   89.02550       -2.6868474E-18
   89.18700       -2.6890757E-18
   89.34850       -2.6905578E-18
   89.51000       -2.6913684E-18
   89.67150       -2.6917460E-18
   89.83300       -2.6920332E-18
   89.99450       -2.6925893E-18
   90.15600       -2.6936996E-18
   90.31750       -2.6955105E-18
   90.47900       -2.6979937E-18
   90.64050       -2.7009610E-18
   90.80200       -2.7041072E-18
   90.96350       -2.7070786E-18
   91.12500       -2.7095525E-18
   91.28650       -2.7113097E-18
   91.44800       -2.7122952E-18
   91.60950       -2.7126447E-18
   91.77100       -2.7126764E-18
   91.93250       -2.7128344E-18
   92.09400       -2.7135958E-18
   92.25550       -2.7153597E-18
   92.41700       -2.7183446E-18
   92.57850       -2.7225235E-18
   92.74000       -2.7276157E-18
   92.90150       -2.7331421E-18
   93.06300       -2.7385229E-18
   93.22450       -2.7432051E-18
   93.38600       -2.7467750E-18
   93.54750       -2.7490463E-18
   93.70900       -2.7500982E-18
   93.87050       -2.7502618E-18
   94.03200       -2.7500600E-18
   94.19350       -2.7501088E-18
   94.35500       -2.7509955E-18
   94.51650       -2.7531567E-18
   94.67800       -2.7567787E-18
   94.83950       -2.7617439E-18
   95.00100       -2.7676423E-18
   95.16250       -2.7738486E-18
   95.32400       -2.7796577E-18
   95.48550       -2.7844376E-18
   95.64700       -2.7877763E-18
   95.80850       -2.7895729E-18
   95.97000       -2.7900595E-18
   96.13150       -2.7897440E-18
   96.29300       -2.7892942E-18
   96.45450       -2.7893881E-18
   96.61600       -2.7905649E-18
   96.77750       -2.7931077E-18
   96.93900       -2.7969770E-18
   97.10050       -2.8018057E-18
   97.26200       -2.8069586E-18
   97.42350       -2.8116527E-18
   97.58500       -2.8151146E-18
   97.74650       -2.8167555E-18
   97.90800       -2.8163233E-18
   98.06950       -2.8139981E-18
   98.23100       -2.8103896E-18
   98.39250       -2.8064385E-18
   98.55400       -2.8032229E-18
   98.71550       -2.8017205E-18
   98.87700       -2.8025814E-18
   99.03850       -2.8059712E-18
   99.20000       -2.8115197E-18
   99.36150       -2.8183950E-18
   99.52300       -2.8254670E-18
   99.68450       -2.8315348E-18
   99.84600       -2.8355571E-18
   100.0075       -2.8368498E-18
   100.1690       -2.8352178E-18
   100.3305       -2.8310031E-18
   100.4920       -2.8250418E-18
   100.6535       -2.8185377E-18
   100.8150       -2.8128562E-18
   100.9765       -2.8092749E-18
   101.1380       -2.8087369E-18
   101.2995       -2.8116520E-18
   101.4610       -2.8178090E-18
   101.6225       -2.8264145E-18
   101.7840       -2.8362642E-18
   101.9455       -2.8459920E-18
   102.1070       -2.8543451E-18
   102.2685       -2.8604139E-18
   102.4300       -2.8637708E-18
   102.5915       -2.8645056E-18
   102.7530       -2.8631614E-18
   102.9145       -2.8606048E-18
   103.0760       -2.8578536E-18
   103.2375       -2.8558907E-18
   103.3990       -2.8554841E-18
   103.5605       -2.8570432E-18
   103.7220       -2.8605287E-18
   103.8835       -2.8654475E-18
   104.0450       -2.8709520E-18
   104.2065       -2.8760220E-18
   104.3680       -2.8797005E-18
   104.5295       -2.8813166E-18
   104.6910       -2.8806420E-18
   104.8525       -2.8779340E-18
   105.0140       -2.8738626E-18
   105.1755       -2.8693518E-18
   105.3370       -2.8653766E-18
   105.4985       -2.8627743E-18
   105.6600       -2.8620948E-18
   105.8215       -2.8635212E-18
   105.9830       -2.8668510E-18
   106.1445       -2.8715383E-18
   106.3060       -2.8767967E-18
   106.4675       -2.8817432E-18
   106.6290       -2.8855759E-18
   106.7905       -2.8877429E-18
   106.9520       -2.8880726E-18
   107.1135       -2.8868217E-18
   107.2750       -2.8846257E-18
   107.4365       -2.8823605E-18
   107.5980       -2.8809493E-18
   107.7595       -2.8811726E-18
   107.9210       -2.8835173E-18
   108.0825       -2.8881057E-18
   108.2440       -2.8946987E-18
   108.4055       -2.9027641E-18
   108.5670       -2.9115821E-18
   108.7285       -2.9203692E-18
   108.8900       -2.9284022E-18
   109.0515       -2.9351278E-18
   109.2130       -2.9402466E-18
   109.3745       -2.9437553E-18
   109.5360       -2.9459305E-18
   109.6975       -2.9472565E-18
   109.8590       -2.9483041E-18
   110.0205       -2.9495995E-18
   110.1820       -2.9515045E-18
   110.3435       -2.9541502E-18
   110.5050       -2.9574323E-18
   110.6665       -2.9610624E-18
   110.8280       -2.9646534E-18
   110.9895       -2.9678113E-18
   111.1510       -2.9702147E-18
   111.3125       -2.9716685E-18
   111.4740       -2.9721327E-18
   111.6355       -2.9717258E-18
   111.7970       -2.9707061E-18
   111.9585       -2.9694341E-18
   112.1200       -2.9683143E-18
   112.2815       -2.9677241E-18
   112.4430       -2.9679441E-18
   112.6045       -2.9691032E-18
   112.7660       -2.9711624E-18
   112.9275       -2.9739287E-18
   113.0890       -2.9771045E-18
   113.2505       -2.9803491E-18
   113.4120       -2.9833354E-18
   113.5735       -2.9857916E-18
   113.7350       -2.9875208E-18
   113.8965       -2.9884054E-18
   114.0580       -2.9884137E-18
   114.2195       -2.9876066E-18
   114.3810       -2.9861464E-18
   114.5425       -2.9843041E-18
   114.7040       -2.9824429E-18
   114.8655       -2.9809794E-18
   115.0270       -2.9803152E-18
   115.1885       -2.9807590E-18
   115.3500       -2.9824504E-18
   115.5115       -2.9853103E-18
   115.6730       -2.9890345E-18
   115.8345       -2.9931270E-18
   115.9960       -2.9969750E-18
   116.1575       -2.9999490E-18
   116.3190       -3.0015144E-18
   116.4805       -3.0013337E-18
   116.6420       -2.9993484E-18