  -34.5000000         0.00000000    
  -34.3195000         0.00000000    
  -34.1389999         0.00000000    
  -33.9584999        -1.13917364E-29
  -33.7779999        -4.67634495E-26
  -33.5974998        -3.09188707E-25
  -33.4169998        -2.64302462E-24
  -33.2364998        -8.02509619E-24
  -33.0559998        -1.60616468E-24
  -32.8754997         3.97962940E-23
  -32.6949997         5.60605138E-23
  -32.5144997        -1.65473811E-22
  -32.3339996        -6.73371719E-22
  -32.1534996        -6.24917737E-22
  -31.9729996         1.62323654E-21
  -31.7924995         5.90067270E-21
  -31.6119995         6.38935631E-21
  -31.4314995        -6.88950977E-21
  -31.2509995        -3.51841564E-20
  -31.0704994        -5.35387966E-20
  -30.8899994        -1.27512153E-20
  -30.7094994         1.17480856E-19
  -30.5289993         2.79696726E-19
  -30.3484993         3.00187256E-19
  -30.1679993        -2.39364776E-20
  -29.9874992        -7.19583026E-19
  -29.8069992        -1.43804191E-18
  -29.6264992        -1.46725618E-18
  -29.4459991        -9.96199073E-20
  -29.2654991         2.72730692E-18
  -29.0849991         5.88009031E-18
  -28.9044991         7.06614406E-18
  -28.7240009         3.77720157E-18
  -28.5435009        -5.04230814E-18
  -28.3630009        -1.73785253E-17
  -28.1825008        -2.76828648E-17
  -28.0020008        -2.83840145E-17
  -27.8215008        -1.33105040E-17
  -27.6410007         1.82080022E-17
  -27.4605007         5.86059515E-17
  -27.2800007         9.26578870E-17
  -27.0995007         1.02096448E-16
  -26.9190006         7.30755242E-17
  -26.7385006         3.50901266E-18
  -26.5580006        -9.32646141E-17
  -26.3775005        -1.90910321E-16
  -26.1970005        -2.58390127E-16
  -26.0165005        -2.70940111E-16
  -25.8360004        -2.18814233E-16
  -25.6555004        -1.09541755E-16
  -25.4750004         3.74329866E-17
  -25.2945004         2.00739106E-16
  -25.1140003         3.65649380E-16
  -24.9335003         5.25345398E-16
  -24.7530003         6.72618964E-16
  -24.5725002         7.85679863E-16
  -24.3920002         8.16643682E-16
  -24.2115002         6.92431594E-16
  -24.0310001         3.33785615E-16
  -23.8505001        -3.09919959E-16
  -23.6700001        -1.22083441E-15
  -23.4895000        -2.28315042E-15
  -23.3090000        -3.27782438E-15
  -23.1285000        -3.90740915E-15
  -22.9480000        -3.84613860E-15
  -22.7674999        -2.80084255E-15
  -22.5869999        -5.65061714E-16
  -22.4064999         2.94883806E-15
  -22.2259998         7.70511906E-15
  -22.0454998         1.35645626E-14
  -21.8649998         2.03173931E-14
  -21.6844997         2.77163156E-14
  -21.5039997         3.55008076E-14
  -21.3234997         4.34098456E-14
  -21.1429996         5.11863535E-14
  -20.9624996         5.85806496E-14
  -20.7819996         6.53578212E-14
  -20.6014996         7.13089256E-14
  -20.4209995         7.62630993E-14
  -20.2404995         8.00934026E-14
  -20.0599995         8.27103617E-14
  -19.8794994         8.40434018E-14
  -19.6989994         8.40158157E-14
  -19.5184994         8.25211278E-14
  -19.3379993         7.94137705E-14
  -19.1574993         7.45183741E-14
  -18.9769993         6.76588573E-14
  -18.7964993         5.87013755E-14
  -18.6159992         4.76010392E-14
  -18.4354992         3.44407357E-14
  -18.2549992         1.94549983E-14
  -18.0744991         3.03226254E-15
  -17.8939991        -1.43054276E-14
  -17.7134991        -3.19415413E-14
  -17.5330009        -4.92195904E-14
  -17.3525009        -6.55054149E-14
  -17.1720009        -8.02459499E-14
  -16.9915009        -9.30121865E-14
  -16.8110008        -1.03519840E-13
  -16.6305008        -1.11619305E-13
  -16.4500008        -1.17261385E-13
  -16.2695007        -1.20450199E-13
  -16.0890007        -1.21201104E-13
  -15.9084997        -1.19520848E-13
  -15.7279997        -1.15419867E-13
  -15.5474997        -1.08953550E-13
  -15.3669996        -1.00281159E-13
  -15.1864996        -8.97200744E-14
  -15.0059996        -7.77795661E-14
  -14.8254995        -6.51610588E-14
  -14.6450005        -5.27257884E-14
  -14.4645004        -4.14356964E-14
  -14.2840004        -3.22829837E-14
  -14.1035004        -2.62137876E-14
  -13.9230003        -2.40536435E-14
  -13.7425003        -2.64312701E-14
  -13.5620003        -3.37018248E-14
  -13.3815002        -4.58735765E-14
  -13.2010002        -6.25462749E-14
  -13.0205002        -8.28770307E-14
  -12.8400002        -1.05589406E-13
  -12.6595001        -1.29035820E-13
  -12.4790001        -1.51307135E-13
  -12.2985001        -1.70377411E-13
  -12.1180000        -1.84263168E-13
  -11.9375000        -1.91165958E-13
  -11.7570000        -1.89590355E-13
  -11.5764999        -1.78420606E-13
  -11.3959999        -1.56960328E-13
  -11.2154999        -1.24941629E-13
  -11.0349998        -8.25073110E-14
  -10.8544998        -3.01731804E-14
  -10.6739998         3.12205740E-14
  -10.4934998         1.00578590E-13
  -10.3129997         1.76619543E-13
  -10.1324997         2.57947635E-13
  -9.95199966         3.43102120E-13
  -9.77149963         4.30583168E-13
  -9.59099960         5.18843974E-13
  -9.41049957         6.06251540E-13
  -9.22999954         6.91042709E-13
  -9.04950047         7.71285271E-13
  -8.86900043         8.44871590E-13
  -8.68850040         9.09564308E-13
  -8.50800037         9.63089851E-13
  -8.32750034         1.00328469E-12
  -8.14700031         1.02826395E-12
  -7.96649981         1.03659269E-12
  -7.78599977         1.02744213E-12
  -7.60550022         1.00071145E-12
  -7.42500019         9.57095080E-13
  -7.24450016         8.98107597E-13
  -7.06400013         8.26056996E-13
  -6.88350010         7.43959256E-13
  -6.70300007         6.55434691E-13
  -6.52250004         5.64545752E-13
  -6.34200001         4.75639330E-13
  -6.16149998         3.93162147E-13
  -5.98099995         3.21484836E-13
  -5.80049992         2.64761791E-13
  -5.61999989         2.26787068E-13
  -5.43949986         2.10942578E-13
  -5.25899982         2.20126434E-13
  -5.07849979         2.56790737E-13
  -4.89799976         3.22915766E-13
  -4.71750021         4.20094840E-13
  -4.53700018         5.49480546E-13
  -4.35650015         7.11764903E-13
  -4.17600012         9.07084900E-13
  -3.99550009         1.13483734E-12
  -3.81500006         1.39348711E-12
  -3.63450003         1.68037557E-12
  -3.45400000         1.99155080E-12
  -3.27349997         2.32167779E-12
  -3.09299994         2.66407404E-12
  -2.91249990         3.01083746E-12
  -2.73200011         3.35313288E-12
  -2.55150008         3.68148957E-12
  -2.37100005         3.98623842E-12
  -2.19050002         4.25788094E-12
  -2.00999999         4.48753708E-12
  -1.82949996         4.66727091E-12
  -1.64900005         4.79035128E-12
  -1.46850002         4.85145474E-12
  -1.28799999         4.84667037E-12
  -1.10749996         4.77346938E-12
 -0.926999986         4.63052686E-12
 -0.746500015         4.41749025E-12
 -0.565999985         4.13480448E-12
 -0.385500014         3.78353425E-12
 -0.204999998         3.36528743E-12
  -2.44999994E-02     2.88230442E-12
  0.156000003         2.33756439E-12
  0.336499989         1.73498715E-12
  0.517000020         1.07963833E-12
  0.697499990         3.77813612E-13
  0.878000021        -3.62942667E-13
   1.05850005        -1.13398483E-12
   1.23899996        -1.92583428E-12
   1.41949999        -2.72853138E-12
   1.60000002        -3.53210126E-12
   1.78050005        -4.32692640E-12
   1.96099997        -5.10421349E-12
   2.14150000        -5.85634536E-12
   2.32200003        -6.57711255E-12
   2.50250006        -7.26186689E-12
   2.68300009        -7.90750104E-12
   2.86350012        -8.51224213E-12
   3.04399991        -9.07532036E-12
   3.22449994        -9.59654925E-12
   3.40499997        -1.00758542E-11
   3.58550000        -1.05129490E-11
   3.76600003        -1.09071138E-11
   3.94650006        -1.12572581E-11
   4.12699986        -1.15620803E-11
   4.30749989        -1.18205203E-11
   4.48799992        -1.20321132E-11
   4.66849995        -1.21973725E-11
   4.84899998        -1.23179496E-11
   5.02950001        -1.23966280E-11
   5.21000004        -1.24371303E-11
   5.39050007        -1.24436893E-11
   5.57100010        -1.24205993E-11
   5.75150013        -1.23717182E-11
   5.93200016        -1.22999926E-11
   6.11250019        -1.22071762E-11
   6.29300022        -1.20935692E-11
   6.47349977        -1.19579884E-11
   6.65399981        -1.17979264E-11
   6.83449984        -1.16098780E-11
   7.01499987        -1.13897407E-11
   7.19549990        -1.11334822E-11
   7.37599993        -1.08376181E-11
   7.55649996        -1.04996897E-11
   7.73699999        -1.01185371E-11
   7.91750002        -9.69426709E-12
   8.09799957        -9.22796995E-12
   8.27849960        -8.72125289E-12
   8.45899963        -8.17565286E-12
   8.63949966        -7.59208842E-12
   8.81999969        -6.97054870E-12
   9.00049973        -6.30987970E-12
   9.18099976        -5.60795681E-12
   9.36149979        -4.86197367E-12
   9.54199982        -4.06885940E-12
   9.72249985        -3.22584190E-12
   9.90299988        -2.33080374E-12
   10.0834999        -1.38275264E-12
   10.2639999        -3.82020099E-13
   10.4445000         6.69561899E-13
   10.6250000         1.76863428E-12
   10.8055000         2.91044771E-12
   10.9860001         4.08891410E-12
   11.1665001         5.29704796E-12
   11.3470001         6.52709874E-12
   11.5275002         7.77091499E-12
   11.7080002         9.02016135E-12
   11.8885002         1.02663442E-11
   12.0690002         1.15008567E-11
   12.2495003         1.27147260E-11
   12.4300003         1.38985811E-11
   12.6105003         1.50423302E-11
   12.7910004         1.61352268E-11
   12.9715004         1.71656560E-11
   13.1520004         1.81215251E-11
   13.3325005         1.89903267E-11
   13.5129995         1.97595638E-11
   13.6934996         2.04171437E-11
   13.8739996         2.09518462E-11
   14.0544996         2.13537764E-11
   14.2349997         2.16147794E-11
   14.4154997         2.17286727E-11
   14.5959997         2.16913727E-11
   14.7764997         2.15008306E-11
   14.9569998         2.11566095E-11
   15.1374998         2.06594603E-11
   15.3179998         2.00106737E-11
   15.4984999         1.92116149E-11
   15.6789999         1.82631583E-11
   15.8594999         1.71655745E-11
   16.0400009         1.59184905E-11
   16.2205009         1.45210866E-11
   16.4009991         1.29724642E-11
   16.5814991         1.12719755E-11
   16.7619991         9.41966817E-12
   16.9424992         7.41643292E-12
   17.1229992         5.26416714E-12
   17.3034992         2.96578972E-12
   17.4839993         5.25183087E-13
   17.6644993        -2.05299341E-12
   17.8449993        -4.76344355E-12
   18.0254993        -7.60045932E-12
   18.2059994        -1.05581637E-11
   18.3864994        -1.36307172E-11
   18.5669994        -1.68123224E-11
   18.7474995        -2.00974012E-11
   18.9279995        -2.34801744E-11
   19.1084995        -2.69545202E-11
   19.2889996        -3.05135466E-11
   19.4694996        -3.41490551E-11
   19.6499996        -3.78512360E-11
   19.8304996        -4.16084910E-11
   20.0109997        -4.54072023E-11
   20.1914997        -4.92318616E-11
   20.3719997        -5.30651009E-11
   20.5524998        -5.68879666E-11
   20.7329998        -6.06800443E-11
   20.9134998        -6.44198514E-11
   21.0939999        -6.80848850E-11
   21.2744999        -7.16522050E-11
   21.4549999        -7.50986218E-11
   21.6355000        -7.84010148E-11
   21.8160000        -8.15367773E-11
   21.9965000        -8.44837533E-11
   22.1770000        -8.72203074E-11
   22.3575001        -8.97251787E-11
   22.5380001        -9.19771481E-11
   22.7185001        -9.39550104E-11
   22.8990002        -9.56373453E-11
   23.0795002        -9.70027184E-11
   23.2600002        -9.80302090E-11
   23.4405003        -9.86999510E-11
   23.6210003        -9.89940768E-11
   23.8015003        -9.88973695E-11
   23.9820004        -9.83978385E-11
   24.1625004        -9.74873030E-11
   24.3430004        -9.61614122E-11
   24.5235004        -9.44194445E-11
   24.7040005        -9.22642795E-11
   24.8845005        -8.97014338E-11
   25.0650005        -8.67386510E-11
   25.2455006        -8.33851252E-11
   25.4260006        -7.96509317E-11
   25.6065006        -7.55463261E-11
   25.7870007        -7.10814879E-11
   25.9675007        -6.62665478E-11
   26.1480007        -6.11113798E-11
   26.3285007        -5.56263993E-11
   26.5090008        -4.98224725E-11
   26.6895008        -4.37113817E-11
   26.8700008        -3.73059014E-11
   27.0505009        -3.06195035E-11
   27.2310009        -2.36656736E-11
   27.4115009        -1.64572661E-11
   27.5919991        -9.00575621E-12
   27.7724991        -1.32028037E-12
   27.9529991         6.59267909E-12
   28.1334991         1.47297608E-11
   28.3139992         2.30903525E-11
   28.4944992         3.16762623E-11
   28.6749992         4.04910758E-11
   28.8554993         4.95393587E-11
   29.0359993         5.88257984E-11
   29.2164993         6.83543708E-11
   29.3969994         7.81275600E-11
   29.5774994         8.81458170E-11
   29.7579994         9.84068382E-11
   29.9384995         1.08905537E-10
   30.1189995         1.19634080E-10
   30.2994995         1.30581795E-10
   30.4799995         1.41735554E-10
   30.6604996         1.53080479E-10
   30.8409996         1.64599528E-10
   31.0214996         1.76274162E-10
   31.2019997         1.88083882E-10
   31.3824997         2.00006178E-10
   31.5629997         2.12016238E-10
   31.7434998         2.24086472E-10
   31.9239998         2.36186598E-10
   32.1044998         2.48283588E-10
   32.2849998         2.60341942E-10
   32.4654999         2.72324080E-10
   32.6459999         2.84191060E-10
   32.8264999         2.95902913E-10
   33.0070000         3.07419701E-10
   33.1875000         3.18701843E-10
   33.3680000         3.29710786E-10
   33.5485001         3.40409589E-10
   33.7290001         3.50763030E-10
   33.9095001         3.60737967E-10
   34.0900002         3.70303427E-10
   34.2705002         3.79430126E-10
   34.4510002         3.88090615E-10
   34.6315002         3.96258776E-10
   34.8120003         4.03909628E-10
   34.9925003         4.11019330E-10
   35.1730003         4.17565232E-10
   35.3535004         4.23526159E-10
   35.5340004         4.28883040E-10
   35.7145004         4.33619224E-10
   35.8950005         4.37721165E-10
   36.0755005         4.41178816E-10
   36.2560005         4.43985709E-10
   36.4365005         4.46139015E-10
   36.6170006         4.47639148E-10
   36.7975006         4.48489357E-10
   36.9780006         4.48695137E-10
   37.1585007         4.48263648E-10
   37.3390007         4.47203274E-10
   37.5195007         4.45523174E-10
   37.7000008         4.43233450E-10
   37.8805008         4.40345316E-10
   38.0610008         4.36871206E-10
   38.2415009         4.32825581E-10
   38.4220009         4.28224983E-10
   38.6025009         4.23088675E-10
   38.7830009         4.17438584E-10
   38.9635010         4.11298884E-10
   39.1440010         4.04696027E-10
   39.3245010         3.97657685E-10
   39.5050011         3.90212029E-10
   39.6855011         3.82387427E-10
   39.8660011         3.74211523E-10
   40.0465012         3.65711073E-10
   40.2270012         3.56912305E-10
   40.4075012         3.47840895E-10
   40.5880013         3.38523015E-10
   40.7685013         3.28985644E-10
   40.9490013         3.19257454E-10
   41.1295013         3.09369030E-10
   41.3100014         2.99352793E-10
   41.4905014         2.89242519E-10
   41.6710014         2.79072487E-10
   41.8515015         2.68876116E-10
   42.0320015         2.58685101E-10
   42.2125015         2.48528170E-10
   42.3930016         2.38430498E-10
   42.5735016         2.28413538E-10
   42.7540016         2.18494986E-10
   42.9345016         2.08689302E-10
   43.1150017         1.99007769E-10
   43.2955017         1.89458935E-10
   43.4760017         1.80048504E-10
   43.6565018         1.70779446E-10
   43.8370018         1.61651414E-10
   44.0175018         1.52660412E-10
   44.1980019         1.43798654E-10
   44.3785019         1.35053968E-10
   44.5589981         1.26410202E-10
   44.7394981         1.17847149E-10
   44.9199982         1.09340696E-10
   45.1004982         1.00863637E-10
   45.2809982         9.23860433E-11
   45.4614983         8.38759340E-11
   45.6419983         7.53000162E-11
   45.8224983         6.66244837E-11
   46.0029984         5.78155301E-11
   46.1834984         4.88402860E-11
   46.3639984         3.96672695E-11
   46.5444984         3.02672817E-11
   46.7249985         2.06134051E-11
   46.9054985         1.06824497E-11
   47.0859985         4.54650613E-13
   47.2664986        -1.00852078E-11
   47.4469986        -2.09476152E-11
   47.6274986        -3.21383441E-11
   47.8079987        -4.36585386E-11
   47.9884987        -5.55055030E-11
   48.1689987        -6.76729714E-11
   48.3494987        -8.01520100E-11
   48.5299988        -9.29315028E-11
   48.7104988        -1.05998481E-10
   48.8909988        -1.19337609E-10
   49.0714989        -1.32931374E-10
   49.2519989        -1.46759160E-10
   49.4324989        -1.60797473E-10
   49.6129990        -1.75019776E-10
   49.7934990        -1.89397512E-10
   49.9739990        -2.03901146E-10
   50.1544991        -2.18501772E-10
   50.3349991        -2.33172509E-10
   50.5154991        -2.47889764E-10
   50.6959991        -2.62634081E-10
   50.8764992        -2.77390666E-10
   51.0569992        -2.92148888E-10
   51.2374992        -3.06901421E-10
   51.4179993        -3.21643850E-10
   51.5984993        -3.36373207E-10
   51.7789993        -3.51087076E-10
   51.9594994        -3.65783515E-10
   52.1399994        -3.80459858E-10
   52.3204994        -3.95113414E-10
   52.5009995        -4.09741546E-10
   52.6814995        -4.24342117E-10
   52.8619995        -4.38913905E-10
   53.0424995        -4.53457272E-10
   53.2229996        -4.67973438E-10
   53.4034996        -4.82464291E-10
   53.5839996        -4.96930941E-10
   53.7644997        -5.11373000E-10
   53.9449997        -5.25786137E-10
   54.1254997        -5.40161693E-10
   54.3059998        -5.54485624E-10
   54.4864998        -5.68737890E-10
   54.6669998        -5.82894455E-10
   54.8474998        -5.96927119E-10
   55.0279999        -6.10804907E-10
   55.2084999        -6.24495622E-10
   55.3889999        -6.37966679E-10
   55.5695000        -6.51185494E-10
   55.7500000        -6.64119648E-10
   55.9305000        -6.76737555E-10
   56.1110001        -6.89007851E-10
   56.2915001        -7.00900005E-10
   56.4720001        -7.12384263E-10
   56.6525002        -7.23432536E-10
   56.8330002        -7.34018013E-10
   57.0135002        -7.44116546E-10
   57.1940002        -7.53706209E-10
   57.3745003        -7.62768015E-10
   57.5550003        -7.71285369E-10
   57.7355003        -7.79244724E-10
   57.9160004        -7.86634702E-10
   58.0965004        -7.93446586E-10
   58.2770004        -7.99673883E-10
   58.4575005        -8.05311873E-10
   58.6380005        -8.10357614E-10
   58.8185005        -8.14809942E-10
   58.9990005        -8.18669299E-10
   59.1795006        -8.21937629E-10
   59.3600006        -8.24618207E-10
   59.5405006        -8.26715252E-10
   59.7210007        -8.28233870E-10
   59.9015007        -8.29178504E-10
   60.0820007        -8.29552427E-10
   60.2625008        -8.29357139E-10
   60.4430008        -8.28591085E-10
   60.6235008        -8.27249769E-10
   60.8040009        -8.25326030E-10
   60.9845009        -8.22811097E-10
   61.1650009        -8.19694923E-10
   61.3455009        -8.15968570E-10
   61.5260010        -8.11624101E-10
   61.7065010        -8.06656131E-10
   61.8870010        -8.01061328E-10
   62.0675011        -7.94837862E-10
   62.2480011        -7.87985233E-10
   62.4285011        -7.80502829E-10
   62.6090012        -7.72389264E-10
   62.7895012        -7.63642594E-10
   62.9700012        -7.54259988E-10
   63.1505013        -7.44238782E-10
   63.3310013        -7.33576866E-10
   63.5115013        -7.22275240E-10
   63.6920013        -7.10338233E-10
   63.8725014        -6.97775004E-10
   64.0530014        -6.84600265E-10
   64.2334976        -6.70834333E-10
   64.4140015        -6.56502686E-10
   64.5944977        -6.41634967E-10
   64.7750015        -6.26262986E-10
   64.9554977        -6.10419271E-10
   65.1360016        -5.94135852E-10
   65.3164978        -5.77442094E-10
   65.4970016        -5.60364699E-10
   65.6774979        -5.42927536E-10
   65.8580017        -5.25152422E-10
   66.0384979        -5.07059561E-10
   66.2190018        -4.88669216E-10
   66.3994980        -4.70001926E-10
   66.5800018        -4.51079396E-10
   66.7604980        -4.31923441E-10
   66.9410019        -4.12555573E-10
   67.1214981        -3.92995692E-10
   67.3020020        -3.73261366E-10
   67.4824982        -3.53367224E-10
   67.6630020        -3.33323286E-10
   67.8434982        -3.13136239E-10
   68.0240021        -2.92809332E-10
   68.2044983        -2.72343287E-10
   68.3850021        -2.51738130E-10
   68.5654984        -2.30994127E-10
   68.7460022        -2.10112996E-10
   68.9264984        -1.89099875E-10
   69.1070023        -1.67963504E-10
   69.2874985        -1.46717291E-10
   69.4680023        -1.25379360E-10
   69.6484985        -1.03971901E-10
   69.8290024        -8.25213994E-11
   70.0094986        -6.10570830E-11
   70.1900024        -3.96107591E-11
   70.3704987        -1.82155662E-11
   70.5510025         3.09379215E-12
   70.7314987         2.42819029E-11
   70.9120026         4.53133538E-11
   71.0924988         6.61523544E-11
   71.2730026         8.67635477E-11
   71.4534988         1.07111896E-10
   71.6340027         1.27163280E-10
   71.8144989         1.46883963E-10
   71.9950027         1.66241215E-10
   72.1754990         1.85203325E-10
   72.3560028         2.03739248E-10
   72.5364990         2.21818994E-10
   72.7170029         2.39413794E-10
   72.8974991         2.56496824E-10
   73.0780029         2.73043366E-10
   73.2584991         2.89032021E-10
   73.4390030         3.04444581E-10
   73.6194992         3.19266336E-10
   73.8000031         3.33486405E-10
   73.9804993         3.47096962E-10
   74.1610031         3.60092678E-10
   74.3414993         3.72470055E-10
   74.5220032         3.84226040E-10
   74.7024994         3.95358052E-10
   74.8830032         4.05862566E-10
   75.0634995         4.15735835E-10
   75.2440033         4.24973695E-10
   75.4244995         4.33572289E-10
   75.6050034         4.41528814E-10
   75.7854996         4.48842824E-10
   75.9660034         4.55516236E-10
   76.1464996         4.61554128E-10
   76.3270035         4.66964301E-10
   76.5074997         4.71756190E-10
   76.6880035         4.75939677E-10
   76.8684998         4.79523754E-10
   77.0490036         4.82515583E-10
   77.2294998         4.84919604E-10
   77.4100037         4.86736762E-10
   77.5904999         4.87966167E-10
   77.7710037         4.88605378E-10
   77.9514999         4.88652174E-10
   78.1320038         4.88105723E-10
   78.3125000         4.86967910E-10
   78.4929962         4.85244511E-10
   78.6735001         4.82945017E-10
   78.8539963         4.80083584E-10
   79.0345001         4.76677919E-10
   79.2149963         4.72749506E-10
   79.3955002         4.68322936E-10
   79.5759964         4.63425492E-10
   79.7565002         4.58086652E-10
   79.9369965         4.52338639E-10
   80.1175003         4.46216092E-10
   80.2979965         4.39756342E-10
   80.4785004         4.32998831E-10
   80.6589966         4.25986274E-10
   80.8395004         4.18762663E-10
   81.0199966         4.11373408E-10
   81.2005005         4.03863609E-10
   81.3809967         3.96277705E-10
   81.5615005         3.88657634E-10
   81.7419968         3.81042670E-10
   81.9225006         3.73468145E-10
   82.1029968         3.65965730E-10
   82.2835007         3.58563512E-10
   82.4639969         3.51286000E-10
   82.6445007         3.44154122E-10
   82.8249969         3.37185335E-10
   83.0055008         3.30393685E-10
   83.1859970         3.23789301E-10
   83.3665009         3.17378540E-10
   83.5469971         3.11164011E-10
   83.7275009         3.05145076E-10
   83.9079971         2.99317987E-10
   84.0885010         2.93677138E-10
   84.2689972         2.88214730E-10
   84.4495010         2.82921991E-10
   84.6299973         2.77788376E-10
   84.8105011         2.72801837E-10
   84.9909973         2.67947858E-10
   85.1715012         2.63208871E-10
   85.3519974         2.58563920E-10
   85.5325012         2.53987664E-10
   85.7129974         2.49450849E-10
   85.8935013         2.44919973E-10
   86.0739975         2.40358150E-10
   86.2545013         2.35725883E-10
   86.4349976         2.30982330E-10
   86.6155014         2.26086871E-10
   86.7959976         2.21000454E-10
   86.9765015         2.15687052E-10
   87.1569977         2.10115092E-10
   87.3375015         2.04257375E-10
   87.5179977         1.98092057E-10
   87.6985016         1.91602026E-10
   87.8789978         1.84774557E-10
   88.0595016         1.77600351E-10
   88.2399979         1.70073899E-10
   88.4205017         1.62192731E-10
   88.6009979         1.53957513E-10
   88.7815018         1.45372728E-10
   88.9619980         1.36446091E-10
   89.1425018         1.27188621E-10
   89.3229980         1.17614363E-10
   89.5035019         1.07739116E-10
   89.6839981         9.75796458E-11
   89.8645020         8.71528336E-11
   90.0449982         7.64746114E-11
   90.2255020         6.55599811E-11
   90.4059982         5.44228274E-11
   90.5865021         4.30759733E-11
   90.7669983         3.15322213E-11
   90.9475021         1.98042607E-11
   91.1279984         7.90551392E-12
   91.3085022        -4.14977558E-12
   91.4889984        -1.63459420E-11
   91.6695023        -2.86663523E-11
   91.8499985        -4.10929103E-11
   92.0305023        -5.36066434E-11
   92.2109985        -6.61876803E-11
   92.3915024        -7.88156901E-11
   92.5719986        -9.14695403E-11
   92.7525024        -1.04127658E-10
   92.9329987        -1.16767221E-10
   93.1135025        -1.29363784E-10
   93.2939987        -1.41890624E-10
   93.4745026        -1.54317364E-10
   93.6549988        -1.66610503E-10
   93.8355026        -1.78732834E-10
   94.0159988        -1.90643779E-10
   94.1965027        -2.02300940E-10
   94.3769989        -2.13661283E-10
   94.5575027        -2.24682328E-10
   94.7379990        -2.35323594E-10
   94.9185028        -2.45547249E-10
   95.0989990        -2.55318405E-10
   95.2795029        -2.64605032E-10
   95.4599991        -2.73377349E-10
   95.6405029        -2.81607626E-10
   95.8209991        -2.89269747E-10
   96.0015030        -2.96339203E-10
   96.1819992        -3.02793901E-10
   96.3625031        -3.08614551E-10
   96.5429993        -3.13786330E-10
   96.7235031        -3.18299581E-10
   96.9039993        -3.22151361E-10
   97.0845032        -3.25345917E-10
   97.2649994        -3.27896377E-10
   97.4455032        -3.29824057E-10
   97.6259995        -3.31158961E-10
   97.8065033        -3.31939226E-10
   97.9869995        -3.32209760E-10
   98.1675034        -3.32021771E-10
   98.3479996        -3.31430938E-10
   98.5285034        -3.30496769E-10
   98.7089996        -3.29281130E-10
   98.8895035        -3.27847888E-10
   99.0699997        -3.26262517E-10
   99.2505035        -3.24590965E-10
   99.4309998        -3.22899069E-10
   99.6115036        -3.21251664E-10
   99.7919998        -3.19710536E-10
   99.9725037        -3.18332805E-10
   100.153000        -3.17168930E-10
   100.333504        -3.16260768E-10
   100.514000        -3.15640430E-10
   100.694504        -3.15329429E-10
   100.875000        -3.15338700E-10
   101.055496        -3.15669657E-10
   101.236000        -3.16314364E-10
   101.416496        -3.17258109E-10
   101.597000        -3.18479826E-10
   101.777496        -3.19953314E-10
   101.958000        -3.21648208E-10
   102.138496        -3.23530563E-10
   102.319000        -3.25563659E-10
   102.499496        -3.27708138E-10
   102.680000        -3.29923588E-10
   102.860497        -3.32169153E-10
   103.041000        -3.34404837E-10
   103.221497        -3.36593392E-10
   103.402000        -3.38701095E-10
   103.582497        -3.40699163E-10
   103.763000        -3.42564616E-10
   103.943497        -3.44280243E-10
   104.124001        -3.45834611E-10
   104.304497        -3.47220780E-10
   104.485001        -3.48435031E-10
   104.665497        -3.49475782E-10
   104.846001        -3.50341589E-10
   105.026497        -3.51030732E-10
   105.207001        -3.51540130E-10
   105.387497        -3.51866036E-10
   105.568001        -3.52004315E-10
   105.748497        -3.51951329E-10
   105.929001        -3.51704582E-10
   106.109497        -3.51262852E-10
   106.290001        -3.50626084E-10
   106.470497        -3.49794249E-10
   106.651001        -3.48766627E-10
   106.831497        -3.47539941E-10
   107.012001        -3.46108087E-10
   107.192497        -3.44461848E-10
   107.373001        -3.42589651E-10
   107.553497        -3.40478562E-10
   107.734001        -3.38116396E-10
   107.914497        -3.35493411E-10
   108.095001        -3.32603611E-10
   108.275497        -3.29445665E-10
   108.456001        -3.26023264E-10
   108.636497        -3.22343957E-10
   108.817001        -3.18418292E-10
   108.997498        -3.14258564E-10
   109.178001        -3.09876652E-10
   109.358498        -3.05283715E-10
   109.539001        -3.00488606E-10
   109.719498        -2.95499097E-10
   109.900002        -2.90321156E-10
   110.080498        -2.84961360E-10
   110.261002        -2.79426898E-10
   110.441498        -2.73727735E-10
   110.622002        -2.67876887E-10
   110.802498        -2.61891120E-10
   110.983002        -2.55789889E-10
   111.163498        -2.49595095E-10
   111.344002        -2.43329690E-10
   111.524498        -2.37016934E-10