  -34.5000000       0.00000000    
  -34.3199997       0.00000000    
  -34.1399994       0.00000000    
  -33.9599991       3.40385464E-28
  -33.7799988      -9.41340855E-24
  -33.5999985      -6.04903591E-23
  -33.4199982      -1.95287541E-22
  -33.2400017      -4.02006698E-22
  -33.0600014      -5.28379489E-22
  -32.8800011      -2.59927598E-22
  -32.7000008       7.35629934E-22
  -32.5200005       2.47968331E-21
  -32.3400002       4.33629686E-21
  -32.1599998       4.90579617E-21
  -31.9799995       2.12708242E-21
  -31.7999992      -6.72260912E-21
  -31.6200008      -2.46204412E-20
  -31.4400005      -5.20912952E-20
  -31.2600002      -8.17019345E-20
  -31.0799999      -9.41597721E-20
  -30.8999996      -6.17402504E-20
  -30.7199993       4.29405224E-20
  -30.5400009       2.39973936E-19
  -30.3600006       5.31056726E-19
  -30.1800003       8.64142403E-19
  -30.0000000       1.08225427E-18
  -29.8199997       9.26354605E-19
  -29.6399994       1.55586030E-19
  -29.4599991      -1.29211061E-18
  -29.2800007      -3.30741364E-18
  -29.1000004      -5.85010005E-18
  -28.9200001      -9.07079642E-18
  -28.7399998      -1.27724479E-17
  -28.5599995      -1.52670558E-17
  -28.3799992      -1.28172289E-17
  -28.2000008      -1.23028754E-18
  -28.0200005       2.03657740E-17
  -27.8400002       4.62892852E-17
  -27.6599998       6.55560157E-17
  -27.4799995       6.88193623E-17
  -27.2999992       5.65957902E-17
  -27.1200008       4.07593280E-17
  -26.9400005       3.44199713E-17
  -26.7600002       3.46018683E-17
  -26.5799999       1.07067173E-17
  -26.3999996      -8.84479811E-17
  -26.2199993      -3.06936047E-16
  -26.0400009      -6.45532015E-16
  -25.8600006      -1.03676229E-15
  -25.6800003      -1.34705926E-15
  -25.5000000      -1.41039848E-15
  -25.3199997      -1.08621673E-15
  -25.1399994      -3.26554971E-16
  -24.9599991       7.68181486E-16
  -24.7800007       1.92968865E-15
  -24.6000004       2.76142693E-15
  -24.4200001       2.84446539E-15
  -24.2399998       1.88650246E-15
  -24.0599995      -1.39678380E-16
  -23.8799992      -2.93239079E-15
  -23.7000008      -5.91310058E-15
  -23.5200005      -8.38723300E-15
  -23.3400002      -9.75708941E-15
  -23.1599998      -9.70561268E-15
  -22.9799995      -8.28024681E-15
  -22.7999992      -5.84626333E-15
  -22.6200008      -2.92970168E-15
  -22.4400005      -1.36142117E-17
  -22.2600002       2.62768128E-15
  -22.0799999       4.98246548E-15
  -21.8999996       7.21560686E-15
  -21.7199993       9.48095413E-15
  -21.5400009       1.17280605E-14
  -21.3600006       1.36152601E-14
  -21.1800003       1.45978641E-14
  -21.0000000       1.41781872E-14
  -20.8199997       1.22244659E-14
  -20.6399994       9.23424646E-15
  -20.4599991       6.44558615E-15
  -20.2800007       5.76421379E-15
  -20.1000004       9.53484914E-15
  -19.9200001       2.02129912E-14
  -19.7399998       3.99881612E-14
  -19.5599995       7.03880449E-14
  -19.3799992       1.11876593E-13
  -19.2000008       1.63458168E-13
  -19.0200005       2.22320792E-13
  -18.8400002       2.83589260E-13
  -18.6599998       3.40297614E-13
  -18.4799995       3.83707822E-13
  -18.2999992       4.04054990E-13
  -18.1200008       3.91687144E-13
  -17.9400005       3.38419912E-13
  -17.7600002       2.38816670E-13
  -17.5799999       9.11120409E-14
  -17.3999996      -1.02381950E-13
  -17.2199993      -3.35352216E-13
  -17.0400009      -5.97857647E-13
  -16.8600006      -8.76781070E-13
  -16.6800003      -1.15624795E-12
  -16.5000000      -1.41807074E-12
  -16.3199997      -1.64243424E-12
  -16.1399994      -1.80905638E-12
  -15.9600000      -1.89893348E-12
  -15.7799997      -1.89652395E-12
  -15.6000004      -1.79195190E-12
  -15.4200001      -1.58261674E-12
  -15.2399998      -1.27366607E-12
  -15.0600004      -8.77065402E-13
  -14.8800001      -4.09483265E-13
  -14.6999998       1.10332425E-13
  -14.5200005       6.63796383E-13
  -14.3400002       1.23360426E-12
  -14.1599998       1.80347057E-12
  -13.9799995       2.35686080E-12
  -13.8000002       2.87555938E-12
  -13.6199999       3.33901591E-12
  -13.4399996       3.72506626E-12
  -13.2600002       4.01200427E-12
  -13.0799999       4.18134451E-12
  -12.8999996       4.22031941E-12
  -12.7200003       4.12324602E-12
  -12.5400000       3.89145357E-12
  -12.3599997       3.53208305E-12
  -12.1800003       3.05651381E-12
  -12.0000000       2.47923080E-12
  -11.8199997       1.81751857E-12
  -11.6400003       1.09177749E-12
  -11.4600000       3.25776054E-13
  -11.2799997      -4.53960085E-13
  -11.1000004      -1.22004132E-12
  -10.9200001      -1.94720347E-12
  -10.7399998      -2.61560652E-12
  -10.5600004      -3.21340936E-12
  -10.3800001      -3.73781388E-12
  -10.1999998      -4.19428988E-12
  -10.0200005      -4.59433229E-12
  -9.84000015      -4.95249371E-12
  -9.65999985      -5.28347071E-12
  -9.47999954      -5.59970776E-12
  -9.30000019      -5.90957448E-12
  -9.11999989      -6.21583731E-12
  -8.93999958      -6.51417418E-12
  -8.76000023      -6.79174989E-12
  -8.57999992      -7.02630792E-12
  -8.39999962      -7.18650616E-12
  -8.22000027      -7.23415728E-12
  -8.03999996      -7.12848921E-12
  -7.86000013      -6.83180292E-12
  -7.67999983      -6.31515630E-12
  -7.50000000      -5.56244894E-12
  -7.32000017      -4.57167464E-12
  -7.13999987      -3.35306045E-12
  -6.96000004      -1.92500182E-12
  -6.78000021      -3.09539178E-13
  -6.59999990       1.47077706E-12
  -6.42000008       3.39341793E-12
  -6.23999977       5.43381616E-12
  -6.05999994       7.56180882E-12
  -5.88000011       9.73827442E-12
  -5.69999981       1.19135188E-11
  -5.51999998       1.40281328E-11
  -5.34000015       1.60160652E-11
  -5.15999985       1.78087493E-11
  -4.98000002       1.93389887E-11
  -4.80000019       2.05434558E-11
  -4.61999989       2.13636470E-11
  -4.44000006       2.17458985E-11
  -4.26000023       2.16416607E-11
  -4.07999992       2.10091354E-11
  -3.90000010       1.98168513E-11
  -3.72000003       1.80487066E-11
  -3.53999996       1.57092447E-11
  -3.35999990       1.28275368E-11
  -3.18000007       9.45835337E-12
  -3.00000000       5.68004671E-12
  -2.81999993       1.58954837E-12
  -2.64000010      -2.70436950E-12
  -2.46000004      -7.08798732E-12
  -2.27999997      -1.14484082E-11
  -2.09999990      -1.56774090E-11
  -1.91999996      -1.96734903E-11
  -1.74000001      -2.33428537E-11
  -1.55999994      -2.66002879E-11
  -1.38000000      -2.93706344E-11
  -1.20000005      -3.15909833E-11
  -1.01999998      -3.32129740E-11
 -0.839999974      -3.42043165E-11
 -0.660000026      -3.45490372E-11
 -0.479999989      -3.42460782E-11
 -0.300000012      -3.33069544E-11
 -0.119999997      -3.17532493E-11
   5.99999987E-02  -2.96147794E-11
  0.239999995      -2.69289539E-11
  0.419999987      -2.37411601E-11
  0.600000024      -2.01057677E-11
  0.779999971      -1.60869339E-11
  0.959999979      -1.17587624E-11
   1.13999999      -7.20443713E-12
   1.32000005      -2.51466925E-12
   1.50000000       2.21418608E-12
   1.67999995       6.88197416E-12
   1.86000001       1.13865887E-11
   2.03999996       1.56264168E-11
   2.22000003       1.95040564E-11
   2.40000010       2.29318751E-11
   2.57999992       2.58389247E-11
   2.75999999       2.81779964E-11
   2.94000006       2.99308633E-11
   3.11999989       3.11097433E-11
   3.29999995       3.17541202E-11
   3.48000002       3.19229608E-11
   3.66000009       3.16842906E-11
   3.83999991       3.11044350E-11
   4.01999998       3.02397378E-11
   4.19999981       2.91324638E-11
   4.38000011       2.78114112E-11
   4.55999994       2.62962707E-11
   4.73999977       2.46036767E-11
   4.92000008       2.27529072E-11
   5.09999990       2.07695545E-11
   5.28000021       1.86866772E-11
   5.46000004       1.65437559E-11
   5.63999987       1.43844121E-11
   5.82000017       1.22536070E-11
   6.00000000       1.01946090E-11
   6.17999983       8.24540176E-12
   6.36000013       6.43426545E-12
   6.53999996       4.77448636E-12
   6.71999979       3.25910935E-12
   6.90000010       1.85728017E-12
   7.07999992       5.13858162E-13
   7.26000023      -8.46500062E-13
   7.44000006      -2.31095026E-12
   7.61999989      -3.96690883E-12
   7.80000019      -5.88979083E-12
   7.98000002      -8.13243309E-12
   8.15999985      -1.07181035E-11
   8.34000015      -1.36379597E-11
   8.52000046      -1.68526217E-11
   8.69999981      -2.02969065E-11
   8.88000011      -2.38862541E-11
   9.06000042      -2.75239120E-11
   9.23999977      -3.11080953E-11
   9.42000008      -3.45389203E-11
   9.60000038      -3.77247886E-11
   9.77999973      -4.05878629E-11
   9.96000004      -4.30678930E-11
   10.1400003      -4.51237138E-11
   10.3199997      -4.67316290E-11
   10.5000000      -4.78809666E-11
   10.6800003      -4.85677540E-11
   10.8599997      -4.87880535E-11
   11.0400000      -4.85333718E-11
   11.2200003      -4.77897132E-11
   11.3999996      -4.65414859E-11
   11.5799999      -4.47797459E-11
   11.7600002      -4.25129411E-11
   11.9399996      -3.97772891E-11
   12.1199999      -3.66436326E-11
   12.3000002      -3.32182615E-11
   12.4799995      -2.96367063E-11
   12.6599998      -2.60514214E-11
   12.8400002      -2.26157756E-11
   13.0200005      -1.94676063E-11
   13.1999998      -1.67159359E-11
   13.3800001      -1.44328646E-11
   13.5600004      -1.26522638E-11
   13.7399998      -1.13742687E-11
   13.9200001      -1.05742446E-11
   14.1000004      -1.02133154E-11
   14.2799997      -1.02479102E-11
   14.4600000      -1.06363989E-11
   14.6400003      -1.13417982E-11
   14.8199997      -1.23311457E-11
   15.0000000      -1.35725181E-11
   15.1800003      -1.50314778E-11
   15.3599997      -1.66676967E-11
   15.5400000      -1.84329340E-11
   15.7200003      -2.02700200E-11
   15.8999996      -2.21127630E-11
   16.0799999      -2.38869601E-11
   16.2600002      -2.55127100E-11
   16.4400005      -2.69081632E-11
   16.6200008      -2.79954410E-11
   16.7999992      -2.87082077E-11
   16.9799995      -2.89997661E-11
   17.1599998      -2.88506788E-11
   17.3400002      -2.82734218E-11
   17.5200005      -2.73135056E-11
   17.7000008      -2.60458079E-11
   17.8799992      -2.45669544E-11
   18.0599995      -2.29849421E-11
   18.2399998      -2.14072735E-11
   18.4200001      -1.99296482E-11
   18.6000004      -1.86263435E-11
   18.7800007      -1.75440287E-11
   18.9599991      -1.66995758E-11
   19.1399994      -1.60823993E-11
   19.3199997      -1.56610055E-11
   19.5000000      -1.53931173E-11
   19.6800003      -1.52365655E-11
   19.8600006      -1.51590580E-11
   20.0400009      -1.51435392E-11
   20.2199993      -1.51875595E-11
   20.3999996      -1.52954906E-11
   20.5799999      -1.54659358E-11
   20.7600002      -1.56767516E-11
   20.9400005      -1.58732177E-11
   21.1200008      -1.59622471E-11
   21.2999992      -1.58156804E-11
   21.4799995      -1.52826241E-11
   21.6599998      -1.42068735E-11
   21.8400002      -1.24463790E-11
   22.0200005      -9.88888225E-12
   22.2000008      -6.46085529E-12
   22.3799992      -2.12878456E-12
   22.5599995       3.10633550E-12
   22.7399998       9.21799876E-12
   22.9200001       1.61630969E-11
   23.1000004       2.38886445E-11
   23.2800007       3.23340625E-11
   23.4599991       4.14297416E-11
   23.6399994       5.10926440E-11
   23.8199997       6.12199041E-11
   24.0000000       7.16815357E-11
   24.1800003       8.23126983E-11
   24.3600006       9.29065644E-11
   24.5400009       1.03208220E-10
   24.7199993       1.12911638E-10
   24.8999996       1.21662944E-10
   25.0799999       1.29069408E-10
   25.2600002       1.34717154E-10
   25.4400005       1.38195413E-10
   25.6200008       1.39124934E-10
   25.7999992       1.37186720E-10
   25.9799995       1.32146002E-10
   26.1599998       1.23868721E-10
   26.3400002       1.12327841E-10
   26.5200005       9.75995743E-11
   26.7000008       7.98521665E-11
   26.8799992       5.93294233E-11
   27.0599995       3.63327077E-11
   27.2399998       1.12040490E-11
   27.4200001      -1.56872709E-11
   27.6000004      -4.39534902E-11
   27.7800007      -7.31920427E-11
   27.9599991      -1.02983386E-10
   28.1399994      -1.32884564E-10
   28.3199997      -1.62419300E-10
   28.5000000      -1.91067911E-10
   28.6800003      -2.18260507E-10
   28.8600006      -2.43378540E-10
   29.0400009      -2.65766992E-10
   29.2199993      -2.84759244E-10
   29.3999996      -2.99711811E-10
   29.5799999      -3.10045489E-10
   29.7600002      -3.15283716E-10
   29.9400005      -3.15083459E-10
   30.1200008      -3.09251819E-10
   30.2999992      -2.97746494E-10
   30.4799995      -2.80661661E-10
   30.6599998      -2.58203903E-10
   30.8400002      -2.30663336E-10
   31.0200005      -1.98385530E-10
   31.2000008      -1.61748698E-10
   31.3799992      -1.21147675E-10
   31.5599995      -7.69850642E-11
   31.7399998      -2.96690936E-11
   31.9200001       2.03835802E-11
   32.0999985       7.27407717E-11
   32.2799988       1.26944621E-10
   32.4599991       1.82501556E-10
   32.6399994       2.38875114E-10
   32.8199997       2.95485469E-10
   33.0000000       3.51719626E-10
   33.1800003       4.06951917E-10
   33.3600006       4.60574107E-10
   33.5400009       5.12028309E-10
   33.7200012       5.60836322E-10
   33.9000015       6.06617923E-10
   34.0800018       6.49094001E-10
   34.2599983       6.88074375E-10
   34.4399986       7.23435090E-10
   34.6199989       7.55091434E-10
   34.7999992       7.82975518E-10
   34.9799995       8.07022282E-10
   35.1599998       8.27168445E-10
   35.3400002       8.43358106E-10
   35.5200005       8.55555182E-10
   35.7000008       8.63753458E-10
   35.8800011       8.67985239E-10
   36.0600014       8.68323968E-10
   36.2400017       8.64884442E-10
   36.4199982       8.57818816E-10
   36.5999985       8.47312276E-10
   36.7799988       8.33574654E-10
   36.9599991       8.16828993E-10
   37.1399994       7.97297561E-10
   37.3199997       7.75186026E-10
   37.5000000       7.50670970E-10
   37.6800003       7.23893778E-10
   37.8600006       6.94965807E-10
   38.0400009       6.63984145E-10
   38.2200012       6.31054597E-10
   38.4000015       5.96316940E-10
   38.5800018       5.59964186E-10
   38.7599983       5.22250798E-10
   38.9399986       4.83487639E-10
   39.1199989       4.44026566E-10
   39.2999992       4.04236894E-10
   39.4799995       3.64482527E-10
   39.6599998       3.25102889E-10
   39.8400002       2.86400681E-10
   40.0200005       2.48636001E-10
   40.2000008       2.12026785E-10
   40.3800011       1.76752418E-10
   40.5600014       1.42960810E-10
   40.7400017       1.10776360E-10
   40.9199982       8.03122013E-11
   41.0999985       5.16808714E-11
   41.2799988       2.50057926E-11
   41.4599991       4.26206108E-13
   41.6399994      -2.19054497E-11
   41.8199997      -4.18353373E-11
   42.0000000      -5.92270816E-11
   42.1800003      -7.39837427E-11
   42.3600006      -8.60636631E-11
   42.5400009      -9.54865215E-11
   42.7200012      -1.02324829E-10
   42.9000015      -1.06683509E-10
   43.0800018      -1.08673716E-10
   43.2599983      -1.08388042E-10
   43.4399986      -1.05886022E-10
   43.6199989      -1.01191958E-10
   43.7999992      -9.43056536E-11
   43.9799995      -8.52210663E-11
   44.1599998      -7.39473829E-11
   44.3400002      -6.05284781E-11
   44.5200005      -4.50580129E-11
   44.7000008      -2.76891409E-11
   44.8800011      -8.64011293E-12
   45.0600014       1.18054065E-11
   45.2400017       3.33033358E-11
   45.4199982       5.54614306E-11
   45.5999985       7.78595244E-11
   45.7799988       1.00076822E-10
   45.9599991       1.21721910E-10
   46.1399994       1.42460946E-10
   46.3199997       1.62038147E-10
   46.5000000       1.80284579E-10
   46.6800003       1.97114450E-10
   46.8600006       2.12511009E-10
   47.0400009       2.26506341E-10
   47.2200012       2.39159775E-10
   47.4000015       2.50539312E-10
   47.5800018       2.60707872E-10
   47.7599983       2.69716194E-10
   47.9399986       2.77601497E-10
   48.1199989       2.84392926E-10
   48.2999992       2.90122315E-10
   48.4799995       2.94840152E-10
   48.6599998       2.98633257E-10
   48.8400002       3.01640074E-10
   49.0200005       3.04056197E-10
   49.2000008       3.06124903E-10
   49.3800011       3.08109094E-10
   49.5600014       3.10246134E-10
   49.7400017       3.12694093E-10
   49.9199982       3.15481502E-10
   50.0999985       3.18471804E-10
   50.2799988       3.21354582E-10
   50.4599991       3.23664096E-10
   50.6399994       3.24821559E-10
   50.8199997       3.24191507E-10
   51.0000000       3.21139781E-10
   51.1800003       3.15083709E-10
   51.3600006       3.05529907E-10
   51.5400009       2.92097346E-10
   51.7200012       2.74528122E-10
   51.9000015       2.52688453E-10
   52.0800018       2.26560631E-10
   52.2599983       1.96226022E-10
   52.4399986       1.61838487E-10
   52.6199989       1.23592497E-10
   52.7999992       8.16890791E-11
   52.9799995       3.63081717E-11
   53.1599998      -1.24049833E-11
   53.3400002      -6.43358700E-11
   53.5200005      -1.19379673E-10
   53.7000008      -1.77410170E-10
   53.8800011      -2.38249503E-10
   54.0600014      -3.01648373E-10
   54.2400017      -3.67284314E-10
   54.4199982      -4.34776826E-10
   54.5999985      -5.03716346E-10
   54.7799988      -5.73696868E-10
   54.9599991      -6.44344578E-10
   55.1399994      -7.15337678E-10
   55.3199997      -7.86415710E-10
   55.5000000      -8.57382276E-10
   55.6800003      -9.28103150E-10
   55.8600006      -9.98501837E-10
   56.0400009      -1.06855058E-09
   56.2200012      -1.13825493E-09
   56.4000015      -1.20762800E-09
   56.5800018      -1.27665978E-09
   56.7599983      -1.34528411E-09
   56.9399986      -1.41335421E-09
   57.1199989      -1.48063584E-09
   57.2999992      -1.54681745E-09
   57.4799995      -1.61153946E-09
   57.6599998      -1.67442604E-09
   57.8400002      -1.73511350E-09
   58.0200005      -1.79326209E-09
   58.2000008      -1.84855009E-09
   58.3800011      -1.90065430E-09
   58.5600014      -1.94923011E-09
   58.7400017      -1.99390193E-09
   58.9199982      -2.03427408E-09
   59.0999985      -2.06995798E-09
   59.2799988      -2.10060902E-09
   59.4599991      -2.12596118E-09
   59.6399994      -2.14584661E-09
   59.8199997      -2.16019425E-09
   60.0000000      -2.16901319E-09
   60.1800003      -2.17236584E-09
   60.3600006      -2.17034590E-09
   60.5400009      -2.16306684E-09
   60.7200012      -2.15066764E-09
   60.9000015      -2.13332330E-09
   61.0800018      -2.11125606E-09
   61.2599983      -2.08473860E-09
   61.4399986      -2.05408268E-09
   61.6199989      -2.01961869E-09
   61.7999992      -1.98167194E-09
   61.9799995      -1.94054306E-09
   62.1599998      -1.89649851E-09
   62.3400002      -1.84976712E-09
   62.5200005      -1.80054638E-09
   62.7000008      -1.74900250E-09
   62.8800011      -1.69527026E-09
   63.0600014      -1.63945135E-09
   63.2400017      -1.58161406E-09
   63.4199982      -1.52180524E-09
   63.5999985      -1.46006929E-09
   63.7799988      -1.39647915E-09
   63.9599991      -1.33116040E-09
   64.1399994      -1.26430888E-09
   64.3199997      -1.19618859E-09
   64.5000000      -1.12710863E-09
   64.6800003      -1.05739217E-09
   64.8600006      -9.87343429E-10
   65.0400009      -9.17229626E-10
   65.2200012      -8.47278581E-10
   65.4000015      -7.77697906E-10
   65.5800018      -7.08700543E-10
   65.7600021      -6.40524245E-10
   65.9400024      -5.73438796E-10
   66.1200027      -5.07728748E-10
   66.3000031      -4.43665826E-10
   66.4800034      -3.81476711E-10
   66.6600037      -3.21322302E-10
   66.8399963      -2.63297883E-10
   67.0199966      -2.07453527E-10
   67.1999969      -1.53824703E-10
   67.3799973      -1.02465592E-10
   67.5599976      -5.34642296E-11
   67.7399979      -6.94018844E-12
   67.9199982       3.69782018E-11
   68.0999985       7.81865614E-11
   68.2799988       1.16635646E-10
   68.4599991       1.52349439E-10
   68.6399994       1.85427118E-10
   68.8199997       2.16031165E-10
   69.0000000       2.44373355E-10
   69.1800003       2.70696687E-10
   69.3600006       2.95263175E-10
   69.5400009       3.18344934E-10
   69.7200012       3.40213718E-10
   69.9000015       3.61124242E-10
   70.0800018       3.81293414E-10
   70.2600021       4.00879663E-10
   70.4400024       4.19971030E-10
   70.6200027       4.38588055E-10
   70.8000031       4.56705951E-10
   70.9800034       4.74285222E-10
   71.1600037       4.91310159E-10
   71.3399963       5.07810294E-10
   71.5199966       5.23864951E-10
   71.6999969       5.39586209E-10
   71.8799973       5.55087809E-10
   72.0599976       5.70452630E-10
   72.2399979       5.85713200E-10
   72.4199982       6.00849703E-10
   72.5999985       6.15807239E-10
   72.7799988       6.30524299E-10
   72.9599991       6.44956699E-10
   73.1399994       6.59091226E-10
   73.3199997       6.72942091E-10
   73.5000000       6.86537382E-10
   73.6800003       6.99900082E-10
   73.8600006       7.13038573E-10
   74.0400009       7.25948301E-10
   74.2200012       7.38625328E-10
   74.4000015       7.51082141E-10
   74.5800018       7.63358321E-10
   74.7600021       7.75516151E-10
   74.9400024       7.87621801E-10
   75.1200027       7.99718236E-10
   75.3000031       8.11798906E-10
   75.4800034       8.23794533E-10
   75.6600037       8.35576386E-10
   75.8399963       8.46974879E-10
   76.0199966       8.57805216E-10
   76.1999969       8.67887817E-10
   76.3799973       8.77056705E-10
   76.5599976       8.85151674E-10
   76.7399979       8.92001584E-10
   76.9199982       8.97405150E-10
   77.0999985       9.01120178E-10
   77.2799988       9.02865838E-10
   77.4599991       9.02336483E-10
   77.6399994       8.99222197E-10
   77.8199997       8.93231544E-10
   78.0000000       8.84112505E-10
   78.1800003       8.71671402E-10
   78.3600006       8.55793325E-10
   78.5400009       8.36466396E-10
   78.7200012       8.13809076E-10
   78.9000015       7.88092425E-10
   79.0800018       7.59749375E-10
   79.2600021       7.29359961E-10
   79.4400024       6.97610580E-10
   79.6200027       6.65233479E-10
   79.8000031       6.32937702E-10
   79.9800034       6.01351136E-10
   80.1600037       5.70988534E-10
   80.3399963       5.42252243E-10
   80.5199966       5.15459841E-10
   80.6999969       4.90882890E-10
   80.8799973       4.68777295E-10
   81.0599976       4.49391718E-10
   81.2399979       4.32947567E-10
   81.4199982       4.19599383E-10
   81.5999985       4.09393019E-10
   81.7799988       4.02237965E-10
   81.9599991       3.97905403E-10
   82.1399994       3.96052052E-10
   82.3199997       3.96258498E-10
   82.5000000       3.98065025E-10
   82.6800003       4.00994266E-10
   82.8600006       4.04553502E-10
   83.0400009       4.08225453E-10
   83.2200012       4.11460255E-10
   83.4000015       4.13682810E-10
   83.5800018       4.14321605E-10
   83.7600021       4.12855333E-10
   83.9400024       4.08864775E-10
   84.1200027       4.02073902E-10
   84.3000031       3.92367666E-10
   84.4800034       3.79784565E-10
   84.6600037       3.64488772E-10
   84.8399963       3.46732421E-10
   85.0199966       3.26821015E-10
   85.1999969       3.05085346E-10
   85.3799973       2.81861701E-10
   85.5599976       2.57476679E-10
   85.7399979       2.32233593E-10
   85.9199982       2.06401535E-10
   86.0999985       1.80211623E-10
   86.2799988       1.53868071E-10
   86.4599991       1.27575825E-10
   86.6399994       1.01581750E-10
   86.8199997       7.62154645E-11
   87.0000000       5.19147954E-11
   87.1800003       2.92179128E-11
   87.3600006       8.71816942E-12
   87.5400009      -9.01129345E-12
   87.7200012      -2.35039609E-11
   87.9000015      -3.44708463E-11
   88.0800018      -4.18371067E-11
   88.2600021      -4.57343573E-11
   88.4400024      -4.64569459E-11
   88.6200027      -4.43998831E-11
   88.8000031      -4.00027754E-11
   88.9800034      -3.37151869E-11
   89.1600037      -2.59875663E-11
   89.3399963      -1.72810464E-11
   89.5199966      -8.07918749E-12
   89.6999969       1.11218651E-12
   89.8799973       9.78205104E-12
   90.0599976       1.74443533E-11
   90.2399979       2.36678142E-11
   90.4199982       2.80920807E-11
   90.5999985       3.04237989E-11
   90.7799988       3.04165755E-11
   90.9599991       2.78471742E-11
   91.1399994       2.25022657E-11
   91.3199997       1.41894708E-11
   91.5000000       2.76935527E-12
   91.6800003      -1.18009196E-11
   91.8600006      -2.94285117E-11
   92.0400009      -4.98659898E-11
   92.2200012      -7.27200938E-11
   92.4000015      -9.74825359E-11
   92.5800018      -1.23572208E-10
   92.7600021      -1.50374671E-10
   92.9400024      -1.77269838E-10
   93.1200027      -2.03649445E-10
   93.3000031      -2.28931582E-10
   93.4800034      -2.52580096E-10
   93.6600037      -2.74133327E-10
   93.8399963      -2.93238434E-10
   94.0199966      -3.09675396E-10
   94.1999969      -3.23361449E-10
   94.3799973      -3.34324374E-10
   94.5599976      -3.42652018E-10
   94.7399979      -3.48430923E-10
   94.9199982      -3.51699364E-10
   95.0999985      -3.52428808E-10
   95.2799988      -3.50543927E-10
   95.4599991      -3.45970447E-10
   95.6399994      -3.38691020E-10
   95.8199997      -3.28788885E-10
   96.0000000      -3.16460191E-10
   96.1800003      -3.01995956E-10
   96.3600006      -2.85741736E-10
   96.5400009      -2.68057743E-10
   96.7200012      -2.49293669E-10
   96.9000015      -2.29789882E-10
   97.0800018      -2.09898043E-10
   97.2600021      -1.90009300E-10
   97.4400024      -1.70575193E-10
   97.6200027      -1.52107812E-10
   97.8000031      -1.35160036E-10
   97.9800034      -1.20295968E-10
   98.1600037      -1.08061594E-10
   98.3399963      -9.89692980E-11
   98.5199966      -9.34944969E-11
   98.6999969      -9.20809332E-11
   98.8799973      -9.51385221E-11
   99.0599976      -1.03027552E-10
   99.2399979      -1.16026404E-10
   99.4199982      -1.34289552E-10
   99.5999985      -1.57813485E-10
   99.7799988      -1.86422267E-10
   99.9599991      -2.19781290E-10
   100.139999      -2.57432020E-10
   100.320000      -2.98839120E-10
   100.500000      -3.43427453E-10
   100.680000      -3.90602245E-10
   100.860001      -4.39748599E-10
   101.040001      -4.90217922E-10
   101.220001      -5.41316547E-10
   101.400002      -5.92308147E-10
   101.580002      -6.42432163E-10
   101.760002      -6.90938695E-10
   101.940002      -7.37122585E-10
   102.120003      -7.80348342E-10
   102.300003      -8.20057744E-10
   102.480003      -8.55762572E-10
   102.660004      -8.87031781E-10
   102.839996      -9.13483955E-10
   103.019997      -9.34796907E-10
   103.199997      -9.50730716E-10
   103.379997      -9.61158819E-10
   103.559998      -9.66091540E-10
   103.739998      -9.65684088E-10
   103.919998      -9.60216129E-10
   104.099998      -9.50056034E-10
   104.279999      -9.35614697E-10
   104.459999      -9.17304233E-10
   104.639999      -8.95515440E-10
   104.820000      -8.70608807E-10
   105.000000      -8.42917958E-10
   105.180000      -8.12753864E-10
   105.360001      -7.80400466E-10
   105.540001      -7.46103235E-10
   105.720001      -7.10054071E-10
   105.900002      -6.72385037E-10
   106.080002      -6.33176456E-10
   106.260002      -5.92483507E-10
   106.440002      -5.50375634E-10
   106.620003      -5.06973186E-10
   106.800003      -4.62469729E-10
   106.980003      -4.17134244E-10
   107.160004      -3.71289666E-10
   107.339996      -3.25282412E-10
   107.519997      -2.79452156E-10
   107.699997      -2.34115810E-10
   107.879997      -1.89569915E-10
   108.059998      -1.46106308E-10
   108.239998      -1.04034989E-10
   108.419998      -6.37017453E-11
   108.599998      -2.54920356E-11
   108.779999       1.01770779E-11
   108.959999       4.28768236E-11
   109.139999       7.21888660E-11
   109.320000       9.77262923E-11
   109.500000       1.19151591E-10
   109.680000       1.36189920E-10
   109.860001       1.48643653E-10
   110.040001       1.56408358E-10
   110.220001       1.59489089E-10
   110.400002       1.58012214E-10
   110.580002       1.52227425E-10
   110.760002       1.42491588E-10
   110.940002       1.29238398E-10
   111.120003       1.12936847E-10
   111.300003       9.40505243E-11
   111.480003       7.30121033E-11
   111.660004       5.02210148E-11
   111.839996       2.60678163E-11
   112.019997       9.74846072E-13
   112.199997      -2.45591256E-11
   112.379997      -4.99282352E-11
   112.559998      -7.44169865E-11
   112.739998      -9.72320488E-11
   112.919998      -1.17560073E-10
   113.099998      -1.34643713E-10
   113.279999      -1.47854173E-10
   113.459999      -1.56747781E-10
   113.639999      -1.61095456E-10
   113.820000      -1.60885569E-10
   114.000000      -1.56304053E-10
   114.180000      -1.47701587E-10
   114.360001      -1.35555470E-10
   114.540001      -1.20431082E-10
   114.720001      -1.02947172E-10
   114.900002      -8.37421660E-11
   115.080002      -6.34440764E-11
   115.260002      -4.26456648E-11
   115.440002      -2.18919136E-11
   115.620003      -1.67939621E-12
   115.800003       1.75292801E-11
   115.980003       3.52827663E-11
   116.160004       5.11186753E-11
   116.339996       6.45493242E-11
   116.519997       7.50704152E-11
   116.699997       8.21878815E-11
   116.879997       8.54603818E-11
   117.059998       8.45482920E-11
   117.239998       7.92496277E-11
   117.419998       6.95184327E-11
   117.599998       5.54593073E-11
   117.779999       3.73062033E-11
   117.959999       1.53953742E-11
   118.139999      -9.85447574E-12
   118.320000      -3.79484257E-11
   118.500000      -6.83134799E-11
   118.680000      -1.00296556E-10
   118.860001      -1.33176067E-10
   119.040001      -1.66196806E-10
   119.220001      -1.98624672E-10
   119.400002      -2.29813793E-10
   119.580002      -2.59264499E-10