  -34.5000000         0.00000000    
  -34.3199997         0.00000000    
  -34.1399994         0.00000000    
  -33.9599991        -1.70194345E-28
  -33.7799988        -4.68102666E-25
  -33.5999985        -2.49240662E-24
  -33.4199982        -6.05109562E-24
  -33.2400017        -9.32189043E-24
  -33.0600014        -9.83398422E-24
  -32.8800011         8.10773193E-25
  -32.7000008         3.85334192E-23
  -32.5200005         8.34236500E-23
  -32.3400002         3.06377104E-23
  -32.1599998        -1.29423915E-22
  -31.9799995         1.59978025E-22
  -31.7999992         1.92158317E-21
  -31.6200008         4.72586419E-21
  -31.4400005         4.07724756E-21
  -31.2600002        -6.96257066E-21
  -31.0799999        -2.81548822E-20
  -30.8999996        -4.07579062E-20
  -30.7199993        -1.14826951E-20
  -30.5400009         7.64129093E-20
  -30.3600006         1.79728421E-19
  -30.1800003         1.83874405E-19
  -30.0000000        -3.30188464E-20
  -29.8199997        -4.65792641E-19
  -29.6399994        -8.61516931E-19
  -29.4599991        -7.48274355E-19
  -29.2800007         2.90577641E-19
  -29.1000004         2.16010421E-18
  -28.9200001         3.89437501E-18
  -28.7399998         3.78671787E-18
  -28.5599995         2.46015250E-19
  -28.3799992        -6.83688061E-18
  -28.2000008        -1.49638776E-17
  -28.0200005        -1.91227879E-17
  -27.8400002        -1.36817534E-17
  -27.6599998         4.31589798E-18
  -27.4799995         3.19579575E-17
  -27.2999992         5.93836138E-17
  -27.1200008         7.22322301E-17
  -26.9400005         5.73947275E-17
  -26.7600002         9.90059010E-18
  -26.5799999        -6.23520408E-17
  -26.3999996        -1.38803633E-16
  -26.2199993        -1.92025982E-16
  -26.0400009        -1.97028109E-16
  -25.8600006        -1.40178791E-16
  -25.6800003        -2.40240894E-17
  -25.5000000         1.33581503E-16
  -25.3199997         3.04700515E-16
  -25.1399994         4.57612091E-16
  -24.9599991         5.61052601E-16
  -24.7800007         5.85455568E-16
  -24.6000004         5.03115918E-16
  -24.4200001         2.90752927E-16
  -24.2399998        -6.30656793E-17
  -24.0599995        -5.46522492E-16
  -23.8799992        -1.11410085E-15
  -23.7000008        -1.68409759E-15
  -23.5200005        -2.14968555E-15
  -23.3400002        -2.40405971E-15
  -23.1599998        -2.37369167E-15
  -22.9799995        -2.04865993E-15
  -22.7999992        -1.49861601E-15
  -22.6200008        -8.67337545E-16
  -22.4400005        -3.47514431E-16
  -22.2600002        -1.45471940E-16
  -22.0799999        -4.50075880E-16
  -21.8999996        -1.41763119E-15
  -21.7199993        -3.17641844E-15
  -21.5400009        -5.84376416E-15
  -21.3600006        -9.54123323E-15
  -21.1800003        -1.43924891E-14
  -21.0000000        -2.04974401E-14
  -20.8199997        -2.78877992E-14
  -20.6399994        -3.64825900E-14
  -20.4599991        -4.60653346E-14
  -20.2800007        -5.62977806E-14
  -20.1000004        -6.67698590E-14
  -19.9200001        -7.70696780E-14
  -19.7399998        -8.68436860E-14
  -19.5599995        -9.58230619E-14
  -19.3799992        -1.03805277E-13
  -19.2000008        -1.10599789E-13
  -19.0200005        -1.15965614E-13
  -18.8400002        -1.19572904E-13
  -18.6599998        -1.21009173E-13
  -18.4799995        -1.19832841E-13
  -18.2999992        -1.15652469E-13
  -18.1200008        -1.08200050E-13
  -17.9400005        -9.73681788E-14
  -17.7600002        -8.31987338E-14
  -17.5799999        -6.58311838E-14
  -17.3999996        -4.54371309E-14
  -17.2199993        -2.21701150E-14
  -17.0400009         3.84805755E-15
  -16.8600006         3.25050384E-14
  -16.6800003         6.36558812E-14
  -16.5000000         9.70872485E-14
  -16.3199997         1.32510241E-13
  -16.1399994         1.69587570E-13
  -15.9600000         2.07985200E-13
  -15.7799997         2.47424206E-13
  -15.6000004         2.87710665E-13
  -15.4200001         3.28727497E-13
  -15.2399998         3.70392492E-13
  -15.0600004         4.12595576E-13
  -14.8800001         4.55139615E-13
  -14.6999998         4.97697803E-13
  -14.5200005         5.39798024E-13
  -14.3400002         5.80826240E-13
  -14.1599998         6.20040477E-13
  -13.9799995         6.56587523E-13
  -13.8000002         6.89523146E-13
  -13.6199999         7.17845434E-13
  -13.4399996         7.40547597E-13
  -13.2600002         7.56697060E-13
  -13.0799999         7.65522574E-13
  -12.8999996         7.66487459E-13
  -12.7200003         7.59313294E-13
  -12.5400000         7.43932693E-13
  -12.3599997         7.20366800E-13
  -12.1800003         6.88549586E-13
  -12.0000000         6.48138498E-13
  -11.8199997         5.98359686E-13
  -11.6400003         5.37926203E-13
  -11.4600000         4.65043856E-13
  -11.2799997         3.77505508E-13
  -11.1000004         2.72850536E-13
  -10.9200001         1.48569416E-13
  -10.7399998         2.32831125E-15
  -10.5600004        -1.67798745E-13
  -10.3800001        -3.63107358E-13
  -10.1999998        -5.84063939E-13
  -10.0200005        -8.30153925E-13
  -9.84000015        -1.09980026E-12
  -9.65999985        -1.39036786E-12
  -9.47999954        -1.69825753E-12
  -9.30000019        -2.01907154E-12
  -9.11999989        -2.34781378E-12
  -8.93999958        -2.67908417E-12
  -8.76000023        -3.00722793E-12
  -8.57999992        -3.32641553E-12
  -8.39999962        -3.63065632E-12
  -8.22000027        -3.91375691E-12
  -8.03999996        -4.16927083E-12
  -7.86000013        -4.39046499E-12
  -7.67999983        -4.57034454E-12
  -7.50000000        -4.70174897E-12
  -7.32000017        -4.77754815E-12
  -7.13999987        -4.79090422E-12
  -6.96000004        -4.73561511E-12
  -6.78000021        -4.60648924E-12
  -6.59999990        -4.39972581E-12
  -6.42000008        -4.11324967E-12
  -6.23999977        -3.74696324E-12
  -6.05999994        -3.30286493E-12
  -5.88000011        -2.78500660E-12
  -5.69999981        -2.19930020E-12
  -5.51999998        -1.55319204E-12
  -5.34000015        -8.55268439E-13
  -5.15999985        -1.14838613E-13
  -4.98000002         6.58407194E-13
  -4.80000019         1.45467720E-12
  -4.61999989         2.26424348E-12
  -4.44000006         3.07754668E-12
  -4.26000023         3.88525193E-12
  -4.07999992         4.67830072E-12
  -3.90000010         5.44797887E-12
  -3.72000003         6.18600310E-12
  -3.53999996         6.88460573E-12
  -3.35999990         7.53664232E-12
  -3.18000007         8.13568483E-12
  -3.00000000         8.67612666E-12
  -2.81999993         9.15331352E-12
  -2.64000010         9.56365803E-12
  -2.46000004         9.90476971E-12
  -2.27999997         1.01755297E-11
  -2.09999990         1.03760906E-11
  -1.91999996         1.05077128E-11
  -1.74000001         1.05725402E-11
  -1.55999994         1.05732098E-11
  -1.38000000         1.05124381E-11
  -1.20000005         1.03926069E-11
  -1.01999998         1.02154387E-11
 -0.839999974         9.98176888E-12
 -0.660000026         9.69149153E-12
 -0.479999989         9.34359881E-12
 -0.300000012         8.93635426E-12
 -0.119999997         8.46749927E-12
   5.99999987E-02     7.93451502E-12
  0.239999995         7.33486188E-12
  0.419999987         6.66622400E-12
  0.600000024         5.92673523E-12
  0.779999971         5.11513705E-12
  0.959999979         4.23090165E-12
   1.13999999         3.27429251E-12
   1.32000005         2.24637301E-12
   1.50000000         1.14900884E-12
   1.67999995        -1.51871195E-14
   1.86000001        -1.24273009E-12
   2.03999996        -2.52916394E-12
   2.22000003        -3.86883190E-12
   2.40000010        -5.25465305E-12
   2.57999992        -6.67784751E-12
   2.75999999        -8.12790113E-12
   2.94000006        -9.59253857E-12
   3.11999989        -1.10579280E-11
   3.29999995        -1.25090407E-11
   3.48000002        -1.39300594E-11
   3.66000009        -1.53048043E-11
   3.83999991        -1.66172145E-11
   4.01999998        -1.78516559E-11
   4.19999981        -1.89932722E-11
   4.38000011        -2.00281441E-11
   4.55999994        -2.09434969E-11
   4.73999977        -2.17277359E-11
   4.92000008        -2.23704822E-11
   5.09999990        -2.28625834E-11
   5.28000021        -2.31960545E-11
   5.46000004        -2.33640295E-11
   5.63999987        -2.33607873E-11
   5.82000017        -2.31817152E-11
   6.00000000        -2.28234046E-11
   6.17999983        -2.22836923E-11
   6.36000013        -2.15617298E-11
   6.53999996        -2.06580014E-11
   6.71999979        -1.95742606E-11
   6.90000010        -1.83134445E-11
   7.07999992        -1.68794978E-11
   7.26000023        -1.52772257E-11
   7.44000006        -1.35121931E-11
   7.61999989        -1.15907449E-11
   7.80000019        -9.51992304E-12
   7.98000002        -7.30763020E-12
   8.15999985        -4.96253863E-12
   8.34000015        -2.49413966E-12
   8.52000046         8.74060549E-14
   8.69999981         2.77150655E-12
   8.88000011         5.54726187E-12
   9.06000042         8.40374818E-12
   9.23999977         1.13302839E-11
   9.42000008         1.43165072E-11
   9.60000038         1.73525413E-11
   9.77999973         2.04291688E-11
   9.96000004         2.35378123E-11
   10.1400003         2.66705824E-11
   10.3199997         2.98202470E-11
   10.5000000         3.29800458E-11
   10.6800003         3.61436228E-11
   10.8599997         3.93047608E-11
   11.0400000         4.24572738E-11
   11.2200003         4.55949965E-11
   11.3999996         4.87117256E-11
   11.5799999         5.18014485E-11
   11.7600002         5.48584962E-11
   11.9399996         5.78777443E-11
   12.1199999         6.08548212E-11
   12.3000002         6.37861916E-11
   12.4799995         6.66689551E-11
   12.6599998         6.95008356E-11
   12.8400002         7.22799182E-11
   13.0200005         7.50044332E-11
   13.1999998         7.76726183E-11
   13.3800001         8.02827110E-11
   13.5600004         8.28327754E-11
   13.7399998         8.53208754E-11
   13.9200001         8.77451584E-11
   14.1000004         9.01037647E-11
   14.2799997         9.23950222E-11
   14.4600000         9.46175499E-11
   14.6400003         9.67701752E-11
   14.8199997         9.88521140E-11
   15.0000000         1.00862804E-10
   15.1800003         1.02801871E-10
   15.3599997         1.04669037E-10
   15.5400000         1.06463935E-10
   15.7200003         1.08186134E-10
   15.8999996         1.09835294E-10
   16.0799999         1.11411234E-10
   16.2600002         1.12914324E-10
   16.4400005         1.14345776E-10
   16.6200008         1.15707867E-10
   16.7999992         1.17004018E-10
   16.9799995         1.18238752E-10
   17.1599998         1.19417337E-10
   17.3400002         1.20545504E-10
   17.5200005         1.21628985E-10
   17.7000008         1.22673302E-10
   17.8799992         1.23683702E-10
   18.0599995         1.24665278E-10
   18.2399998         1.25623290E-10
   18.4200001         1.26563662E-10
   18.6000004         1.27493113E-10
   18.7800007         1.28419483E-10
   18.9599991         1.29351599E-10
   19.1399994         1.30299035E-10
   19.3199997         1.31271605E-10
   19.5000000         1.32278813E-10
   19.6800003         1.33329098E-10
   19.8600006         1.34429273E-10
   20.0400009         1.35583947E-10
   20.2199993         1.36795256E-10
   20.3999996         1.38062492E-10
   20.5799999         1.39382311E-10
   20.7600002         1.40748718E-10
   20.9400005         1.42153497E-10
   21.1200008         1.43586393E-10
   21.2999992         1.45035470E-10
   21.4799995         1.46486989E-10
   21.6599998         1.47925477E-10
   21.8400002         1.49333421E-10
   22.0200005         1.50691071E-10
   22.2000008         1.51976237E-10
   22.3799992         1.53164217E-10
   22.5599995         1.54228130E-10
   22.7399998         1.55139374E-10
   22.9200001         1.55868374E-10
   23.1000004         1.56385585E-10
   23.2800007         1.56662350E-10
   23.4599991         1.56671925E-10
   23.6399994         1.56390373E-10
   23.8199997         1.55796875E-10
   24.0000000         1.54874766E-10
   24.1800003         1.53611193E-10
   24.3600006         1.51997734E-10
   24.5400009         1.50030155E-10
   24.7199993         1.47708470E-10
   24.8999996         1.45036497E-10
   25.0799999         1.42021950E-10
   25.2600002         1.38675973E-10
   25.4400005         1.35012890E-10
   25.6200008         1.31050268E-10
   25.7999992         1.26808383E-10
   25.9799995         1.22310204E-10
   26.1599998         1.17580917E-10
   26.3400002         1.12647482E-10
   26.5200005         1.07537854E-10
   26.7000008         1.02280358E-10
   26.8799992         9.69030065E-11
   27.0599995         9.14326045E-11
   27.2399998         8.58941182E-11
   27.4200001         8.03102237E-11
   27.6000004         7.47007733E-11
   27.7800007         6.90824897E-11
   27.9599991         6.34688552E-11
   28.1399994         5.78703405E-11
   28.3199997         5.22945159E-11
   28.5000000         4.67467696E-11
   28.6800003         4.12311262E-11
   28.8600006         3.57511763E-11
   29.0400009         3.03109690E-11
   29.2199993         2.49161559E-11
   29.3999996         1.95747238E-11
   29.5799999         1.42974035E-11
   29.7600002         9.09782232E-12
   29.9400005         3.99234118E-12
   30.1200008        -1.00022334E-12
   30.2999992        -5.85963743E-12
   30.4799995        -1.05643844E-11
   30.6599998        -1.50925106E-11
   30.8400002        -1.94221809E-11
   31.0200005        -2.35319039E-11
   31.2000008        -2.74009149E-11
   31.3799992        -3.10094277E-11
   31.5599995        -3.43387888E-11
   31.7399998        -3.73713595E-11
   31.9200001        -4.00910555E-11
   32.0999985        -4.24830761E-11
   32.2799988        -4.45344421E-11
   32.4599991        -4.62341693E-11
   32.6399994        -4.75738060E-11
   32.8199997        -4.85476381E-11
   33.0000000        -4.91532336E-11
   33.1800003        -4.93915776E-11
   33.3600006        -4.92672153E-11
   33.5400009        -4.87879216E-11
   33.7200012        -4.79647988E-11
   33.9000015        -4.68114505E-11
   34.0800018        -4.53438710E-11
   34.2599983        -4.35798550E-11
   34.4399986        -4.15387898E-11
   34.6199989        -3.92413671E-11
   34.7999992        -3.67090247E-11
   34.9799995        -3.39638109E-11
   35.1599998        -3.10278470E-11
   35.3400002        -2.79227787E-11
   35.5200005        -2.46692146E-11
   35.7000008        -2.12864934E-11
   35.8800011        -1.77921827E-11
   36.0600014        -1.42020692E-11
   36.2400017        -1.05304758E-11
   36.4199982        -6.79044538E-12
   36.5999985        -2.99426759E-12
   36.7799988         8.46060201E-13
   36.9599991         4.71866209E-12
   37.1399994         8.61168255E-12
   37.3199997         1.25135683E-11
   37.5000000         1.64132787E-11
   37.6800003         2.03010022E-11
   37.8600006         2.41685786E-11
   38.0400009         2.80099399E-11
   38.2200012         3.18211013E-11
   38.4000015         3.55999605E-11
   38.5800018         3.93457558E-11
   38.7599983         4.30580432E-11
   38.9399986         4.67354419E-11
   39.1199989         5.03744060E-11
   39.2999992         5.39682014E-11
   39.4799995         5.75059618E-11
   39.6599998         6.09728726E-11
   39.8400002         6.43503237E-11
   40.0200005         6.76170231E-11
   40.2000008         7.07506623E-11
   40.3800011         7.37289743E-11
   40.5600014         7.65321279E-11
   40.7400017         7.91428589E-11
   40.9199982         8.15476436E-11
   41.0999985         8.37365385E-11
   41.2799988         8.57026811E-11
   41.4599991         8.74412209E-11
   41.6399994         8.89493479E-11
   41.8199997         9.02248762E-11
   42.0000000         9.12666748E-11
   42.1800003         9.20749310E-11
   42.3600006         9.26517404E-11
   42.5400009         9.30025015E-11
   42.7200012         9.31366095E-11
   42.9000015         9.30681573E-11
   43.0800018         9.28167890E-11
   43.2599983         9.24073110E-11
   43.4399986         9.18689985E-11
   43.6199989         9.12350195E-11
   43.7999992         9.05409012E-11
   43.9799995         8.98232808E-11
   44.1599998         8.91186500E-11
   44.3400002         8.84623902E-11
   44.5200005         8.78876347E-11
   44.7000008         8.74249215E-11
   44.8800011         8.71018466E-11
   45.0600014         8.69426059E-11
   45.2400017         8.69681410E-11
   45.4199982         8.71961670E-11
   45.5999985         8.76405615E-11
   45.7799988         8.83116844E-11
   45.9599991         8.92164051E-11
   46.1399994         9.03581585E-11
   46.3199997         9.17373191E-11
   46.5000000         9.33522287E-11
   46.6800003         9.51999521E-11
   46.8600006         9.72771655E-11
   47.0400009         9.95813779E-11
   47.2200012         1.02111403E-10
   47.4000015         1.04868246E-10
   47.5800018         1.07854448E-10
   47.7599983         1.11074344E-10
   47.9399986         1.14532890E-10
   48.1199989         1.18235505E-10
   48.2999992         1.22187774E-10
   48.4799995         1.26394561E-10
   48.6599998         1.30861474E-10
   48.8400002         1.35594244E-10
   49.0200005         1.40600101E-10
   49.2000008         1.45888038E-10
   49.3800011         1.51469087E-10
   49.5600014         1.57356461E-10
   49.7400017         1.63564412E-10
   49.9199982         1.70107456E-10
   50.0999985         1.76998916E-10
   50.2799988         1.84249199E-10
   50.4599991         1.91864705E-10
   50.6399994         1.99846181E-10
   50.8199997         2.08188744E-10
   51.0000000         2.16881443E-10
   51.1800003         2.25908292E-10
   51.3600006         2.35248987E-10
   51.5400009         2.44879783E-10
   51.7200012         2.54775256E-10
   51.9000015         2.64908789E-10
   52.0800018         2.75253070E-10
   52.2599983         2.85780372E-10
   52.4399986         2.96462438E-10
   52.6199989         3.07269571E-10
   52.7999992         3.18170629E-10
   52.9799995         3.29132444E-10
   53.1599998         3.40119516E-10
   53.3400002         3.51094209E-10
   53.5200005         3.62017444E-10
   53.7000008         3.72848419E-10
   53.8800011         3.83545751E-10
   54.0600014         3.94067307E-10
   54.2400017         4.04371203E-10
   54.4199982         4.14416113E-10
   54.5999985         4.24161761E-10
   54.7799988         4.33570263E-10
   54.9599991         4.42606340E-10
   55.1399994         4.51239435E-10
   55.3199997         4.59444399E-10
   55.5000000         4.67202055E-10
   55.6800003         4.74500939E-10
   55.8600006         4.81336249E-10
   56.0400009         4.87710095E-10
   56.2200012         4.93629637E-10
   56.4000015         4.99106034E-10
   56.5800018         5.04152220E-10
   56.7599983         5.08781295E-10
   56.9399986         5.13005527E-10
   57.1199989         5.16835408E-10
   57.2999992         5.20280208E-10
   57.4799995         5.23348531E-10
   57.6599998         5.26049371E-10
   57.8400002         5.28393829E-10
   58.0200005         5.30395783E-10
   58.2000008         5.32072053E-10
   58.3800011         5.33442568E-10
   58.5600014         5.34528477E-10
   58.7400017         5.35350930E-10
   58.9199982         5.35929134E-10
   59.0999985         5.36278133E-10
   59.2799988         5.36407974E-10
   59.4599991         5.36322431E-10
   59.6399994         5.36019951E-10
   59.8199997         5.35494038E-10
   60.0000000         5.34734867E-10
   60.1800003         5.33731614E-10
   60.3600006         5.32473787E-10
   60.5400009         5.30952560E-10
   60.7200012         5.29161714E-10
   60.9000015         5.27097532E-10
   61.0800018         5.24757959E-10
   61.2599983         5.22141219E-10
   61.4399986         5.19244148E-10
   61.6199989         5.16060528E-10
   61.7999992         5.12579479E-10
   61.9799995         5.08785403E-10
   62.1599998         5.04657038E-10
   62.3400002         5.00168518E-10
   62.5200005         4.95290531E-10
   62.7000008         4.89991769E-10
   62.8800011         4.84240981E-10
   63.0600014         4.78009132E-10
   63.2400017         4.71270856E-10
   63.4199982         4.64006916E-10
   63.5999985         4.56204907E-10
   63.7799988         4.47861137E-10
   63.9599991         4.38980352E-10
   64.1399994         4.29576319E-10
   64.3199997         4.19671159E-10
   64.5000000         4.09294376E-10
   64.6800003         3.98481498E-10
   64.8600006         3.87272686E-10
   65.0400009         3.75711129E-10
   65.2200012         3.63842345E-10
   65.4000015         3.51713741E-10
   65.5800018         3.39374029E-10
   65.7600021         3.26874500E-10
   65.9400024         3.14269305E-10
   66.1200027         3.01616732E-10
   66.3000031         2.88979729E-10
   66.4800034         2.76425854E-10
   66.6600037         2.64025884E-10
   66.8399963         2.51852400E-10
   67.0199966         2.39975817E-10
   67.1999969         2.28460764E-10
   67.3799973         2.17362239E-10
   67.5599976         2.06722250E-10
   67.7399979         1.96566749E-10
   67.9199982         1.86904978E-10
   68.0999985         1.77730108E-10
   68.2799988         1.69021672E-10
   68.4599991         1.60748956E-10
   68.6399994         1.52874838E-10
   68.8199997         1.45360057E-10
   69.0000000         1.38165882E-10
   69.1800003         1.31255687E-10
   69.3600006         1.24595084E-10
   69.5400009         1.18150351E-10
   69.7200012         1.11885813E-10
   69.9000015         1.05761448E-10
   70.0800018         9.97311608E-11
   70.2600021         9.37406958E-11
   70.4400024         8.77294279E-11
   70.6200027         8.16319443E-11
   70.8000031         7.53822768E-11
   70.9800034         6.89186069E-11
   71.1600037         6.21880533E-11
   71.3399963         5.51518102E-11
   71.5199966         4.77875656E-11
   71.6999969         4.00913400E-11
   71.8799973         3.20764457E-11
   72.0599976         2.37718525E-11
   72.2399979         1.52185105E-11
   72.4199982         6.46500995E-12
   72.5999985        -2.43595183E-12
   72.7799988        -1.14312101E-11
   72.9599991        -2.04686008E-11
   73.1399994        -2.94992468E-11
   73.3199997        -3.84766281E-11
   73.5000000        -4.73568372E-11
   73.6800003        -5.60975953E-11
   73.8600006        -6.46571061E-11
   74.0400009        -7.29943467E-11
   74.2200012        -8.10689640E-11
   74.4000015        -8.88417881E-11
   74.5800018        -9.62770627E-11
   74.7600021        -1.03343820E-10
   74.9400024        -1.10017585E-10
   75.1200027        -1.16282574E-10
   75.3000031        -1.22133109E-10
   75.4800034        -1.27573327E-10
   75.6600037        -1.32618430E-10
   75.8399963        -1.37293385E-10
   76.0199966        -1.41632275E-10
   76.1999969        -1.45675971E-10
   76.3799973        -1.49470644E-10
   76.5599976        -1.53065380E-10
   76.7399979        -1.56509902E-10
   76.9199982        -1.59852021E-10
   77.0999985        -1.63135505E-10
   77.2799988        -1.66398242E-10
   77.4599991        -1.69670500E-10
   77.6399994        -1.72974329E-10
   77.8199997        -1.76323983E-10
   78.0000000        -1.79727025E-10
   78.1800003        -1.83186147E-10
   78.3600006        -1.86701765E-10
   78.5400009        -1.90273935E-10
   78.7200012        -1.93903879E-10
   78.9000015        -1.97594829E-10
   79.0800018        -2.01351200E-10
   79.2600021        -2.05177333E-10
   79.4400024        -2.09075243E-10
   79.6200027        -2.13041973E-10
   79.8000031        -2.17067808E-10
   79.9800034        -2.21134999E-10
   80.1600037        -2.25217109E-10
   80.3399963        -2.29280428E-10
   80.5199966        -2.33286085E-10
   80.6999969        -2.37193293E-10
   80.8799973        -2.40962389E-10
   81.0599976        -2.44558540E-10
   81.2399979        -2.47953574E-10
   81.4199982        -2.51127369E-10
   81.5999985        -2.54067822E-10
   81.7799988        -2.56768995E-10
   81.9599991        -2.59228555E-10
   82.1399994        -2.61444366E-10
   82.3199997        -2.63412209E-10
   82.5000000        -2.65122868E-10
   82.6800003        -2.66561856E-10
   82.8600006        -2.67709105E-10
   83.0400009        -2.68541078E-10
   83.2200012        -2.69032685E-10
   83.4000015        -2.69159944E-10
   83.5800018        -2.68902400E-10
   83.7600021        -2.68244038E-10
   83.9400024        -2.67174532E-10
   84.1200027        -2.65688666E-10
   84.3000031        -2.63785660E-10
   84.4800034        -2.61467736E-10
   84.6600037        -2.58738697E-10
   84.8399963        -2.55602872E-10
   85.0199966        -2.52063898E-10
   85.1999969        -2.48124910E-10
   85.3799973        -2.43787879E-10
   85.5599976        -2.39054637E-10
   85.7399979        -2.33928127E-10
   85.9199982        -2.28413621E-10
   86.0999985        -2.22519891E-10
   86.2799988        -2.16260773E-10
   86.4599991        -2.09656015E-10
   86.6399994        -2.02730943E-10
   86.8199997        -1.95516159E-10
   87.0000000        -1.88046329E-10
   87.1800003        -1.80357854E-10
   87.3600006        -1.72486622E-10
   87.5400009        -1.64465469E-10
   87.7200012        -1.56321650E-10
   87.9000015        -1.48074636E-10
   88.0800018        -1.39734488E-10
   88.2600021        -1.31300457E-10
   88.4400024        -1.22761246E-10
   88.6200027        -1.14095768E-10
   88.8000031        -1.05275004E-10
   88.9800034        -9.62645311E-11
   89.1600037        -8.70285372E-11
   89.3399963        -7.75324249E-11
   89.5199966        -6.77467110E-11
   89.6999969        -5.76489342E-11
   89.8799973        -4.72252654E-11
   90.0599976        -3.64711109E-11
   90.2399979        -2.53897563E-11
   90.4199982        -1.39916282E-11
   90.5999985        -2.29296877E-12
   90.7799988         9.68543128E-12
   90.9599991         2.19188417E-11
   91.1399994         3.43781774E-11
   91.3199997         4.70289467E-11
   91.5000000         5.98298355E-11
   91.6800003         7.27312238E-11
   91.8600006         8.56735516E-11
   92.0400009         9.85867152E-11
   92.2200012         1.11390078E-10
   92.4000015         1.23994148E-10
   92.5800018         1.36302497E-10
   92.7600021         1.48215412E-10
   92.9400024         1.59633765E-10
   93.1200027         1.70462214E-10
   93.3000031         1.80613538E-10
   93.4800034         1.90010244E-10
   93.6600037         1.98586425E-10
   93.8399963         2.06287695E-10
   94.0199966         2.13070825E-10
   94.1999969         2.18902799E-10
   94.3799973         2.23759788E-10
   94.5599976         2.27626806E-10
   94.7399979         2.30497996E-10
   94.9199982         2.32377659E-10
   95.0999985         2.33281394E-10
   95.2799988         2.33237513E-10
   95.4599991         2.32288286E-10
   95.6399994         2.30490141E-10
   95.8199997         2.27913369E-10
   96.0000000         2.24640723E-10
   96.1800003         2.20765545E-10
   96.3600006         2.16388768E-10
   96.5400009         2.11615878E-10
   96.7200012         2.06554079E-10
   96.9000015         2.01309275E-10
   97.0800018         1.95983410E-10
   97.2600021         1.90672714E-10
   97.4400024         1.85466101E-10
   97.6200027         1.80444576E-10
   97.8000031         1.75680331E-10
   97.9800034         1.71236872E-10
   98.1600037         1.67168723E-10
   98.3399963         1.63521321E-10
   98.5199966         1.60331026E-10
   98.6999969         1.57625107E-10
   98.8799973         1.55421620E-10
   99.0599976         1.53730251E-10
   99.2399979         1.52552096E-10
   99.4199982         1.51880980E-10
   99.5999985         1.51703691E-10
   99.7799988         1.52000801E-10
   99.9599991         1.52746663E-10
   100.139999         1.53909635E-10
   100.320000         1.55451776E-10
   100.500000         1.57328955E-10
   100.680000         1.59491365E-10
   100.860001         1.61883465E-10
   101.040001         1.64445610E-10
   101.220001         1.67115391E-10
   101.400002         1.69829567E-10
   101.580002         1.72525896E-10
   101.760002         1.75144760E-10
   101.940002         1.77631104E-10
   102.120003         1.79935011E-10
   102.300003         1.82012669E-10
   102.480003         1.83826149E-10
   102.660004         1.85343213E-10
   102.839996         1.86536939E-10
   103.019997         1.87385329E-10
   103.199997         1.87870983E-10
   103.379997         1.87981367E-10
   103.559998         1.87709140E-10
   103.739998         1.87052776E-10
   103.919998         1.86017687E-10
   104.099998         1.84616711E-10
   104.279999         1.82870163E-10
   104.459999         1.80805843E-10
   104.639999         1.78457499E-10
   104.820000         1.75863449E-10
   105.000000         1.73064105E-10
   105.180000         1.70100101E-10
   105.360001         1.67010614E-10
   105.540001         1.63831684E-10
   105.720001         1.60596605E-10
   105.900002         1.57335631E-10
   106.080002         1.54077570E-10
   106.260002         1.50850651E-10
   106.440002         1.47684170E-10
   106.620003         1.44609713E-10
   106.800003         1.41661280E-10
   106.980003         1.38875550E-10
   107.160004         1.36290618E-10
   107.339996         1.33945008E-10
   107.519997         1.31875413E-10
   107.699997         1.30114697E-10
   107.879997         1.28689948E-10
   108.059998         1.27620400E-10
   108.239998         1.26916422E-10
   108.419998         1.26578206E-10
   108.599998         1.26595998E-10
   108.779999         1.26949992E-10
   108.959999         1.27611047E-10
   109.139999         1.28541983E-10
   109.320000         1.29698696E-10
   109.500000         1.31031866E-10
   109.680000         1.32488673E-10
   109.860001         1.34014522E-10
   110.040001         1.35555261E-10
   110.220001         1.37058712E-10
   110.400002         1.38476661E-10
   110.580002         1.39766199E-10
   110.760002         1.40890383E-10
   110.940002         1.41819195E-10
   111.120003         1.42529294E-10