  -34.5000000         0.00000000    
  -34.3199997         0.00000000    
  -34.1399994         0.00000000    
  -33.9599991         4.59686737E-28
  -33.7799988        -5.52026323E-24
  -33.5999985        -3.51525381E-23
  -33.4199982        -1.10477963E-22
  -33.2400017        -2.14653546E-22
  -33.0600014        -2.40593665E-22
  -32.8800011         2.99810216E-23
  -32.7000008         8.73855329E-22
  -32.5200005         2.42491046E-21
  -32.3400002         4.34805106E-21
  -32.1599998         5.84494787E-21
  -31.9799995         6.45494551E-21
  -31.7999992         6.64004616E-21
  -31.6200008         6.20350563E-21
  -31.4400005         2.16610108E-21
  -31.2600002        -7.92923865E-21
  -31.0799999        -1.86690641E-20
  -30.8999996        -2.32298602E-20
  -30.7199993        -4.37260112E-20
  -30.5400009        -1.44391523E-19
  -30.3600006        -3.53842482E-19
  -30.1800003        -5.07723253E-19
  -30.0000000        -1.94009280E-19
  -29.8199997         9.85133129E-19
  -29.6399994         2.90043458E-18
  -29.4599991         4.58276423E-18
  -29.2800007         4.57831730E-18
  -29.1000004         1.91762242E-18
  -28.9200001        -2.94578145E-18
  -28.7399998        -7.92002772E-18
  -28.5599995        -1.00301398E-17
  -28.3799992        -7.06735092E-18
  -28.2000008         3.54011944E-20
  -28.0200005         4.97797996E-18
  -27.8400002        -3.35844986E-18
  -27.6599998        -3.40656170E-17
  -27.4799995        -8.08547277E-17
  -27.2999992        -1.10079853E-16
  -27.1200008        -6.50313648E-17
  -26.9400005         1.02336317E-16
  -26.7600002         3.79791627E-16
  -26.5799999         6.55318686E-16
  -26.3999996         7.31652766E-16
  -26.2199993         4.15628347E-16
  -26.0400009        -3.45539547E-16
  -25.8600006        -1.35697823E-15
  -25.6800003        -2.18403380E-15
  -25.5000000        -2.31384477E-15
  -25.3199997        -1.42063614E-15
  -25.1399994         3.94687601E-16
  -24.9599991         2.53595926E-15
  -24.7800007         4.08991383E-15
  -24.6000004         4.20131561E-15
  -24.4200001         2.48235393E-15
  -24.2399998        -7.41530864E-16
  -24.0599995        -4.48106857E-15
  -23.8799992        -7.42551010E-15
  -23.7000008        -8.44045377E-15
  -23.5200005        -7.01136858E-15
  -23.3400002        -3.44109549E-15
  -23.1599998         1.29189984E-15
  -22.9799995         5.96917713E-15
  -22.7999992         9.68766320E-15
  -22.6200008         1.22899771E-14
  -22.4400005         1.44463892E-14
  -22.2600002         1.72874851E-14
  -22.0799999         2.16779872E-14
  -21.8999996         2.74122698E-14
  -21.7199993         3.27107150E-14
  -21.5400009         3.43348668E-14
  -21.3600006         2.84154499E-14
  -21.1800003         1.17825451E-14
  -21.0000000        -1.66591357E-14
  -20.8199997        -5.50258759E-14
  -20.6399994        -9.83679894E-14
  -20.4599991        -1.39424618E-13
  -20.2800007        -1.69935883E-13
  -20.1000004        -1.82086198E-13
  -19.9200001        -1.69733070E-13
  -19.7399998        -1.29298292E-13
  -19.5599995        -6.03973861E-14
  -19.3799992         3.36796766E-14
  -19.2000008         1.45664391E-13
  -19.0200005         2.64405305E-13
  -18.8400002         3.75654667E-13
  -18.6599998         4.63677328E-13
  -18.4799995         5.13463512E-13
  -18.2999992         5.12996980E-13
  -18.1200008         4.54924835E-13
  -17.9400005         3.37197338E-13
  -17.7600002         1.62704797E-13
  -17.5799999        -6.16163208E-14
  -17.3999996        -3.25519776E-13
  -17.2199993        -6.15503471E-13
  -17.0400009        -9.14072529E-13
  -16.8600006        -1.19864524E-12
  -16.6800003        -1.44091997E-12
  -16.5000000        -1.60764284E-12
  -16.3199997        -1.66350592E-12
  -16.1399994        -1.57635157E-12
  -15.9600000        -1.32407670E-12
  -15.7799997        -9.01786295E-13
  -15.6000004        -3.27159361E-13
  -15.4200001         3.58014345E-13
  -15.2399998         1.09139108E-12
  -15.0600004         1.79855165E-12
  -14.8800001         2.40464246E-12
  -14.6999998         2.84629156E-12
  -14.5200005         3.08083940E-12
  -14.3400002         3.09089755E-12
  -14.1599998         2.88387391E-12
  -13.9799995         2.48761168E-12
  -13.8000002         1.94408357E-12
  -13.6199999         1.30295915E-12
  -13.4399996         6.16154046E-13
  -13.2600002        -6.63324579E-14
  -13.0799999        -6.99498077E-13
  -12.8999996        -1.24569040E-12
  -12.7200003        -1.67655213E-12
  -12.5400000        -1.97479207E-12
  -12.3599997        -2.13589801E-12
  -12.1800003        -2.16961085E-12
  -12.0000000        -2.10051160E-12
  -11.8199997        -1.96662304E-12
  -11.6400003        -1.81492321E-12
  -11.4600000        -1.69336019E-12
  -11.2799997        -1.64029088E-12
  -11.1000004        -1.67369092E-12
  -10.9200001        -1.78329161E-12
  -10.7399998        -1.92847799E-12
  -10.5600004        -2.04341448E-12
  -10.3800001        -2.04891052E-12
  -10.1999998        -1.86877206E-12
  -10.0200005        -1.44725811E-12
  -9.84000015        -7.63998240E-13
  -9.65999985         1.56814272E-13
  -9.47999954         1.24507034E-12
  -9.30000019         2.39185299E-12
  -9.11999989         3.46384596E-12
  -8.93999958         4.32227691E-12
  -8.76000023         4.84264972E-12
  -8.57999992         4.93166185E-12
  -8.39999962         4.53894040E-12
  -8.22000027         3.66303949E-12
  -8.03999996         2.35270505E-12
  -7.86000013         7.04857884E-13
  -7.67999983        -1.13990111E-12
  -7.50000000        -3.00478566E-12
  -7.32000017        -4.68871860E-12
  -7.13999987        -5.98383105E-12
  -6.96000004        -6.69837276E-12
  -6.78000021        -6.68276632E-12
  -6.59999990        -5.85478280E-12
  -6.42000008        -4.21900665E-12
  -6.23999977        -1.87613033E-12
  -6.05999994         9.80970838E-13
  -5.88000011         4.08539522E-12
  -5.69999981         7.12724714E-12
  -5.51999998         9.79362771E-12
  -5.34000015         1.18115032E-11
  -5.15999985         1.29858910E-11
  -4.98000002         1.32258883E-11
  -4.80000019         1.25530463E-11
  -4.61999989         1.10901470E-11
  -4.44000006         9.03287254E-12
  -4.26000023         6.61052636E-12
  -4.07999992         4.04419293E-12
  -3.90000010         1.51077414E-12
  -3.72000003        -8.80436891E-13
  -3.53999996        -3.09481976E-12
  -3.35999990        -5.16268148E-12
  -3.18000007        -7.15540257E-12
  -3.00000000        -9.15295183E-12
  -2.81999993        -1.12100312E-11
  -2.64000010        -1.33284382E-11
  -2.46000004        -1.54417659E-11
  -2.27999997        -1.74153972E-11
  -2.09999990        -1.90609351E-11
  -1.91999996        -2.01610915E-11
  -1.74000001        -2.04996384E-11
  -1.55999994        -1.98916682E-11
  -1.38000000        -1.82110264E-11
  -1.20000005        -1.54132627E-11
  -1.01999998        -1.15524873E-11
 -0.839999974        -6.78985861E-12
 -0.660000026        -1.39042760E-12
 -0.479999989         4.29440684E-12
 -0.300000012         9.85932256E-12
 -0.119999997         1.48893623E-11
   5.99999987E-02     1.90096636E-11
  0.239999995         2.19323223E-11
  0.419999987         2.34921960E-11
  0.600000024         2.36653648E-11
  0.779999971         2.25670888E-11
  0.959999979         2.04294238E-11
   1.13999999         1.75623387E-11
   1.32000005         1.43051057E-11
   1.50000000         1.09770092E-11
   1.67999995         7.83664193E-12
   1.86000001         5.05698955E-12
   2.03999996         2.71947720E-12
   2.22000003         8.25294206E-13
   2.40000010        -6.81507476E-13
   2.57999992        -1.88615941E-12
   2.75999999        -2.87683571E-12
   2.94000006        -3.72377042E-12
   3.11999989        -4.46558242E-12
   3.29999995        -5.10310934E-12
   3.48000002        -5.60057903E-12
   3.66000009        -5.89358163E-12
   3.83999991        -5.90282120E-12
   4.01999998        -5.55139051E-12
   4.19999981        -4.78267599E-12
   4.38000011        -3.57582475E-12
   4.55999994        -1.95650484E-12
   4.73999977        -1.65073847E-15
   4.92000008         2.16238702E-12
   5.09999990         4.36869768E-12
   5.28000021         6.42600426E-12
   5.46000004         8.14152478E-12
   5.63999987         9.34792695E-12
   5.82000017         9.92941319E-12
   6.00000000         9.84061617E-12
   6.17999983         9.11301416E-12
   6.36000013         7.84682215E-12
   6.53999996         6.19086726E-12
   6.71999979         4.31649074E-12
   6.90000010         2.39249896E-12
   7.07999992         5.66565458E-13
   7.26000023        -1.04514336E-12
   7.44000006        -2.36145630E-12
   7.61999989        -3.33585872E-12
   7.80000019        -3.95539764E-12
   7.98000002        -4.24023620E-12
   8.15999985        -4.24386351E-12
   8.34000015        -4.05288129E-12
   8.52000046        -3.78468871E-12
   8.69999981        -3.58182386E-12
   8.88000011        -3.60203035E-12
   9.06000042        -4.00409393E-12
   9.23999977        -4.93098574E-12
   9.42000008        -6.49290691E-12
   9.60000038        -8.75358119E-12
   9.77999973        -1.17224737E-11
   9.96000004        -1.53537825E-11
   10.1400003        -1.95508540E-11
   10.3199997        -2.41735867E-11
   10.5000000        -2.90462585E-11
   10.6800003        -3.39651744E-11
   10.8599997        -3.87068259E-11
   11.0400000        -4.30376811E-11
   11.2200003        -4.67259530E-11
   11.3999996        -4.95536320E-11
   11.5799999        -5.13263841E-11
   11.7600002        -5.18796915E-11
   11.9399996        -5.10821732E-11
   12.1199999        -4.88391202E-11
   12.3000002        -4.50999897E-11
   12.4799995        -3.98711515E-11
   12.6599998        -3.32320942E-11
   12.8400002        -2.53496547E-11
   13.0200005        -1.64839843E-11
   13.1999998        -6.98205643E-12
   13.3800001         2.74213031E-12
   13.5600004         1.22376805E-11
   13.7399998         2.10527516E-11
   13.9200001         2.87702934E-11
   14.1000004         3.50395372E-11
   14.2799997         3.95994695E-11
   14.4600000         4.22923328E-11
   14.6400003         4.30663248E-11
   14.8199997         4.19683975E-11
   15.0000000         3.91299007E-11
   15.1800003         3.47479163E-11
   15.3599997         2.90645980E-11
   15.5400000         2.23467512E-11
   15.7200003         1.48648281E-11
   15.8999996         6.87217557E-12
   16.0799999        -1.41276205E-12
   16.2600002        -9.81823563E-12
   16.4400005        -1.82205639E-11
   16.6200008        -2.65339452E-11
   16.7999992        -3.46918189E-11
   16.9799995        -4.26258022E-11
   17.1599998        -5.02517819E-11
   17.3400002        -5.74667675E-11
   17.5200005        -6.41580955E-11
   17.7000008        -7.02187267E-11
   17.8799992        -7.55613280E-11
   18.0599995        -8.01234704E-11
   18.2399998        -8.38611819E-11
   18.4200001        -8.67318578E-11
   18.6000004        -8.86716325E-11
   18.7800007        -8.95746533E-11
   18.9599991        -8.92821650E-11
   19.1399994        -8.75864589E-11
   19.3199997        -8.42525702E-11
   19.5000000        -7.90574967E-11
   19.6800003        -7.18388057E-11
   19.8600006        -6.25428945E-11
   20.0400009        -5.12594966E-11
   20.2199993        -3.82339611E-11
   20.3999996        -2.38526473E-11
   20.5799999        -8.60820356E-12
   20.7600002         6.94715292E-12
   20.9400005         2.22466611E-11
   21.1200008         3.67446629E-11
   21.2999992         4.99398821E-11
   21.4799995         6.13874854E-11
   21.6599998         7.07066489E-11
   21.8400002         7.75868675E-11
   22.0200005         8.17969234E-11
   22.2000008         8.31956656E-11
   22.3799992         8.17440421E-11
   22.5599995         7.75140646E-11
   22.7399998         7.06923339E-11
   22.9200001         6.15742526E-11
   23.1000004         5.05460708E-11
   23.2800007         3.80574010E-11
   23.4599991         2.45853598E-11
   23.6399994         1.06022240E-11
   23.8199997        -3.44889698E-12
   24.0000000        -1.71626185E-11
   24.1800003        -3.01654916E-11
   24.3600006        -4.21024327E-11
   24.5400009        -5.26214940E-11
   24.7199993        -6.13693471E-11
   24.8999996        -6.79979337E-11
   25.0799999        -7.21847720E-11
   25.2600002        -7.36626871E-11
   25.4400005        -7.22547785E-11
   25.6200008        -6.79074852E-11
   25.7999992        -6.07179307E-11
   25.9799995        -5.09465525E-11
   26.1599998        -3.90100209E-11
   26.3400002        -2.54527944E-11
   26.5200005        -1.08960263E-11
   26.7000008         4.02498260E-12
   26.8799992         1.87244491E-11
   27.0599995         3.27169403E-11
   27.2399998         4.56495917E-11
   27.4200001         5.73092337E-11
   27.6000004         6.76109724E-11
   27.7800007         7.65724983E-11
   27.9599991         8.42813111E-11
   28.1399994         9.08631781E-11
   28.3199997         9.64565441E-11
   28.5000000         1.01197849E-10
   28.6800003         1.05218452E-10
   28.8600006         1.08651650E-10
   29.0400009         1.11643403E-10
   29.2199993         1.14357350E-10
   29.3999996         1.16969143E-10
   29.5799999         1.19646709E-10
   29.7600002         1.22525032E-10
   29.9400005         1.25678579E-10
   30.1200008         1.29105365E-10
   30.2999992         1.32728842E-10
   30.4799995         1.36412645E-10
   30.6599998         1.39990505E-10
   30.8400002         1.43299761E-10
   31.0200005         1.46211501E-10
   31.2000008         1.48653381E-10
   31.3799992         1.50615811E-10
   31.5599995         1.52143645E-10
   31.7399998         1.53309185E-10
   31.9200001         1.54174659E-10
   32.0999985         1.54750768E-10
   32.2799988         1.54965582E-10
   32.4599991         1.54652735E-10
   32.6399994         1.53563023E-10
   32.8199997         1.51398866E-10
   33.0000000         1.47860668E-10
   33.1800003         1.42695036E-10
   33.3600006         1.35735548E-10
   33.5400009         1.26931451E-10
   33.7200012         1.16358562E-10
   33.9000015         1.04214304E-10
   34.0800018         9.07961345E-11
   34.2599983         7.64635855E-11
   34.4399986         6.15910656E-11
   34.6199989         4.65180221E-11
   34.7999992         3.15101382E-11
   34.9799995         1.67392159E-11
   35.1599998         2.28798707E-12
   35.3400002        -1.18234224E-11
   35.5200005        -2.55972778E-11
   35.7000008        -3.90134279E-11
   35.8800011        -5.19949327E-11
   36.0600014        -6.43862949E-11
   36.2400017        -7.59538821E-11
   36.4199982        -8.64054869E-11
   36.5999985        -9.54297960E-11
   36.7799988        -1.02744847E-10
   36.9599991        -1.08146624E-10
   37.1399994        -1.11549055E-10
   37.3199997        -1.12999041E-10
   37.5000000        -1.12671907E-10
   37.6800003        -1.10846984E-10
   37.8600006        -1.07872655E-10
   38.0400009        -1.04130003E-10
   38.2200012        -9.99993768E-11
   38.4000015        -9.58315996E-11
   38.5800018        -9.19238574E-11
   38.7599983        -8.84968973E-11
   38.9399986        -8.56838073E-11
   39.1199989        -8.35270603E-11
   39.2999992        -8.19937104E-11
   39.4799995        -8.10009143E-11
   39.6599998        -8.04471767E-11
   39.8400002        -8.02379552E-11
   40.0200005        -8.02980599E-11
   40.2000008        -8.05679204E-11
   40.3800011        -8.09876124E-11
   40.5600014        -8.14770681E-11
   40.7400017        -8.19209076E-11
   40.9199982        -8.21603410E-11
   41.0999985        -8.20023077E-11
   41.2799988        -8.12388976E-11
   41.4599991        -7.96774383E-11
   41.6399994        -7.71738784E-11
   41.8199997        -7.36593564E-11
   42.0000000        -6.91546750E-11
   42.1800003        -6.37618014E-11
   42.3600006        -5.76387722E-11
   42.5400009        -5.09600209E-11
   42.7200012        -4.38773878E-11
   42.9000015        -3.64879134E-11
   43.0800018        -2.88203454E-11
   43.2599983        -2.08373804E-11
   43.4399986        -1.24544758E-11
   43.6199989        -3.57020663E-12
   43.7999992         5.89438134E-12
   43.9799995         1.59513357E-11
   44.1599998         2.65011329E-11
   44.3400002         3.72979772E-11
   44.5200005         4.79366720E-11
   44.7000008         5.78686994E-11
   44.8800011         6.64515595E-11
   45.0600014         7.30199998E-11
   45.2400017         7.69700345E-11
   45.4199982         7.78333162E-11
   45.5999985         7.53354809E-11
   45.7799988         6.94247507E-11
   45.9599991         6.02770056E-11
   46.1399994         4.82760082E-11
   46.3199997         3.39762316E-11
   46.5000000         1.80544121E-11
   46.6800003         1.25571829E-12
   46.8600006        -1.56579315E-11
   47.0400009        -3.19538875E-11
   47.2200012        -4.69655356E-11
   47.4000015        -6.01218034E-11
   47.5800018        -7.09747747E-11
   47.7599983        -7.92242383E-11
   47.9399986        -8.47413459E-11
   48.1199989        -8.75849879E-11
   48.2999992        -8.80028342E-11
   48.4799995        -8.64151667E-11
   48.6599998        -8.33812325E-11
   48.8400002        -7.95544533E-11
   49.0200005        -7.56314525E-11
   49.2000008        -7.23020255E-11
   49.3800011        -7.01987080E-11
   49.5600014        -6.98514857E-11
   49.7400017        -7.16495058E-11
   49.9199982        -7.58151944E-11
   50.0999985        -8.23950422E-11
   50.2799988        -9.12676740E-11
   50.4599991        -1.02164423E-10
   50.6399994        -1.14696058E-10
   50.8199997        -1.28374145E-10
   51.0000000        -1.42632323E-10
   51.1800003        -1.56844177E-10
   51.3600006        -1.70355396E-10
   51.5400009        -1.82529700E-10
   51.7200012        -1.92814834E-10
   51.9000015        -2.00815087E-10
   52.0800018        -2.06358861E-10
   52.2599983        -2.09542994E-10
   52.4399986        -2.10742812E-10
   52.6199989        -2.10580553E-10
   52.7999992        -2.09854092E-10
   52.9799995        -2.09434525E-10
   53.1599998        -2.10149079E-10
   53.3400002        -2.12671949E-10
   53.5200005        -2.17439525E-10
   53.7000008        -2.24615770E-10
   53.8800011        -2.34101877E-10
   54.0600014        -2.45593185E-10
   54.2400017        -2.58653987E-10
   54.4199982        -2.72795286E-10
   54.5999985        -2.87534246E-10
   54.7799988        -3.02425723E-10
   54.9599991        -3.17072757E-10
   55.1399994        -3.31122380E-10
   55.3199997        -3.44255374E-10
   55.5000000        -3.56180224E-10
   55.6800003        -3.66631253E-10
   55.8600006        -3.75371595E-10
   56.0400009        -3.82208404E-10
   56.2200012        -3.87010812E-10
   56.4000015        -3.89736826E-10
   56.5800018        -3.90456861E-10
   56.7599983        -3.89366483E-10
   56.9399986        -3.86778332E-10
   57.1199989        -3.83087395E-10
   57.2999992        -3.78718584E-10
   57.4799995        -3.74059506E-10
   57.6599998        -3.69391323E-10
   57.8400002        -3.64828084E-10
   58.0200005        -3.60266456E-10
   58.2000008        -3.55359964E-10
   58.3800011        -3.49520635E-10
   58.5600014        -3.41952466E-10
   58.7400017        -3.31721983E-10
   58.9199982        -3.17857185E-10
   59.0999985        -2.99457292E-10
   59.2799988        -2.75798467E-10
   59.4599991        -2.46410559E-10
   59.6399994        -2.11121759E-10
   59.8199997        -1.70057177E-10
   60.0000000        -1.23612440E-10
   60.1800003        -7.23932650E-11
   60.3600006        -1.71502066E-11
   60.5400009         4.12925250E-11
   60.7200012         1.02098621E-10
   60.9000015         1.64467759E-10
   61.0800018         2.27661265E-10
   61.2599983         2.91002167E-10
   61.4399986         3.53872515E-10
   61.6199989         4.15704138E-10
   61.7999992         4.75977091E-10
   61.9799995         5.34231992E-10
   62.1599998         5.90086868E-10
   62.3400002         6.43236353E-10
   62.5200005         6.93447633E-10
   62.7000008         7.40534245E-10
   62.8800011         7.84318721E-10
   63.0600014         8.24603164E-10
   63.2400017         8.61153870E-10
   63.4199982         8.93699836E-10
   63.5999985         9.21965837E-10
   63.7799988         9.45701517E-10
   63.9599991         9.64737179E-10
   64.1399994         9.79020309E-10
   64.3199997         9.88642057E-10
   64.5000000         9.93845450E-10
   64.6800003         9.94998195E-10
   64.8600006         9.92535165E-10
   65.0400009         9.86889903E-10
   65.2200012         9.78418235E-10
   65.4000015         9.67356972E-10
   65.5800018         9.53808255E-10
   65.7600021         9.37772193E-10
   65.9400024         9.19204657E-10
   66.1200027         8.98086883E-10
   66.3000031         8.74486206E-10
   66.4800034         8.48588588E-10
   66.6600037         8.20694290E-10
   66.8399963         7.91184840E-10
   67.0199966         7.60452590E-10
   67.1999969         7.28822946E-10
   67.3799973         6.96481983E-10
   67.5599976         6.63433530E-10
   67.7399979         6.29514108E-10
   67.9199982         5.94447047E-10
   68.0999985         5.57964341E-10
   68.2799988         5.19918109E-10
   68.4599991         4.80403606E-10
   68.6399994         4.39812048E-10
   68.8199997         3.98828498E-10
   69.0000000         3.58374386E-10
   69.1800003         3.19490295E-10
   69.3600006         2.83223639E-10
   69.5400009         2.50499566E-10
   69.7200012         2.22040594E-10
   69.9000015         1.98319652E-10
   70.0800018         1.79551346E-10
   70.2600021         1.65736133E-10
   70.4400024         1.56706884E-10
   70.6200027         1.52196422E-10
   70.8000031         1.51873167E-10
   70.9800034         1.55362140E-10
   71.1600037         1.62242705E-10
   71.3399963         1.72022924E-10
   71.5199966         1.84118873E-10
   71.6999969         1.97839814E-10
   71.8799973         2.12384152E-10
   72.0599976         2.26847263E-10
   72.2399979         2.40225700E-10
   72.4199982         2.51432930E-10
   72.5999985         2.59327670E-10
   72.7799988         2.62770916E-10
   72.9599991         2.60717614E-10
   73.1399994         2.52325660E-10
   73.3199997         2.37090819E-10
   73.5000000         2.14945506E-10
   73.6800003         1.86328855E-10
   73.8600006         1.52187082E-10
   74.0400009         1.13909458E-10
   74.2200012         7.32029090E-11
   74.4000015         3.19157964E-11
   74.5800018        -8.15747036E-12
   74.7600021        -4.54660129E-11
   74.9400024        -7.88482682E-11
   75.1200027        -1.07621294E-10
   75.3000031        -1.31604061E-10
   75.4800034        -1.51069102E-10
   75.6600037        -1.66658506E-10
   75.8399963        -1.79271889E-10
   76.0199966        -1.89950236E-10
   76.1999969        -1.99768563E-10
   76.3799973        -2.09732148E-10
   76.5599976        -2.20689009E-10
   76.7399979        -2.33261743E-10
   76.9199982        -2.47821486E-10
   77.0999985        -2.64496036E-10
   77.2799988        -2.83217116E-10
   77.4599991        -3.03795822E-10
   77.6399994        -3.26003030E-10
   77.8199997        -3.49629853E-10
   78.0000000        -3.74512393E-10
   78.1800003        -4.00517924E-10
   78.3600006        -4.27498176E-10
   78.5400009        -4.55223970E-10
   78.7200012        -4.83325102E-10
   78.9000015        -5.11244158E-10
   79.0800018        -5.38228462E-10
   79.2600021        -5.63357139E-10
   79.4400024        -5.85612725E-10
   79.6200027        -6.03976869E-10
   79.8000031        -6.17548179E-10
   79.9800034        -6.25635765E-10
   80.1600037        -6.27841001E-10
   80.3399963        -6.24090057E-10
   80.5199966        -6.14651441E-10
   80.6999969        -6.00112682E-10
   80.8799973        -5.81340365E-10
   81.0599976        -5.59412128E-10
   81.2399979        -5.35515021E-10
   81.4199982        -5.10828768E-10
   81.5999985        -4.86385154E-10
   81.7799988        -4.62944599E-10
   81.9599991        -4.40909947E-10
   82.1399994        -4.20293439E-10
   82.3199997        -4.00754263E-10
   82.5000000        -3.81690374E-10
   82.6800003        -3.62361918E-10
   82.8600006        -3.42030682E-10
   83.0400009        -3.20083654E-10
   83.2200012        -2.96129454E-10
   83.4000015        -2.70051037E-10
   83.5800018        -2.42015380E-10
   83.7600021        -2.12439399E-10
   83.9400024        -1.81915247E-10
   84.1200027        -1.51126167E-10
   84.3000031        -1.20758625E-10
   84.4800034        -9.14284273E-11
   84.6600037        -6.36365960E-11
   84.8399963        -3.77362516E-11
   85.0199966        -1.39229375E-11
   85.1999969         7.76180509E-12
   85.3799973         2.74132175E-11
   85.5599976         4.52284182E-11
   85.7399979         6.14618287E-11
   85.9199982         7.63803049E-11
   86.0999985         9.02257713E-11
   86.2799988         1.03191691E-10
   86.4599991         1.15419604E-10
   86.6399994         1.26998356E-10
   86.8199997         1.37957770E-10
   87.0000000         1.48251730E-10
   87.1800003         1.57725222E-10
   87.3600006         1.66084216E-10
   87.5400009         1.72883680E-10
   87.7200012         1.77546103E-10
   87.9000015         1.79411125E-10
   88.0800018         1.77815193E-10
   88.2600021         1.72178771E-10
   88.4400024         1.62090494E-10
   88.6200027         1.47376916E-10
   88.8000031         1.28141289E-10
   88.9800034         1.04765016E-10
   89.1600037         7.78671294E-11
   89.3399963         4.82266518E-11
   89.5199966         1.66902967E-11
   89.6999969        -1.59086268E-11
   89.8799973        -4.88044292E-11
   90.0599976        -8.13148576E-11
   90.2399979        -1.12826651E-10
   90.4199982        -1.42771767E-10
   90.5999985        -1.70611900E-10
   90.7799988        -1.95850128E-10
   90.9599991        -2.18067286E-10
   91.1399994        -2.36976272E-10
   91.3199997        -2.52478344E-10
   91.5000000        -2.64700817E-10
   91.6800003        -2.74009510E-10
   91.8600006        -2.80989870E-10
   92.0400009        -2.86398905E-10
   92.2200012        -2.91093538E-10
   92.4000015        -2.95944907E-10
   92.5800018        -3.01754177E-10
   92.7600021        -3.09181097E-10
   92.9400024        -3.18693072E-10
   93.1200027        -3.30537597E-10
   93.3000031        -3.44728468E-10
   93.4800034        -3.61032121E-10
   93.6600037        -3.78960502E-10
   93.8399963        -3.97769984E-10
   94.0199966        -4.16487594E-10
   94.1999969        -4.33976272E-10
   94.3799973        -4.49035809E-10
   94.5599976        -4.60531446E-10
   94.7399979        -4.67518413E-10
   94.9199982        -4.69344397E-10
   95.0999985        -4.65708916E-10
   95.2799988        -4.56679694E-10
   95.4599991        -4.42674730E-10
   95.6399994        -4.24425439E-10
   95.8199997        -4.02928746E-10
   96.0000000        -3.79395321E-10
   96.1800003        -3.55179636E-10
   96.3600006        -3.31690370E-10
   96.5400009        -3.10278220E-10
   96.7200012        -2.92105840E-10
   96.9000015        -2.78022189E-10
   97.0800018        -2.68455008E-10
   97.2600021        -2.63352840E-10
   97.4400024        -2.62189770E-10
   97.6200027        -2.64048367E-10
   97.8000031        -2.67768224E-10
   97.9800034        -2.72137257E-10
   98.1600037        -2.76079659E-10
   98.3399963        -2.78790324E-10
   98.5199966        -2.79799656E-10
   98.6999969        -2.78955192E-10
   98.8799973        -2.76350970E-10
   99.0599976        -2.72234735E-10
   99.2399979        -2.66925815E-10
   99.4199982        -2.60762328E-10
   99.5999985        -2.54073346E-10
   99.7799988        -2.47161569E-10
   99.9599991        -2.40294507E-10
   100.139999        -2.33679048E-10
   100.320000        -2.27438832E-10
   100.500000        -2.21595006E-10
   100.680000        -2.16052259E-10
   100.860001        -2.10607420E-10
   101.040001        -2.04963921E-10
   101.220001        -1.98749350E-10
   101.400002        -1.91545640E-10
   101.580002        -1.82906079E-10
   101.760002        -1.72381914E-10
   101.940002        -1.59541463E-10
   102.120003        -1.43990833E-10
   102.300003        -1.25394722E-10
   102.480003        -1.03509375E-10
   102.660004        -7.82131096E-11
   102.839996        -4.95447433E-11
   103.019997        -1.77286172E-11
   103.199997         1.68272445E-11
   103.379997         5.35632962E-11
   103.559998         9.18139106E-11
   103.739998         1.30858310E-10
   103.919998         1.69963890E-10
   104.099998         2.08406223E-10
   104.279999         2.45481219E-10
   104.459999         2.80520468E-10
   104.639999         3.12934428E-10
   104.820000         3.42281731E-10
   105.000000         3.68353265E-10
   105.180000         3.91256222E-10
   105.360001         4.11452650E-10
   105.540001         4.29738273E-10
   105.720001         4.47155618E-10
   105.900002         4.64841748E-10
   106.080002         4.83853790E-10
   106.260002         5.04984055E-10
   106.440002         5.28612931E-10
   106.620003         5.54621626E-10
   106.800003         5.82378534E-10
   106.980003         6.10818229E-10
   107.160004         6.38581521E-10
   107.339996         6.64203026E-10
   107.519997         6.86295576E-10
   107.699997         7.03714920E-10
   107.879997         7.15660864E-10
   108.059998         7.21742444E-10
   108.239998         7.21977200E-10
   108.419998         7.16762816E-10
   108.599998         7.06809888E-10
   108.779999         6.93050839E-10
   108.959999         6.76536382E-10
   109.139999         6.58325561E-10
   109.320000         6.39382047E-10
   109.500000         6.20497931E-10
   109.680000         6.02252304E-10
   109.860001         5.84995941E-10
   110.040001         5.68871839E-10
   110.220001         5.53849799E-10
   110.400002         5.39769229E-10
   110.580002         5.26387711E-10
   110.760002         5.13420861E-10
   110.940002         5.00580910E-10
   111.120003         4.87590190E-10