  -34.5000000         0.00000000    
  -34.3199997         0.00000000    
  -34.1399994         0.00000000    
  -33.9599991         0.00000000    
  -33.7799988         3.03898464E-26
  -33.5999985         9.81151273E-25
  -33.4199982         5.34236090E-24
  -33.2400017         4.96003591E-24
  -33.0600014        -3.77469691E-23
  -32.8800011        -1.12629635E-22
  -32.7000008        -1.39469535E-23
  -32.5200005         3.24594856E-22
  -32.3400002        -6.79665769E-23
  -32.1599998        -2.45550806E-21
  -31.9799995        -4.50266679E-21
  -31.7999992         1.06138006E-21
  -31.6200008         1.85880311E-20
  -31.4400005         4.25520028E-20
  -31.2600002         6.43710789E-20
  -31.0799999         6.15939170E-20
  -30.8999996        -6.90662013E-20
  -30.7199993        -5.13034218E-19
  -30.5400009        -1.19734952E-18
  -30.3600006        -1.19917511E-18
  -30.1800003         1.09752464E-18
  -30.0000000         5.94879180E-18
  -29.8199997         9.29122517E-18
  -29.6399994         3.15324455E-18
  -29.4599991        -1.65676700E-17
  -29.2800007        -3.84436855E-17
  -29.1000004        -3.35285221E-17
  -28.9200001         2.36211830E-17
  -28.7399998         1.16918949E-16
  -28.5599995         1.67521372E-16
  -28.3799992         7.00818252E-17
  -28.2000008        -2.09844697E-16
  -28.0200005        -5.39772010E-16
  -27.8400002        -6.27886730E-16
  -27.6599998        -1.93457839E-16
  -27.4799995         7.65478815E-16
  -27.2999992         1.79775988E-15
  -27.1200008         2.11880845E-15
  -26.9400005         1.06468304E-15
  -26.7600002        -1.33830380E-15
  -26.5799999        -4.08591838E-15
  -26.3999996        -5.51633087E-15
  -26.2199993        -4.21967462E-15
  -26.0400009        -7.95145826E-17
  -25.8600006         5.24608035E-15
  -25.6800003         8.90310148E-15
  -25.5000000         8.38588029E-15
  -25.3199997         3.27204698E-15
  -25.1399994        -3.95381808E-15
  -24.9599991        -8.76772274E-15
  -24.7800007        -7.04536129E-15
  -24.6000004         2.06971103E-15
  -24.4200001         1.45470472E-14
  -24.2399998         2.24130932E-14
  -24.0599995         1.73632640E-14
  -23.8799992        -4.35387894E-15
  -23.7000008        -3.81834660E-14
  -23.5200005        -7.09399851E-14
  -23.3400002        -8.48852713E-14
  -23.1599998        -6.51460561E-14
  -22.9799995        -7.57253299E-15
  -22.7999992         7.65836437E-14
  -22.6200008         1.61925432E-13
  -22.4400005         2.16588791E-13
  -22.2600002         2.14016427E-13
  -22.0799999         1.44313028E-13
  -21.8999996         2.01712189E-14
  -21.7199993        -1.25981419E-13
  -21.5400009        -2.53545584E-13
  -21.3600006        -3.30045155E-13
  -21.1800003        -3.45482784E-13
  -21.0000000        -3.18041708E-13
  -20.8199997        -2.87455796E-13
  -20.6399994        -2.97502095E-13
  -20.4599991        -3.74164865E-13
  -20.2800007        -5.08693185E-13
  -20.1000004        -6.53557015E-13
  -19.9200001        -7.34430149E-13
  -19.7399998        -6.74790790E-13
  -19.5599995        -4.24367572E-13
  -19.3799992         1.91609678E-14
  -19.2000008         6.03326417E-13
  -19.0200005         1.23138760E-12
  -18.8400002         1.78645358E-12
  -18.6599998         2.16100922E-12
  -18.4799995         2.28261073E-12
  -18.2999992         2.12869566E-12
  -18.1200008         1.72767389E-12
  -17.9400005         1.14790740E-12
  -17.7600002         4.79424063E-13
  -17.5799999        -1.85550658E-13
  -17.3999996        -7.67902452E-13
  -17.2199993        -1.20976016E-12
  -17.0400009        -1.47544748E-12
  -16.8600006        -1.54798526E-12
  -16.6800003        -1.42532416E-12
  -16.5000000        -1.11993477E-12
  -16.3199997        -6.62985725E-13
  -16.1399994        -1.10969590E-13
  -15.9600000         4.50089944E-13
  -15.7799997         9.08309072E-13
  -15.6000004         1.14083612E-12
  -15.4200001         1.03913048E-12
  -15.2399998         5.39260151E-13
  -15.0600004        -3.51244885E-13
  -14.8800001        -1.53869203E-12
  -14.6999998        -2.84692517E-12
  -14.5200005        -4.04121138E-12
  -14.3400002        -4.86903573E-12
  -14.1599998        -5.11017617E-12
  -13.9799995        -4.62558941E-12
  -13.8000002        -3.39403505E-12
  -13.6199999        -1.52722377E-12
  -13.4399996         7.41450250E-13
  -13.2600002         3.09356317E-12
  -13.0799999         5.18046717E-12
  -12.8999996         6.68450842E-12
  -12.7200003         7.37348203E-12
  -12.5400000         7.13738140E-12
  -12.3599997         6.00150311E-12
  -12.1800003         4.11585436E-12
  -12.0000000         1.72573945E-12
  -11.8199997        -8.68803402E-13
  -11.6400003        -3.35654898E-12
  -11.4600000        -5.45447455E-12
  -11.2799997        -6.93769998E-12
  -11.1000004        -7.65704340E-12
  -10.9200001        -7.54391861E-12
  -10.7399998        -6.60535255E-12
  -10.5600004        -4.91424739E-12
  -10.3800001        -2.60058967E-12
  -10.1999998         1.52774901E-13
  -10.0200005         3.11082518E-12
  -9.84000015         5.98961592E-12
  -9.65999985         8.47097305E-12
  -9.47999954         1.02355858E-11
  -9.30000019         1.10144732E-11
  -9.11999989         1.06491049E-11
  -8.93999958         9.14257212E-12
  -8.76000023         6.68213792E-12
  -8.57999992         3.61952287E-12
  -8.39999962         4.07803619E-13
  -8.22000027        -2.49160761E-12
  -8.03999996        -4.70748180E-12
  -7.86000013        -6.03528599E-12
  -7.67999983        -6.47049341E-12
  -7.50000000        -6.19067644E-12
  -7.32000017        -5.49402147E-12
  -7.13999987        -4.71433092E-12
  -6.96000004        -4.13811650E-12
  -6.78000021        -3.94617889E-12
  -6.59999990        -4.19204862E-12
  -6.42000008        -4.81631141E-12
  -6.23999977        -5.68414933E-12
  -6.05999994        -6.62753663E-12
  -5.88000011        -7.47543000E-12
  -5.69999981        -8.06405030E-12
  -5.51999998        -8.23099228E-12
  -5.34000015        -7.80636406E-12
  -5.15999985        -6.61676183E-12
  -4.98000002        -4.51263636E-12
  -4.80000019        -1.41789597E-12
  -4.61999989         2.61193888E-12
  -4.44000006         7.34510543E-12
  -4.26000023         1.23644333E-11
  -4.07999992         1.71069426E-11
  -3.90000010         2.09507949E-11
  -3.72000003         2.33327593E-11
  -3.53999996         2.38682997E-11
  -3.35999990         2.24432504E-11
  -3.18000007         1.92519143E-11
  -3.00000000         1.47695276E-11
  -2.81999993         9.66362667E-12
  -2.64000010         4.66420175E-12
  -2.46000004         4.23141584E-13
  -2.27999997        -2.60466171E-12
  -2.09999990        -4.23219749E-12
  -1.91999996        -4.54987567E-12
  -1.74000001        -3.87629989E-12
  -1.55999994        -2.66677479E-12
  -1.38000000        -1.40451984E-12
  -1.20000005        -5.00342769E-13
  -1.01999998        -2.20707214E-13
 -0.839999974        -6.54097165E-13
 -0.660000026        -1.71570202E-12
 -0.479999989        -3.18309723E-12
 -0.300000012        -4.75203774E-12
 -0.119999997        -6.10078134E-12
   5.99999987E-02    -6.95188655E-12
  0.239999995        -7.12132913E-12
  0.419999987        -6.54649338E-12
  0.600000024        -5.28805385E-12
  0.779999971        -3.50658174E-12
  0.959999979        -1.42170195E-12
   1.13999999         7.33180010E-13
   1.32000005         2.74697322E-12
   1.50000000         4.44958220E-12
   1.67999995         5.71387816E-12
   1.86000001         6.45008005E-12
   2.03999996         6.60426661E-12
   2.22000003         6.16828897E-12
   2.40000010         5.19852867E-12
   2.57999992         3.83147810E-12
   2.75999999         2.28064919E-12
   2.94000006         8.05113788E-13
   3.11999989        -3.47804386E-13
   3.29999995        -1.00952135E-12
   3.48000002        -1.14349621E-12
   3.66000009        -8.63579065E-13
   3.83999991        -4.07795027E-13
   4.01999998        -7.34507534E-14
   4.19999981        -1.33102852E-13
   4.38000011        -7.57569246E-13
   4.55999994        -1.96996195E-12
   4.73999977        -3.64500617E-12
   4.92000008        -5.55425194E-12
   5.09999990        -7.44381206E-12
   5.28000021        -9.12066950E-12
   5.46000004        -1.05199217E-11
   5.63999987        -1.17300189E-11
   5.82000017        -1.29657266E-11
   6.00000000        -1.44962618E-11
   6.17999983        -1.65514460E-11
   6.36000013        -1.92371709E-11
   6.53999996        -2.24878033E-11
   6.71999979        -2.60697870E-11
   6.90000010        -2.96322550E-11
   7.07999992        -3.27856492E-11
   7.26000023        -3.51826970E-11
   7.44000006        -3.65789586E-11
   7.61999989        -3.68611218E-11
   7.80000019        -3.60416731E-11
   7.98000002        -3.42282834E-11
   8.15999985        -3.15798290E-11
   8.34000015        -2.82620316E-11
   8.52000046        -2.44138251E-11
   8.69999981        -2.01327479E-11
   8.88000011        -1.54824053E-11
   9.06000042        -1.05182260E-11
   9.23999977        -5.32044244E-12
   9.42000008        -1.96632380E-14
   9.60000038         5.19784216E-12
   9.77999973         1.01084852E-11
   9.96000004         1.44861224E-11
   10.1400003         1.81379183E-11
   10.3199997         2.09270171E-11
   10.5000000         2.27769678E-11
   10.6800003         2.36650265E-11
   10.8599997         2.36182723E-11
   11.0400000         2.27234655E-11
   11.2200003         2.11490634E-11
   11.3999996         1.91644096E-11
   11.5799999         1.71344119E-11
   11.7600002         1.54747239E-11
   11.9399996         1.45691705E-11
   12.1199999         1.46703674E-11
   12.3000002         1.58157931E-11
   12.4799995         1.77902641E-11
   12.6599998         2.01517709E-11
   12.8400002         2.23190060E-11
   13.0200005         2.36996325E-11
   13.1999998         2.38277002E-11
   13.3800001         2.24762552E-11
   13.5600004         1.97152884E-11
   13.7399998         1.58990217E-11
   13.9200001         1.15830626E-11
   14.1000004         7.39261430E-12
   14.2799997         3.87737195E-12
   14.4600000         1.39686309E-12
   14.6400003         6.80521110E-14
   14.8199997        -2.14483921E-13
   15.0000000         2.97983263E-13
   15.1800003         1.30574284E-12
   15.3599997         2.54171619E-12
   15.5400000         3.81606378E-12
   15.7200003         5.02417899E-12
   15.8999996         6.13749242E-12
   16.0799999         7.19602503E-12
   16.2600002         8.30860294E-12
   16.4400005         9.65108288E-12
   16.6200008         1.14437730E-11
   16.7999992         1.38989280E-11
   16.9799995         1.71465134E-11
   17.1599998         2.11647193E-11
   17.3400002         2.57470486E-11
   17.5200005         3.05211550E-11
   17.7000008         3.50151574E-11
   17.8799992         3.87434008E-11
   18.0599995         4.12817350E-11
   18.2399998         4.23099437E-11
   18.4200001         4.16202350E-11
   18.6000004         3.91063570E-11
   18.7800007         3.47508307E-11
   18.9599991         2.86225037E-11
   19.1399994         2.08779521E-11
   19.3199997         1.17591631E-11
   19.5000000         1.57134776E-12
   19.6800003        -9.35826503E-12
   19.8600006        -2.07321244E-11
   20.0400009        -3.23250628E-11
   20.2199993        -4.40001993E-11
   20.3999996        -5.56852273E-11
   20.5799999        -6.73094705E-11
   20.7600002        -7.87178517E-11
   20.9400005        -8.95891972E-11
   21.1200008        -9.93930077E-11
   21.2999992        -1.07418595E-10
   21.4799995        -1.12883813E-10
   21.6599998        -1.15110921E-10
   21.8400002        -1.13722400E-10
   22.0200005        -1.08792156E-10
   22.2000008        -1.00893426E-10
   22.3799992        -9.10153550E-11
   22.5599995        -8.03642153E-11
   22.7399998        -7.01022851E-11
   22.9200001        -6.11043785E-11
   23.1000004        -5.37939485E-11
   23.2800007        -4.81002738E-11
   23.4599991        -4.35309601E-11
   23.6399994        -3.93325372E-11
   23.8199997        -3.46891196E-11
   24.0000000        -2.89163936E-11
   24.1800003        -2.16129042E-11
   24.3600006        -1.27448000E-11
   24.5400009        -2.65202248E-12
   24.7199993         8.02393135E-12
   24.8999996         1.84745986E-11
   25.0799999         2.78876505E-11
   25.2600002         3.55994539E-11
   25.4400005         4.11993391E-11
   25.6200008         4.45604630E-11
   25.7999992         4.58097102E-11
   25.9799995         4.52511535E-11
   26.1599998         4.32842998E-11
   26.3400002         4.03339757E-11
   26.5200005         3.68048231E-11
   26.7000008         3.30501633E-11
   26.8799992         2.93443395E-11
   27.0599995         2.58513697E-11
   27.2399998         2.25975627E-11
   27.4200001         1.94615782E-11
   27.6000004         1.61992780E-11
   27.7800007         1.25090528E-11
   27.9599991         8.13808222E-12
   28.1399994         2.99882558E-12
   28.3199997        -2.72222154E-12
   28.5000000        -8.51132706E-12
   28.6800003        -1.35525662E-11
   28.8600006        -1.68481080E-11
   29.0400009        -1.74256078E-11
   29.2199993        -1.45838220E-11
   29.3999996        -8.11372150E-12
   29.5799999         1.57816999E-12
   29.7600002         1.34986362E-11
   29.9400005         2.62520301E-11
   30.1200008         3.83360878E-11
   30.2999992         4.84690690E-11
   30.4799995         5.58531554E-11
   30.6599998         6.03099792E-11
   30.8400002         6.22661714E-11
   31.0200005         6.26115826E-11
   31.2000008         6.24785987E-11
   31.3799992         6.30059338E-11
   31.5599995         6.51236357E-11
   31.7399998         6.93932273E-11
   31.9200001         7.59177513E-11
   32.0999985         8.43285858E-11
   32.2799988         9.38601002E-11
   32.4599991         1.03497377E-10
   32.6399994         1.12183637E-10
   32.8199997         1.19039265E-10
   33.0000000         1.23544855E-10
   33.1800003         1.25643079E-10
   33.3600006         1.25736505E-10
   33.5400009         1.24582580E-10
   33.7200012         1.23116711E-10
   33.9000015         1.22249669E-10
   34.0800018         1.22679922E-10
   34.2599983         1.24763186E-10
   34.4399986         1.28459826E-10
   34.6199989         1.33359351E-10
   34.7999992         1.38777656E-10
   34.9799995         1.43882864E-10
   35.1599998         1.47828527E-10
   35.3400002         1.49852838E-10
   35.5200005         1.49336030E-10
   35.7000008         1.45821952E-10
   35.8800011         1.39023390E-10
   36.0600014         1.28843838E-10
   36.2400017         1.15408100E-10
   36.4199982         9.90992496E-11
   36.5999985         8.05601696E-11
   36.7799988         6.06263650E-11
   36.9599991         4.01909721E-11
   37.1399994         2.00278613E-11
   37.3199997         6.27555679E-13
   37.5000000        -1.78872819E-11
   37.6800003        -3.57393004E-11
   37.8600006        -5.33702041E-11
   38.0400009        -7.12561815E-11
   38.2200012        -8.97270383E-11
   38.4000015        -1.08847327E-10
   38.5800018        -1.28379696E-10
   38.7599983        -1.47833301E-10
   38.9399986        -1.66563235E-10
   39.1199989        -1.83884699E-10
   39.2999992        -1.99175551E-10
   39.4799995        -2.11938439E-10
   39.6599998        -2.21827043E-10
   39.8400002        -2.28640926E-10
   40.0200005        -2.32309449E-10
   40.2000008        -2.32879160E-10
   40.3800011        -2.30524225E-10
   40.5600014        -2.25571548E-10
   40.7400017        -2.18527085E-10
   40.9199982        -2.10069934E-10
   41.0999985        -2.00994041E-10
   41.2799988        -1.92088595E-10
   41.4599991        -1.83976029E-10
   41.6399994        -1.76966636E-10
   41.8199997        -1.70979175E-10
   42.0000000        -1.65563577E-10
   42.1800003        -1.60028754E-10
   42.3600006        -1.53632565E-10
   42.5400009        -1.45774962E-10
   42.7200012        -1.36131217E-10
   42.9000015        -1.24695421E-10
   43.0800018        -1.11732505E-10
   43.2599983        -9.76733000E-11
   43.4399986        -8.29879776E-11
   43.6199989        -6.80789522E-11
   43.7999992        -5.32097665E-11
   43.9799995        -3.84801219E-11
   44.1599998        -2.38386481E-11
   44.3400002        -9.12911066E-12
   44.5200005         5.85323370E-12
   44.7000008         2.12973840E-11
   44.8800011         3.73249764E-11
   45.0600014         5.39519124E-11
   45.2400017         7.10668469E-11
   45.4199982         8.84210413E-11
   45.5999985         1.05622643E-10
   45.7799988         1.22141769E-10
   45.9599991         1.37339709E-10
   46.1399994         1.50539275E-10
   46.3199997         1.61134620E-10
   46.5000000         1.68729516E-10
   46.6800003         1.73267997E-10
   46.8600006         1.75105680E-10
   47.0400009         1.74987816E-10
   47.2200012         1.73927830E-10
   47.4000015         1.73014186E-10
   47.5800018         1.73198109E-10
   47.7599983         1.75116865E-10
   47.9399986         1.78990794E-10
   48.1199989         1.84607926E-10
   48.2999992         1.91378871E-10
   48.4799995         1.98441291E-10
   48.6599998         2.04788214E-10
   48.8400002         2.09406784E-10
   49.0200005         2.11410542E-10
   49.2000008         2.10159251E-10
   49.3800011         2.05344713E-10
   49.5600014         1.97030170E-10
   49.7400017         1.85628554E-10
   49.9199982         1.71819184E-10
   50.0999985         1.56419142E-10
   50.2799988         1.40226344E-10
   50.4599991         1.23874563E-10
   50.6399994         1.07725988E-10
   50.8199997         9.18246590E-11
   51.0000000         7.59224003E-11
   51.1800003         5.95704319E-11
   51.3600006         4.22564483E-11
   51.5400009         2.35489857E-11
   51.7200012         3.21248930E-12
   51.9000015        -1.87370883E-11
   52.0800018        -4.20426888E-11
   52.2599983        -6.62729385E-11
   52.4399986        -9.09075523E-11
   52.6199989        -1.15421339E-10
   52.7999992        -1.39338610E-10
   52.9799995        -1.62269198E-10
   53.1599998        -1.83932147E-10
   53.3400002        -2.04188610E-10
   53.5200005        -2.23077293E-10
   53.7000008        -2.40845649E-10
   53.8800011        -2.57936839E-10
   54.0600014        -2.74927414E-10
   54.2400017        -2.92399299E-10
   54.4199982        -3.10761944E-10
   54.5999985        -3.30075439E-10
   54.7799988        -3.49909351E-10
   54.9599991        -3.69305503E-10
   55.1399994        -3.86855659E-10
   55.3199997        -4.00915412E-10
   55.5000000        -4.09920681E-10
   55.6800003        -4.12726159E-10
   55.8600006        -4.08893169E-10
   56.0400009        -3.98820865E-10
   56.2200012        -3.83681087E-10
   56.4000015        -3.65154074E-10
   56.5800018        -3.45020623E-10
   56.7599983        -3.24748228E-10
   56.9399986        -3.05159592E-10
   57.1199989        -2.86305701E-10
   57.2999992        -2.67544764E-10
   57.4799995        -2.47803167E-10
   57.6599998        -2.25923238E-10
   57.8400002        -2.00987491E-10
   58.0200005        -1.72539427E-10
   58.2000008        -1.40664522E-10
   58.3800011        -1.05931520E-10
   58.5600014        -6.92494118E-11
   58.7400017        -3.16869551E-11
   58.9199982         5.68021238E-12
   59.0999985         4.18698964E-11
   59.2799988         7.60412983E-11
   59.4599991         1.07516517E-10
   59.6399994         1.35798595E-10
   59.8199997         1.60631550E-10
   60.0000000         1.82080406E-10
   60.1800003         2.00616621E-10
   60.3600006         2.17159360E-10
   60.5400009         2.33008390E-10
   60.7200012         2.49680859E-10
   60.9000015         2.68638667E-10
   61.0800018         2.90996782E-10
   61.2599983         3.17280563E-10
   61.4399986         3.47291973E-10
   61.6199989         3.80126486E-10
   61.7999992         4.14309670E-10
   61.9799995         4.48033055E-10
   62.1599998         4.79430440E-10
   62.3400002         5.06844677E-10
   62.5200005         5.29064959E-10
   62.7000008         5.45504031E-10
   62.8800011         5.56291457E-10
   63.0600014         5.62258018E-10
   63.2400017         5.64801594E-10
   63.4199982         5.65635816E-10
   63.5999985         5.66469205E-10
   63.7799988         5.68674441E-10
   63.9599991         5.73032122E-10
   64.1399994         5.79600645E-10
   64.3199997         5.87749183E-10
   64.5000000         5.96343863E-10
   64.6800003         6.04033379E-10
   64.8600006         6.09568451E-10
   65.0400009         6.12093376E-10
   65.2200012         6.11324491E-10
   65.4000015         6.07603690E-10
   65.5800018         6.01807826E-10
   65.7600021         5.95169969E-10
   65.9400024         5.89037208E-10
   66.1200027         5.84656934E-10
   66.3000031         5.83005255E-10
   66.4800034         5.84690907E-10
   66.6600037         5.89908955E-10
   66.8399963         5.98419037E-10
   67.0199966         6.09518547E-10
   67.1999969         6.22035423E-10
   67.3799973         6.34380548E-10
   67.5599976         6.44667209E-10
   67.7399979         6.50962562E-10
   67.9199982         6.51597776E-10
   68.0999985         6.45496823E-10
   68.2799988         6.32399966E-10
   68.4599991         6.12913442E-10
   68.6399994         5.88342874E-10
   68.8199997         5.60353264E-10
   69.0000000         5.30545996E-10
   69.1800003         5.00063602E-10
   69.3600006         4.69336958E-10
   69.5400009         4.38070663E-10
   69.7200012         4.05416506E-10
   69.9000015         3.70326547E-10
   70.0800018         3.31969535E-10
   70.2600021         2.90096475E-10
   70.4400024         2.45238219E-10
   70.6200027         1.98706052E-10
   70.8000031         1.52383522E-10
   70.9800034         1.08360446E-10
   71.1600037         6.85476259E-11
   71.3399963         3.43181907E-11
   71.5199966         6.32146635E-12
   71.6999969        -1.55668794E-11
   71.8799973        -3.21090030E-11
   72.0599976        -4.44972045E-11
   72.2399979        -5.40976187E-11
   72.4199982        -6.22151636E-11
   72.5999985        -6.99163366E-11
   72.7799988        -7.79044537E-11
   72.9599991        -8.64794278E-11
   73.1399994        -9.55461543E-11
   73.3199997        -1.04667379E-10
   73.5000000        -1.13177669E-10
   73.6800003        -1.20312663E-10
   73.8600006        -1.25366467E-10
   74.0400009        -1.27817645E-10
   74.2200012        -1.27442792E-10
   74.4000015        -1.24365615E-10
   74.5800018        -1.19052074E-10
   74.7600021        -1.12241508E-10
   74.9400024        -1.04819174E-10
   75.1200027        -9.76542805E-11
   75.3000031        -9.14266371E-11
   75.4800034        -8.64979616E-11
   75.6600037        -8.28197511E-11
   75.8399963        -7.99420322E-11
   76.0199966        -7.71005620E-11
   76.1999969        -7.33777761E-11
   76.3799973        -6.78877163E-11
   76.5599976        -5.99655256E-11
   76.7399979        -4.93399904E-11
   76.9199982        -3.62263067E-11
   77.0999985        -2.13610154E-11
   77.2799988        -5.93945986E-12
   77.4599991         8.52188372E-12
   77.6399994         2.04030768E-11
   77.8199997         2.82279599E-11
   78.0000000         3.09069090E-11
   78.1800003         2.79128179E-11
   78.3600006         1.93627094E-11
   78.5400009         5.97180638E-12
   78.7200012        -1.11133889E-11
   78.9000015        -3.05626878E-11
   79.0800018        -5.11151989E-11
   79.2600021        -7.18010859E-11
   79.4400024        -9.20610602E-11
   79.6200027        -1.11753606E-10
   79.8000031        -1.31073694E-10
   79.9800034        -1.50397195E-10
   80.1600037        -1.70118031E-10
   80.3399963        -1.90517782E-10
   80.5199966        -2.11707943E-10
   80.6999969        -2.33636860E-10
   80.8799973        -2.56139027E-10
   81.0599976        -2.79006984E-10
   81.2399979        -3.02040809E-10
   81.4199982        -3.25045019E-10
   81.5999985        -3.47795570E-10
   81.7799988        -3.69988234E-10
   81.9599991        -3.91212285E-10
   82.1399994        -4.10950440E-10
   82.3199997        -4.28640262E-10
   82.5000000        -4.43778514E-10
   82.6800003        -4.56027993E-10
   82.8600006        -4.65304850E-10
   83.0400009        -4.71823525E-10
   83.2200012        -4.76076900E-10
   83.4000015        -4.78755591E-10
   83.5800018        -4.80629703E-10
   83.7600021        -4.82438367E-10
   83.9400024        -4.84790597E-10
   84.1200027        -4.88106056E-10
   84.3000031        -4.92602570E-10
   84.4800034        -4.98288799E-10
   84.6600037        -5.04968678E-10
   84.8399963        -5.12216380E-10
   85.0199966        -5.19367716E-10
   85.1999969        -5.25506361E-10
   85.3799973        -5.29521149E-10
   85.5599976        -5.30228195E-10
   85.7399979        -5.26567900E-10
   85.9199982        -5.17830279E-10
   86.0999985        -5.03846465E-10
   86.2799988        -4.85080864E-10
   86.4599991        -4.62579891E-10
   86.6399994        -4.37776093E-10
   86.8199997        -4.12201218E-10
   87.0000000        -3.87181592E-10
   87.1800003        -3.63594516E-10
   87.3600006        -3.41745632E-10
   87.5400009        -3.21371652E-10
   87.7200012        -3.01769665E-10
   87.9000015        -2.82003171E-10
   88.0800018        -2.61135197E-10
   88.2600021        -2.38443598E-10
   88.4400024        -2.13591908E-10
   88.6200027        -1.86718696E-10
   88.8000031        -1.58442828E-10
   88.9800034        -1.29789623E-10
   89.1600037        -1.02032507E-10
   89.3399963        -7.64978220E-11
   89.5199966        -5.43368406E-11
   89.6999969        -3.63223028E-11
   89.8799973        -2.26902074E-11
   90.0599976        -1.30663431E-11
   90.2399979        -6.50029162E-12
   90.4199982        -1.61244824E-12
   90.5999985         3.16460139E-12
   90.7799988         9.28618727E-12
   90.9599991         1.77910429E-11
   91.1399994         2.90703833E-11
   91.3199997         4.27579951E-11
   91.5000000         5.77692824E-11
   91.6800003         7.24730484E-11
   91.8600006         8.49625648E-11
   92.0400009         9.33626509E-11
   92.2200012         9.61054639E-11
   92.4000015         9.21363125E-11
   92.5800018         8.10367051E-11
   92.7600021         6.30646438E-11
   92.9400024         3.91181497E-11
   93.1200027         1.06372749E-11
   93.3000031        -2.05499298E-11
   93.4800034        -5.24294462E-11
   93.6600037        -8.30400748E-11
   93.8399963        -1.10719267E-10
   94.0199966        -1.34313533E-10
   94.1999969        -1.53318525E-10
   94.3799973        -1.67914127E-10
   94.5599976        -1.78884435E-10
   94.7399979        -1.87435276E-10
   94.9199982        -1.94936470E-10
   95.0999985        -2.02636921E-10
   95.2799988        -2.11409681E-10
   95.4599991        -2.21584390E-10
   95.6399994        -2.32901781E-10
   95.8199997        -2.44602200E-10
   96.0000000        -2.55635679E-10
   96.1800003        -2.64945094E-10
   96.3600006        -2.71751899E-10
   96.5400009        -2.75773765E-10
   96.7200012        -2.77322804E-10
   96.9000015        -2.77268597E-10
   97.0800018        -2.76871165E-10
   97.2600021        -2.77527196E-10
   97.4400024        -2.80479112E-10
   97.6200027        -2.86550561E-10
   97.8000031        -2.95957342E-10
   97.9800034        -3.08229914E-10
   98.1600037        -3.22258858E-10
   98.3399963        -3.36466160E-10
   98.5199966        -3.49052148E-10
   98.6999969        -3.58288704E-10
   98.8799973        -3.62785274E-10
   99.0599976        -3.61702085E-10
   99.2399979        -3.54864416E-10
   99.4199982        -3.42781387E-10
   99.5999985        -3.26568050E-10
   99.7799988        -3.07793596E-10
   99.9599991        -2.88253504E-10
   100.139999        -2.69710060E-10
   100.320000        -2.53614796E-10
   100.500000        -2.40857445E-10
   100.680000        -2.31611758E-10
   100.860001        -2.25294325E-10
   101.040001        -2.20673618E-10
   101.220001        -2.16091089E-10
   101.400002        -2.09759460E-10
   101.580002        -2.00066991E-10
   101.760002        -1.85823620E-10
   101.940002        -1.66432840E-10
   102.120003        -1.41962345E-10
   102.300003        -1.13121963E-10
   102.480003        -8.11639159E-11
   102.660004        -4.76934846E-11
   102.839996        -1.44327571E-11
   103.019997         1.70599351E-11
   103.199997         4.56498658E-11
   103.379997         7.08199402E-11
   103.559998         9.27548455E-11
   103.739998         1.12285355E-10
   103.919998         1.30705710E-10
   104.099998         1.49505991E-10
   104.279999         1.70063838E-10
   104.459999         1.93369029E-10
   104.639999         2.19824769E-10
   104.820000         2.49165855E-10
   105.000000         2.80522522E-10
   105.180000         3.12609438E-10
   105.360001         3.44003409E-10
   105.540001         3.73445913E-10
   105.720001         4.00083827E-10
   105.900002         4.23591162E-10
   106.080002         4.44136838E-10
   106.260002         4.62227562E-10
   106.440002         4.78503681E-10
   106.620003         4.93550700E-10
   106.800003         5.07807296E-10
   106.980003         5.21555410E-10
   107.160004         5.34977951E-10
   107.339996         5.48215751E-10
   107.519997         5.61379332E-10
   107.699997         5.74490955E-10
   107.879997         5.87404736E-10
   108.059998         5.99748251E-10
   108.239998         6.10933470E-10
   108.419998         6.20276552E-10
   108.599998         6.27185359E-10
   108.779999         6.31382113E-10
   108.959999         6.33084474E-10
   109.139999         6.33075536E-10
   109.320000         6.32634667E-10
   109.500000         6.33306463E-10
   109.680000         6.36577346E-10
   109.860001         6.43493814E-10
   110.040001         6.54351795E-10
   110.220001         6.68523736E-10
   110.400002         6.84501400E-10
   110.580002         7.00143443E-10
   110.760002         7.13088866E-10
   110.940002         7.21223858E-10
   111.120003         7.23091143E-10