  -34.5000000         0.00000000    
  -34.3195000         0.00000000    
  -34.1389999         0.00000000    
  -33.9584999        -3.86746186E-18
  -33.7779999        -2.61407553E-17
  -33.5974998        -9.93869285E-17
  -33.4169998        -2.77417822E-16
  -33.2364998        -6.27334041E-16
  -33.0559998        -1.20380365E-15
  -32.8754997        -2.00582844E-15
  -32.6949997        -2.93044156E-15
  -32.5144997        -3.75373196E-15
  -32.3339996        -4.17495806E-15
  -32.1534996        -3.94122736E-15
  -31.9729996        -3.02484973E-15
  -31.7924995        -1.76775056E-15
  -31.6119995        -8.69097044E-16
  -31.4314995        -1.10887211E-15
  -31.2509995        -2.78915710E-15
  -31.0704994        -5.01861600E-15
  -30.8899994        -5.10946537E-15
  -30.7094994         1.57334739E-15
  -30.5289993         2.10334713E-14
  -30.3484993         5.92654994E-14
  -30.1679993         1.20308630E-13
  -29.9874992         2.04244025E-13
  -29.8069992         3.05785697E-13
  -29.6264992         4.14010948E-13
  -29.4459991         5.13430607E-13
  -29.2654991         5.86090963E-13
  -29.0849991         6.13909585E-13
  -28.9044991         5.80166178E-13
  -28.7240009         4.69203777E-13
  -28.5435009         2.64037923E-13
  -28.3630009        -5.73534547E-14
  -28.1825008        -5.25138364E-13
  -28.0020008        -1.17756336E-12
  -27.8215008        -2.05554302E-12
  -27.6410007        -3.19137208E-12
  -27.4605007        -4.59330794E-12
  -27.2800007        -6.22966305E-12
  -27.0995007        -8.01648071E-12
  -26.9190006        -9.81170527E-12
  -26.7385006        -1.14169472E-11
  -26.5580006        -1.25868083E-11
  -26.3775005        -1.30458361E-11
  -26.1970005        -1.25132986E-11
  -26.0165005        -1.07341575E-11
  -25.8360004        -7.51014355E-12
  -25.6555004        -2.72019538E-12
  -25.4750004         3.68032471E-12
  -25.2945004         1.16838032E-11
  -25.1140003         2.12652465E-11
  -24.9335003         3.24025702E-11
  -24.7530003         4.50573016E-11
  -24.5725002         5.91086277E-11
  -24.3920002         7.42632483E-11
  -24.2115002         8.99875660E-11
  -24.0310001         1.05510635E-10
  -23.8505001         1.19918228E-10
  -23.6700001         1.32309677E-10
  -23.4895000         1.41943762E-10
  -23.3090000         1.48283816E-10
  -23.1285000         1.50880627E-10
  -22.9480000         1.49102647E-10
  -22.7674999         1.41809800E-10
  -22.5869999         1.27134622E-10
  -22.4064999         1.02542412E-10
  -22.2259998         6.52684295E-11
  -22.0454998         1.30814188E-11
  -21.8649998        -5.48562758E-11
  -21.6844997        -1.37391945E-10
  -21.5039997        -2.31406824E-10
  -21.3234997        -3.32635142E-10
  -21.1429996        -4.37120506E-10
  -20.9624996        -5.42792311E-10
  -20.7819996        -6.50441701E-10
  -20.6014996        -7.63473229E-10
  -20.4209995        -8.86242579E-10
  -20.2404995        -1.02142239E-09
  -20.0599995        -1.16739629E-09
  -19.8794994        -1.31686884E-09
  -19.6989994        -1.45753132E-09
  -19.5184994        -1.57481495E-09
  -19.3379993        -1.65580039E-09
  -19.1574993        -1.69268588E-09
  -18.9769993        -1.68420167E-09
  -18.7964993        -1.63410840E-09
  -18.6159992        -1.54718804E-09
  -18.4354992        -1.42439271E-09
  -18.2549992        -1.25948074E-09
  -18.0744991        -1.03911668E-09
  -17.8939991        -7.47071904E-10
  -17.7134991        -3.71296383E-10
  -17.5330009         8.89684507E-11
  -17.3525009         6.19412688E-10
  -17.1720009         1.19266075E-09
  -16.9915009         1.77628467E-09
  -16.8110008         2.34438335E-09
  -16.6305008         2.88827384E-09
  -16.4500008         3.42152928E-09
  -16.2695007         3.97634015E-09
  -16.0890007         4.59145211E-09
  -15.9084997         5.29548982E-09
  -15.7279997         6.09176443E-09
  -15.5474997         6.95057834E-09
  -15.3669996         7.81241738E-09
  -15.1864996         8.60123883E-09
  -15.0059996         9.24298860E-09
  -14.8254995         9.68231451E-09
  -14.6450005         9.89115456E-09
  -14.4645004         9.86623139E-09
  -14.2840004         9.61716839E-09
  -14.1035004         9.15084808E-09
  -13.9230003         8.45926174E-09
  -13.7425003         7.51653406E-09
  -13.5620003         6.28684926E-09
  -13.3815002         4.74030237E-09
  -13.2010002         2.87018009E-09
  -13.0205002         7.04443281E-10
  -12.8400002        -1.69354752E-09
  -12.6595001        -4.23575042E-09
  -12.4790001        -6.82784584E-09
  -12.2985001        -9.38885414E-09
  -12.1180000        -1.18656063E-08
  -11.9375000        -1.42382985E-08
  -11.7570000        -1.65172569E-08
  -11.5764999        -1.87341218E-08
  -11.3959999        -2.09316564E-08
  -11.2154999        -2.31549429E-08
  -11.0349998        -2.54438781E-08
  -10.8544998        -2.78244645E-08
  -10.6739998        -3.02959364E-08
  -10.4934998        -3.28131158E-08
  -10.3129997        -3.52674014E-08
  -10.1324997        -3.74735869E-08
  -9.95199966        -3.91712227E-08
  -9.77149963        -4.00466824E-08
  -9.59099960        -3.97764062E-08
  -9.41049957        -3.80841882E-08
  -9.22999954        -3.47992604E-08
  -9.04950047        -2.98994465E-08
  -8.86900043        -2.35265318E-08
  -8.68850040        -1.59681228E-08
  -8.50800037        -7.60994201E-09
  -8.32750034         1.12923926E-09
  -8.14700031         9.86309967E-09
  -7.96649981         1.82877642E-08
  -7.78599977         2.62063153E-08
  -7.60550022         3.35262911E-08
  -7.42500019         4.02371185E-08
  -7.24450016         4.63791139E-08
  -7.06400013         5.20159880E-08
  -6.88350010         5.72185321E-08
  -6.70300007         6.20606002E-08
  -6.52250004         6.66223698E-08
  -6.34200001         7.09924279E-08
  -6.16149998         7.52606724E-08
  -5.98099995         7.94978519E-08
  -5.80049992         8.37230871E-08
  -5.61999989         8.78660771E-08
  -5.43949986         9.17339165E-08
  -5.25899982         9.49930623E-08
  -5.07849979         9.71748335E-08
  -4.89799976         9.77084014E-08
  -4.71750021         9.59801625E-08
  -4.53700018         9.14130922E-08
  -4.35650015         8.35550225E-08
  -4.17600012         7.21623010E-08
  -3.99550009         5.72638186E-08
  -3.81500006         3.91928268E-08
  -3.63450003         1.85775217E-08
  -3.45400000        -3.71145159E-09
  -3.27349997        -2.66510316E-08
  -3.09299994        -4.91800662E-08
  -2.91249990        -7.03197003E-08
  -2.73200011        -8.92802348E-08
  -2.55150008        -1.05538078E-07
  -2.37100005        -1.18873608E-07
  -2.19050002        -1.29369155E-07
  -2.00999999        -1.37374087E-07
  -1.82949996        -1.43447821E-07
  -1.64900005        -1.48291022E-07
  -1.46850002        -1.52670808E-07
  -1.28799999        -1.57341319E-07
  -1.10749996        -1.62957349E-07
 -0.926999986        -1.69981206E-07
 -0.746500015        -1.78589033E-07
 -0.565999985        -1.88591130E-07
 -0.385500014        -1.99387287E-07
 -0.204999998        -2.09978097E-07
  -2.44999994E-02    -2.19044750E-07
  0.156000003        -2.25094183E-07
  0.336499989        -2.26648027E-07
  0.517000020        -2.22439056E-07
  0.697499990        -2.11572512E-07
  0.878000021        -1.93616970E-07
   1.05850005        -1.68607116E-07
   1.23899996        -1.36964630E-07
   1.41949999        -9.93664671E-08
   1.60000002        -5.66025555E-08
   1.78050005        -9.46518508E-09
   1.96099997         4.13012700E-08
   2.14150000         9.49840384E-08
   2.32200003         1.50835703E-07
   2.50250006         2.07990226E-07
   2.68300009         2.65397688E-07
   2.86350012         3.21804265E-07
   3.04399991         3.75787806E-07
   3.22449994         4.25839431E-07
   3.40499997         4.70468706E-07
   3.58550000         5.08304879E-07
   3.76600003         5.38173651E-07
   3.94650006         5.59138527E-07
   4.12699986         5.70510338E-07
   4.30749989         5.71837575E-07
   4.48799992         5.62891103E-07
   4.66849995         5.43656142E-07
   4.84899998         5.14334829E-07
   5.02950001         4.75356586E-07
   5.21000004         4.27385828E-07
   5.39050007         3.71319004E-07
   5.57100010         3.08261832E-07
   5.75150013         2.39485814E-07
   5.93200016         1.66366235E-07
   6.11250019         9.03085180E-08
   6.29300022         1.26705526E-08
   6.47349977        -6.53100116E-08
   6.65399981        -1.42575630E-07
   6.83449984        -2.18286786E-07
   7.01499987        -2.91830190E-07
   7.19549990        -3.62789990E-07
   7.37599993        -4.30881329E-07
   7.55649996        -4.95853897E-07
   7.73699999        -5.57382577E-07
   7.91750002        -6.14970304E-07
   8.09799957        -6.67891243E-07
   8.27849960        -7.15193153E-07
   8.45899963        -7.55765939E-07
   8.63949966        -7.88463126E-07
   8.81999969        -8.12246071E-07
   9.00049973        -8.26313794E-07
   9.18099976        -8.30181307E-07
   9.36149979        -8.23686889E-07
   9.54199982        -8.06927289E-07
   9.72249985        -7.80145456E-07
   9.90299988        -7.43610599E-07
   10.0834999        -6.97532073E-07
   10.2639999        -6.42039822E-07
   10.4445000        -5.77241394E-07
   10.6250000        -5.03338526E-07
   10.8055000        -4.20766440E-07
   10.9860001        -3.30307131E-07
   11.1665001        -2.33136817E-07
   11.3470001        -1.30785750E-07
   11.5275002        -2.50159822E-08
   11.7080002         8.23510362E-08
   11.8885002         1.89611484E-07
   12.0690002         2.95313868E-07
   12.2495003         3.98317667E-07
   12.4300003         4.97766109E-07
   12.6105003         5.92987419E-07
   12.7910004         6.83357257E-07
   12.9715004         7.68167297E-07
   13.1520004         8.46538171E-07
   13.3325005         9.17406453E-07
   13.5129995         9.79591846E-07
   13.6934996         1.03193383E-06
   13.8739996         1.07346852E-06
   14.0544996         1.10360838E-06
   14.2349997         1.12228918E-06
   14.4154997         1.13005410E-06
   14.5959997         1.12806515E-06
   14.7764997         1.11804468E-06
   14.9569998         1.10216661E-06
   15.1374998         1.08292613E-06
   15.3179998         1.06301366E-06
   15.4984999         1.04521678E-06
   15.6789999         1.03235436E-06
   15.8594999         1.02723754E-06
   16.0400009         1.03263403E-06
   16.2205009         1.05121387E-06
   16.4009991         1.08545544E-06
   16.5814991         1.13750855E-06
   16.7619991         1.20903303E-06
   16.9424992         1.30104490E-06
   17.1229992         1.41381599E-06
   17.3034992         1.54686234E-06
   17.4839993         1.69904024E-06
   17.6644993         1.86873808E-06
   17.8449993         2.05412221E-06
   18.0254993         2.25338636E-06
   18.2059994         2.46494460E-06
   18.3864994         2.68753502E-06
   18.5669994         2.92022060E-06
   18.7474995         3.16231649E-06
   18.9279995         3.41327109E-06
   19.1084995         3.67255757E-06
   19.2889996         3.93960909E-06
   19.4694996         4.21379673E-06
   19.6499996         4.49445861E-06
   19.8304996         4.78093352E-06
   20.0109997         5.07257073E-06
   20.1914997         5.36869993E-06
   20.3719997         5.66854987E-06
   20.5524998         5.97114558E-06
   20.7329998         6.27521058E-06
   20.9134998         6.57911096E-06
   21.0939999         6.88086720E-06
   21.2744999         7.17822286E-06
   21.4549999         7.46877367E-06
   21.6355000         7.75011540E-06
   21.8160000         8.01998158E-06
   21.9965000         8.27636813E-06
   22.1770000         8.51762888E-06
   22.3575001         8.74255056E-06
   22.5380001         8.95042376E-06
   22.7185001         9.14109569E-06
   22.8990002         9.31500563E-06
   23.0795002         9.47318040E-06
   23.2600002         9.61716523E-06
   23.4405003         9.74889190E-06
   23.6210003         9.87047497E-06
   23.8015003         9.98398536E-06
   23.9820004         1.00912339E-05
   24.1625004         1.01936303E-05
   24.3430004         1.02921422E-05
   24.5235004         1.03873836E-05
   24.7040005         1.04798028E-05
   24.8845005         1.05699319E-05
   25.0650005         1.06586385E-05
   25.2455006         1.07473015E-05
   25.4260006         1.08378990E-05
   25.6065006         1.09329794E-05
   25.7870007         1.10355459E-05
   25.9675007         1.11488871E-05
   26.1480007         1.12764064E-05
   26.3285007         1.14214799E-05
   26.5090008         1.15873645E-05
   26.6895008         1.17771406E-05
   26.8700008         1.19936904E-05
   27.0505009         1.22396768E-05
   27.2310009         1.25175056E-05
   27.4115009         1.28292622E-05
   27.5919991         1.31766219E-05
   27.7724991         1.35607370E-05
   27.9529991         1.39821186E-05
   28.1334991         1.44405149E-05
   28.3139992         1.49348107E-05
   28.4944992         1.54629233E-05
   28.6749992         1.60217405E-05
   28.8554993         1.66070731E-05
   29.0359993         1.72136606E-05
   29.2164993         1.78352329E-05
   29.3969994         1.84646033E-05
   29.5774994         1.90938626E-05
   29.7579994         1.97145710E-05
   29.9384995         2.03180007E-05
   30.1189995         2.08953752E-05
   30.2994995         2.14380907E-05
   30.4799995         2.19379290E-05
   30.6604996         2.23872557E-05
   30.8409996         2.27791807E-05
   31.0214996         2.31077247E-05
   31.2019997         2.33679602E-05
   31.3824997         2.35561001E-05
   31.5629997         2.36695723E-05
   31.7434998         2.37069980E-05
   31.9239998         2.36681426E-05
   32.1044998         2.35537773E-05
   32.2849998         2.33655192E-05
   32.4654999         2.31056238E-05
   32.6459999         2.27767705E-05
   32.8264999         2.23818442E-05
   33.0070000         2.19237245E-05
   33.1875000         2.14050979E-05
   33.3680000         2.08282945E-05
   33.5485001         2.01952025E-05
   33.7290001         1.95072116E-05
   33.9095001         1.87652840E-05
   34.0900002         1.79700946E-05
   34.2705002         1.71222455E-05
   34.4510002         1.62225624E-05
   34.6315002         1.52723824E-05
   34.8120003         1.42738081E-05
   34.9925003         1.32299165E-05
   35.1730003         1.21448356E-05
   35.3535004         1.10237434E-05
   35.5340004         9.87275416E-06
   35.7145004         8.69873475E-06
   35.8950005         7.50904746E-06
   36.0755005         6.31126886E-06
   36.2560005         5.11286817E-06
   36.4365005         3.92090760E-06
   36.6170006         2.74177091E-06
   36.7975006         1.58097441E-06
   36.9780006         4.43079045E-07
   37.1585007        -6.68253222E-07
   37.3390007        -1.75008461E-06
   37.5195007        -2.79992742E-06
   37.7000008        -3.81544396E-06
   37.8805008        -4.79418031E-06
   38.0610008        -5.73340503E-06
   38.2415009        -6.63010132E-06
   38.4220009        -7.48109505E-06
   38.6025009        -8.28328029E-06
   38.7830009        -9.03387081E-06
   38.9635010        -9.73060287E-06
   39.1440010        -1.03718203E-05
   39.3245010        -1.09564298E-05
   39.5050011        -1.14837630E-05
   39.6855011        -1.19534052E-05
   39.8660011        -1.23650743E-05
   40.0465012        -1.27186004E-05
   40.2270012        -1.30140406E-05
   40.4075012        -1.32518880E-05
   40.5880013        -1.34333086E-05
   40.7685013        -1.35603259E-05
   40.9490013        -1.36358676E-05
   41.1295013        -1.36636454E-05
   41.3100014        -1.36478739E-05
   41.4905014        -1.35928804E-05
   41.6710014        -1.35027067E-05
   41.8515015        -1.33807835E-05
   42.0320015        -1.32297528E-05
   42.2125015        -1.30514545E-05
   42.3930016        -1.28470756E-05
   42.5735016        -1.26173927E-05
   42.7540016        -1.23630380E-05
   42.9345016        -1.20847280E-05
   43.1150017        -1.17834161E-05
   43.2955017        -1.14603672E-05
   43.4760017        -1.11171803E-05
   43.6565018        -1.07558026E-05
   43.8370018        -1.03785633E-05
   44.0175018        -9.98825635E-06
   44.1980019        -9.58826058E-06
   44.3785019        -9.18266142E-06
   44.5589981        -8.77634375E-06
   44.7394981        -8.37501193E-06
   44.9199982        -7.98512337E-06
   45.1004982        -7.61371120E-06
   45.2809982        -7.26813778E-06
   45.4614983        -6.95578092E-06
   45.6419983        -6.68371695E-06
   45.8224983        -6.45840919E-06
   46.0029984        -6.28544512E-06
   46.1834984        -6.16933039E-06
   46.3639984        -6.11334599E-06
   46.5444984        -6.11946734E-06
   46.7249985        -6.18834520E-06
   46.9054985        -6.31934881E-06
   47.0859985        -6.51065830E-06
   47.2664986        -6.75940328E-06
   47.4469986        -7.06184710E-06
   47.6274986        -7.41360191E-06
   47.8079987        -7.80986647E-06
   47.9884987        -8.24568815E-06
   48.1689987        -8.71623433E-06
   48.3494987        -9.21707579E-06
   48.5299988        -9.74443537E-06
   48.7104988        -1.02953936E-05
   48.8909988        -1.08679942E-05
   49.0714989        -1.14612358E-05
   49.2519989        -1.20749182E-05
   49.4324989        -1.27093526E-05
   49.6129990        -1.33650019E-05
   49.7934990        -1.40420825E-05
   49.9739990        -1.47402152E-05
   50.1544991        -1.54581739E-05
   50.3349991        -1.61937824E-05
   50.5154991        -1.69439299E-05
   50.6959991        -1.77047241E-05
   50.8764992        -1.84716919E-05
   51.0569992        -1.92400130E-05
   51.2374992        -2.00047325E-05
   51.4179993        -2.07609519E-05
   51.5984993        -2.15039909E-05
   51.7789993        -2.22295330E-05
   51.9594994        -2.29338093E-05
   52.1399994        -2.36137366E-05
   52.3204994        -2.42670612E-05
   52.5009995        -2.48924243E-05
   52.6814995        -2.54892966E-05
   52.8619995        -2.60577581E-05
   53.0424995        -2.65981489E-05
   53.2229996        -2.71105528E-05
   53.4034996        -2.75942584E-05
   53.5839996        -2.80472359E-05
   53.7644997        -2.84657017E-05
   53.9449997        -2.88438750E-05
   54.1254997        -2.91739434E-05
   54.3059998        -2.94462334E-05
   54.4864998        -2.96495527E-05
   54.6669998        -2.97716560E-05
   54.8474998        -2.97997394E-05
   55.0279999        -2.97208953E-05
   55.2084999        -2.95224490E-05
   55.3889999        -2.91921715E-05
   55.5695000        -2.87183702E-05
   55.7500000        -2.80898748E-05
   55.9305000        -2.72960242E-05
   56.1110001        -2.63266884E-05
   56.2915001        -2.51724032E-05
   56.4720001        -2.38246066E-05
   56.6525002        -2.22759863E-05
   56.8330002        -2.05208325E-05
   57.0135002        -1.85553235E-05
   57.1940002        -1.63776513E-05
   57.3745003        -1.39879357E-05
   57.5550003        -1.13879323E-05
   57.7355003        -8.58061230E-06
   57.9160004        -5.56973873E-06
   58.0965004        -2.35956486E-06
   58.2770004         1.04524372E-06
   58.4575005         4.63943707E-06
   58.6380005         8.41679957E-06
   58.8185005         1.23697273E-05
   58.9990005         1.64888716E-05
   59.1795006         2.07630183E-05
   59.3600006         2.51792444E-05
   59.5405006         2.97233564E-05
   59.7210007         3.43804422E-05
   59.9015007         3.91354515E-05
   60.0820007         4.39735632E-05
   60.2625008         4.88803380E-05
   60.4430008         5.38415661E-05
   60.6235008         5.88429284E-05
   60.8040009         6.38696656E-05
   60.9845009         6.89063454E-05
   61.1650009         7.39369134E-05
   61.3455009         7.89450423E-05
   61.5260010         8.39146451E-05
   61.7065010         8.88305149E-05
   61.8870010         9.36788419E-05
   62.0675011         9.84475118E-05
   62.2480011         1.03126018E-04
   62.4285011         1.07705164E-04
   62.6090012         1.12176473E-04
   62.7895012         1.16531643E-04
   62.9700012         1.20762037E-04
   63.1505013         1.24858430E-04
   63.3310013         1.28811051E-04
   63.5115013         1.32609770E-04
   63.6920013         1.36244649E-04
   63.8725014         1.39706361E-04
   64.0530014         1.42986653E-04
   64.2334976         1.46078673E-04
   64.4140015         1.48977037E-04
   64.5944977         1.51677712E-04
   64.7750015         1.54177818E-04
   64.9554977         1.56475216E-04
   65.1360016         1.58568291E-04
   65.3164978         1.60455704E-04
   65.4970016         1.62136464E-04
   65.6774979         1.63610137E-04
   65.8580017         1.64877201E-04
   66.0384979         1.65939535E-04
   66.2190018         1.66800848E-04
   66.3994980         1.67466860E-04
   66.5800018         1.67945342E-04
   66.7604980         1.68245664E-04
   66.9410019         1.68378290E-04
   67.1214981         1.68353959E-04
   67.3020020         1.68182931E-04
   67.4824982         1.67874430E-04
   67.6630020         1.67436330E-04
   67.8434982         1.66875237E-04
   68.0240021         1.66196754E-04
   68.2044983         1.65405960E-04
   68.3850021         1.64507976E-04
   68.5654984         1.63508143E-04
   68.7460022         1.62412267E-04
   68.9264984         1.61226388E-04
   69.1070023         1.59956500E-04
   69.2874985         1.58608018E-04
   69.4680023         1.57185481E-04
   69.6484985         1.55692236E-04
   69.8290024         1.54130496E-04
   70.0094986         1.52501423E-04
   70.1900024         1.50805616E-04
   70.3704987         1.49043452E-04
   70.5510025         1.47215513E-04
   70.7314987         1.45322832E-04
   70.9120026         1.43367055E-04
   71.0924988         1.41350320E-04
   71.2730026         1.39275158E-04
   71.4534988         1.37144278E-04
   71.6340027         1.34960443E-04
   71.8144989         1.32726491E-04
   71.9950027         1.30445449E-04
   72.1754990         1.28120839E-04
   72.3560028         1.25756851E-04
   72.5364990         1.23358725E-04
   72.7170029         1.20932549E-04
   72.8974991         1.18485223E-04
   73.0780029         1.16023890E-04
   73.2584991         1.13555376E-04
   73.4390030         1.11085566E-04
   73.6194992         1.08618988E-04
   73.8000031         1.06158644E-04
   73.9804993         1.03706210E-04
   74.1610031         1.01262500E-04
   74.3414993         9.88281463E-05
   74.5220032         9.64041465E-05
   74.7024994         9.39922102E-05
   74.8830032         9.15947603E-05
   75.0634995         8.92145326E-05
   75.2440033         8.68539209E-05
   75.4244995         8.45142276E-05
   75.6050034         8.21951398E-05
   75.7854996         7.98945766E-05
   75.9660034         7.76089801E-05
   76.1464996         7.53341301E-05
   76.3270035         7.30661413E-05
   76.5074997         7.08026491E-05
   76.6880035         6.85436826E-05
   76.8684998         6.62922394E-05
   77.0490036         6.40543512E-05
   77.2294998         6.18387057E-05
   77.4100037         5.96559839E-05
   77.5904999         5.75180238E-05
   77.7710037         5.54369908E-05
   77.9514999         5.34247192E-05
   78.1320038         5.14922067E-05
   78.3125000         4.96493449E-05
   78.4929962         4.79047594E-05
   78.6735001         4.62657263E-05
   78.8539963         4.47381826E-05
   79.0345001         4.33266250E-05
   79.2149963         4.20341385E-05
   79.3955002         4.08623418E-05
   79.5759964         3.98113734E-05
   79.7565002         3.88799126E-05
   79.9369965         3.80652127E-05
   80.1175003         3.73631374E-05
   80.2979965         3.67682478E-05
   80.4785004         3.62739556E-05
   80.6589966         3.58727266E-05
   80.8395004         3.55564298E-05
   81.0199966         3.53167125E-05
   81.2005005         3.51454801E-05
   81.3809967         3.50352930E-05
   81.5615005         3.49797119E-05
   81.7419968         3.49734692E-05
   81.9225006         3.50124683E-05
   82.1029968         3.50936425E-05
   82.2835007         3.52146890E-05
   82.4639969         3.53737851E-05
   82.6445007         3.55693228E-05
   82.8249969         3.57997087E-05
   83.0055008         3.60632221E-05
   83.1859970         3.63579129E-05
   83.3665009         3.66815038E-05
   83.5469971         3.70312373E-05
   83.7275009         3.74037081E-05
   83.9079971         3.77946853E-05
   84.0885010         3.81989703E-05
   84.2689972         3.86103929E-05
   84.4495010         3.90219611E-05
   84.6299973         3.94261733E-05
   84.8105011         3.98153970E-05
   84.9909973         4.01823490E-05
   85.1715012         4.05204482E-05
   85.3519974         4.08240776E-05
   85.5325012         4.10886823E-05
   85.7129974         4.13107118E-05
   85.8935013         4.14874376E-05
   86.0739975         4.16167786E-05
   86.2545013         4.16970834E-05
   86.4349976         4.17270348E-05
   86.6155014         4.17055999E-05
   86.7959976         4.16320654E-05
   86.9765015         4.15061004E-05
   87.1569977         4.13278140E-05
   87.3375015         4.10977409E-05
   87.5179977         4.08167907E-05
   87.6985016         4.04860657E-05
   87.8789978         4.01066682E-05
   88.0595016         3.96795149E-05
   88.2399979         3.92051770E-05
   88.4205017         3.86838619E-05
   88.6009979         3.81154932E-05
   88.7815018         3.74999800E-05
   88.9619980         3.68375950E-05
   89.1425018         3.61293896E-05
   89.3229980         3.53776340E-05
   89.5035019         3.45861117E-05
   89.6839981         3.37602505E-05
   89.8645020         3.29070426E-05
   90.0449982         3.20347135E-05
   90.2255020         3.11522708E-05
   90.4059982         3.02689150E-05
   90.5865021         2.93934590E-05
   90.7669983         2.85337719E-05
   90.9475021         2.76963401E-05
   91.1279984         2.68859167E-05
   91.3085022         2.61053119E-05
   91.4889984         2.53553462E-05
   91.6695023         2.46349555E-05
   91.8499985         2.39415258E-05
   92.0305023         2.32714101E-05
   92.2109985         2.26206448E-05
   92.3915024         2.19857229E-05
   92.5719986         2.13643798E-05
   92.7525024         2.07561752E-05
   92.9329987         2.01627827E-05
   93.1135025         1.95879111E-05
   93.2939987         1.90368592E-05
   93.4745026         1.85158078E-05
   93.6549988         1.80310126E-05
   93.8355026         1.75880832E-05
   94.0159988         1.71914853E-05
   94.1965027         1.68443548E-05
   94.3769989         1.65485890E-05
   94.5575027         1.63051063E-05
   94.7379990         1.61141343E-05
   94.9185028         1.59753927E-05
   95.0989990         1.58881339E-05
   95.2795029         1.58510138E-05
   95.4599991         1.58619150E-05
   95.6405029         1.59178362E-05
   95.8209991         1.60149666E-05
   96.0015030         1.61489752E-05
   96.1819992         1.63155000E-05
   96.3625031         1.65107558E-05
   96.5429993         1.67320868E-05
   96.7235031         1.69783725E-05
   96.9039993         1.72501732E-05
   97.0845032         1.75495879E-05
   97.2649994         1.78799455E-05
   97.4455032         1.82453405E-05
   97.6259995         1.86502220E-05
   97.8065033         1.90990650E-05
   97.9869995         1.95961675E-05
   98.1675034         2.01455732E-05
   98.3479996         2.07510184E-05
   98.5285034         2.14158335E-05
   98.7089996         2.21427454E-05
   98.8895035         2.29335456E-05
   99.0699997         2.37887034E-05
   99.2505035         2.47069547E-05
   99.4309998         2.56849835E-05
   99.6115036         2.67173364E-05
   99.7919998         2.77965482E-05
   99.9725037         2.89135696E-05
   100.153000         3.00583979E-05
   100.333504         3.12208431E-05
   100.514000         3.23913300E-05
   100.694504         3.35615405E-05
   100.875000         3.47248642E-05
   101.055496         3.58765756E-05
   101.236000         3.70137386E-05
   101.416496         3.81348691E-05
   101.597000         3.92395086E-05
   101.777496         4.03277591E-05
   101.958000         4.13999624E-05
   102.138496         4.24565114E-05
   102.319000         4.34978756E-05
   102.499496         4.45247824E-05
   102.680000         4.55384798E-05
   102.860497         4.65409685E-05
   103.041000         4.75351299E-05
   103.221497         4.85246419E-05
   103.402000         4.95137028E-05
   103.582497         5.05065873E-05
   103.763000         5.15071479E-05
   103.943497         5.25183423E-05
   104.124001         5.35419313E-05
   104.304497         5.45783332E-05
   104.485001         5.56267623E-05
   104.665497         5.66854360E-05
   104.846001         5.77519422E-05
   105.026497         5.88235162E-05
   105.207001         5.98972438E-05
   105.387497         6.09700801E-05
   105.568001         6.20386782E-05
   105.748497         6.30991053E-05
   105.929001         6.41463994E-05
   106.109497         6.51742157E-05
   106.290001         6.61744707E-05
   106.470497         6.71372036E-05
   106.651001         6.80505836E-05
   106.831497         6.89011431E-05
   107.012001         6.96741699E-05
   107.192497         7.03542100E-05
   107.373001         7.09257147E-05
   107.553497         7.13736736E-05
   107.734001         7.16842187E-05
   107.914497         7.18452138E-05
   108.095001         7.18467927E-05
   108.275497         7.16818176E-05
   108.456001         7.13462869E-05
   108.636497         7.08397274E-05
   108.817001         7.01655299E-05
   108.997498         6.93310503E-05
   109.178001         6.83477265E-05
   109.358498         6.72306924E-05
   109.539001         6.59982834E-05
   109.719498         6.46710832E-05
   109.900002         6.32707815E-05
   110.080498         6.18189224E-05
   110.261002         6.03356966E-05
   110.441498         5.88389958E-05
   110.622002         5.73438811E-05
   110.802498         5.58624561E-05
   110.983002         5.44042305E-05
   111.163498         5.29767603E-05
   111.344002         5.15864049E-05
   111.524498         5.02390103E-05