  -34.5000000       0.00000000    
  -34.3199997       0.00000000    
  -34.1399994       0.00000000    
  -33.9599991       3.17574496E-24
  -33.7799988       8.53417909E-21
  -33.5999985       2.43390819E-20
  -33.4199982       1.43149718E-19
  -33.2400017       8.70391907E-19
  -33.0600014       3.20799377E-18
  -32.8800011       7.64824760E-18
  -32.7000008       1.14263678E-17
  -32.5200005       5.02430786E-18
  -32.3400002      -2.79567658E-17
  -32.1599998      -9.95768558E-17
  -31.9799995      -1.88407815E-16
  -31.7999992      -2.06589443E-16
  -31.6200008      -1.45983895E-17
  -31.4400005       4.59932961E-16
  -31.2600002       1.03424491E-15
  -31.0799999       1.20786041E-15
  -30.8999996       4.57993573E-16
  -30.7199993      -1.15683853E-15
  -30.5400009      -2.60335195E-15
  -30.3600006      -2.33997193E-15
  -30.1800003       2.91107754E-16
  -30.0000000       3.64303746E-15
  -29.8199997       3.69398649E-15
  -29.6399994      -3.82539095E-15
  -29.4599991      -1.95178312E-14
  -29.2800007      -3.63513913E-14
  -29.1000004      -3.83591237E-14
  -28.9200001      -5.04541443E-15
  -28.7399998       7.67677886E-14
  -28.5599995       1.95940147E-13
  -28.3799992       3.03191039E-13
  -28.2000008       3.13136507E-13
  -28.0200005       1.32442316E-13
  -27.8400002      -2.87151569E-13
  -27.6599998      -8.89107798E-13
  -27.4799995      -1.47745813E-12
  -27.2999992      -1.73978952E-12
  -27.1200008      -1.34321916E-12
  -26.9400005      -8.67859726E-14
  -26.7600002       1.94118484E-12
  -26.5799999       4.27307018E-12
  -26.3999996       6.10390167E-12
  -26.2199993       6.48979915E-12
  -26.0400009       4.66645125E-12
  -25.8600006       3.92846834E-13
  -25.6800003      -5.80473039E-12
  -25.5000000      -1.25992775E-11
  -25.3199997      -1.80924581E-11
  -25.1399994      -2.02734236E-11
  -24.9599991      -1.75901915E-11
  -24.7800007      -9.46638774E-12
  -24.6000004       3.40039954E-12
  -24.4200001       1.90637402E-11
  -24.2399998       3.46872080E-11
  -24.0599995       4.71470502E-11
  -23.8799992       5.37154314E-11
  -23.7000008       5.26360344E-11
  -23.5200005       4.34340237E-11
  -23.3400002       2.68778992E-11
  -23.1599998       4.60771308E-12
  -22.9799995      -2.14666427E-11
  -22.7999992      -4.98365897E-11
  -22.6200008      -7.99622313E-11
  -22.4400005      -1.12592380E-10
  -22.2600002      -1.49754611E-10
  -22.0799999      -1.94412805E-10
  -21.8999996      -2.49873983E-10
  -21.7199993      -3.19094140E-10
  -21.5400009      -4.04062950E-10
  -21.3600006      -5.05417985E-10
  -21.1800003      -6.22353002E-10
  -21.0000000      -7.52766738E-10
  -20.8199997      -8.93499164E-10
  -20.6399994      -1.04047260E-09
  -20.4599991      -1.18861698E-09
  -20.2800007      -1.33159961E-09
  -20.1000004      -1.46152312E-09
  -19.9200001      -1.56884694E-09
  -19.7399998      -1.64275638E-09
  -19.5599995      -1.67206593E-09
  -19.3799992      -1.64653735E-09
  -19.2000008      -1.55831448E-09
  -19.0200005      -1.40308376E-09
  -18.8400002      -1.18062171E-09
  -18.6599998      -8.94568086E-10
  -18.4799995      -5.51510893E-10
  -18.2999992      -1.59693786E-10
  -18.1200008       2.72221218E-10
  -17.9400005       7.35967176E-10
  -17.7600002       1.22388610E-09
  -17.5799999       1.72865089E-09
  -17.3999996       2.24281482E-09
  -17.2199993       2.75856160E-09
  -17.0400009       3.26789973E-09
  -16.8600006       3.76326970E-09
  -16.6800003       4.23827906E-09
  -16.5000000       4.68816852E-09
  -16.3199997       5.10967579E-09
  -16.1399994       5.50024959E-09
  -15.9600000       5.85683146E-09
  -15.7799997       6.17467366E-09
  -15.6000004       6.44667075E-09
  -15.4200001       6.66353106E-09
  -15.2399998       6.81485712E-09
  -15.0600004       6.89091539E-09
  -14.8800001       6.88470125E-09
  -14.6999998       6.79384460E-09
  -14.5200005       6.62195676E-09
  -14.3400002       6.37913811E-09
  -14.1599998       6.08149575E-09
  -13.9799995       5.74963721E-09
  -13.8000002       5.40623546E-09
  -13.6199999       5.07290654E-09
  -13.4399996       4.76677187E-09
  -13.2600002       4.49724480E-09
  -13.0799999       4.26361835E-09
  -12.8999996       4.05401446E-09
  -12.7200003       3.84602261E-09
  -12.5400000       3.60903329E-09
  -12.3599997       3.30791994E-09
  -12.1800003       2.90740743E-09
  -12.0000000       2.37629050E-09
  -11.8199997       1.69075587E-09
  -11.6400003       8.36307246E-10
  -11.4600000      -1.91834201E-10
  -11.2799997      -1.38960010E-09
  -11.1000004      -2.74571699E-09
  -10.9200001      -4.24355573E-09
  -10.7399998      -5.86273474E-09
  -10.5600004      -7.58024044E-09
  -10.3800001      -9.37097333E-09
  -10.1999998      -1.12077760E-08
  -10.0200005      -1.30609434E-08
  -9.84000015      -1.48972932E-08
  -9.65999985      -1.66789142E-08
  -9.47999954      -1.83619129E-08
  -9.30000019      -1.98956442E-08
  -9.11999989      -2.12230091E-08
  -8.93999958      -2.22822898E-08
  -8.76000023      -2.30105321E-08
  -8.57999992      -2.33482300E-08
  -8.39999962      -2.32445210E-08
  -8.22000027      -2.26621761E-08
  -8.03999996      -2.15816094E-08
  -7.86000013      -2.00036148E-08
  -7.67999983      -1.79508124E-08
  -7.50000000      -1.54679967E-08
  -7.32000017      -1.26216699E-08
  -7.13999987      -9.49891454E-09
  -6.96000004      -6.20553831E-09
  -6.78000021      -2.86328783E-09
  -6.59999990       3.94135780E-10
  -6.42000008       3.42637874E-09
  -6.23999977       6.09285955E-09
  -6.05999994       8.25991275E-09
  -5.88000011       9.80767467E-09
  -5.69999981       1.06359774E-08
  -5.51999998       1.06683222E-08
  -5.34000015       9.85365300E-09
  -5.15999985       8.16601275E-09
  -4.98000002       5.60254998E-09
  -4.80000019       2.18062568E-09
  -4.61999989      -2.06523265E-09
  -4.44000006      -7.08598424E-09
  -4.26000023      -1.28199966E-08
  -4.07999992      -1.91939726E-08
  -3.90000010      -2.61230095E-08
  -3.72000003      -3.35099521E-08
  -3.53999996      -4.12444408E-08
  -3.35999990      -4.92022494E-08
  -3.18000007      -5.72456109E-08
  -3.00000000      -6.52252510E-08
  -2.81999993      -7.29840437E-08
  -2.64000010      -8.03623976E-08
  -2.46000004      -8.72042065E-08
  -2.27999997      -9.33625799E-08
  -2.09999990      -9.87044828E-08
  -1.91999996      -1.03113663E-07
  -1.74000001      -1.06492529E-07
  -1.55999994      -1.08763295E-07
  -1.38000000      -1.09869156E-07
  -1.20000005      -1.09775769E-07
  -1.01999998      -1.08473344E-07
 -0.839999974      -1.05977918E-07
 -0.660000026      -1.02331114E-07
 -0.479999989      -9.75980470E-08
 -0.300000012      -9.18626029E-08
 -0.119999997      -8.52216786E-08
   5.99999987E-02  -7.77789211E-08
  0.239999995      -6.96397322E-08
  0.419999987      -6.09087749E-08
  0.600000024      -5.16900620E-08
  0.779999971      -4.20891979E-08
  0.959999979      -3.22160041E-08
   1.13999999      -2.21865069E-08
   1.32000005      -1.21231709E-08
   1.50000000      -2.15193618E-09
   1.67999995       7.60170504E-09
   1.86000001       1.70178946E-08
   2.03999996       2.59868376E-08
   2.22000003       3.44120004E-08
   2.40000010       4.22112620E-08
   2.57999992       4.93173467E-08
   2.75999999       5.56778339E-08
   2.94000006       6.12553848E-08
   3.11999989       6.60279795E-08
   3.29999995       6.99897171E-08
   3.48000002       7.31514120E-08
   3.66000009       7.55403917E-08
   3.83999991       7.72005677E-08
   4.01999998       7.81922580E-08
   4.19999981       7.85931960E-08
   4.38000011       7.85000438E-08
   4.55999994       7.80290179E-08
   4.73999977       7.73169475E-08
   4.92000008       7.65184325E-08
   5.09999990       7.58011396E-08
   5.28000021       7.53385336E-08
   5.46000004       7.53006333E-08
   5.63999987       7.58457617E-08
   5.82000017       7.71144855E-08
   6.00000000       7.92270995E-08
   6.17999983       8.22836483E-08
   6.36000013       8.63669101E-08
   6.53999996       9.15455871E-08
   6.71999979       9.78759900E-08
   6.90000010       1.05402869E-07
   7.07999992       1.14157757E-07
   7.26000023       1.24156500E-07
   7.44000006       1.35397656E-07
   7.61999989       1.47860916E-07
   7.80000019       1.61507543E-07
   7.98000002       1.76280793E-07
   8.15999985       1.92105631E-07
   8.34000015       2.08887940E-07
   8.52000046       2.26513080E-07
   8.69999981       2.44843278E-07
   8.88000011       2.63717567E-07
   9.06000042       2.82954403E-07
   9.23999977       3.02357591E-07
   9.42000008       3.21725707E-07
   9.60000038       3.40862272E-07
   9.77999973       3.59585783E-07
   9.96000004       3.77737365E-07
   10.1400003       3.95182866E-07
   10.3199997       4.11814540E-07
   10.5000000       4.27548883E-07
   10.6800003       4.42324875E-07
   10.8599997       4.56106278E-07
   11.0400000       4.68883087E-07
   11.2200003       4.80677159E-07
   11.3999996       4.91548576E-07
   11.5799999       5.01601562E-07
   11.7600002       5.10991129E-07
   11.9399996       5.19926971E-07
   12.1199999       5.28676821E-07
   12.3000002       5.37566791E-07
   12.4799995       5.46980573E-07
   12.6599998       5.57353871E-07
   12.8400002       5.69165081E-07
   13.0200005       5.82922155E-07
   13.1999998       5.99147313E-07
   13.3800001       6.18360104E-07
   13.5600004       6.41064958E-07
   13.7399998       6.67741972E-07
   13.9200001       6.98844246E-07
   14.1000004       7.34799357E-07
   14.2799997       7.76014701E-07
   14.4600000       8.22882100E-07
   14.6400003       8.75777175E-07
   14.8199997       9.35055141E-07
   15.0000000       1.00104160E-06
   15.1800003       1.07401922E-06
   15.3599997       1.15421528E-06
   15.5400000       1.24179303E-06
   15.7200003       1.33684773E-06
   15.8999996       1.43940747E-06
   16.0799999       1.54943780E-06
   16.2600002       1.66684833E-06
   16.4400005       1.79149970E-06
   16.6200008       1.92320908E-06
   16.7999992       2.06175764E-06
   16.9799995       2.20690049E-06
   17.1599998       2.35838002E-06
   17.3400002       2.51593815E-06
   17.5200005       2.67933387E-06
   17.7000008       2.84835687E-06
   17.8799992       3.02283206E-06
   18.0599995       3.20262393E-06
   18.2399998       3.38762834E-06
   18.4200001       3.57776480E-06
   18.6000004       3.77296305E-06
   18.7800007       3.97315353E-06
   18.9599991       4.17826141E-06
   19.1399994       4.38820689E-06
   19.3199997       4.60290312E-06
   19.5000000       4.82225960E-06
   19.6800003       5.04618629E-06
   19.8600006       5.27459088E-06
   20.0400009       5.50737968E-06
   20.2199993       5.74445221E-06
   20.3999996       5.98570296E-06
   20.5799999       6.23101141E-06
   20.7600002       6.48023888E-06
   20.9400005       6.73321711E-06
   21.1200008       6.98973281E-06
   21.2999992       7.24951315E-06
   21.4799995       7.51220841E-06
   21.6599998       7.77738205E-06
   21.8400002       8.04450701E-06
   22.0200005       8.31297803E-06
   22.2000008       8.58212479E-06
   22.3799992       8.85124427E-06
   22.5599995       9.11962070E-06
   22.7399998       9.38654830E-06
   22.9200001       9.65134222E-06
   23.1000004       9.91334127E-06
   23.2800007       1.01718988E-05
   23.4599991       1.04263763E-05
   23.6399994       1.06761345E-05
   23.8199997       1.09205357E-05
   24.0000000       1.11589452E-05
   24.1800003       1.13907481E-05
   24.3600006       1.16153597E-05
   24.5400009       1.18322378E-05
   24.7199993       1.20409004E-05
   24.8999996       1.22409192E-05
   25.0799999       1.24319304E-05
   25.2600002       1.26136274E-05
   25.4400005       1.27857593E-05
   25.6200008       1.29481150E-05
   25.7999992       1.31005245E-05
   25.9799995       1.32428413E-05
   26.1599998       1.33749309E-05
   26.3400002       1.34966649E-05
   26.5200005       1.36079125E-05
   26.7000008       1.37085435E-05
   26.8799992       1.37984307E-05
   27.0599995       1.38774640E-05
   27.2399998       1.39455551E-05
   27.4200001       1.40026523E-05
   27.6000004       1.40487373E-05
   27.7800007       1.40838174E-05
   27.9599991       1.41079199E-05
   28.1399994       1.41210739E-05
   28.3199997       1.41233022E-05
   28.5000000       1.41146093E-05
   28.6800003       1.40949796E-05
   28.8600006       1.40643788E-05
   29.0400009       1.40227503E-05
   29.2199993       1.39700196E-05
   29.3999996       1.39060949E-05
   29.5799999       1.38308642E-05
   29.7600002       1.37441975E-05
   29.9400005       1.36459466E-05
   30.1200008       1.35359596E-05
   30.2999992       1.34140773E-05
   30.4799995       1.32801433E-05
   30.6599998       1.31340003E-05
   30.8400002       1.29754926E-05
   31.0200005       1.28044539E-05
   31.2000008       1.26207024E-05
   31.3799992       1.24240414E-05
   31.5599995       1.22142646E-05
   31.7399998       1.19911738E-05
   31.9200001       1.17546033E-05
   32.0999985       1.15044395E-05
   32.2799988       1.12406415E-05
   32.4599991       1.09632529E-05
   32.6399994       1.06724010E-05
   32.8199997       1.03682823E-05
   33.0000000       1.00511625E-05
   33.1800003       9.72135695E-06
   33.3600006       9.37922232E-06
   33.5400009       9.02516967E-06
   33.7200012       8.65966285E-06
   33.9000015       8.28323209E-06
   34.0800018       7.89648493E-06
   34.2599983       7.50011441E-06
   34.4399986       7.09489996E-06
   34.6199989       6.68171015E-06
   34.7999992       6.26149176E-06
   34.9799995       5.83526571E-06
   35.1599998       5.40410656E-06
   35.3400002       4.96913071E-06
   35.5200005       4.53147231E-06
   35.7000008       4.09226641E-06
   35.8800011       3.65263190E-06
   36.0600014       3.21365906E-06
   36.2400017       2.77640584E-06
   36.4199982       2.34190520E-06
   36.5999985       1.91116919E-06
   36.7799988       1.48519666E-06
   36.9599991       1.06496998E-06
   37.1399994       6.51449795E-07
   37.3199997       2.45552457E-07
   37.5000000      -1.51871546E-07
   37.6800003      -5.40059204E-07
   37.8600006      -9.18351247E-07
   38.0400009      -1.28618910E-06
   38.2200012      -1.64311450E-06
   38.4000015      -1.98874523E-06
   38.5800018      -2.32275920E-06
   38.7599983      -2.64487699E-06
   38.9399986      -2.95485165E-06
   39.1199989      -3.25246901E-06
   39.2999992      -3.53754967E-06
   39.4799995      -3.80995834E-06
   39.6599998      -4.06960908E-06
   39.8400002      -4.31646276E-06
   40.0200005      -4.55053078E-06
   40.2000008      -4.77186722E-06
   40.3800011      -4.98056352E-06
   40.5600014      -5.17674152E-06
   40.7400017      -5.36054949E-06
   40.9199982      -5.53215250E-06
   41.0999985      -5.69172653E-06
   41.2799988      -5.83945211E-06
   41.4599991      -5.97550707E-06
   41.6399994      -6.10006464E-06
   41.8199997      -6.21329264E-06
   42.0000000      -6.31535431E-06
   42.1800003      -6.40641747E-06
   42.3600006      -6.48664809E-06
   42.5400009      -6.55621034E-06
   42.7200012      -6.61524973E-06
   42.9000015      -6.66388132E-06
   43.0800018      -6.70217150E-06
   43.2599983      -6.73012983E-06
   43.4399986      -6.74770308E-06
   43.6199989      -6.75478759E-06
   43.7999992      -6.75123874E-06
   43.9799995      -6.73689010E-06
   44.1599998      -6.71156204E-06
   44.3400002      -6.67505992E-06
   44.5200005      -6.62716911E-06
   44.7000008      -6.56763495E-06
   44.8800011      -6.49614776E-06
   45.0600014      -6.41233328E-06
   45.2400017      -6.31575131E-06
   45.4199982      -6.20590617E-06
   45.5999985      -6.08227583E-06
   45.7799988      -5.94432913E-06
   45.9599991      -5.79155494E-06
   46.1399994      -5.62346668E-06
   46.3199997      -5.43960778E-06
   46.5000000      -5.23953941E-06
   46.6800003      -5.02281500E-06
   46.8600006      -4.78896709E-06
   47.0400009      -4.53748089E-06
   47.2200012      -4.26778024E-06
   47.4000015      -3.97922577E-06
   47.5800018      -3.67112784E-06
   47.7599983      -3.34276297E-06
   47.9399986      -2.99341445E-06
   48.1199989      -2.62241565E-06
   48.2999992      -2.22918766E-06
   48.4799995      -1.81328630E-06
   48.6599998      -1.37442760E-06
   48.8400002      -9.12498137E-07
   49.0200005      -4.27541920E-07
   49.2000008       8.02621543E-08
   49.3800011       6.10645998E-07
   49.5600014       1.16329284E-06
   49.7400017       1.73787407E-06
   49.9199982       2.33406649E-06
   50.0999985       2.95155587E-06
   50.2799988       3.59002047E-06
   50.4599991       4.24910513E-06
   50.6399994       4.92838763E-06
   50.8199997       5.62736068E-06
   51.0000000       6.34541857E-06
   51.1800003       7.08187099E-06
   51.3600006       7.83596079E-06
   51.5400009       8.60690488E-06
   51.7200012       9.39392794E-06
   51.9000015       1.01963051E-05
   52.0800018       1.10133906E-05
   52.2599983       1.18446387E-05
   52.4399986       1.26896157E-05
   52.6199989       1.35479995E-05
   52.7999992       1.44195719E-05
   52.9799995       1.53041965E-05
   53.1599998       1.62017968E-05
   53.3400002       1.71123393E-05
   53.5200005       1.80358074E-05
   53.7000008       1.89721814E-05
   53.8800011       1.99214264E-05
   54.0600014       2.08834772E-05
   54.2400017       2.18582372E-05
   54.4199982       2.28455719E-05
   54.5999985       2.38453013E-05
   54.7799988       2.48571996E-05
   54.9599991       2.58809887E-05
   55.1399994       2.69163465E-05
   55.3199997       2.79628985E-05
   55.5000000       2.90202424E-05
   55.6800003       3.00879328E-05
   55.8600006       3.11654985E-05
   56.0400009       3.22524320E-05
   56.2200012       3.33482058E-05
   56.4000015       3.44522341E-05
   56.5800018       3.55638876E-05
   56.7599983       3.66824570E-05
   56.9399986       3.78071709E-05
   57.1199989       3.89371817E-05
   57.2999992       4.00715944E-05
   57.4799995       4.12094814E-05
   57.6599998       4.23499405E-05
   57.8400002       4.34921094E-05
   58.0200005       4.46352497E-05
   58.2000008       4.57787246E-05
   58.3800011       4.69220467E-05
   58.5600014       4.80648705E-05
   58.7400017       4.92069703E-05
   58.9199982       5.03481751E-05
   59.0999985       5.14883759E-05
   59.2799988       5.26274343E-05
   59.4599991       5.37651686E-05
   59.6399994       5.49013130E-05
   59.8199997       5.60355184E-05
   60.0000000       5.71673663E-05
   60.1800003       5.82963803E-05
   60.3600006       5.94220692E-05
   60.5400009       6.05439454E-05
   60.7200012       6.16615434E-05
   60.9000015       6.27744448E-05
   61.0800018       6.38822312E-05
   61.2599983       6.49844660E-05
   61.4399986       6.60806545E-05
   61.6199989       6.71702219E-05
   61.7999992       6.82524260E-05
   61.9799995       6.93263937E-05
   62.1599998       7.03910846E-05
   62.3400002       7.14452981E-05
   62.5200005       7.24877245E-05
   62.7000008       7.35169815E-05
   62.8800011       7.45316283E-05
   63.0600014       7.55302244E-05
   63.2400017       7.65113655E-05
   63.4199982       7.74736982E-05
   63.5999985       7.84159201E-05
   63.7799988       7.93367726E-05
   63.9599991       8.02350914E-05
   64.1399994       8.11097343E-05
   64.3199997       8.19596462E-05
   64.5000000       8.27838521E-05
   64.6800003       8.35814208E-05
   64.8600006       8.43515809E-05
   65.0400009       8.50936412E-05
   65.2200012       8.58070562E-05
   65.4000015       8.64914036E-05
   65.5800018       8.71463926E-05
   65.7600021       8.77718485E-05
   65.9400024       8.83676767E-05
   66.1200027       8.89338698E-05
   66.3000031       8.94704935E-05
   66.4800034       8.99776787E-05
   66.6600037       9.04556291E-05
   66.8399963       9.09045921E-05
   67.0199966       9.13248878E-05
   67.1999969       9.17168873E-05
   67.3799973       9.20809762E-05
   67.5599976       9.24175329E-05
   67.7399979       9.27268629E-05
   67.9199982       9.30091919E-05
   68.0999985       9.32645999E-05
   68.2799988       9.34930140E-05
   68.4599991       9.36942015E-05
   68.6399994       9.38677767E-05
   68.8199997       9.40132886E-05
   69.0000000       9.41302205E-05
   69.1800003       9.42180777E-05
   69.3600006       9.42764382E-05
   69.5400009       9.43049745E-05
   69.7200012       9.43034684E-05
   69.9000015       9.42718107E-05
   70.0800018       9.42099432E-05
   70.2600021       9.41178369E-05
   70.4400024       9.39954407E-05
   70.6200027       9.38426383E-05
   70.8000031       9.36592623E-05
   70.9800034       9.34451164E-05
   71.1600037       9.32000112E-05
   71.3399963       9.29238231E-05
   71.5199966       9.26165812E-05
   71.6999969       9.22785111E-05
   71.8799973       9.19100130E-05
   72.0599976       9.15117344E-05
   72.2399979       9.10844756E-05
   72.4199982       9.06291607E-05
   72.5999985       9.01467793E-05
   72.7799988       8.96383353E-05
   72.9599991       8.91047748E-05
   73.1399994       8.85470072E-05
   73.3199997       8.79658546E-05
   73.5000000       8.73621102E-05
   73.6800003       8.67365161E-05
   73.8600006       8.60898435E-05
   74.0400009       8.54228711E-05
   74.2200012       8.47364281E-05
   74.4000015       8.40313951E-05
   74.5800018       8.33087106E-05
   74.7600021       8.25693423E-05
   74.9400024       8.18143162E-05
   75.1200027       8.10446145E-05
   75.3000031       8.02612485E-05
   75.4800034       7.94651933E-05
   75.6600037       7.86573873E-05
   75.8399963       7.78387621E-05
   76.0199966       7.70102270E-05
   76.1999969       7.61726697E-05
   76.3799973       7.53269996E-05
   76.5599976       7.44741046E-05
   76.7399979       7.36149304E-05
   76.9199982       7.27504230E-05
   77.0999985       7.18815863E-05
   77.2799988       7.10095192E-05
   77.4599991       7.01353929E-05
   77.6399994       6.92605026E-05
   77.8199997       6.83862672E-05
   78.0000000       6.75141928E-05
   78.1800003       6.66458291E-05
   78.3600006       6.57827259E-05
   78.5400009       6.49263384E-05
   78.7200012       6.40779617E-05
   78.9000015       6.32386727E-05
   79.0800018       6.24093082E-05
   79.2600021       6.15904864E-05
   79.4400024       6.07826114E-05
   79.6200027       5.99859559E-05
   79.8000031       5.92007164E-05
   79.9800034       5.84270674E-05
   80.1600037       5.76652055E-05
   80.3399963       5.69153563E-05
   80.5199966       5.61777706E-05
   80.6999969       5.54526778E-05
   80.8799973       5.47402269E-05
   81.0599976       5.40404544E-05
   81.2399979       5.33532257E-05
   81.4199982       5.26782242E-05
   81.5999985       5.20149588E-05
   81.7799988       5.13628183E-05
   81.9599991       5.07211189E-05
   82.1399994       5.00891911E-05
   82.3199997       4.94664564E-05
   82.5000000       4.88524893E-05
   82.6800003       4.82470205E-05
   82.8600006       4.76499372E-05
   83.0400009       4.70612140E-05
   83.2200012       4.64808436E-05
   83.4000015       4.59087605E-05
   83.5800018       4.53447392E-05
   83.7600021       4.47883940E-05
   83.9400024       4.42391283E-05
   84.1200027       4.36961964E-05
   84.3000031       4.31587359E-05
   84.4800034       4.26258739E-05
   84.6600037       4.20967881E-05
   84.8399963       4.15707691E-05
   85.0199966       4.10472821E-05
   85.1999969       4.05259816E-05
   85.3799973       4.00067183E-05
   85.5599976       3.94895069E-05
   85.7399979       3.89745182E-05
   85.9199982       3.84620071E-05
   86.0999985       3.79523080E-05
   86.2799988       3.74457886E-05
   86.4599991       3.69428381E-05
   86.6399994       3.64438711E-05
   86.8199997       3.59493351E-05
   87.0000000       3.54597250E-05
   87.1800003       3.49756192E-05
   87.3600006       3.44976761E-05
   87.5400009       3.40266743E-05
   87.7200012       3.35634795E-05
   87.9000015       3.31090559E-05
   88.0800018       3.26644367E-05
   88.2600021       3.22307169E-05
   88.4400024       3.18090169E-05
   88.6200027       3.14004792E-05
   88.8000031       3.10062424E-05
   88.9800034       3.06274196E-05
   89.1600037       3.02650660E-05
   89.3399963       2.99201547E-05
   89.5199966       2.95935261E-05
   89.6999969       2.92858767E-05
   89.8799973       2.89977306E-05
   90.0599976       2.87294570E-05
   90.2399979       2.84812959E-05
   90.4199982       2.82533820E-05
   90.5999985       2.80458207E-05
   90.7799988       2.78587122E-05
   90.9599991       2.76921819E-05
   91.1399994       2.75463990E-05
   91.3199997       2.74215527E-05
   91.5000000       2.73178230E-05
   91.6800003       2.72353318E-05
   91.8600006       2.71741010E-05
   92.0400009       2.71340086E-05
   92.2200012       2.71147692E-05
   92.4000015       2.71159224E-05
   92.5800018       2.71368626E-05
   92.7600021       2.71768677E-05
   92.9400024       2.72351517E-05
   93.1200027       2.73109254E-05
   93.3000031       2.74034501E-05
   93.4800034       2.75120710E-05
   93.6600037       2.76362352E-05
   93.8399963       2.77754807E-05
   94.0199966       2.79293818E-05
   94.1999969       2.80974982E-05
   94.3799973       2.82793117E-05
   94.5599976       2.84741745E-05
   94.7399979       2.86812829E-05
   94.9199982       2.88996798E-05
   95.0999985       2.91283050E-05
   95.2799988       2.93660414E-05
   95.4599991       2.96117960E-05
   95.6399994       2.98645591E-05
   95.8199997       3.01234541E-05
   96.0000000       3.03877659E-05
   96.1800003       3.06569236E-05
   96.3600006       3.09304924E-05
   96.5400009       3.12081247E-05
   96.7200012       3.14895369E-05
   96.9000015       3.17744671E-05
   97.0800018       3.20626496E-05
   97.2600021       3.23537861E-05
   97.4400024       3.26475565E-05
   97.6200027       3.29436189E-05
   97.8000031       3.32416093E-05
   97.9800034       3.35411569E-05
   98.1600037       3.38419050E-05
   98.3399963       3.41435116E-05
   98.5199966       3.44456603E-05
   98.6999969       3.47480345E-05
   98.8799973       3.50503251E-05
   99.0599976       3.53522228E-05
   99.2399979       3.56533856E-05
   99.4199982       3.59534788E-05
   99.5999985       3.62521751E-05
   99.7799988       3.65491760E-05
   99.9599991       3.68442561E-05
   100.139999       3.71372698E-05
   100.320000       3.74281663E-05
   100.500000       3.77169818E-05
   100.680000       3.80038000E-05
   100.860001       3.82887447E-05
   101.040001       3.85719250E-05
   101.220001       3.88534318E-05
   101.400002       3.91333306E-05
   101.580002       3.94116905E-05
   101.760002       3.96885771E-05
   101.940002       3.99641212E-05
   102.120003       4.02385012E-05
   102.300003       4.05119754E-05
   102.480003       4.07848493E-05
   102.660004       4.10574648E-05
   102.839996       4.13301314E-05
   103.019997       4.16031107E-05
   103.199997       4.18765558E-05
   103.379997       4.21505028E-05
   103.559998       4.24248610E-05
   103.739998       4.26994193E-05
   103.919998       4.29738975E-05
   104.099998       4.32479683E-05
   104.279999       4.35213442E-05
   104.459999       4.37937997E-05
   104.639999       4.40652257E-05
   104.820000       4.43356548E-05
   105.000000       4.46052509E-05
   105.180000       4.48743085E-05
   105.360001       4.51432024E-05
   105.540001       4.54123656E-05
   105.720001       4.56822381E-05
   105.900002       4.59532530E-05
   106.080002       4.62258249E-05
   106.260002       4.65003541E-05
   106.440002       4.67772516E-05
   106.620003       4.70569357E-05
   106.800003       4.73398795E-05
   106.980003       4.76265996E-05
   107.160004       4.79176633E-05
   107.339996       4.82136857E-05
   107.519997       4.85153250E-05
   107.699997       4.88232763E-05
   107.879997       4.91382561E-05
   108.059998       4.94610067E-05
   108.239998       4.97922701E-05
   108.419998       5.01327631E-05
   108.599998       5.04831660E-05
   108.779999       5.08440535E-05
   108.959999       5.12158731E-05
   109.139999       5.15989050E-05
   109.320000       5.19932291E-05
   109.500000       5.23987364E-05
   109.680000       5.28151359E-05
   109.860001       5.32419945E-05
   110.040001       5.36787884E-05
   110.220001       5.41249683E-05
   110.400002       5.45800103E-05
   110.580002       5.50434597E-05
   110.760002       5.55149418E-05
   110.940002       5.59941618E-05
   111.120003       5.64808543E-05
   111.300003       5.69747426E-05
   111.480003       5.74754667E-05
   111.660004       5.79825428E-05
   111.839996       5.84953377E-05
   112.019997       5.90130621E-05
   112.199997       5.95348320E-05
   112.379997       6.00597523E-05
   112.559998       6.05869973E-05
   112.739998       6.11159267E-05
   112.919998       6.16461257E-05
   113.099998       6.21774743E-05
   113.279999       6.27100671E-05
   113.459999       6.32442025E-05
   113.639999       6.37802150E-05
   113.820000       6.43183957E-05
   114.000000       6.48588393E-05
   114.180000       6.54013929E-05
   114.360001       6.59456127E-05
   114.540001       6.64907857E-05
   114.720001       6.70360023E-05
   114.900002       6.75802730E-05
   115.080002       6.81226520E-05
   115.260002       6.86623389E-05
   115.440002       6.91987516E-05
   115.620003       6.97315627E-05
   115.800003       7.02606703E-05
   115.980003       7.07861327E-05
   116.160004       7.13080371E-05
   116.339996       7.18264127E-05
   116.519997       7.23411431E-05
   116.699997       7.28518426E-05
   116.879997       7.33579072E-05
   117.059998       7.38584858E-05
   117.239998       7.43525743E-05
   117.419998       7.48390885E-05
   117.599998       7.53169879E-05
   117.779999       7.57853268E-05
   117.959999       7.62433192E-05
   118.139999       7.66903686E-05
   118.320000       7.71260675E-05
   118.500000       7.75501176E-05
   118.680000       7.79623369E-05
   118.860001       7.83625364E-05
   119.040001       7.87505414E-05
   119.220001       7.91261336E-05
   119.400002       7.94890584E-05
   119.580002       7.98390683E-05