  -34.5000000       0.00000000    
  -34.3199997       0.00000000    
  -34.1399994       0.00000000    
  -33.9599991      -1.03484328E-27
  -33.7799988      -8.62452063E-25
  -33.5999985      -3.51896887E-24
  -33.4199982      -7.62475322E-24
  -33.2400017      -1.18419224E-23
  -33.0600014      -1.17365842E-23
  -32.8800011       2.89362763E-23
  -32.7000008       2.14328686E-22
  -32.5200005       5.47280798E-22
  -32.3400002       4.46362744E-22
  -32.1599998      -1.25875846E-21
  -31.9799995      -4.57483022E-21
  -31.7999992      -5.68805700E-21
  -31.6200008       2.15063163E-21
  -31.4400005       2.06613803E-20
  -31.2600002       3.67787991E-20
  -31.0799999       2.49900294E-20
  -30.8999996      -3.04491323E-20
  -30.7199993      -1.07675516E-19
  -30.5400009      -1.44396913E-19
  -30.3600006      -7.66935562E-20
  -30.1800003       1.03925544E-19
  -30.0000000       3.25230899E-19
  -29.8199997       4.68114485E-19
  -29.6399994       4.29083347E-19
  -29.4599991       1.49035044E-19
  -29.2800007      -4.13055482E-19
  -29.1000004      -1.29721617E-18
  -28.9200001      -2.44964513E-18
  -28.7399998      -3.50623333E-18
  -28.5599995      -3.61367251E-18
  -28.3799992      -1.56207527E-18
  -28.2000008       3.59847017E-18
  -28.0200005       1.16084062E-17
  -27.8400002       2.02209859E-17
  -27.6599998       2.52151253E-17
  -27.4799995       2.15445924E-17
  -27.2999992       5.42389235E-18
  -27.1200008      -2.33764070E-17
  -26.9400005      -5.99809242E-17
  -26.7600002      -9.44043035E-17
  -26.5799999      -1.13414522E-16
  -26.3999996      -1.03982896E-16
  -26.2199993      -5.74621791E-17
  -26.0400009       2.67396704E-17
  -25.8600006       1.39219037E-16
  -25.6800003       2.61158734E-16
  -25.5000000       3.67438843E-16
  -25.3199997       4.31483586E-16
  -25.1399994       4.30566064E-16
  -24.9599991       3.50354294E-16
  -24.7800007       1.87960859E-16
  -24.6000004      -4.66239161E-17
  -24.4200001      -3.30507756E-16
  -24.2399998      -6.29197726E-16
  -24.0599995      -8.99585730E-16
  -23.8799992      -1.09533600E-15
  -23.7000008      -1.17523333E-15
  -23.5200005      -1.11417136E-15
  -23.3400002      -9.15136937E-16
  -23.1599998      -6.19261447E-16
  -22.9799995      -3.10509282E-16
  -22.7999992      -1.12405282E-16
  -22.6200008      -1.76281532E-16
  -22.4400005      -6.63408010E-16
  -22.2600002      -1.72551379E-15
  -22.0799999      -3.48875486E-15
  -21.8999996      -6.04436062E-15
  -21.7199993      -9.44569553E-15
  -21.5400009      -1.37082432E-14
  -21.3600006      -1.88079770E-14
  -21.1800003      -2.46751692E-14
  -21.0000000      -3.11853171E-14
  -20.8199997      -3.81529965E-14
  -20.6399994      -4.53360053E-14
  -20.4599991      -5.24552359E-14
  -20.2800007      -5.92277827E-14
  -20.1000004      -6.54050314E-14
  -19.9200001      -7.08010853E-14
  -19.7399998      -7.52987963E-14
  -19.5599995      -7.88282539E-14
  -19.3799992      -8.13230437E-14
  -19.2000008      -8.26711339E-14
  -19.0200005      -8.26803768E-14
  -18.8400002      -8.10754526E-14
  -18.6599998      -7.75313583E-14
  -18.4799995      -7.17350780E-14
  -18.2999992      -6.34562390E-14
  -18.1200008      -5.26048321E-14
  -17.9400005      -3.92604074E-14
  -17.7600002      -2.36672440E-14
  -17.5799999      -6.20395941E-15
  -17.3999996       1.26588151E-14
  -17.2199993       3.23975838E-14
  -17.0400009       5.24643940E-14
  -16.8600006       7.23054700E-14
  -16.6800003       9.13777720E-14
  -16.5000000       1.09172891E-13
  -16.3199997       1.25251575E-13
  -16.1399994       1.39285095E-13
  -15.9600000       1.51091460E-13
  -15.7799997       1.60652104E-13
  -15.6000004       1.68099069E-13
  -15.4200001       1.73671651E-13
  -15.2399998       1.77653899E-13
  -15.0600004       1.80309503E-13
  -14.8800001       1.81834813E-13
  -14.6999998       1.82342666E-13
  -14.5200005       1.81879848E-13
  -14.3400002       1.80469951E-13
  -14.1599998       1.78167756E-13
  -13.9799995       1.75109384E-13
  -13.8000002       1.71549583E-13
  -13.6199999       1.67881334E-13
  -13.4399996       1.64638865E-13
  -13.2600002       1.62482861E-13
  -13.0799999       1.62165298E-13
  -12.8999996       1.64465636E-13
  -12.7200003       1.70095126E-13
  -12.5400000       1.79569833E-13
  -12.3599997       1.93066618E-13
  -12.1800003       2.10287367E-13
  -12.0000000       2.30357861E-13
  -11.8199997       2.51791453E-13
  -11.6400003       2.72531103E-13
  -11.4600000       2.90064956E-13
  -11.2799997       3.01602005E-13
  -11.1000004       3.04272883E-13
  -10.9200001       2.95325423E-13
  -10.7399998       2.72282712E-13
  -10.5600004       2.33045110E-13
  -10.3800001       1.75932226E-13
  -10.1999998       9.96733823E-14
  -10.0200005       3.35935554E-15
  -9.84000015      -1.13607732E-13
  -9.65999985      -2.51548944E-13
  -9.47999954      -4.10500057E-13
  -9.30000019      -5.90140567E-13
  -9.11999989      -7.89663690E-13
  -8.93999958      -1.00759559E-12
  -8.76000023      -1.24159472E-12
  -8.57999992      -1.48827250E-12
  -8.39999962      -1.74307509E-12
  -8.22000027      -2.00026974E-12
  -8.03999996      -2.25305473E-12
  -7.86000013      -2.49378643E-12
  -7.67999983      -2.71430990E-12
  -7.50000000      -2.90634053E-12
  -7.32000017      -3.06185307E-12
  -7.13999987      -3.17343547E-12
  -6.96000004      -3.23457060E-12
  -6.78000021      -3.23984502E-12
  -6.59999990      -3.18506332E-12
  -6.42000008      -3.06730639E-12
  -6.23999977      -2.88493274E-12
  -6.05999994      -2.63754144E-12
  -5.88000011      -2.32591377E-12
  -5.69999981      -1.95195422E-12
  -5.51999998      -1.51861423E-12
  -5.34000015      -1.02983583E-12
  -5.15999985      -4.90490678E-13
  -4.98000002       9.36792283E-14
  -4.80000019       7.16126594E-13
  -4.61999989       1.36959671E-12
  -4.44000006       2.04625531E-12
  -4.26000023       2.73784229E-12
  -4.07999992       3.43586422E-12
  -3.90000010       4.13180080E-12
  -3.72000003       4.81729196E-12
  -3.53999996       5.48431049E-12
  -3.35999990       6.12528908E-12
  -3.18000007       6.73320167E-12
  -3.00000000       7.30162198E-12
  -2.81999993       7.82472698E-12
  -2.64000010       8.29731249E-12
  -2.46000004       8.71476155E-12
  -2.27999997       9.07302618E-12
  -2.09999990       9.36860398E-12
  -1.91999996       9.59848347E-12
  -1.74000001       9.76013541E-12
  -1.55999994       9.85148595E-12
  -1.38000000       9.87089317E-12
  -1.20000005       9.81713755E-12
  -1.01999998       9.68937690E-12
 -0.839999974       9.48706825E-12
 -0.660000026       9.20981520E-12
 -0.479999989       8.85721704E-12
 -0.300000012       8.42868483E-12
 -0.119999997       7.92328963E-12
   5.99999987E-02   7.33977636E-12
  0.239999995       6.67663104E-12
  0.419999987       5.93235834E-12
  0.600000024       5.10583112E-12
  0.779999971       4.19666602E-12
  0.959999979       3.20560072E-12
   1.13999999       2.13468652E-12
   1.32000005       9.87419890E-13
   1.50000000      -2.31347520E-13
   1.67999995      -1.51553585E-12
   1.86000001      -2.85804540E-12
   2.03999996      -4.25091125E-12
   2.22000003      -5.68541481E-12
   2.40000010      -7.15209879E-12
   2.57999992      -8.64074003E-12
   2.75999999      -1.01402732E-11
   2.94000006      -1.16387342E-11
   3.11999989      -1.31232629E-11
   3.29999995      -1.45801201E-11
   3.48000002      -1.59948322E-11
   3.66000009      -1.73523765E-11
   3.83999991      -1.86374319E-11
   4.01999998      -1.98346548E-11
   4.19999981      -2.09290363E-11
   4.38000011      -2.19061505E-11
   4.55999994      -2.27524978E-11
   4.73999977      -2.34557269E-11
   4.92000008      -2.40048120E-11
   5.09999990      -2.43901340E-11
   5.28000021      -2.46036073E-11
   5.46000004      -2.46386609E-11
   5.63999987      -2.44902796E-11
   5.82000017      -2.41549662E-11
   6.00000000      -2.36307102E-11
   6.17999983      -2.29168125E-11
   6.36000013      -2.20137814E-11
   6.53999996      -2.09230584E-11
   6.71999979      -1.96468068E-11
   6.90000010      -1.81877274E-11
   7.07999992      -1.65489480E-11
   7.26000023      -1.47341427E-11
   7.44000006      -1.27476354E-11
   7.61999989      -1.05947681E-11
   7.80000019      -8.28212672E-12
   7.98000002      -5.81770092E-12
   8.15999985      -3.21087189E-12
   8.34000015      -4.72253204E-13
   8.52000046       2.38683487E-12
   8.69999981       5.35480774E-12
   8.88000011       8.42042495E-12
   9.06000042       1.15731339E-11
   9.23999977       1.48034363E-11
   9.42000008       1.81029063E-11
   9.60000038       2.14640337E-11
   9.77999973       2.48799349E-11
   9.96000004       2.83439626E-11
   10.1400003       3.18492802E-11
   10.3199997       3.53884352E-11
   10.5000000       3.89531671E-11
   10.6800003       4.25342019E-11
   10.8599997       4.61213602E-11
   11.0400000       4.97038001E-11
   11.2200003       5.32703430E-11
   11.3999996       5.68098693E-11
   11.5799999       6.03117278E-11
   11.7600002       6.37659994E-11
   11.9399996       6.71634762E-11
   12.1199999       7.04956649E-11
   12.3000002       7.37544470E-11
   12.4799995       7.69318081E-11
   12.6599998       8.00194980E-11
   12.8400002       8.30089886E-11
   13.0200005       8.58913704E-11
   13.1999998       8.86577201E-11
   13.3800001       9.12994819E-11
   13.5600004       9.38087386E-11
   13.7399998       9.61789606E-11
   13.9200001       9.84050896E-11
   14.1000004       1.00484038E-10
   14.2799997       1.02414771E-10
   14.4600000       1.04198400E-10
   14.6400003       1.05838123E-10
   14.8199997       1.07339047E-10
   15.0000000       1.08707994E-10
   15.1800003       1.09953172E-10
   15.3599997       1.11083816E-10
   15.5400000       1.12109801E-10
   15.7200003       1.13041521E-10
   15.8999996       1.13889620E-10
   16.0799999       1.14665055E-10
   16.2600002       1.15379109E-10
   16.4400005       1.16043557E-10
   16.6200008       1.16670562E-10
   16.7999992       1.17272692E-10
   16.9799995       1.17862720E-10
   17.1599998       1.18453219E-10
   17.3400002       1.19056293E-10
   17.5200005       1.19683166E-10
   17.7000008       1.20343888E-10
   17.8799992       1.21047436E-10
   18.0599995       1.21801444E-10
   18.2399998       1.22612323E-10
   18.4200001       1.23485139E-10
   18.6000004       1.24423680E-10
   18.7800007       1.25430263E-10
   18.9599991       1.26505598E-10
   19.1399994       1.27648656E-10
   19.3199997       1.28856620E-10
   19.5000000       1.30125050E-10
   19.6800003       1.31447769E-10
   19.8600006       1.32817257E-10
   20.0400009       1.34224493E-10
   20.2199993       1.35659220E-10
   20.3999996       1.37109976E-10
   20.5799999       1.38564007E-10
   20.7600002       1.40007478E-10
   20.9400005       1.41425427E-10
   21.1200008       1.42802062E-10
   21.2999992       1.44120729E-10
   21.4799995       1.45364221E-10
   21.6599998       1.46514703E-10
   21.8400002       1.47553789E-10
   22.0200005       1.48462714E-10
   22.2000008       1.49222246E-10
   22.3799992       1.49812968E-10
   22.5599995       1.50215659E-10
   22.7399998       1.50411558E-10
   22.9200001       1.50383012E-10
   23.1000004       1.50113769E-10
   23.2800007       1.49589438E-10
   23.4599991       1.48797683E-10
   23.6399994       1.47728108E-10
   23.8199997       1.46372386E-10
   24.0000000       1.44724024E-10
   24.1800003       1.42778525E-10
   24.3600006       1.40533210E-10
   24.5400009       1.37987469E-10
   24.7199993       1.35142925E-10
   24.8999996       1.32003616E-10
   25.0799999       1.28576094E-10
   25.2600002       1.24869434E-10
   25.4400005       1.20895433E-10
   25.6200008       1.16668369E-10
   25.7999992       1.12205016E-10
   25.9799995       1.07524434E-10
   26.1599998       1.02647772E-10
   26.3400002       9.75978048E-11
   26.5200005       9.23984431E-11
   26.7000008       8.70742090E-11
   26.8799992       8.16497772E-11
   27.0599995       7.61494270E-11
   27.2399998       7.05965841E-11
   27.4200001       6.50137166E-11
   27.6000004       5.94222657E-11
   27.7800007       5.38424652E-11
   27.9599991       4.82935775E-11
   28.1399994       4.27941536E-11
   28.3199997       3.73618914E-11
   28.5000000       3.20140442E-11
   28.6800003       2.67678900E-11
   28.8600006       2.16406008E-11
   29.0400009       1.66498326E-11
   29.2199993       1.18137731E-11
   29.3999996       7.15108224E-12
   29.5799999       2.68070115E-12
   29.7600002      -1.57870115E-12
   29.9400005      -5.60922402E-12
   30.1200008      -9.39427355E-12
   30.2999992      -1.29189688E-11
   30.4799995      -1.61701798E-11
   30.6599998      -1.91364546E-11
   30.8400002      -2.18075800E-11
   31.0200005      -2.41744246E-11
   31.2000008      -2.62284743E-11
   31.3799992      -2.79620077E-11
   31.5599995      -2.93681815E-11
   31.7399998      -3.04418608E-11
   31.9200001      -3.11798851E-11
   32.0999985      -3.15821432E-11
   32.2799988      -3.16517021E-11
   32.4599991      -3.13955216E-11
   32.6399994      -3.08242216E-11
   32.8199997      -2.99519264E-11
   33.0000000      -2.87958875E-11
   33.1800003      -2.73756365E-11
   33.3600006      -2.57123246E-11
   33.5400009      -2.38277627E-11
   33.7200012      -2.17437665E-11
   33.9000015      -1.94813297E-11
   34.0800018      -1.70607018E-11
   34.2599983      -1.45012882E-11
   34.4399986      -1.18220416E-11
   34.6199989      -9.04203708E-12
   34.7999992      -6.18096286E-12
   34.9799995      -3.25930472E-12
   35.1599998      -2.98171318E-13
   35.3400002       2.68138853E-12
   35.5200005       5.65939483E-12
   35.7000008       8.61804812E-12
   35.8800011       1.15426722E-11
   36.0600014       1.44224563E-11
   36.2400017       1.72504146E-11
   36.4199982       2.00227595E-11
   36.5999985       2.27380875E-11
   36.7799988       2.53960863E-11
   36.9599991       2.79963587E-11
   37.1399994       3.05374684E-11
   37.3199997       3.30162842E-11
   37.5000000       3.54280945E-11
   37.6800003       3.77665919E-11
   37.8600006       4.00247648E-11
   38.0400009       4.21954867E-11
   38.2200012       4.42725995E-11
   38.4000015       4.62512459E-11
   38.5800018       4.81283520E-11
   38.7599983       4.99023219E-11
   38.9399986       5.15726455E-11
   39.1199989       5.31390244E-11
   39.2999992       5.46003277E-11
   39.4799995       5.59542621E-11
   39.6599998       5.71966433E-11
   39.8400002       5.83221180E-11
   40.0200005       5.93248159E-11
   40.2000008       6.01993733E-11
   40.3800011       6.09423206E-11
   40.5600014       6.15528600E-11
   40.7400017       6.20332952E-11
   40.9199982       6.23889135E-11
   41.0999985       6.26274241E-11
   41.2799988       6.27578961E-11
   41.4599991       6.27899607E-11
   41.6399994       6.27331659E-11
   41.8199997       6.25971358E-11
   42.0000000       6.23913768E-11
   42.1800003       6.21263457E-11
   42.3600006       6.18137208E-11
   42.5400009       6.14672341E-11
   42.7200012       6.11028381E-11
   42.9000015       6.07384767E-11
   43.0800018       6.03937317E-11
   43.2599983       6.00889755E-11
   43.4399986       5.98445182E-11
   43.6199989       5.96794350E-11
   43.7999992       5.96107677E-11
   43.9799995       5.96527827E-11
   44.1599998       5.98163394E-11
   44.3400002       6.01092787E-11
   44.5200005       6.05361317E-11
   44.7000008       6.10993686E-11
   44.8800011       6.17999124E-11
   45.0600014       6.26380475E-11
   45.2400017       6.36144817E-11
   45.4199982       6.47306861E-11
   45.5999985       6.59892557E-11
   45.7799988       6.73940556E-11
   45.9599991       6.89502136E-11
   46.1399994       7.06640302E-11
   46.3199997       7.25434365E-11
   46.5000000       7.45982373E-11
   46.6800003       7.68407143E-11
   46.8600006       7.92859389E-11
   47.0400009       8.19521950E-11
   47.2200012       8.48607989E-11
   47.4000015       8.80356690E-11
   47.5800018       9.15027221E-11
   47.7599983       9.52888254E-11
   47.9399986       9.94211033E-11
   48.1199989       1.03926062E-10
   48.2999992       1.08829251E-10
   48.4799995       1.14154686E-10
   48.6599998       1.19925084E-10
   48.8400002       1.26161206E-10
   49.0200005       1.32882164E-10
   49.2000008       1.40104664E-10
   49.3800011       1.47842349E-10
   49.5600014       1.56105073E-10
   49.7400017       1.64897554E-10
   49.9199982       1.74218195E-10
   50.0999985       1.84057963E-10
   50.2799988       1.94398983E-10
   50.4599991       2.05214429E-10
   50.6399994       2.16468177E-10
   50.8199997       2.28115346E-10
   51.0000000       2.40104214E-10
   51.1800003       2.52377341E-10
   51.3600006       2.64873984E-10
   51.5400009       2.77532192E-10
   51.7200012       2.90290264E-10
   51.9000015       3.03087611E-10
   52.0800018       3.15865639E-10
   52.2599983       3.28567368E-10
   52.4399986       3.41137285E-10
   52.6199989       3.53521212E-10
   52.7999992       3.65666025E-10
   52.9799995       3.77520515E-10
   53.1599998       3.89035693E-10
   53.3400002       4.00166678E-10
   53.5200005       4.10873363E-10
   53.7000008       4.21121832E-10
   53.8800011       4.30885272E-10
   54.0600014       4.40144504E-10
   54.2400017       4.48887566E-10
   54.4199982       4.57109822E-10
   54.5999985       4.64813077E-10
   54.7799988       4.72004436E-10
   54.9599991       4.78695805E-10
   55.1399994       4.84903062E-10
   55.3199997       4.90645413E-10
   55.5000000       4.95944896E-10
   55.6800003       5.00826158E-10
   55.8600006       5.05315900E-10
   56.0400009       5.09442488E-10
   56.2200012       5.13235177E-10
   56.4000015       5.16723109E-10
   56.5800018       5.19934373E-10
   56.7599983       5.22894672E-10
   56.9399986       5.25626487E-10
   57.1199989       5.28148691E-10
   57.2999992       5.30476163E-10
   57.4799995       5.32620059E-10
   57.6599998       5.34588984E-10
   57.8400002       5.36388989E-10
   58.0200005       5.38024680E-10
   58.2000008       5.39499390E-10
   58.3800011       5.40814449E-10
   58.5600014       5.41969636E-10
   58.7400017       5.42961287E-10
   58.9199982       5.43782241E-10
   59.0999985       5.44421563E-10
   59.2799988       5.44863654E-10
   59.4599991       5.45090029E-10
   59.6399994       5.45079315E-10
   59.8199997       5.44809586E-10
   60.0000000       5.44258971E-10
   60.1800003       5.43407430E-10
   60.3600006       5.42237699E-10
   60.5400009       5.40735234E-10
   60.7200012       5.38888489E-10
   60.9000015       5.36688083E-10
   61.0800018       5.34125966E-10
   61.2599983       5.31194144E-10
   61.4399986       5.27884125E-10
   61.6199989       5.24186194E-10
   61.7999992       5.20088861E-10
   61.9799995       5.15580134E-10
   62.1599998       5.10647968E-10
   62.3400002       5.05282205E-10
   62.5200005       4.99475072E-10
   62.7000008       4.93223906E-10
   62.8800011       4.86530538E-10
   63.0600014       4.79402518E-10
   63.2400017       4.71851946E-10
   63.4199982       4.63895061E-10
   63.5999985       4.55550764E-10
   63.7799988       4.46839676E-10
   63.9599991       4.37783337E-10
   64.1399994       4.28403674E-10
   64.3199997       4.18723389E-10
   64.5000000       4.08766521E-10
   64.6800003       3.98557992E-10
   64.8600006       3.88125698E-10
   65.0400009       3.77499088E-10
   65.2200012       3.66710301E-10
   65.4000015       3.55792840E-10
   65.5800018       3.44781398E-10
   65.7600021       3.33710753E-10
   65.9400024       3.22615074E-10
   66.1200027       3.11526999E-10
   66.3000031       3.00477226E-10
   66.4800034       2.89493485E-10
   66.6600037       2.78600171E-10
   66.8399963       2.67817768E-10
   67.0199966       2.57162430E-10
   67.1999969       2.46644927E-10
   67.3799973       2.36270614E-10
   67.5599976       2.26038438E-10
   67.7399979       2.15940696E-10
   67.9199982       2.05963399E-10
   68.0999985       1.96086120E-10
   68.2799988       1.86283641E-10
   68.4599991       1.76527071E-10
   68.6399994       1.66785807E-10
   68.8199997       1.57030375E-10
   69.0000000       1.47233309E-10
   69.1800003       1.37371434E-10
   69.3600006       1.27426195E-10
   69.5400009       1.17383894E-10
   69.7200012       1.07234700E-10
   69.9000015       9.69714933E-11
   70.0800018       8.65891109E-11
   70.2600021       7.60835631E-11
   70.4400024       6.54519702E-11
   70.6200027       5.46938363E-11
   70.8000031       4.38123288E-11
   70.9800034       3.28163330E-11
   71.1600037       2.17230400E-11
   71.3399963       1.05584751E-11
   71.5199966      -6.41016266E-13
   71.6999969      -1.18294350E-11
   71.8799973      -2.29530422E-11
   72.0599976      -3.39521224E-11
   72.2399979      -4.47647058E-11
   72.4199982      -5.53293210E-11
   72.5999985      -6.55879795E-11
   72.7799988      -7.54889484E-11
   72.9599991      -8.49879611E-11
   73.1399994      -9.40485814E-11
   73.3199997      -1.02642242E-10
   73.5000000      -1.10746877E-10
   73.6800003      -1.18345847E-10
   73.8600006      -1.25427196E-10
   74.0400009      -1.31982619E-10
   74.2200012      -1.38008341E-10
   74.4000015      -1.43505333E-10
   74.5800018      -1.48480811E-10
   74.7600021      -1.52948959E-10
   74.9400024      -1.56932287E-10
   75.1200027      -1.60461464E-10
   75.3000031      -1.63574820E-10
   75.4800034      -1.66316808E-10
   75.6600037      -1.68737205E-10
   75.8399963      -1.70888290E-10
   76.0199966      -1.72822881E-10
   76.1999969      -1.74593229E-10
   76.3799973      -1.76248738E-10
   76.5599976      -1.77835038E-10
   76.7399979      -1.79393084E-10
   76.9199982      -1.80957999E-10
   77.0999985      -1.82558593E-10
   77.2799988      -1.84216989E-10
   77.4599991      -1.85948076E-10
   77.6399994      -1.87760155E-10
   77.8199997      -1.89655444E-10
   78.0000000      -1.91630947E-10
   78.1800003      -1.93679697E-10
   78.3600006      -1.95792216E-10
   78.5400009      -1.97957692E-10
   78.7200012      -2.00164718E-10
   78.9000015      -2.02401332E-10
   79.0800018      -2.04655654E-10
   79.2600021      -2.06914388E-10
   79.4400024      -2.09162368E-10
   79.6200027      -2.11381829E-10
   79.8000031      -2.13551510E-10
   79.9800034      -2.15647250E-10
   80.1600037      -2.17642793E-10
   80.3399963      -2.19511853E-10
   80.5199966      -2.21230825E-10
   80.6999969      -2.22781654E-10
   80.8799973      -2.24154306E-10
   81.0599976      -2.25348559E-10
   81.2399979      -2.26374558E-10
   81.4199982      -2.27251690E-10
   81.5999985      -2.28006128E-10
   81.7799988      -2.28667682E-10
   81.9599991      -2.29265690E-10
   82.1399994      -2.29825076E-10
   82.3199997      -2.30364172E-10
   82.5000000      -2.30892500E-10
   82.6800003      -2.31411404E-10
   82.8600006      -2.31914821E-10
   83.0400009      -2.32392272E-10
   83.2200012      -2.32831143E-10
   83.4000015      -2.33219832E-10
   83.5800018      -2.33549513E-10
   83.7600021      -2.33814662E-10
   83.9400024      -2.34012920E-10
   84.1200027      -2.34142844E-10
   84.3000031      -2.34201658E-10
   84.4800034      -2.34182285E-10
   84.6600037      -2.34070874E-10
   84.8399963      -2.33845110E-10
   85.0199966      -2.33473824E-10
   85.1999969      -2.32918240E-10
   85.3799973      -2.32134006E-10
   85.5599976      -2.31074285E-10
   85.7399979      -2.29693417E-10
   85.9199982      -2.27949909E-10
   86.0999985      -2.25809080E-10
   86.2799988      -2.23244229E-10
   86.4599991      -2.20236954E-10
   86.6399994      -2.16775792E-10
   86.8199997      -2.12854318E-10
   87.0000000      -2.08468576E-10
   87.1800003      -2.03614542E-10
   87.3600006      -1.98285929E-10
   87.5400009      -1.92472580E-10
   87.7200012      -1.86160087E-10
   87.9000015      -1.79330023E-10
   88.0800018      -1.71961070E-10
   88.2600021      -1.64031136E-10
   88.4400024      -1.55519223E-10
   88.6200027      -1.46407844E-10
   88.8000031      -1.36684886E-10
   88.9800034      -1.26345295E-10
   89.1600037      -1.15391988E-10
   89.3399963      -1.03836384E-10
   89.5199966      -9.16983295E-11
   89.6999969      -7.90055729E-11
   89.8799973      -6.57928156E-11
   90.0599976      -5.21008688E-11
   90.2399979      -3.79753659E-11
   90.4199982      -2.34656357E-11
   90.5999985      -8.62413699E-12
   90.7799988       6.49420882E-12
   90.9599991       2.18318037E-11
   91.1399994       3.73282030E-11
   91.3199997       5.29189297E-11
   91.5000000       6.85348375E-11
   91.6800003       8.41014550E-11
   91.8600006       9.95383082E-11
   92.0400009       1.14759702E-10
   92.2200012       1.29675798E-10
   92.4000015       1.44194739E-10
   92.5800018       1.58225572E-10
   92.7600021       1.71681211E-10
   92.9400024       1.84481347E-10
   93.1200027       1.96554786E-10
   93.3000031       2.07841022E-10
   93.4800034       2.18290025E-10
   93.6600037       2.27861924E-10
   93.8399963       2.36524994E-10
   94.0199966       2.44253617E-10
   94.1999969       2.51026255E-10
   94.3799973       2.56823951E-10
   94.5599976       2.61629857E-10
   94.7399979       2.65429623E-10
   94.9199982       2.68213257E-10
   95.0999985       2.69977957E-10
   95.2799988       2.70730549E-10
   95.4599991       2.70490935E-10
   95.6399994       2.69294087E-10
   95.8199997       2.67191297E-10
   96.0000000       2.64249872E-10
   96.1800003       2.60551164E-10
   96.3600006       2.56187876E-10
   96.5400009       2.51259902E-10
   96.7200012       2.45870296E-10
   96.9000015       2.40120895E-10
   97.0800018       2.34108788E-10
   97.2600021       2.27923735E-10
   97.4400024       2.21646632E-10
   97.6200027       2.15348753E-10
   97.8000031       2.09092410E-10
   97.9800034       2.02931796E-10
   98.1600037       1.96914804E-10
   98.3399963       1.91084024E-10
   98.5199966       1.85478646E-10
   98.6999969       1.80134893E-10
   98.8799973       1.75086806E-10
   99.0599976       1.70365902E-10
   99.2399979       1.66000380E-10
   99.4199982       1.62013694E-10
   99.5999985       1.58423497E-10
   99.7799988       1.55239641E-10
   99.9599991       1.52463028E-10
   100.139999       1.50084764E-10
   100.320000       1.48086349E-10
   100.500000       1.46440207E-10
   100.680000       1.45111201E-10
   100.860001       1.44058807E-10
   101.040001       1.43239573E-10
   101.220001       1.42609438E-10
   101.400002       1.42126394E-10
   101.580002       1.41751832E-10
   101.760002       1.41452045E-10
   101.940002       1.41198289E-10
   102.120003       1.40966280E-10
   102.300003       1.40735507E-10
   102.480003       1.40487344E-10
   102.660004       1.40204126E-10
   102.839996       1.39867867E-10
   103.019997       1.39460291E-10
   103.199997       1.38963327E-10
   103.379997       1.38360753E-10
   103.559998       1.37640219E-10
   103.739998       1.36796297E-10
   103.919998       1.35832345E-10
   104.099998       1.34762493E-10
   104.279999       1.33612219E-10
   104.459999       1.32417563E-10
   104.639999       1.31222741E-10
   104.820000       1.30077768E-10
   105.000000       1.29034186E-10
   105.180000       1.28142011E-10
   105.360001       1.27446553E-10
   105.540001       1.26985922E-10
   105.720001       1.26790536E-10
   105.900002       1.26882976E-10
   106.080002       1.27279201E-10
   106.260002       1.27990257E-10
   106.440002       1.29024097E-10
   106.620003       1.30387520E-10
   106.800003       1.32086633E-10
   106.980003       1.34127487E-10
   107.160004       1.36514869E-10
   107.339996       1.39250708E-10
   107.519997       1.42331980E-10
   107.699997       1.45748261E-10
   107.879997       1.49479693E-10
   108.059998       1.53495480E-10
   108.239998       1.57752963E-10
   108.419998       1.62197838E-10
   108.599998       1.66765185E-10
   108.779999       1.71380826E-10
   108.959999       1.75964410E-10
   109.139999       1.80431420E-10
   109.320000       1.84696730E-10
   109.500000       1.88677851E-10
   109.680000       1.92297817E-10
   109.860001       1.95488015E-10
   110.040001       1.98190298E-10
   110.220001       2.00358244E-10
   110.400002       2.01957534E-10
   110.580002       2.02965131E-10
   110.760002       2.03368350E-10
   110.940002       2.03162986E-10
   111.120003       2.02351871E-10
   111.300003       2.00943845E-10
   111.480003       1.98953493E-10
   111.660004       1.96401853E-10
   111.839996       1.93317515E-10
   112.019997       1.89738461E-10
   112.199997       1.85713292E-10
   112.379997       1.81302445E-10
   112.559998       1.76577739E-10
   112.739998       1.71620745E-10
   112.919998       1.66519437E-10
   113.099998       1.61363797E-10
   113.279999       1.56240632E-10
   113.459999       1.51228016E-10
   113.639999       1.46390289E-10
   113.820000       1.41775258E-10
   114.000000       1.37412193E-10
   114.180000       1.33312500E-10
   114.360001       1.29472794E-10
   114.540001       1.25878280E-10
   114.720001       1.22508295E-10
   114.900002       1.19340232E-10
   115.080002       1.16352969E-10
   115.260002       1.13528957E-10
   115.440002       1.10854201E-10
   115.620003       1.08316224E-10
   115.800003       1.05902100E-10
   115.980003       1.03595021E-10
   116.160004       1.01372563E-10
   116.339996       9.92048180E-11
   116.519997       9.70546837E-11
   116.699997       9.48798401E-11
   116.879997       9.26353994E-11
   117.059998       9.02774244E-11
   117.239998       8.77672449E-11
   117.419998       8.50741838E-11
   117.599998       8.21786320E-11
   117.779999       7.90727761E-11
   117.959999       7.57610363E-11
   118.139999       7.22581647E-11
   118.320000       6.85873025E-11
   118.500000       6.47771559E-11
   118.680000       6.08593870E-11
   118.860001       5.68662478E-11
   119.040001       5.28295914E-11
   119.220001       4.87800737E-11
   119.400002       4.47474766E-11
   119.580002       4.07612381E-11