  -34.5000000       0.00000000    
  -34.3199997       0.00000000    
  -34.1399994       0.00000000    
  -33.9599991      -7.94907190E-22
  -33.7799988      -4.65432963E-21
  -33.5999985      -1.50241089E-20
  -33.4199982      -3.54068393E-20
  -33.2400017      -6.85536208E-20
  -33.0600014      -1.16848024E-19
  -32.8800011      -1.83107686E-19
  -32.7000008      -2.69250857E-19
  -32.5200005      -3.70350138E-19
  -32.3400002      -4.64600208E-19
  -32.1599998      -5.04521030E-19
  -31.9799995      -4.18095726E-19
  -31.7999992      -1.26990655E-19
  -31.6200008       4.18722703E-19
  -31.4400005       1.20109169E-18
  -31.2600002       2.11039706E-18
  -31.0799999       2.95665287E-18
  -30.8999996       3.52377659E-18
  -30.7199993       3.65253097E-18
  -30.5400009       3.31841432E-18
  -30.3600006       2.66400299E-18
  -30.1800003       1.95998233E-18
  -30.0000000       1.50414595E-18
  -29.8199997       1.50978991E-18
  -29.6399994       2.06531551E-18
  -29.4599991       3.24454957E-18
  -29.2800007       5.40440852E-18
  -29.1000004       9.62679662E-18
  -28.9200001       1.81730952E-17
  -28.7399998       3.47638567E-17
  -28.5599995       6.45077264E-17
  -28.3799992       1.13402650E-16
  -28.2000008       1.87480181E-16
  -28.0200005       2.91798827E-16
  -27.8400002       4.29560398E-16
  -27.6599998       6.01588898E-16
  -27.4799995       8.06292939E-16
  -27.2999992       1.04005789E-15
  -27.1200008       1.29781499E-15
  -26.9400005       1.57338593E-15
  -26.7600002       1.85920428E-15
  -26.5799999       2.14526955E-15
  -26.3999996       2.41763363E-15
  -26.2199993       2.65718153E-15
  -26.0400009       2.83961125E-15
  -25.8600006       2.93722418E-15
  -25.6800003       2.92243900E-15
  -25.5000000       2.77218086E-15
  -25.3199997       2.47175501E-15
  -25.1399994       2.01668190E-15
  -24.9599991       1.41137225E-15
  -24.7800007       6.64402109E-16
  -24.6000004      -2.18557489E-16
  -24.4200001      -1.24172828E-15
  -24.2399998      -2.42292080E-15
  -24.0599995      -3.79115218E-15
  -23.8799992      -5.37725907E-15
  -23.7000008      -7.19933705E-15
  -23.5200005      -9.24703582E-15
  -23.3400002      -1.14696350E-14
  -23.1599998      -1.37717173E-14
  -22.9799995      -1.60182231E-14
  -22.7999992      -1.80484578E-14
  -22.6200008      -1.96970092E-14
  -22.4400005      -2.08184266E-14
  -22.2600002      -2.13112287E-14
  -22.0799999      -2.11355862E-14
  -21.8999996      -2.03186856E-14
  -21.7199993      -1.89428212E-14
  -21.5400009      -1.71148733E-14
  -21.3600006      -1.49212206E-14
  -21.1800003      -1.23780253E-14
  -21.0000000      -9.39188946E-15
  -20.8199997      -5.74777712E-15
  -20.6399994      -1.13830534E-15
  -20.4599991       4.76161265E-15
  -20.2800007       1.21856726E-14
  -20.1000004       2.11612361E-14
  -19.9200001       3.14290288E-14
  -19.7399998       4.24364557E-14
  -19.5599995       5.34246753E-14
  -19.3799992       6.35976054E-14
  -19.2000008       7.23247823E-14
  -19.0200005       7.93071528E-14
  -18.8400002       8.46367247E-14
  -18.6599998       8.87104179E-14
  -18.4799995       9.20110613E-14
  -18.2999992       9.48225670E-14
  -18.1200008       9.69832870E-14
  -17.9400005       9.77821340E-14
  -17.7600002       9.60602108E-14
  -17.5799999       9.05086688E-14
  -17.3999996       8.00760554E-14
  -17.2199993       6.43466535E-14
  -17.0400009       4.37505562E-14
  -16.8600006       1.95192221E-14
  -16.6800003      -6.60939555E-15
  -16.5000000      -3.28390100E-14
  -16.3199997      -5.77641572E-14
  -16.1399994      -8.06656039E-14
  -15.9600000      -1.01560883E-13
  -15.7799997      -1.21007520E-13
  -15.6000004      -1.39749364E-13
  -15.4200001      -1.58346508E-13
  -15.2399998      -1.76924732E-13
  -15.0600004      -1.95120721E-13
  -14.8800001      -2.12218237E-13
  -14.6999998      -2.27394790E-13
  -14.5200005      -2.39966006E-13
  -14.3400002      -2.49530973E-13
  -14.1599998      -2.55976718E-13
  -13.9799995      -2.59361082E-13
  -13.8000002      -2.59741149E-13
  -13.6199999      -2.57015221E-13
  -13.4399996      -2.50826974E-13
  -13.2600002      -2.40537028E-13
  -13.0799999      -2.25240833E-13
  -12.8999996      -2.03809232E-13
  -12.7200003      -1.74938934E-13
  -12.5400000      -1.37235221E-13
  -12.3599997      -8.93482066E-14
  -12.1800003      -3.01841512E-14
  -12.0000000       4.08216958E-14
  -11.8199997       1.23421564E-13
  -11.6400003       2.16325940E-13
  -11.4600000       3.17098940E-13
  -11.2799997       4.22209766E-13
  -11.1000004       5.27236891E-13
  -10.9200001       6.27172955E-13
  -10.7399998       7.16778308E-13
  -10.5600004       7.90930310E-13
  -10.3800001       8.44962772E-13
  -10.1999998       8.75010784E-13
  -10.0200005       8.78388454E-13
  -9.84000015       8.53982846E-13
  -9.65999985       8.02597734E-13
  -9.47999954       7.27109020E-13
  -9.30000019       6.32292233E-13
  -9.11999989       5.24232838E-13
  -8.93999958       4.09356278E-13
  -8.76000023       2.93260262E-13
  -8.57999992       1.79648776E-13
  -8.39999962       6.96977876E-14
  -8.22000027      -3.78915920E-14
  -8.03999996      -1.46086282E-13
  -7.86000013      -2.58092538E-13
  -7.67999983      -3.75656429E-13
  -7.50000000      -4.97558375E-13
  -7.32000017      -6.18758083E-13
  -7.13999987      -7.30508265E-13
  -6.96000004      -8.21551215E-13
  -6.78000021      -8.80215876E-13
  -6.59999990      -8.97016239E-13
  -6.42000008      -8.67200246E-13
  -6.23999977      -7.92666930E-13
  -6.05999994      -6.82779354E-13
  -5.88000011      -5.53800766E-13
  -5.69999981      -4.26978982E-13
  -5.51999998      -3.25569649E-13
  -5.34000015      -2.71365558E-13
  -5.15999985      -2.81423241E-13
  -4.98000002      -3.65683449E-13
  -4.80000019      -5.25998299E-13
  -4.61999989      -7.56755823E-13
  -4.44000006      -1.04687602E-12
  -4.26000023      -1.38257071E-12
  -4.07999992      -1.75002460E-12
  -3.90000010      -2.13715048E-12
  -3.72000003      -2.53379956E-12
  -3.53999996      -2.93033349E-12
  -3.35999990      -3.31497677E-12
  -3.18000007      -3.67086136E-12
  -3.00000000      -3.97391798E-12
  -2.81999993      -4.19260677E-12
  -2.64000010      -4.29004618E-12
  -2.46000004      -4.22833600E-12
  -2.27999997      -3.97425712E-12
  -2.09999990      -3.50489429E-12
  -1.91999996      -2.81173695E-12
  -1.74000001      -1.90207659E-12
  -1.55999994      -7.97299184E-13
  -1.38000000       4.71452575E-13
  -1.20000005       1.86894836E-12
  -1.01999998       3.36108441E-12
 -0.839999974       4.91799353E-12
 -0.660000026       6.51394130E-12
 -0.479999989       8.12396764E-12
 -0.300000012       9.71829388E-12
 -0.119999997       1.12563917E-11
   5.99999987E-02   1.26829580E-11
  0.239999995       1.39276516E-11
  0.419999987       1.49095718E-11
  0.600000024       1.55460957E-11
  0.779999971       1.57643794E-11
  0.959999979       1.55130613E-11
   1.13999999       1.47712745E-11
   1.32000005       1.35528628E-11
   1.50000000       1.19047255E-11
   1.67999995       9.89968697E-12
   1.86000001       7.62579323E-12
   2.03999996       5.17456304E-12
   2.22000003       2.63099503E-12
   2.40000010       6.73823993E-14
   2.57999992      -2.45817494E-12
   2.75999999      -4.89906423E-12
   2.94000006      -7.21496604E-12
   3.11999989      -9.36635752E-12
   3.29999995      -1.13109843E-11
   3.48000002      -1.30036147E-11
   3.66000009      -1.43994434E-11
   3.83999991      -1.54602876E-11
   4.01999998      -1.61617924E-11
   4.19999981      -1.64996038E-11
   4.38000011      -1.64927186E-11
   4.55999994      -1.61828086E-11
   4.73999977      -1.56295532E-11
   4.92000008      -1.49028533E-11
   5.09999990      -1.40735089E-11
   5.28000021      -1.32043968E-11
   5.46000004      -1.23438187E-11
   5.63999987      -1.15221296E-11
   5.82000017      -1.07521041E-11
   6.00000000      -1.00322658E-11
   6.17999983      -9.35231319E-12
   6.36000013      -8.69884199E-12
   6.53999996      -8.06012982E-12
   6.71999979      -7.42885874E-12
   6.90000010      -6.80219726E-12
   7.07999992      -6.17963840E-12
   7.26000023      -5.55925661E-12
   7.44000006      -4.93363640E-12
   7.61999989      -4.28678404E-12
   7.80000019      -3.59312710E-12
   7.98000002      -2.81933634E-12
   8.15999985      -1.92899082E-12
   8.34000015      -8.89588696E-13
   8.52000046       3.19326027E-13
   8.69999981       1.69854647E-12
   8.88000011       3.22383244E-12
   9.06000042       4.84440136E-12
   9.23999977       6.48634228E-12
   9.42000008       8.06105703E-12
   9.60000038       9.47782217E-12
   9.77999973       1.06583726E-11
   9.96000004       1.15507985E-11
   10.1400003       1.21396894E-11
   10.3199997       1.24500653E-11
   10.5000000       1.25437031E-11
   10.6800003       1.25082843E-11
   10.8599997       1.24412355E-11
   11.0400000       1.24318125E-11
   11.2200003       1.25453693E-11
   11.3999996       1.28134899E-11
   11.5799999       1.32324056E-11
   11.7600002       1.37700190E-11
   11.9399996       1.43797587E-11
   12.1199999       1.50176347E-11
   12.3000002       1.56579524E-11
   12.4799995       1.63034742E-11
   12.6599998       1.69872710E-11
   12.8400002       1.77655252E-11
   13.0200005       1.87033531E-11
   13.1999998       1.98573553E-11
   13.3800001       2.12597457E-11
   13.5600004       2.29085258E-11
   13.7399998       2.47666783E-11
   13.9200001       2.67709396E-11
   14.1000004       2.88482901E-11
   14.2799997       3.09361911E-11
   14.4600000       3.30013412E-11
   14.6400003       3.50526518E-11
   14.8199997       3.71448740E-11
   15.0000000       3.93720091E-11
   15.1800003       4.18523896E-11
   15.3599997       4.47087263E-11
   15.5400000       4.80478608E-11
   15.7200003       5.19448894E-11
   15.8999996       5.64344994E-11
   16.0799999       6.15109630E-11
   16.2600002       6.71356304E-11
   16.4400005       7.32490041E-11
   16.6200008       7.97836866E-11
   16.7999992       8.66744107E-11
   16.9799995       9.38627162E-11
   17.1599998       1.01295007E-10
   17.3400002       1.08915058E-10
   17.5200005       1.16653451E-10
   17.7000008       1.24417227E-10
   17.8799992       1.32083455E-10
   18.0599995       1.39499190E-10
   18.2399998       1.46489224E-10
   18.4200001       1.52871243E-10
   18.6000004       1.58475191E-10
   18.7800007       1.63164759E-10
   18.9599991       1.66855418E-10
   19.1399994       1.69526768E-10
   19.3199997       1.71225339E-10
   19.5000000       1.72058645E-10
   19.6800003       1.72180548E-10
   19.8600006       1.71771389E-10
   20.0400009       1.71016423E-10
   20.2199993       1.70086722E-10
   20.3999996       1.69126352E-10
   20.5799999       1.68247333E-10
   20.7600002       1.67532294E-10
   20.9400005       1.67043976E-10
   21.1200008       1.66837405E-10
   21.2999992       1.66972450E-10
   21.4799995       1.67521857E-10
   21.6599998       1.68573780E-10
   21.8400002       1.70227388E-10
   22.0200005       1.72583073E-10
   22.2000008       1.75729584E-10
   22.3799992       1.79731688E-10
   22.5599995       1.84621693E-10
   22.7399998       1.90397600E-10
   22.9200001       1.97027658E-10
   23.1000004       2.04461850E-10
   23.2800007       2.12646123E-10
   23.4599991       2.21536123E-10
   23.6399994       2.31106578E-10
   23.8199997       2.41353354E-10
   24.0000000       2.52287857E-10
   24.1800003       2.63924022E-10
   24.3600006       2.76262374E-10
   24.5400009       2.89275243E-10
   24.7199993       3.02895237E-10
   24.8999996       3.17013416E-10
   25.0799999       3.31484118E-10
   25.2600002       3.46137341E-10
   25.4400005       3.60793423E-10
   25.6200008       3.75276310E-10
   25.7999992       3.89420107E-10
   25.9799995       4.03067857E-10
   26.1599998       4.16061713E-10
   26.3400002       4.28227676E-10
   26.5200005       4.39360243E-10
   26.7000008       4.49212695E-10
   26.8799992       4.57497984E-10
   27.0599995       4.63902944E-10
   27.2399998       4.68113937E-10
   27.4200001       4.69851824E-10
   27.6000004       4.68906691E-10
   27.7800007       4.65166627E-10
   27.9599991       4.58631494E-10
   28.1399994       4.49408538E-10
   28.3199997       4.37688108E-10
   28.5000000       4.23705210E-10
   28.6800003       4.07693129E-10
   28.8600006       3.89839688E-10
   29.0400009       3.70255215E-10
   29.2199993       3.48960416E-10
   29.3999996       3.25895033E-10
   29.5799999       3.00948488E-10
   29.7600002       2.74002598E-10
   29.9400005       2.44979481E-10
   30.1200008       2.13882592E-10
   30.2999992       1.80822149E-10
   30.4799995       1.46020640E-10
   30.6599998       1.09796297E-10
   30.8400002       7.25293089E-11
   31.0200005       3.46198348E-11
   31.2000008      -3.55431288E-12
   31.3799992      -4.16690571E-11
   31.5599995      -7.94692784E-11
   31.7399998      -1.16764251E-10
   31.9200001      -1.53406080E-10
   32.0999985      -1.89257970E-10
   32.2799988      -2.24160426E-10
   32.4599991      -2.57905974E-10
   32.6399994      -2.90228175E-10
   32.8199997      -3.20810045E-10
   33.0000000      -3.49309581E-10
   33.1800003      -3.75396464E-10
   33.3600006      -3.98791916E-10
   33.5400009      -4.19300955E-10
   33.7200012      -4.36830044E-10
   33.9000015      -4.51385151E-10
   34.0800018      -4.63051125E-10
   34.2599983      -4.71958306E-10
   34.4399986      -4.78244944E-10
   34.6199989      -4.82025087E-10
   34.7999992      -4.83370399E-10
   34.9799995      -4.82310303E-10
   35.1599998      -4.78849682E-10
   35.3400002      -4.72997363E-10
   35.5200005      -4.64799116E-10
   35.7000008      -4.54362659E-10
   35.8800011      -4.41868764E-10
   36.0600014      -4.27563734E-10
   36.2400017      -4.11736228E-10
   36.4199982      -3.94683480E-10
   36.5999985      -3.76677162E-10
   36.7799988      -3.57937902E-10
   36.9599991      -3.38626710E-10
   37.1399994      -3.18854998E-10
   37.3199997      -2.98711805E-10
   37.5000000      -2.78299273E-10
   37.6800003      -2.57766808E-10
   37.8600006      -2.37333209E-10
   38.0400009      -2.17289825E-10
   38.2200012      -1.97980243E-10
   38.4000015      -1.79762941E-10
   38.5800018      -1.62961755E-10
   38.7599983      -1.47818216E-10
   38.9399986      -1.34456057E-10
   39.1199989      -1.22866731E-10
   39.2999992      -1.12918515E-10
   39.4799995      -1.04387658E-10
   39.6599998      -9.70029057E-11
   39.8400002      -9.04915379E-11
   40.0200005      -8.46166540E-11
   40.2000008      -7.91955598E-11
   40.3800011      -7.40967565E-11
   40.5600014      -6.92176316E-11
   40.7400017      -6.44511597E-11
   40.9199982      -5.96526578E-11
   41.0999985      -5.46181607E-11
   41.2799988      -4.90838203E-11
   41.4599991      -4.27483327E-11
   41.6399994      -3.53168397E-11
   41.8199997      -2.65557090E-11
   42.0000000      -1.63472499E-11
   42.1800003      -4.72966067E-12
   42.3600006       8.08629292E-12
   42.5400009       2.17289797E-11
   42.7200012       3.57034576E-11
   42.9000015       4.94462353E-11
   43.0800018       6.23832860E-11
   43.2599983       7.39810713E-11
   43.4399986       8.37758057E-11
   43.6199989       9.13807571E-11
   43.7999992       9.64700958E-11
   43.9799995       9.87495849E-11
   44.1599998       9.79249321E-11
   44.3400002       9.36811462E-11
   44.5200005       8.56828428E-11
   44.7000008       7.35981207E-11
   44.8800011       5.71442060E-11
   45.0600014       3.61447469E-11
   45.2400017       1.05848039E-11
   45.4199982      -1.93504674E-11
   45.5999985      -5.32647017E-11
   45.7799988      -9.05720499E-11
   45.9599991      -1.30548766E-10
   46.1399994      -1.72404965E-10
   46.3199997      -2.15360507E-10
   46.5000000      -2.58709859E-10
   46.6800003      -3.01861203E-10
   46.8600006      -3.44343581E-10
   47.0400009      -3.85782434E-10
   47.2200012      -4.25853991E-10
   47.4000015      -4.64232264E-10
   47.5800018      -5.00546549E-10
   47.7599983      -5.34362277E-10
   47.9399986      -5.65194502E-10
   48.1199989      -5.92550009E-10
   48.2999992      -6.15990370E-10
   48.4799995      -6.35198505E-10
   48.6599998      -6.50031862E-10
   48.8400002      -6.60546839E-10
   49.0200005      -6.66985356E-10
   49.2000008      -6.69726108E-10
   49.3800011      -6.69208133E-10
   49.5600014      -6.65843103E-10
   49.7400017      -6.59935162E-10
   49.9199982      -6.51621646E-10
   50.0999985      -6.40849318E-10
   50.2799988      -6.27384977E-10
   50.4599991      -6.10858364E-10
   50.6399994      -5.90824500E-10
   50.8199997      -5.66832969E-10
   51.0000000      -5.38489087E-10
   51.1800003      -5.05498254E-10
   51.3600006      -4.67688277E-10
   51.5400009      -4.25009916E-10
   51.7200012      -3.77522208E-10
   51.9000015      -3.25371008E-10
   52.0800018      -2.68767897E-10
   52.2599983      -2.07977788E-10
   52.4399986      -1.43317080E-10
   52.6199989      -7.51631535E-11
   52.7999992      -3.96923683E-12
   52.9799995       6.97188487E-11
   53.1599998       1.45254489E-10
   53.3400002       2.21893767E-10
   53.5200005       2.98816971E-10
   53.7000008       3.75166287E-10
   53.8800011       4.50098014E-10
   54.0600014       5.22841714E-10
   54.2400017       5.92758564E-10
   54.4199982       6.59389543E-10
   54.5999985       7.22483962E-10
   54.7799988       7.82006460E-10
   54.9599991       8.38118186E-10
   55.1399994       8.91135388E-10
   55.3199997       9.41475342E-10
   55.5000000       9.89595739E-10
   55.6800003       1.03594056E-09
   55.8600006       1.08089870E-09
   56.0400009       1.12478304E-09
   56.2200012       1.16782872E-09
   56.4000015       1.21020616E-09
   56.5800018       1.25204214E-09
   56.7599983       1.29343802E-09
   56.9399986       1.33447875E-09
   57.1199989       1.37522471E-09
   57.2999992       1.41569112E-09
   57.4799995       1.45581447E-09
   57.6599998       1.49542301E-09
   57.8400002       1.53421253E-09
   58.0200005       1.57174584E-09
   58.2000008       1.60747204E-09
   58.3800011       1.64077407E-09
   58.5600014       1.67102687E-09
   58.7400017       1.69766168E-09
   58.9199982       1.72022019E-09
   59.0999985       1.73838932E-09
   59.2799988       1.75200610E-09
   59.4599991       1.76103976E-09
   59.6399994       1.76555204E-09
   59.8199997       1.76565251E-09
   60.0000000       1.76145809E-09
   60.1800003       1.75307158E-09
   60.3600006       1.74058001E-09
   60.5400009       1.72407610E-09
   60.7200012       1.70368697E-09
   60.9000015       1.67960801E-09
   61.0800018       1.65212077E-09
   61.2599983       1.62159319E-09
   61.4399986       1.58845848E-09
   61.6199989       1.55317226E-09
   61.7999992       1.51616497E-09
   61.9799995       1.47779744E-09
   62.1599998       1.43833423E-09
   62.3400002       1.39793799E-09
   62.5200005       1.35668765E-09
   62.7000008       1.31461564E-09
   62.8800011       1.27174871E-09
   63.0600014       1.22814448E-09
   63.2400017       1.18391119E-09
   63.4199982       1.13920628E-09
   63.5999985       1.09421605E-09
   63.7799988       1.04912290E-09
   63.9599991       1.00406916E-09
   64.1399994       9.59131774E-10
   64.3199997       9.14312293E-10
   64.5000000       8.69548156E-10
   64.6800003       8.24741220E-10
   64.8600006       7.79795173E-10
   65.0400009       7.34656003E-10
   65.2200012       6.89341417E-10
   65.4000015       6.43952891E-10
   65.5800018       5.98671612E-10
   65.7600021       5.53736224E-10
   65.9400024       5.09408349E-10
   66.1200027       4.65936845E-10
   66.3000031       4.23525243E-10
   66.4800034       3.82309989E-10
   66.6600037       3.42352480E-10
   66.8399963       3.03647218E-10
   67.0199966       2.66140499E-10
   67.1999969       2.29756908E-10
   67.3799973       1.94427960E-10
   67.5599976       1.60114727E-10
   67.7399979       1.26820401E-10
   67.9199982       9.45857073E-11
   68.0999985       6.34736569E-11
   68.2799988       3.35373534E-11
   68.4599991       4.78092609E-12
   68.6399994      -2.28774413E-11
   68.8199997      -4.96333911E-11
   69.0000000      -7.58049387E-11
   69.1800003      -1.01818318E-10
   69.3600006      -1.28170335E-10
   69.5400009      -1.55371618E-10
   69.7200012      -1.83883145E-10
   69.9000015      -2.14057494E-10
   70.0800018      -2.46098725E-10
   70.2600021      -2.80048651E-10
   70.4400024      -3.15802579E-10
   70.6200027      -3.53150981E-10
   70.8000031      -3.91836591E-10
   70.9800034      -4.31611108E-10
   71.1600037      -4.72279993E-10
   71.3399963      -5.13721232E-10
   71.5199966      -5.55876067E-10
   71.6999969      -5.98711303E-10
   71.8799973      -6.42165598E-10
   72.0599976      -6.86092072E-10
   72.2399979      -7.30210503E-10
   72.4199982      -7.74082687E-10
   72.5999985      -8.17114820E-10
   72.7799988      -8.58588423E-10
   72.9599991      -8.97710184E-10
   73.1399994      -9.33671584E-10
   73.3199997      -9.65703961E-10
   73.5000000      -9.93118587E-10
   73.6800003      -1.01532938E-09
   73.8600006      -1.03185149E-09
   74.0400009      -1.04228992E-09
   74.2200012      -1.04631803E-09
   74.4000015      -1.04366105E-09
   74.5800018      -1.03408870E-09
   74.7600021      -1.01741937E-09
   74.9400024      -9.93537363E-10
   75.1200027      -9.62413371E-10
   75.3000031      -9.24124777E-10
   75.4800034      -8.78868089E-10
   75.6600037      -8.26959390E-10
   75.8399963      -7.68823727E-10
   76.0199966      -7.04975800E-10
   76.1999969      -6.35996811E-10
   76.3799973      -5.62515257E-10
   76.5599976      -4.85191443E-10
   76.7399979      -4.04711126E-10
   76.9199982      -3.21779881E-10
   77.0999985      -2.37121656E-10
   77.2799988      -1.51470128E-10
   77.4599991      -6.55561022E-11
   77.6399994       1.99109444E-11
   77.8199997       1.04262557E-10
   78.0000000       1.86887603E-10
   78.1800003       2.67237538E-10
   78.3600006       3.44818812E-10
   78.5400009       4.19167145E-10
   78.7200012       4.89814467E-10
   78.9000015       5.56248936E-10
   79.0800018       6.17883078E-10
   79.2600021       6.74035661E-10
   79.4400024       7.23936577E-10
   79.6200027       7.66756214E-10
   79.8000031       8.01657962E-10
   79.9800034       8.27865998E-10
   80.1600037       8.44737835E-10
   80.3399963       8.51830273E-10
   80.5199966       8.48948467E-10
   80.6999969       8.36168967E-10
   80.8799973       8.13834222E-10
   81.0599976       7.82520160E-10
   81.2399979       7.42980955E-10
   81.4199982       6.96082969E-10
   81.5999985       6.42738862E-10
   81.7799988       5.83849302E-10
   81.9599991       5.20266219E-10
   82.1399994       4.52777066E-10
   82.3199997       3.82112869E-10
   82.5000000       3.08972875E-10
   82.6800003       2.34058273E-10
   82.8600006       1.58104266E-10
   83.0400009       8.18992235E-11
   83.2200012       6.28604243E-12
   83.4000015      -6.78588782E-11
   83.5800018      -1.39665460E-10
   83.7600021      -2.08321430E-10
   83.9400024      -2.73125217E-10
   84.1200027      -3.33529759E-10
   84.3000031      -3.89167837E-10
   84.4800034      -4.39855458E-10
   84.6600037      -4.85570695E-10
   84.8399963      -5.26416466E-10
   85.0199966      -5.62572156E-10
   85.1999969      -5.94244987E-10
   85.3799973      -6.21630358E-10
   85.5599976      -6.44885145E-10
   85.7399979      -6.64116873E-10
   85.9199982      -6.79389434E-10
   86.0999985      -6.90736357E-10
   86.2799988      -6.98182179E-10
   86.4599991      -7.01760594E-10
   86.6399994      -7.01530611E-10
   86.8199997      -6.97585101E-10
   87.0000000      -6.90053958E-10
   87.1800003      -6.79101164E-10
   87.3600006      -6.64919952E-10
   87.5400009      -6.47724707E-10
   87.7200012      -6.27742858E-10
   87.9000015      -6.05205774E-10
   88.0800018      -5.80339665E-10
   88.2600021      -5.53358026E-10
   88.4400024      -5.24455868E-10
   88.6200027      -4.93809993E-10
   88.8000031      -4.61583965E-10
   88.9800034      -4.27942626E-10
   89.1600037      -3.93072824E-10
   89.3399963      -3.57208485E-10
   89.5199966      -3.20656113E-10
   89.6999969      -2.83813112E-10
   89.8799973      -2.47175613E-10
   90.0599976      -2.11328857E-10
   90.2399979      -1.76921366E-10
   90.4199982      -1.44622453E-10
   90.5999985      -1.15071536E-10
   90.7799988      -8.88244339E-11
   90.9599991      -6.63076608E-11
   91.1399994      -4.77862611E-11
   91.3199997      -3.33504890E-11
   91.5000000      -2.29207590E-11
   91.6800003      -1.62690503E-11
   91.8600006      -1.30498034E-11
   92.0400009      -1.28335996E-11
   92.2200012      -1.51399813E-11
   92.4000015      -1.94643850E-11
   92.5800018      -2.53003625E-11
   92.7600021      -3.21570097E-11
   92.9400024      -3.95763110E-11
   93.1200027      -4.71512968E-11
   93.3000031      -5.45447819E-11
   93.4800034      -6.15068690E-11
   93.6600037      -6.78848436E-11
   93.8399963      -7.36238986E-11
   94.0199966      -7.87490489E-11
   94.1999969      -8.33369207E-11
   94.3799973      -8.74751729E-11
   94.5599976      -9.12218426E-11
   94.7399979      -9.45746884E-11
   94.9199982      -9.74583469E-11
   95.0999985      -9.97348870E-11
   95.2799988      -1.01232980E-10
   95.4599991      -1.01790847E-10
   95.6399994      -1.01296957E-10
   95.8199997      -9.97155900E-11
   96.0000000      -9.70859296E-11
   96.1800003      -9.34934075E-11
   96.3600006      -8.90149898E-11
   96.5400009      -8.36558323E-11
   96.7200012      -7.72905698E-11
   96.9000015      -6.96320918E-11
   97.0800018      -6.02368433E-11
   97.2600021      -4.85533107E-11
   97.4400024      -3.40048996E-11
   97.6200027      -1.60922144E-11
   97.8000031       5.50798296E-12
   97.9800034       3.08661569E-11
   98.1600037       5.97661989E-11
   98.3399963       9.17173698E-11
   98.5199966       1.26010494E-10
   98.6999969       1.61805416E-10
   98.8799973       1.98227421E-10
   99.0599976       2.34457870E-10
   99.2399979       2.69797767E-10
   99.4199982       3.03696401E-10
   99.5999985       3.35747874E-10
   99.7799988       3.65658365E-10
   99.9599991       3.93200306E-10
   100.139999       4.18169388E-10
   100.320000       4.40352393E-10
   100.500000       4.59519478E-10
   100.680000       4.75436690E-10
   100.860001       4.87896334E-10
   101.040001       4.96754360E-10
   101.220001       5.01966968E-10
   101.400002       5.03613207E-10
   101.580002       5.01898967E-10
   101.760002       4.97143993E-10
   101.940002       4.89749297E-10
   102.120003       4.80157025E-10
   102.300003       4.68807493E-10
   102.480003       4.56102572E-10
   102.660004       4.42381048E-10
   102.839996       4.27908292E-10
   103.019997       4.12880757E-10
   103.199997       3.97439637E-10
   103.379997       3.81691762E-10
   103.559998       3.65730973E-10
   103.739998       3.49657747E-10
   103.919998       3.33591876E-10
   104.099998       3.17676691E-10
   104.279999       3.02079278E-10
   104.459999       2.86977664E-10
   104.639999       2.72544737E-10
   104.820000       2.58924188E-10
   105.000000       2.46203946E-10
   105.180000       2.34388925E-10
   105.360001       2.23377497E-10
   105.540001       2.12946230E-10
   105.720001       2.02747430E-10
   105.900002       1.92322394E-10
   106.080002       1.81131360E-10
   106.260002       1.68596068E-10
   106.440002       1.54149332E-10
   106.620003       1.37286599E-10
   106.800003       1.17605800E-10
   106.980003       9.48321977E-11
   107.160004       6.88254939E-11
   107.339996       3.95666486E-11
   107.519997       7.13263042E-12
   107.699997      -2.83335872E-11
   107.879997      -6.66468755E-11
   108.059998      -1.07595349E-10
   108.239998      -1.50937082E-10
   108.419998      -1.96385644E-10
   108.599998      -2.43585513E-10
   108.779999      -2.92090824E-10
   108.959999      -3.41352363E-10
   109.139999      -3.90722565E-10
   109.320000      -4.39480008E-10
   109.500000      -4.86869156E-10
   109.680000      -5.32149824E-10
   109.860001      -5.74642667E-10
   110.040001      -6.13765760E-10
   110.220001      -6.49049092E-10
   110.400002      -6.80129231E-10
   110.580002      -7.06725956E-10
   110.760002      -7.28609673E-10
   110.940002      -7.45571438E-10
   111.120003      -7.57405583E-10
   111.300003      -7.63909602E-10
   111.480003      -7.64904751E-10
   111.660004      -7.60267960E-10
   111.839996      -7.49967921E-10
   112.019997      -7.34089345E-10
   112.199997      -7.12841453E-10
   112.379997      -6.86536827E-10
   112.559998      -6.55558163E-10
   112.739998      -6.20309137E-10
   112.919998      -5.81172666E-10
   113.099998      -5.38488143E-10
   113.279999      -4.92555441E-10
   113.459999      -4.43665493E-10
   113.639999      -3.92149979E-10
   113.820000      -3.38429423E-10
   114.000000      -2.83044588E-10
   114.180000      -2.26652891E-10
   114.360001      -1.69986011E-10
   114.540001      -1.13774323E-10
   114.720001      -5.86550322E-11
   114.900002      -5.09041507E-12
   115.080002       4.66828382E-11
   115.260002       9.66528246E-11
   115.440002       1.44980042E-10
   115.620003       1.91902064E-10
   115.800003       2.37622894E-10
   115.980003       2.82212281E-10
   116.160004       3.25545785E-10
   116.339996       3.67300745E-10
   116.519997       4.07012174E-10
   116.699997       4.44170090E-10
   116.879997       4.78334539E-10
   117.059998       5.09237874E-10
   117.239998       5.36845568E-10
   117.419998       5.61362234E-10
   117.599998       5.83182280E-10
   117.779999       6.02797701E-10
   117.959999       6.20692053E-10
   118.139999       6.37245534E-10
   118.320000       6.52673859E-10
   118.500000       6.67014999E-10
   118.680000       6.80161649E-10
   118.860001       6.91926016E-10
   119.040001       7.02115754E-10
   119.220001       7.10599024E-10
   119.400002       7.17340076E-10
   119.580002       7.22397475E-10