  -34.5000000         0.00000000    
  -34.3199997         0.00000000    
  -34.1399994         0.00000000    
  -33.9599991         9.77567176E-18
  -33.7799988         5.56726434E-17
  -33.5999985         1.70596168E-16
  -33.4199982         3.65854997E-16
  -33.2400017         5.99883662E-16
  -33.0600014         7.65951407E-16
  -32.8800011         7.12816871E-16
  -32.7000008         2.94663201E-16
  -32.5200005        -5.68037923E-16
  -32.3400002        -1.83770426E-15
  -32.1599998        -3.33078554E-15
  -31.9799995        -4.71004995E-15
  -31.7999992        -5.48877689E-15
  -31.6200008        -5.03591326E-15
  -31.4400005        -2.57408040E-15
  -31.2600002         2.83164258E-15
  -31.0799999         1.22835956E-14
  -30.8999996         2.70271950E-14
  -30.7199993         4.83313645E-14
  -30.5400009         7.71960553E-14
  -30.3600006         1.13828814E-13
  -30.1800003         1.56906660E-13
  -30.0000000         2.02762151E-13
  -29.8199997         2.44768561E-13
  -29.6399994         2.73291264E-13
  -29.4599991         2.76572954E-13
  -29.2800007         2.42802794E-13
  -29.1000004         1.63368573E-13
  -28.9200001         3.69122118E-14
  -28.7399998        -1.26646510E-13
  -28.5599995        -3.03321468E-13
  -28.3799992        -4.54759928E-13
  -28.2000008        -5.31232122E-13
  -28.0200005        -4.77910626E-13
  -27.8400002        -2.43573147E-13
  -27.6599998         2.09738084E-13
  -27.4799995         8.97875416E-13
  -27.2999992         1.80837777E-12
  -27.1200008         2.89812987E-12
  -26.9400005         4.09469073E-12
  -26.7600002         5.29942279E-12
  -26.5799999         6.39068963E-12
  -26.3999996         7.22882865E-12
  -26.2199993         7.66895141E-12
  -26.0400009         7.58594836E-12
  -25.8600006         6.90333077E-12
  -25.6800003         5.59969952E-12
  -25.5000000         3.66439171E-12
  -25.3199997         1.00723726E-12
  -25.1399994        -2.61035919E-12
  -24.9599991        -7.51375958E-12
  -24.7800007        -1.38578983E-11
  -24.6000004        -2.12629376E-11
  -24.4200001        -2.86149559E-11
  -24.2399998        -3.43542868E-11
  -24.0599995        -3.73528743E-11
  -23.8799992        -3.80246390E-11
  -23.7000008        -3.88943287E-11
  -23.5200005        -4.38546040E-11
  -23.3400002        -5.59791657E-11
  -23.1599998        -7.48080001E-11
  -22.9799995        -9.48290335E-11
  -22.7999992        -1.06733927E-10
  -22.6200008        -1.01685521E-10
  -22.4400005        -7.68721822E-11
  -22.2600002        -3.92278675E-11
  -22.0799999        -4.46385984E-12
  -21.8999996         9.29940239E-12
  -21.7199993        -9.02038253E-12
  -21.5400009        -5.54719465E-11
  -21.3600006        -1.09032415E-10
  -21.1800003        -1.37564710E-10
  -21.0000000        -1.10083130E-10
  -20.8199997        -1.05394122E-11
  -20.6399994         1.52634655E-10
  -20.4599991         3.45490136E-10
  -20.2800007         5.17107968E-10
  -20.1000004         6.15274609E-10
  -19.9200001         6.04148787E-10
  -19.7399998         4.77693496E-10
  -19.5599995         2.63542854E-10
  -19.3799992         1.49288429E-11
  -19.2000008        -2.07185977E-10
  -19.0200005        -3.54968416E-10
  -18.8400002        -4.08251710E-10
  -18.6599998        -3.75165565E-10
  -18.4799995        -2.77608853E-10
  -18.2999992        -1.28818803E-10
  -18.1200008         8.36162320E-11
  -17.9400005         3.96566002E-10
  -17.7600002         8.47660775E-10
  -17.5799999         1.43739176E-09
  -17.3999996         2.09541162E-09
  -17.2199993         2.67080225E-09
  -17.0400009         2.95697533E-09
  -16.8600006         2.74640022E-09
  -16.6800003         1.89634797E-09
  -16.5000000         3.81358778E-10
  -16.3199997        -1.68645164E-09
  -16.1399994        -4.07510070E-09
  -15.9600000        -6.48030385E-09
  -15.7799997        -8.58571436E-09
  -15.6000004        -1.01171791E-08
  -15.4200001        -1.08773159E-08
  -15.2399998        -1.07551150E-08
  -15.0600004        -9.71418235E-09
  -14.8800001        -7.77053266E-09
  -14.6999998        -4.97458474E-09
  -14.5200005        -1.41016099E-09
  -14.3400002         2.78521917E-09
  -14.1599998         7.38761452E-09
  -13.9799995         1.20623849E-08
  -13.8000002         1.63724501E-08
  -13.6199999         1.98326706E-08
  -13.4399996         2.20023555E-08
  -13.2600002         2.25853700E-08
  -13.0799999         2.14971383E-08
  -12.8999996         1.88679437E-08
  -12.7200003         1.49794364E-08
  -12.5400000         1.01624957E-08
  -12.3599997         4.70310946E-09
  -12.1800003        -1.20157595E-09
  -12.0000000        -7.41958006E-09
  -11.8199997        -1.38071607E-08
  -11.6400003        -2.01161914E-08
  -11.4600000        -2.59287027E-08
  -11.2799997        -3.06499217E-08
  -11.1000004        -3.35708528E-08
  -10.9200001        -3.39911317E-08
  -10.7399998        -3.13768673E-08
  -10.5600004        -2.55170249E-08
  -10.3800001        -1.66362781E-08
  -10.1999998        -5.42590239E-09
  -10.0200005         7.02897207E-09
  -9.84000015         1.94176835E-08
  -9.65999985         3.04270706E-08
  -9.47999954         3.89578432E-08
  -9.30000019         4.42769696E-08
  -9.11999989         4.60776910E-08
  -8.93999958         4.44568542E-08
  -8.76000023         3.98456095E-08
  -8.57999992         3.29300143E-08
  -8.39999962         2.45761278E-08
  -8.22000027         1.57486717E-08
  -8.03999996         7.40377137E-09
  -7.86000013         3.51887686E-10
  -7.67999983        -4.88397056E-09
  -7.50000000        -8.16934786E-09
  -7.32000017        -9.77772974E-09
  -7.13999987        -1.03152011E-08
  -6.96000004        -1.05718341E-08
  -6.78000021        -1.13423599E-08
  -6.59999990        -1.32574520E-08
  -6.42000008        -1.66515157E-08
  -6.23999977        -2.14790390E-08
  -6.05999994        -2.72884222E-08
  -5.88000011        -3.32664349E-08
  -5.69999981        -3.83640675E-08
  -5.51999998        -4.14966195E-08
  -5.34000015        -4.17823856E-08
  -5.15999985        -3.87619217E-08
  -4.98000002        -3.25399760E-08
  -4.80000019        -2.38157813E-08
  -4.61999989        -1.38002738E-08
  -4.44000006        -4.04127798E-09
  -4.26000023         3.81808141E-09
  -4.07999992         8.32660962E-09
  -3.90000010         8.53104876E-09
  -3.72000003         4.24975877E-09
  -3.53999996        -3.76671183E-09
  -3.35999990        -1.38753151E-08
  -3.18000007        -2.38277629E-08
  -3.00000000        -3.12712061E-08
  -2.81999993        -3.43388962E-08
  -2.64000010        -3.21570504E-08
  -2.46000004        -2.51118664E-08
  -2.27999997        -1.47987045E-08
  -2.09999990        -3.67654973E-09
  -1.91999996         5.46967760E-09
  -1.74000001         1.01239950E-08
  -1.55999994         8.56639826E-09
  -1.38000000         2.37961706E-10
  -1.20000005        -1.41169458E-08
  -1.01999998        -3.25584644E-08
 -0.839999974        -5.22940766E-08
 -0.660000026        -7.01886833E-08
 -0.479999989        -8.33264977E-08
 -0.300000012        -8.94924739E-08
 -0.119999997        -8.74720314E-08
   5.99999987E-02    -7.71368676E-08
  0.239999995        -5.93546368E-08
  0.419999987        -3.57951961E-08
  0.600000024        -8.69008332E-09
  0.779999971         1.94412966E-08
  0.959999979         4.61143159E-08
   1.13999999         6.92502695E-08
   1.32000005         8.75421975E-08
   1.50000000         1.00710082E-07
   1.67999995         1.09536821E-07
   1.86000001         1.15636752E-07
   2.03999996         1.21007517E-07
   2.22000003         1.27498211E-07
   2.40000010         1.36351304E-07
   2.57999992         1.47933662E-07
   2.75999999         1.61697116E-07
   2.94000006         1.76341956E-07
   3.11999989         1.90123600E-07
   3.29999995         2.01236446E-07
   3.48000002         2.08206856E-07
   3.66000009         2.10217053E-07
   3.83999991         2.07275122E-07
   4.01999998         2.00168856E-07
   4.19999981         1.90203579E-07
   4.38000011         1.78805806E-07
   4.55999994         1.67130182E-07
   4.73999977         1.55796911E-07
   4.92000008         1.44814379E-07
   5.09999990         1.33647958E-07
   5.28000021         1.21344570E-07
   5.46000004         1.06641792E-07
   5.63999987         8.80609647E-08
   5.82000017         6.40448690E-08
   6.00000000         3.32009584E-08
   6.17999983        -5.35598632E-09
   6.36000013        -5.16564427E-08
   6.53999996        -1.04661822E-07
   6.71999979        -1.62284792E-07
   6.90000010        -2.21651348E-07
   7.07999992        -2.79519298E-07
   7.26000023        -3.32731503E-07
   7.44000006        -3.78611844E-07
   7.61999989        -4.15268460E-07
   7.80000019        -4.41801575E-07
   7.98000002        -4.58404458E-07
   8.15999985        -4.66319761E-07
   8.34000015        -4.67616786E-07
   8.52000046        -4.64808608E-07
   8.69999981        -4.60406426E-07
   8.88000011        -4.56551049E-07
   9.06000042        -4.54828893E-07
   9.23999977        -4.56278229E-07
   9.42000008        -4.61491112E-07
   9.60000038        -4.70683545E-07
   9.77999973        -4.83664678E-07
   9.96000004        -4.99740793E-07
   10.1400003        -5.17662954E-07
   10.3199997        -5.35710740E-07
   10.5000000        -5.51914354E-07
   10.6800003        -5.64320828E-07
   10.8599997        -5.71183193E-07
   11.0400000        -5.71010503E-07
   11.2200003        -5.62515993E-07
   11.3999996        -5.44559782E-07
   11.5799999        -5.16160071E-07
   11.7600002        -4.76560643E-07
   11.9399996        -4.25273981E-07
   12.1199999        -3.62026583E-07
   12.3000002        -2.86611225E-07
   12.4799995        -1.98746264E-07
   12.6599998        -9.80674457E-08
   12.8400002         1.56882916E-08
   13.0200005         1.42366687E-07
   13.1999998         2.81088518E-07
   13.3800001         4.30086487E-07
   13.5600004         5.86733677E-07
   13.7399998         7.47720662E-07
   13.9200001         9.09305982E-07
   14.1000004         1.06760763E-06
   14.2799997         1.21896380E-06
   14.4600000         1.36039478E-06
   14.6400003         1.49011248E-06
   14.8199997         1.60791376E-06
   15.0000000         1.71524243E-06
   15.1800003         1.81479027E-06
   15.3599997         1.90970241E-06
   15.5400000         2.00264117E-06
   15.7200003         2.09504424E-06
   15.8999996         2.18682658E-06
   16.0799999         2.27656892E-06
   16.2600002         2.36206120E-06
   16.4400005         2.44097873E-06
   16.6200008         2.51151778E-06
   16.7999992         2.57291117E-06
   16.9799995         2.62579738E-06
   17.1599998         2.67239807E-06
   17.3400002         2.71643125E-06
   17.5200005         2.76268770E-06
   17.7000008         2.81630400E-06
   17.8799992         2.88190813E-06
   18.0599995         2.96287590E-06
   18.2399998         3.06090624E-06
   18.4200001         3.17595254E-06
   18.6000004         3.30639386E-06
   18.7800007         3.44928026E-06
   18.9599991         3.60056765E-06
   19.1399994         3.75541867E-06
   19.3199997         3.90871810E-06
   19.5000000         4.05588207E-06
   19.6800003         4.19384469E-06
   19.8600006         4.32191428E-06
   20.0400009         4.44215038E-06
   20.2199993         4.55908867E-06
   20.3999996         4.67887094E-06
   20.5799999         4.80807284E-06
   20.7600002         4.95254881E-06
   20.9400005         5.11653025E-06
   21.1200008         5.30206853E-06
   21.2999992         5.50879940E-06
   21.4799995         5.73405669E-06
   21.6599998         5.97337566E-06
   21.8400002         6.22139805E-06
   22.0200005         6.47304978E-06
   22.2000008         6.72467513E-06
   22.3799992         6.97478208E-06
   22.5599995         7.22408731E-06
   22.7399998         7.47490185E-06
   22.9200001         7.73009288E-06
   23.1000004         7.99200006E-06
   23.2800007         8.26160340E-06
   23.4599991         8.53801794E-06
   23.6399994         8.81830510E-06
   23.8199997         9.09750815E-06
   24.0000000         9.36898141E-06
   24.1800003         9.62508511E-06
   24.3600006         9.85827864E-06
   24.5400009         1.00624557E-05
   24.7199993         1.02340691E-05
   24.8999996         1.03726761E-05
   25.0799999         1.04806059E-05
   25.2600002         1.05619292E-05
   25.4400005         1.06210646E-05
   25.6200008         1.06615662E-05
   25.7999992         1.06853840E-05
   25.9799995         1.06926718E-05
   26.1599998         1.06820326E-05
   26.3400002         1.06510452E-05
   26.5200005         1.05969402E-05
   26.7000008         1.05174804E-05
   26.8799992         1.04118826E-05
   27.0599995         1.02816093E-05
   27.2399998         1.01306796E-05
   27.4200001         9.96533254E-06
   27.6000004         9.79306697E-06
   27.7800007         9.62135800E-06
   27.9599991         9.45651755E-06
   28.1399994         9.30298211E-06
   28.3199997         9.16310091E-06
   28.5000000         9.03722139E-06
   28.6800003         8.92386106E-06
   28.8600006         8.81989763E-06
   29.0400009         8.72087639E-06
   29.2199993         8.62161141E-06
   29.3999996         8.51708955E-06
   29.5799999         8.40346638E-06
   29.7600002         8.27875465E-06
   29.9400005         8.14293799E-06
   30.1200008         7.99747249E-06
   30.2999992         7.84443546E-06
   30.4799995         7.68570317E-06
   30.6599998         7.52243113E-06
   30.8400002         7.35483491E-06
   31.0200005         7.18214869E-06
   31.2000008         7.00259216E-06
   31.3799992         6.81337360E-06
   31.5599995         6.61083959E-06
   31.7399998         6.39093923E-06
   31.9200001         6.14992223E-06
   32.0999985         5.88504736E-06
   32.2799988         5.59502723E-06
   32.4599991         5.28004375E-06
   32.6399994         4.94148890E-06
   32.8199997         4.58168233E-06
   33.0000000         4.20382230E-06
   33.1800003         3.81215273E-06
   33.3600006         3.41211899E-06
   33.5400009         3.01026375E-06
   33.7200012         2.61375180E-06
   33.9000015         2.22971926E-06
   34.0800018         1.86478223E-06
   34.2599983         1.52492305E-06
   34.4399986         1.21569030E-06
   34.6199989         9.42436998E-07
   34.7999992         7.10242830E-07
   34.9799995         5.23430685E-07
   35.1599998         3.84846913E-07
   35.3400002         2.95270013E-07
   35.5200005         2.53229445E-07
   35.7000008         2.55268219E-07
   35.8800011         2.96422456E-07
   36.0600014         3.70696768E-07
   36.2400017         4.71389825E-07
   36.4199982         5.91350556E-07
   36.5999985         7.23307608E-07
   36.7799988         8.60260002E-07
   36.9599991         9.95785285E-07
   37.1399994         1.12405917E-06
   37.3199997         1.23950508E-06
   37.5000000         1.33627987E-06
   37.6800003         1.40797863E-06
   37.8600006         1.44786566E-06
   38.0400009         1.44966214E-06
   38.2200012         1.40852285E-06
   38.4000015         1.32173932E-06
   38.5800018         1.18882338E-06
   38.7599983         1.01099647E-06
   38.9399986         7.90400634E-07
   39.1199989         5.29450006E-07
   39.2999992         2.30538333E-07
   39.4799995        -1.03963686E-07
   39.6599998        -4.71571099E-07
   39.8400002        -8.69530652E-07
   40.0200005        -1.29462148E-06
   40.2000008        -1.74274169E-06
   40.3800011        -2.20826405E-06
   40.5600014        -2.68339454E-06
   40.7400017        -3.15787747E-06
   40.9199982        -3.61941420E-06
   41.0999985        -4.05480614E-06
   41.2799988        -4.45150772E-06
   41.4599991        -4.79909431E-06
   41.6399994        -5.09024858E-06
   41.8199997        -5.32115610E-06
   42.0000000        -5.49143306E-06
   42.1800003        -5.60379340E-06
   42.3600006        -5.66351309E-06
   42.5400009        -5.67759889E-06
   42.7200012        -5.65361461E-06
   42.9000015        -5.59828959E-06
   43.0800018        -5.51632411E-06
   43.2599983        -5.40984865E-06
   43.4399986        -5.27882776E-06
   43.6199989        -5.12226916E-06
   43.7999992        -4.93975449E-06
   43.9799995        -4.73271484E-06
   44.1599998        -4.50507832E-06
   44.3400002        -4.26325005E-06
   44.5200005        -4.01563011E-06
   44.7000008        -3.77188599E-06
   44.8800011        -3.54205054E-06
   45.0600014        -3.33542380E-06
   45.2400017        -3.15930606E-06
   45.4199982        -3.01779687E-06
   45.5999985        -2.91103993E-06
   45.7799988        -2.83527015E-06
   45.9599991        -2.78369930E-06
   46.1399994        -2.74794297E-06
   46.3199997        -2.71949261E-06
   46.5000000        -2.69081988E-06
   46.6800003        -2.65597782E-06
   46.8600006        -2.61083619E-06
   47.0400009        -2.55315626E-06
   47.2200012        -2.48254059E-06
   47.4000015        -2.40011627E-06
   47.5800018        -2.30777800E-06
   47.7599983        -2.20702850E-06
   47.9399986        -2.09777022E-06
   48.1199989        -1.97756890E-06
   48.2999992        -1.84181738E-06
   48.4799995        -1.68483712E-06
   48.6599998        -1.50156029E-06
   48.8400002        -1.28926013E-06
   49.0200005        -1.04883031E-06
   49.2000008        -7.85413533E-07
   49.3800011        -5.08385313E-07
   49.5600014        -2.30736021E-07
   49.7400017         3.21607168E-08
   49.9199982         2.64385079E-07
   50.0999985         4.51789134E-07
   50.2799988         5.84302200E-07
   50.4599991         6.57611054E-07
   50.6399994         6.73594968E-07
   50.8199997         6.39325322E-07
   51.0000000         5.64985157E-07
   51.1800003         4.61352556E-07
   51.3600006         3.37624101E-07
   51.5400009         1.99935556E-07
   51.7200012         5.07130231E-08
   51.9000015        -1.11323260E-07
   52.0800018        -2.90564998E-07
   52.2599983        -4.93344885E-07
   52.4399986        -7.26186329E-07
   52.6199989        -9.93695494E-07
   52.7999992        -1.29664511E-06
   52.9799995        -1.63092977E-06
   53.1599998        -1.98788302E-06
   53.3400002        -2.35594712E-06
   53.5200005        -2.72318880E-06
   53.7000008        -3.07986420E-06
   53.8800011        -3.42034309E-06
   54.0600014        -3.74405408E-06
   54.2400017        -4.05541869E-06
   54.4199982        -4.36298797E-06
   54.5999985        -4.67794325E-06
   54.7799988        -5.01206250E-06
   54.9599991        -5.37545884E-06
   55.1399994        -5.77450874E-06
   55.3199997        -6.21062145E-06
   55.5000000        -6.68024995E-06
   55.6800003        -7.17625153E-06
   55.8600006        -7.69006692E-06
   56.0400009        -8.21392496E-06
   56.2200012        -8.74237594E-06
   56.4000015        -9.27287601E-06
   56.5800018        -9.80561799E-06
   56.7599983        -1.03429984E-05
   56.9399986        -1.08890335E-05
   57.1199989        -1.14487102E-05
   57.2999992        -1.20270961E-05
   57.4799995        -1.26280820E-05
   57.6599998        -1.32530386E-05
   57.8400002        -1.38998430E-05
   58.0200005        -1.45627282E-05
   58.2000008        -1.52331386E-05
   58.3800011        -1.59012816E-05
   58.5600014        -1.65578422E-05
   58.7400017        -1.71954252E-05
   58.9199982        -1.78095961E-05
   59.0999985        -1.83994925E-05
   59.2799988        -1.89681723E-05
   59.4599991        -1.95225566E-05
   59.6399994        -2.00727482E-05
   59.8199997        -2.06305958E-05
   60.0000000        -2.12077539E-05
   60.1800003        -2.18137484E-05
   60.3600006        -2.24548094E-05
   60.5400009        -2.31338236E-05
   60.7200012        -2.38512257E-05
   60.9000015        -2.46062937E-05
   61.0800018        -2.53981816E-05
   61.2599983        -2.62263529E-05
   61.4399986        -2.70906021E-05
   61.6199989        -2.79909182E-05
   61.7999992        -2.89276122E-05
   61.9799995        -2.99015101E-05
   62.1599998        -3.09139905E-05
   62.3400002        -3.19666615E-05
   62.5200005        -3.30605944E-05
   62.7000008        -3.41955056E-05
   62.8800011        -3.53693540E-05
   63.0600014        -3.65785600E-05
   63.2400017        -3.78184523E-05
   63.4199982        -3.90836722E-05
   63.5999985        -4.03682097E-05
   63.7799988        -4.16650728E-05
   63.9599991        -4.29660467E-05
   64.1399994        -4.42619857E-05
   64.3199997        -4.55436166E-05
   64.5000000        -4.68026483E-05
   64.6800003        -4.80327035E-05
   64.8600006        -4.92296967E-05
   65.0400009        -5.03918964E-05
   65.2200012        -5.15198954E-05
   65.4000015        -5.26167278E-05
   65.5800018        -5.36879816E-05
   65.7600021        -5.47415111E-05
   65.9400024        -5.57863314E-05
   66.1200027        -5.68306968E-05
   66.3000031        -5.78799154E-05
   66.4800034        -5.89348310E-05
   66.6600037        -5.99915256E-05
   66.8399963        -6.10423958E-05
   67.0199966        -6.20780338E-05
   67.1999969        -6.30892464E-05
   67.3799973        -6.40685976E-05
   67.5599976        -6.50112779E-05
   67.7399979        -6.59154248E-05
   67.9199982        -6.67819695E-05
   68.0999985        -6.76140262E-05
   68.2799988        -6.84156767E-05
   68.4599991        -6.91900859E-05
   68.6399994        -6.99376469E-05
   68.8199997        -7.06546343E-05
   69.0000000        -7.13331974E-05
   69.1800003        -7.19626623E-05
   69.3600006        -7.25319042E-05
   69.5400009        -7.30317915E-05
   69.7200012        -7.34570058E-05
   69.9000015        -7.38069284E-05
   70.0800018        -7.40857140E-05
   70.2600021        -7.43019846E-05
   70.4400024        -7.44679783E-05
   70.6200027        -7.45982470E-05
   70.8000031        -7.47074737E-05
   70.9800034        -7.48077073E-05
   71.1600037        -7.49054452E-05
   71.3399963        -7.49997707E-05
   71.5199966        -7.50822073E-05
   71.6999969        -7.51384214E-05
   71.8799973        -7.51513799E-05
   72.0599976        -7.51049156E-05
   72.2399979        -7.49867322E-05
   72.4199982        -7.47906015E-05
   72.5999985        -7.45175130E-05
   72.7799988        -7.41758267E-05
   72.9599991        -7.37804294E-05
   73.1399994        -7.33506240E-05
   73.3199997        -7.29069798E-05
   73.5000000        -7.24675556E-05
   73.6800003        -7.20445169E-05
   73.8600006        -7.16420691E-05
   74.0400009        -7.12561814E-05
   74.2200012        -7.08761290E-05
   74.4000015        -7.04869526E-05
   74.5800018        -7.00723976E-05
   74.7600021        -6.96173956E-05
   74.9400024        -6.91103778E-05
   75.1200027        -6.85451669E-05
   75.3000031        -6.79222940E-05
   75.4800034        -6.72492970E-05
   75.6600037        -6.65394982E-05
   75.8399963        -6.58092031E-05
   76.0199966        -6.50738002E-05
   76.1999969        -6.43440362E-05
   76.3799973        -6.36234981E-05
   76.5599976        -6.29081260E-05
   76.7399979        -6.21874715E-05
   76.9199982        -6.14471719E-05
   77.0999985        -6.06718895E-05
   77.2799988        -5.98480110E-05
   77.4599991        -5.89659394E-05
   77.6399994        -5.80218075E-05
   77.8199997        -5.70183329E-05
   78.0000000        -5.59644031E-05
   78.1800003        -5.48733624E-05
   78.3600006        -5.37601554E-05
   78.5400009        -5.26382246E-05
   78.7200012        -5.15172178E-05
   78.9000015        -5.04020536E-05
   79.0800018        -4.92935105E-05
   79.2600021        -4.81897659E-05
   79.4400024        -4.70880696E-05
   79.6200027        -4.59861330E-05
   79.8000031        -4.48832179E-05
   79.9800034        -4.37810886E-05
   80.1600037        -4.26849037E-05
   80.3399963        -4.16038129E-05
   80.5199966        -4.05507162E-05
   80.6999969        -3.95408970E-05
   80.8799973        -3.85896892E-05
   81.0599976        -3.77098586E-05
   81.2399979        -3.69096560E-05
   81.4199982        -3.61919920E-05
   81.5999985        -3.55548145E-05
   81.7799988        -3.49921575E-05
   81.9599991        -3.44954460E-05
   82.1399994        -3.40547194E-05
   82.3199997        -3.36598823E-05
   82.5000000        -3.33020544E-05
   82.6800003        -3.29748145E-05
   82.8600006        -3.26749469E-05
   83.0400009        -3.24021967E-05
   83.2200012        -3.21579391E-05
   83.4000015        -3.19432802E-05
   83.5800018        -3.17573758E-05
   83.7600021        -3.15966208E-05
   83.9400024        -3.14549106E-05
   84.1200027        -3.13245509E-05
   84.3000031        -3.11972290E-05
   84.4800034        -3.10646028E-05
   84.6600037        -3.09186798E-05
   84.8399963        -3.07522751E-05
   85.0199966        -3.05598660E-05
   85.1999969        -3.03386641E-05
   85.3799973        -3.00894098E-05
   85.5599976        -2.98163086E-05
   85.7399979        -2.95260888E-05
   85.9199982        -2.92265086E-05
   86.0999985        -2.89249783E-05
   86.2799988        -2.86277918E-05
   86.4599991        -2.83399058E-05
   86.6399994        -2.80649856E-05
   86.8199997        -2.78052667E-05
   87.0000000        -2.75611892E-05
   87.1800003        -2.73310798E-05
   87.3600006        -2.71112531E-05
   87.5400009        -2.68966578E-05
   87.7200012        -2.66817933E-05
   87.9000015        -2.64613736E-05
   88.0800018        -2.62304966E-05
   88.2600021        -2.59844619E-05
   88.4400024        -2.57186693E-05
   88.6200027        -2.54289898E-05
   88.8000031        -2.51125730E-05
   88.9800034        -2.47685221E-05
   89.1600037        -2.43978247E-05
   89.3399963        -2.40022582E-05
   89.5199966        -2.35826174E-05
   89.6999969        -2.31370868E-05
   89.8799973        -2.26605025E-05
   90.0599976        -2.21447845E-05
   90.2399979        -2.15801665E-05
   90.4199982        -2.09565624E-05
   90.5999985        -2.02646534E-05
   90.7799988        -1.94965614E-05
   90.9599991        -1.86463549E-05
   91.1399994        -1.77105976E-05
   91.3199997        -1.66887912E-05
   91.5000000        -1.55833677E-05
   91.6800003        -1.43989200E-05
   91.8600006        -1.31408160E-05
   92.0400009        -1.18136995E-05
   92.2200012        -1.04205574E-05
   92.4000015        -8.96269830E-06
   92.5800018        -7.44044473E-06
   92.7600021        -5.85398311E-06
   92.9400024        -4.20392189E-06
   93.1200027        -2.49149343E-06
   93.3000031        -7.18759679E-07
   93.4800034         1.11078998E-06
   93.6600037         2.99127055E-06
   93.8399963         4.91358151E-06
   94.0199966         6.86541944E-06
   94.1999969         8.83254324E-06
   94.3799973         1.08010063E-05
   94.5599976         1.27595122E-05
   94.7399979         1.47010196E-05
   94.9199982         1.66231148E-05
   95.0999985         1.85272875E-05
   95.2799988         2.04176558E-05
   95.4599991         2.22996005E-05
   95.6399994         2.41784637E-05
   95.8199997         2.60582092E-05
   96.0000000         2.79400247E-05
   96.1800003         2.98212162E-05
   96.3600006         3.16950172E-05
   96.5400009         3.35516997E-05
   96.7200012         3.53810028E-05
   96.9000015         3.71750430E-05
   97.0800018         3.89306260E-05
   97.2600021         4.06502113E-05
   97.4400024         4.23412675E-05
   97.6200027         4.40145304E-05
   97.8000031         4.56818270E-05
   97.9800034         4.73539803E-05
   98.1600037         4.90388738E-05
   98.3399963         5.07396471E-05
   98.5199966         5.24532879E-05
   98.6999969         5.41699737E-05
   98.8799973         5.58738539E-05
   99.0599976         5.75453414E-05
   99.2399979         5.91644966E-05
   99.4199982         6.07142865E-05
   99.5999985         6.21826475E-05
   99.7799988         6.35627512E-05
   99.9599991         6.48517598E-05
   100.139999         6.60487858E-05
   100.320000         6.71530506E-05
   100.500000         6.81625461E-05
   100.680000         6.90732923E-05
   100.860001         6.98789154E-05
   101.040001         7.05704733E-05
   101.220001         7.11368848E-05
   101.400002         7.15661081E-05
   101.580002         7.18469746E-05
   101.760002         7.19711170E-05
   101.940002         7.19340605E-05
   102.120003         7.17352013E-05
   102.300003         7.13765621E-05
   102.480003         7.08614170E-05
   102.660004         7.01933750E-05
   102.839996         6.93764960E-05
   103.019997         6.84161059E-05
   103.199997         6.73195100E-05
   103.379997         6.60961596E-05
   103.559998         6.47571214E-05
   103.739998         6.33144082E-05
   103.919998         6.17806290E-05
   104.099998         6.01692518E-05
   104.279999         5.84948648E-05
   104.459999         5.67730458E-05
   104.639999         5.50193581E-05
   104.820000         5.32477716E-05
   105.000000         5.14691274E-05
   105.180000         4.96902503E-05
   105.360001         4.79138471E-05
   105.540001         4.61388663E-05
   105.720001         4.43608442E-05
   105.900002         4.25721300E-05
   106.080002         4.07622683E-05
   106.260002         3.89190318E-05
   106.440002         3.70302369E-05
   106.620003         3.50858318E-05
   106.800003         3.30793700E-05
   106.980003         3.10081414E-05
   107.160004         2.88718602E-05
   107.339996         2.66706556E-05
   107.519997         2.44033399E-05
   107.699997         2.20667425E-05
   107.879997         1.96560923E-05
   108.059998         1.71660122E-05
   108.239998         1.45915174E-05
   108.419998         1.19288279E-05
   108.599998         9.17617126E-06
   108.779999         6.33483251E-06
   108.959999         3.41041414E-06
   109.139999         4.13785415E-07
   109.320000        -2.63898551E-06
   109.500000        -5.72807858E-06
   109.680000        -8.83229677E-06
   109.860001        -1.19315318E-05
   110.040001        -1.50083206E-05
   110.220001        -1.80480947E-05
   110.400002        -2.10384042E-05
   110.580002        -2.39678284E-05
   110.760002        -2.68251024E-05
   110.940002        -2.95986410E-05
   111.120003        -3.22762098E-05