  -34.5000000       0.00000000    
  -34.3199997       0.00000000    
  -34.1399994       0.00000000    
  -33.9599991      -5.32068721E-28
  -33.7799988       7.03507181E-24
  -33.5999985       4.08295188E-23
  -33.4199982       1.08718488E-22
  -33.2400017       1.38531371E-22
  -33.0600014      -7.89796368E-23
  -32.8800011      -8.30496454E-22
  -32.7000008      -2.19433003E-21
  -32.5200005      -3.53684658E-21
  -32.3400002      -3.13253742E-21
  -32.1599998       1.40186869E-21
  -31.9799995       1.14816102E-20
  -31.7999992       2.55519532E-20
  -31.6200008       3.83108992E-20
  -31.4400005       4.16842095E-20
  -31.2600002       2.63963237E-20
  -31.0799999      -1.62638249E-20
  -30.8999996      -9.06593635E-20
  -30.7199993      -1.91943759E-19
  -30.5400009      -3.09842962E-19
  -30.3600006      -4.50331136E-19
  -30.1800003      -6.56846857E-19
  -30.0000000      -9.73666027E-19
  -29.8199997      -1.30378233E-18
  -29.6399994      -1.21881486E-18
  -29.4599991       7.72825217E-20
  -29.2800007       3.40956466E-18
  -29.1000004       8.92714906E-18
  -28.9200001       1.54168516E-17
  -28.7399998       2.02133593E-17
  -28.5599995       2.00191952E-17
  -28.3799992       1.23309088E-17
  -28.2000008      -3.32155967E-18
  -28.0200005      -2.50443274E-17
  -27.8400002      -4.92862300E-17
  -27.6599998      -7.20648220E-17
  -27.4799995      -8.99254183E-17
  -27.2999992      -9.99818103E-17
  -27.1200008      -9.87007458E-17
  -26.9400005      -7.95230728E-17
  -26.7600002      -3.01397153E-17
  -26.5799999       6.87922043E-17
  -26.3999996       2.41199805E-16
  -26.2199993       5.08043374E-16
  -26.0400009       8.75921376E-16
  -25.8600006       1.32622373E-15
  -25.6800003       1.81078640E-15
  -25.5000000       2.25844310E-15
  -25.3199997       2.59238076E-15
  -25.1399994       2.75282891E-15
  -24.9599991       2.71600056E-15
  -24.7800007       2.50045778E-15
  -24.6000004       2.15657955E-15
  -24.4200001       1.74218891E-15
  -24.2399998       1.29469769E-15
  -24.0599995       8.13615803E-16
  -23.8799992       2.64177718E-16
  -23.7000008      -3.96834353E-16
  -23.5200005      -1.18448992E-15
  -23.3400002      -2.05843130E-15
  -23.1599998      -2.92393211E-15
  -22.9799995      -3.66784494E-15
  -22.7999992      -4.21725338E-15
  -22.6200008      -4.59320683E-15
  -22.4400005      -4.92962630E-15
  -22.2600002      -5.44115839E-15
  -22.0799999      -6.34761832E-15
  -21.8999996      -7.78388804E-15
  -21.7199993      -9.73138874E-15
  -21.5400009      -1.19963904E-14
  -21.3600006      -1.42383494E-14
  -21.1800003      -1.60310269E-14
  -21.0000000      -1.69311518E-14
  -20.8199997      -1.65371850E-14
  -20.6399994      -1.45380449E-14
  -20.4599991      -1.07665341E-14
  -20.2800007      -5.27398542E-15
  -20.1000004       1.57320477E-15
  -19.9200001       9.00345879E-15
  -19.7399998       1.58124856E-14
  -19.5599995       2.04638891E-14
  -19.3799992       2.13588709E-14
  -19.2000008       1.72560855E-14
  -19.0200005       7.74597993E-15
  -18.8400002      -6.37782097E-15
  -18.6599998      -2.30125079E-14
  -18.4799995      -3.89997381E-14
  -18.2999992      -5.07046560E-14
  -18.1200008      -5.47494111E-14
  -17.9400005      -4.86527695E-14
  -17.7600002      -3.11562062E-14
  -17.5799999      -2.15402363E-15
  -17.3999996       3.76731422E-14
  -17.2199993       8.72798266E-14
  -17.0400009       1.45469615E-13
  -16.8600006       2.10753724E-13
  -16.6800003       2.80909519E-13
  -16.5000000       3.52475238E-13
  -16.3199997       4.20487836E-13
  -16.1399994       4.78677807E-13
  -15.9600000       5.20131627E-13
  -15.7799997       5.38209288E-13
  -15.6000004       5.27388246E-13
  -15.4200001       4.83751060E-13
  -15.2399998       4.05028712E-13
  -15.0600004       2.90353895E-13
  -14.8800001       1.40036908E-13
  -14.6999998      -4.43413989E-14
  -14.5200005      -2.59423938E-13
  -14.3400002      -4.99340912E-13
  -14.1599998      -7.55138519E-13
  -13.9799995      -1.01478277E-12
  -13.8000002      -1.26395313E-12
  -13.6199999      -1.48749990E-12
  -13.4399996      -1.67113404E-12
  -13.2600002      -1.80280628E-12
  -13.0799999      -1.87336691E-12
  -12.8999996      -1.87644236E-12
  -12.7200003      -1.80782939E-12
  -12.5400000      -1.66492753E-12
  -12.3599997      -1.44666711E-12
  -12.1800003      -1.15408583E-12
  -12.0000000      -7.91311407E-13
  -11.8199997      -3.66408076E-13
  -11.6400003       1.08457636E-13
  -11.4600000       6.17794552E-13
  -11.2799997       1.14431880E-12
  -11.1000004       1.67065428E-12
  -10.9200001       2.18050903E-12
  -10.7399998       2.65887030E-12
  -10.5600004       3.09126943E-12
  -10.3800001       3.46267459E-12
  -10.1999998       3.75682731E-12
  -10.0200005       3.95669218E-12
  -9.84000015       4.04618656E-12
  -9.65999985       4.01273459E-12
  -9.47999954       3.84972609E-12
  -9.30000019       3.55793194E-12
  -9.11999989       3.14527874E-12
  -8.93999958       2.62504927E-12
  -8.76000023       2.01318606E-12
  -8.57999992       1.32568598E-12
  -8.39999962       5.76972010E-13
  -8.22000027      -2.20345430E-13
  -8.03999996      -1.05450566E-12
  -7.86000013      -1.91309425E-12
  -7.67999983      -2.78178457E-12
  -7.50000000      -3.64387253E-12
  -7.32000017      -4.48071224E-12
  -7.13999987      -5.27269764E-12
  -6.96000004      -6.00022679E-12
  -6.78000021      -6.64417263E-12
  -6.59999990      -7.18573335E-12
  -6.42000008      -7.60590809E-12
  -6.23999977      -7.88511530E-12
  -6.05999994      -8.00338008E-12
  -5.88000011      -7.94129693E-12
  -5.69999981      -7.68156198E-12
  -5.51999998      -7.21065568E-12
  -5.34000015      -6.52027607E-12
  -5.15999985      -5.60831373E-12
  -4.98000002      -4.47949490E-12
  -4.80000019      -3.14600017E-12
  -4.61999989      -1.62825970E-12
  -4.44000006       4.41480924E-14
  -4.26000023       1.83192784E-12
  -4.07999992       3.68645782E-12
  -3.90000010       5.55164942E-12
  -3.72000003       7.36728647E-12
  -3.53999996       9.07339308E-12
  -3.35999990       1.06145995E-11
  -3.18000007       1.19435217E-11
  -3.00000000       1.30224121E-11
  -2.81999993       1.38230365E-11
  -2.64000010       1.43253066E-11
  -2.46000004       1.45156803E-11
  -2.27999997       1.43862301E-11
  -2.09999990       1.39348802E-11
  -1.91999996       1.31667212E-11
  -1.74000001       1.20956916E-11
  -1.55999994       1.07457480E-11
  -1.38000000       9.15081379E-12
  -1.20000005       7.35321439E-12
  -1.01999998       5.40095529E-12
 -0.839999974       3.34447530E-12
 -0.660000026       1.23370368E-12
 -0.479999989      -8.84098892E-13
 -0.300000012      -2.96549959E-12
 -0.119999997      -4.97125865E-12
   5.99999987E-02  -6.86616129E-12
  0.239999995      -8.61867522E-12
  0.419999987      -1.02005366E-11
  0.600000024      -1.15863508E-11
  0.779999971      -1.27532975E-11
  0.959999979      -1.36810823E-11
   1.13999999      -1.43524212E-11
   1.32000005      -1.47542360E-11
   1.50000000      -1.48795091E-11
   1.67999995      -1.47293792E-11
   1.86000001      -1.43147586E-11
   2.03999996      -1.36567242E-11
   2.22000003      -1.27851896E-11
   2.40000010      -1.17358631E-11
   2.57999992      -1.05461395E-11
   2.75999999      -9.25084662E-12
   2.94000006      -7.87886510E-12
   3.11999989      -6.45125880E-12
   3.29999995      -4.98112359E-12
   3.48000002      -3.47479532E-12
   3.66000009      -1.93402109E-12
   3.83999991      -3.58555416E-13
   4.01999998       1.25099822E-12
   4.19999981       2.89028306E-12
   4.38000011       4.54830791E-12
   4.55999994       6.20499615E-12
   4.73999977       7.82974033E-12
   4.92000008       9.38171936E-12
   5.09999990       1.08125063E-11
   5.28000021       1.20709198E-11
   5.46000004       1.31094233E-11
   5.63999987       1.38906560E-11
   5.82000017       1.43923432E-11
   6.00000000       1.46091958E-11
   6.17999983       1.45511181E-11
   6.36000013       1.42382469E-11
   6.53999996       1.36944137E-11
   6.71999979       1.29410224E-11
   6.90000010       1.19933351E-11
   7.07999992       1.08600290E-11
   7.26000023       9.54586757E-12
   7.44000006       8.05614863E-12
   7.61999989       6.40122113E-12
   7.80000019       4.59952085E-12
   7.98000002       2.67841326E-12
   8.15999985       6.72963367E-13
   8.34000015      -1.37667124E-12
   8.52000046      -3.42823426E-12
   8.69999981      -5.44018173E-12
   8.88000011      -7.37392699E-12
   9.06000042      -9.19548899E-12
   9.23999977      -1.08766078E-11
   9.42000008      -1.23951960E-11
   9.60000038      -1.37349021E-11
   9.77999973      -1.48836308E-11
   9.96000004      -1.58310916E-11
   10.1400003      -1.65656846E-11
   10.3199997      -1.70715872E-11
   10.5000000      -1.73268379E-11
   10.6800003      -1.73030045E-11
   10.8599997      -1.69667665E-11
   11.0400000      -1.62829437E-11
   11.2200003      -1.52182069E-11
   11.3999996      -1.37444760E-11
   11.5799999      -1.18408243E-11
   11.7600002      -9.49361856E-12
   11.9399996      -6.69470165E-12
   12.1199999      -3.43833143E-12
   12.3000002       2.81913300E-13
   12.4799995       4.47531508E-12
   12.6599998       9.15435089E-12
   12.8400002       1.43327702E-11
   13.0200005       2.00223137E-11
   13.1999998       2.62285402E-11
   13.3800001       3.29472560E-11
   13.5600004       4.01625538E-11
   13.7399998       4.78466988E-11
   13.9200001       5.59622869E-11
   14.1000004       6.44660159E-11
   14.2799997       7.33131680E-11
   14.4600000       8.24620303E-11
   14.6400003       9.18769019E-11
   14.8199997       1.01528945E-10
   15.0000000       1.11394470E-10
   15.1800003       1.21450086E-10
   15.3599997       1.31665984E-10
   15.5400000       1.41998066E-10
   15.7200003       1.52380733E-10
   15.8999996       1.62721531E-10
   16.0799999       1.72898793E-10
   16.2600002       1.82763263E-10
   16.4400005       1.92142940E-10
   16.6200008       2.00850836E-10
   16.7999992       2.08695006E-10
   16.9799995       2.15488488E-10
   17.1599998       2.21058935E-10
   17.3400002       2.25255675E-10
   17.5200005       2.27954489E-10
   17.7000008       2.29059230E-10
   17.8799992       2.28501731E-10
   18.0599995       2.26240859E-10
   18.2399998       2.22262833E-10
   18.4200001       2.16583015E-10
   18.6000004       2.09250284E-10
   18.7800007       2.00352984E-10
   18.9599991       1.90025010E-10
   19.1399994       1.78450851E-10
   19.3199997       1.65867278E-10
   19.5000000       1.52560672E-10
   19.6800003       1.38859355E-10
   19.8600006       1.25121108E-10
   20.0400009       1.11716546E-10
   20.2199993       9.90107718E-11
   20.3999996       8.73445691E-11
   20.5799999       7.70177949E-11
   20.7600002       6.82762319E-11
   20.9400005       6.13025603E-11
   21.1200008       5.62118616E-11
   21.2999992       5.30504113E-11
   21.4799995       5.17974136E-11
   21.6599998       5.23679190E-11
   21.8400002       5.46174286E-11
   22.0200005       5.83475074E-11
   22.2000008       6.33133268E-11
   22.3799992       6.92338339E-11
   22.5599995       7.58046681E-11
   22.7399998       8.27141966E-11
   22.9200001       8.96616253E-11
   23.1000004       9.63747276E-11
   23.2800007       1.02626456E-10
   23.4599991       1.08246648E-10
   23.6399994       1.13127972E-10
   23.8199997       1.17226243E-10
   24.0000000       1.20555441E-10
   24.1800003       1.23180272E-10
   24.3600006       1.25208746E-10
   24.5400009       1.26786817E-10
   24.7199993       1.28095437E-10
   24.8999996       1.29349212E-10
   25.0799999       1.30794972E-10
   25.2600002       1.32707886E-10
   25.4400005       1.35382899E-10
   25.6200008       1.39121492E-10
   25.7999992       1.44213808E-10
   25.9799995       1.50918597E-10
   26.1599998       1.59442196E-10
   26.3400002       1.69919662E-10
   26.5200005       1.82399137E-10
   26.7000008       1.96831829E-10
   26.8799992       2.13067217E-10
   27.0599995       2.30855265E-10
   27.2399998       2.49854221E-10
   27.4200001       2.69644918E-10
   27.6000004       2.89749086E-10
   27.7800007       3.09650805E-10
   27.9599991       3.28818250E-10
   28.1399994       3.46725093E-10
   28.3199997       3.62868013E-10
   28.5000000       3.76780773E-10
   28.6800003       3.88045512E-10
   28.8600006       3.96300881E-10
   29.0400009       4.01250477E-10
   29.2199993       4.02670897E-10
   29.3999996       4.00420613E-10
   29.5799999       3.94448529E-10
   29.7600002       3.84800108E-10
   29.9400005       3.71619235E-10
   30.1200008       3.55144858E-10
   30.2999992       3.35701050E-10
   30.4799995       3.13681414E-10
   30.6599998       2.89528818E-10
   30.8400002       2.63711775E-10
   31.0200005       2.36699382E-10
   31.2000008       2.08936465E-10
   31.3799992       1.80820400E-10
   31.5599995       1.52683324E-10
   31.7399998       1.24779659E-10
   31.9200001       9.72825501E-11
   32.0999985       7.02883932E-11
   32.2799988       4.38293984E-11
   32.4599991       1.78903871E-11
   32.6399994      -7.57251813E-12
   32.8199997      -3.26154138E-11
   33.0000000      -5.72948737E-11
   33.1800003      -8.16613305E-11
   33.3600006      -1.05757098E-10
   33.5400009      -1.29616234E-10
   33.7200012      -1.53264040E-10
   33.9000015      -1.76714324E-10
   34.0800018      -1.99963338E-10
   34.2599983      -2.22982049E-10
   34.4399986      -2.45708426E-10
   34.6199989      -2.68040978E-10
   34.7999992      -2.89835239E-10
   34.9799995      -3.10903719E-10
   35.1599998      -3.31017491E-10
   35.3400002      -3.49910240E-10
   35.5200005      -3.67283398E-10
   35.7000008      -3.82813448E-10
   35.8800011      -3.96162825E-10
   36.0600014      -4.06995271E-10
   36.2400017      -4.14994678E-10
   36.4199982      -4.19887430E-10
   36.5999985      -4.21464974E-10
   36.7799988      -4.19603491E-10
   36.9599991      -4.14277251E-10
   37.1399994      -4.05565970E-10
   37.3199997      -3.93653055E-10
   37.5000000      -3.78816839E-10
   37.6800003      -3.61416369E-10
   37.8600006      -3.41871365E-10
   38.0400009      -3.20640570E-10
   38.2200012      -2.98196662E-10
   38.4000015      -2.75002993E-10
   38.5800018      -2.51491244E-10
   38.7599983      -2.28044930E-10
   38.9399986      -2.04988845E-10
   39.1199989      -1.82586682E-10
   39.2999992      -1.61046884E-10
   39.4799995      -1.40533418E-10
   39.6599998      -1.21180607E-10
   39.8400002      -1.03106218E-10
   40.0200005      -8.64200517E-11
   40.2000008      -7.12268994E-11
   40.3800011      -5.76216228E-11
   40.5600014      -4.56791723E-11
   40.7400017      -3.54428049E-11
   40.9199982      -2.69129424E-11
   41.0999985      -2.00410678E-11
   41.2799988      -1.47296411E-11
   41.4599991      -1.08392826E-11
   41.6399994      -8.20231816E-12
   41.8199997      -6.63918313E-12
   42.0000000      -5.97575895E-12
   42.1800003      -6.05757762E-12
   42.3600006      -6.75781956E-12
   42.5400009      -7.97874874E-12
   42.7200012      -9.64630546E-12
   42.9000015      -1.17016327E-11
   43.0800018      -1.40927608E-11
   43.2599983      -1.67696725E-11
   43.4399986      -1.96851112E-11
   43.6199989      -2.28016737E-11
   43.7999992      -2.61009131E-11
   43.9799995      -2.95932098E-11
   44.1599998      -3.33234551E-11
   44.3400002      -3.73703811E-11
   44.5200005      -4.18397365E-11
   44.7000008      -4.68512520E-11
   44.8800011      -5.25221221E-11
   45.0600014      -5.89492760E-11
   45.2400017      -6.61933078E-11
   45.4199982      -7.42657186E-11
   45.5999985      -8.31217248E-11
   45.7799988      -9.26587626E-11
   45.9599991      -1.02720873E-10
   46.1399994      -1.13107759E-10
   46.3199997      -1.23587252E-10
   46.5000000      -1.33908593E-10
   46.6800003      -1.43815515E-10
   46.8600006      -1.53056887E-10
   47.0400009      -1.61394648E-10
   47.2200012      -1.68608433E-10
   47.4000015      -1.74498443E-10
   47.5800018      -1.78887155E-10
   47.7599983      -1.81623300E-10
   47.9399986      -1.82588153E-10
   48.1199989      -1.81705206E-10
   48.2999992      -1.78952006E-10
   48.4799995      -1.74370116E-10
   48.6599998      -1.68071446E-10
   48.8400002      -1.60235367E-10
   49.0200005      -1.51097621E-10
   49.2000008      -1.40929685E-10
   49.3800011      -1.30013805E-10
   49.5600014      -1.18616436E-10
   49.7400017      -1.06965450E-10
   49.9199982      -9.52336543E-11
   50.0999985      -8.35307518E-11
   50.2799988      -7.19029350E-11
   50.4599991      -6.03393446E-11
   50.6399994      -4.87818327E-11
   50.8199997      -3.71344865E-11
   51.0000000      -2.52727717E-11
   51.1800003      -1.30464606E-11
   51.3600006      -2.78185867E-13
   51.5400009       1.32429788E-11
   51.7200012       2.77702011E-11
   51.9000015       4.36056607E-11
   52.0800018       6.11036291E-11
   52.2599983       8.06648359E-11
   52.4399986       1.02720922E-10
   52.6199989       1.27708261E-10
   52.7999992       1.56033672E-10
   52.9799995       1.88034796E-10
   53.1599998       2.23941685E-10
   53.3400002       2.63845973E-10
   53.5200005       3.07682463E-10
   53.7000008       3.55228957E-10
   53.8800011       4.06122441E-10
   54.0600014       4.59889599E-10
   54.2400017       5.15984033E-10
   54.4199982       5.73822379E-10
   54.5999985       6.32811303E-10
   54.7799988       6.92365054E-10
   54.9599991       7.51907481E-10
   55.1399994       8.10868706E-10
   55.3199997       8.68677241E-10
   55.5000000       9.24755772E-10
   55.6800003       9.78524262E-10
   55.8600006       1.02941133E-09
   56.0400009       1.07687514E-09
   56.2200012       1.12043019E-09
   56.4000015       1.15967291E-09
   56.5800018       1.19430643E-09
   56.7599983       1.22415889E-09
   56.9399986       1.24918909E-09
   57.1199989       1.26948496E-09
   57.2999992       1.28524968E-09
   57.4799995       1.29677602E-09
   57.6599998       1.30441746E-09
   57.8400002       1.30855249E-09
   58.0200005       1.30955102E-09
   58.2000008       1.30774624E-09
   58.3800011       1.30341915E-09
   58.5600014       1.29679434E-09
   58.7400017       1.28804922E-09
   58.9199982       1.27733135E-09
   59.0999985       1.26477828E-09
   59.2799988       1.25053512E-09
   59.4599991       1.23476029E-09
   59.6399994       1.21762467E-09
   59.8199997       1.19930199E-09
   60.0000000       1.17995536E-09
   60.1800003       1.15972343E-09
   60.3600006       1.13871013E-09
   60.5400009       1.11697751E-09
   60.7200012       1.09454246E-09
   60.9000015       1.07137565E-09
   61.0800018       1.04740416E-09
   61.2599983       1.02251940E-09
   61.4399986       9.96589367E-10
   61.6199989       9.69480052E-10
   61.7999992       9.41079659E-10
   61.9799995       9.11327402E-10
   62.1599998       8.80235551E-10
   62.3400002       8.47905635E-10
   62.5200005       8.14526890E-10
   62.7000008       7.80364218E-10
   62.8800011       7.45729256E-10
   63.0600014       7.10946135E-10
   63.2400017       6.76316669E-10
   63.4199982       6.42091991E-10
   63.5999985       6.08454953E-10
   63.7799988       5.75515968E-10
   63.9599991       5.43322498E-10
   64.1399994       5.11876430E-10
   64.3199997       4.81156837E-10
   64.5000000       4.51145676E-10
   64.6800003       4.21850110E-10
   64.8600006       3.93322125E-10
   65.0400009       3.65669578E-10
   65.2200012       3.39058503E-10
   65.4000015       3.13701759E-10
   65.5800018       2.89837210E-10
   65.7600021       2.67695227E-10
   65.9400024       2.47460052E-10
   66.1200027       2.29234687E-10
   66.3000031       2.13012594E-10
   66.4800034       1.98665612E-10
   66.6600037       1.85946591E-10
   66.8399963       1.74512169E-10
   67.0199966       1.63955127E-10
   67.1999969       1.53848156E-10
   67.3799973       1.43785567E-10
   67.5599976       1.33421135E-10
   67.7399979       1.22494376E-10
   67.9199982       1.10841204E-10
   68.0999985       9.83888804E-11
   68.2799988       8.51369877E-11
   68.4599991       7.11280965E-11
   68.6399994       5.64152544E-11
   68.8199997       4.10323928E-11
   69.0000000       2.49762364E-11
   69.1800003       8.20207704E-12
   69.3600006      -9.36318210E-12
   69.5400009      -2.77956772E-11
   69.7200012      -4.71417939E-11
   69.9000015      -6.73865616E-11
   70.0800018      -8.84310403E-11
   70.2600021      -1.10084240E-10
   70.4400024      -1.32072048E-10
   70.6200027      -1.54059598E-10
   70.8000031      -1.75682649E-10
   70.9800034      -1.96580224E-10
   71.1600037      -2.16424711E-10
   71.3399963      -2.34943676E-10
   71.5199966      -2.51932336E-10
   71.6999969      -2.67254968E-10
   71.8799973      -2.80836077E-10
   72.0599976      -2.92642827E-10
   72.2399979      -3.02659370E-10
   72.4199982      -3.10857812E-10
   72.5999985      -3.17171595E-10
   72.7799988      -3.21475596E-10
   72.9599991      -3.23582244E-10
   73.1399994      -3.23254201E-10
   73.3199997      -3.20235227E-10
   73.5000000      -3.14295256E-10
   73.6800003      -3.05280079E-10
   73.8600006      -2.93157554E-10
   74.0400009      -2.78049472E-10
   74.2200012      -2.60242938E-10
   74.4000015      -2.40178405E-10
   74.5800018      -2.18416396E-10
   74.7600021      -1.95591723E-10
   74.9400024      -1.72361639E-10
   75.1200027      -1.49356069E-10
   75.3000031      -1.27140437E-10
   75.4800034      -1.06188988E-10
   75.6600037      -8.68736888E-11
   75.8399963      -6.94648991E-11
   76.0199966      -5.41423850E-11
   76.1999969      -4.10140394E-11
   76.3799973      -3.01407892E-11
   76.5599976      -2.15627446E-11
   76.7399979      -1.53240198E-11
   76.9199982      -1.14899444E-11
   77.0999985      -1.01504586E-11
   77.2799988      -1.14091653E-11
   77.4599991      -1.53569744E-11
   77.6399994      -2.20379305E-11
   77.8199997      -3.14131395E-11
   78.0000000      -4.33338192E-11
   78.1800003      -5.75317467E-11
   78.3600006      -7.36307265E-11
   78.5400009      -9.11785231E-11
   78.7200012      -1.09691985E-10
   78.9000015      -1.28707517E-10
   79.0800018      -1.47823573E-10
   79.2600021      -1.66730296E-10
   79.4400024      -1.85219215E-10
   79.6200027      -2.03173978E-10
   79.8000031      -2.20546637E-10
   79.9800034      -2.37325382E-10
   80.1600037      -2.53500582E-10
   80.3399963      -2.69034656E-10
   80.5199966      -2.83839674E-10
   80.6999969      -2.97763536E-10
   80.8799973      -3.10589193E-10
   81.0599976      -3.22044669E-10
   81.2399979      -3.31823957E-10
   81.4199982      -3.39617362E-10
   81.5999985      -3.45145246E-10
   81.7799988      -3.48189144E-10
   81.9599991      -3.48614942E-10
   82.1399994      -3.46380508E-10
   82.3199997      -3.41528195E-10
   82.5000000      -3.34164280E-10
   82.6800003      -3.24429483E-10
   82.8600006      -3.12472243E-10
   83.0400009      -2.98429476E-10
   83.2200012      -2.82422752E-10
   83.4000015      -2.64570033E-10
   83.5800018      -2.45010512E-10
   83.7600021      -2.23935329E-10
   83.9400024      -2.01616418E-10
   84.1200027      -1.78424012E-10
   84.3000031      -1.54829344E-10
   84.4800034      -1.31389039E-10
   84.6600037      -1.08715321E-10
   84.8399963      -8.74361070E-11
   85.0199966      -6.81515677E-11
   85.1999969      -5.13926506E-11
   85.3799973      -3.75844564E-11
   85.5599976      -2.70179903E-11
   85.7399979      -1.98314681E-11
   85.9199982      -1.60028275E-11
   86.0999985      -1.53557896E-11
   86.2799988      -1.75787822E-11
   86.4599991      -2.22566410E-11
   86.6399994      -2.89114409E-11
   86.8199997      -3.70473270E-11
   87.0000000      -4.61934206E-11
   87.1800003      -5.59391804E-11
   87.3600006      -6.59591617E-11
   87.5400009      -7.60240620E-11
   87.7200012      -8.59994020E-11
   87.9000015      -9.58318147E-11
   88.0800018      -1.05527032E-10
   88.2600021      -1.15123085E-10
   88.4400024      -1.24663724E-10
   88.6200027      -1.34177211E-10
   88.8000031      -1.43664802E-10
   88.9800034      -1.53101837E-10
   89.1600037      -1.62449748E-10
   89.3399963      -1.71678380E-10
   89.5199966      -1.80791188E-10
   89.6999969      -1.89847263E-10
   89.8799973      -1.98973685E-10
   90.0599976      -2.08363007E-10
   90.2399979      -2.18254512E-10
   90.4199982      -2.28900870E-10
   90.5999985      -2.40526293E-10
   90.7799988      -2.53283478E-10
   90.9599991      -2.67217082E-10
   91.1399994      -2.82241702E-10
   91.3199997      -2.98135155E-10
   91.5000000      -3.14549387E-10
   91.6800003      -3.31033867E-10
   91.8600006      -3.47069762E-10
   92.0400009      -3.62107760E-10
   92.2200012      -3.75606352E-10
   92.4000015      -3.87066740E-10
   92.5800018      -3.96060296E-10
   92.7600021      -4.02245487E-10
   92.9400024      -4.05374539E-10
   93.1200027      -4.05287442E-10
   93.3000031      -4.01897737E-10
   93.4800034      -3.95173450E-10
   93.6600037      -3.85117299E-10
   93.8399963      -3.71750825E-10
   94.0199966      -3.55104668E-10
   94.1999969      -3.35217964E-10
   94.3799973      -3.12143589E-10
   94.5599976      -2.85960561E-10
   94.7399979      -2.56790700E-10
   94.9199982      -2.24816457E-10
   95.0999985      -1.90297597E-10
   95.2799988      -1.53583590E-10
   95.4599991      -1.15115639E-10
   95.6399994      -7.54186227E-11
   95.8199997      -3.50787316E-11
   96.0000000       5.29087408E-12
   96.1800003       4.50938210E-11
   96.3600006       8.37967126E-11
   96.5400009       1.20971760E-10
   96.7200012       1.56324592E-10
   96.9000015       1.89701727E-10
   97.0800018       2.21075477E-10
   97.2600021       2.50506921E-10
   97.4400024       2.78094492E-10
   97.6200027       3.03920916E-10
   97.8000031       3.28010313E-10
   97.9800034       3.50303231E-10
   98.1600037       3.70657449E-10
   98.3399963       3.88871213E-10
   98.5199966       4.04721784E-10
   98.6999969       4.18012680E-10
   98.8799973       4.28618890E-10
   99.0599976       4.36522846E-10
   99.2399979       4.41836068E-10
   99.4199982       4.44802778E-10
   99.5999985       4.45784742E-10
   99.7799988       4.45228077E-10
   99.9599991       4.43615478E-10
   100.139999       4.41410991E-10
   100.320000       4.39005027E-10
   100.500000       4.36670922E-10
   100.680000       4.34540820E-10
   100.860001       4.32608421E-10
   101.040001       4.30758373E-10
   101.220001       4.28817593E-10
   101.400002       4.26617852E-10
   101.580002       4.24056956E-10
   101.760002       4.21143259E-10
   101.940002       4.18016177E-10
   102.120003       4.14936502E-10
   102.300003       4.12252454E-10
   102.480003       4.10349726E-10
   102.660004       4.09597162E-10
   102.839996       4.10299489E-10
   103.019997       4.12662182E-10
   103.199997       4.16771923E-10
   103.379997       4.22589547E-10
   103.559998       4.29954572E-10
   103.739998       4.38597658E-10
   103.919998       4.48161036E-10
   104.099998       4.58225513E-10
   104.279999       4.68341976E-10
   104.459999       4.78063256E-10
   104.639999       4.86972296E-10
   104.820000       4.94697283E-10
   105.000000       5.00915309E-10
   105.180000       5.05340214E-10
   105.360001       5.07703546E-10
   105.540001       5.07735243E-10
   105.720001       5.05152420E-10
   105.900002       4.99662756E-10
   106.080002       4.90985752E-10
   106.260002       4.78885320E-10
   106.440002       4.63207472E-10
   106.620003       4.43912712E-10
   106.800003       4.21094937E-10
   106.980003       3.94981270E-10
   107.160004       3.65914909E-10
   107.339996       3.34326677E-10
   107.519997       3.00702963E-10
   107.699997       2.65555855E-10
   107.879997       2.29400610E-10
   108.059998       1.92740282E-10
   108.239998       1.56051283E-10
   108.419998       1.19772317E-10
   108.599998       8.42882569E-11
   108.779999       4.99149472E-11
   108.959999       1.68859770E-11
   109.139999      -1.46547479E-11
   109.320000      -4.46518551E-11
   109.500000      -7.31265742E-11
   109.680000      -1.00159311E-10
   109.860001      -1.25867053E-10
   110.040001      -1.50382110E-10
   110.220001      -1.73832990E-10
   110.400002      -1.96332214E-10
   110.580002      -2.17967686E-10
   110.760002      -2.38800840E-10
   110.940002      -2.58867178E-10
   111.120003      -2.78177703E-10
   111.300003      -2.96721286E-10
   111.480003      -3.14465121E-10
   111.660004      -3.31351196E-10
   111.839996      -3.47291751E-10
   112.019997      -3.62162633E-10
   112.199997      -3.75793285E-10
   112.379997      -3.87960941E-10
   112.559998      -3.98387934E-10
   112.739998      -4.06746137E-10
   112.919998      -4.12673951E-10
   113.099998      -4.15802337E-10
   113.279999      -4.15790180E-10
   113.459999      -4.12362311E-10
   113.639999      -4.05341705E-10
   113.820000      -3.94671101E-10
   114.000000      -3.80417559E-10
   114.180000      -3.62760239E-10
   114.360001      -3.41966816E-10
   114.540001      -3.18362670E-10
   114.720001      -2.92303209E-10
   114.900002      -2.64150146E-10
   115.080002      -2.34257613E-10
   115.260002      -2.02965506E-10
   115.440002      -1.70598535E-10
   115.620003      -1.37467399E-10
   115.800003      -1.03871647E-10
   115.980003      -7.00988087E-11
   116.160004      -3.64229306E-11
   116.339996      -3.10133581E-12
   116.519997       2.96324597E-11
   116.699997       6.15732187E-11
   116.879997       9.25507102E-11
   117.059998       1.22432869E-10
   117.239998       1.51125223E-10
   117.419998       1.78565884E-10
   117.599998       2.04712802E-10
   117.779999       2.29524774E-10
   117.959999       2.52938226E-10
   118.139999       2.74844425E-10
   118.320000       2.95072577E-10
   118.500000       3.13383958E-10
   118.680000       3.29479805E-10
   118.860001       3.43023304E-10
   119.040001       3.53671287E-10
   119.220001       3.61109614E-10
   119.400002       3.65085046E-10
   119.580002       3.65431435E-10