  -34.5000000         0.00000000    
  -34.3199997         0.00000000    
  -34.1399994         0.00000000    
  -33.9599991         4.14373688E-27
  -33.7799988        -6.73927027E-23
  -33.5999985        -4.24912038E-22
  -33.4199982        -1.32567325E-21
  -33.2400017        -2.53910440E-21
  -33.0600014        -2.72059946E-21
  -32.8800011         4.41443331E-22
  -32.7000008         8.32849950E-21
  -32.5200005         1.81446026E-20
  -32.3400002         2.09651544E-20
  -32.1599998         4.04675658E-21
  -31.9799995        -4.23526490E-20
  -31.7999992        -1.15291981E-19
  -31.6200008        -1.87391797E-19
  -31.4400005        -1.97449046E-19
  -31.2600002        -5.90409856E-20
  -31.0799999         2.98207296E-19
  -30.8999996         8.71521836E-19
  -30.7199993         1.55857671E-18
  -30.5400009         2.17429677E-18
  -30.3600006         2.44270219E-18
  -30.1800003         1.89961924E-18
  -30.0000000        -1.87777095E-19
  -29.8199997        -4.60115411E-18
  -29.6399994        -1.14795240E-17
  -29.4599991        -1.94422897E-17
  -29.2800007        -2.52369165E-17
  -29.1000004        -2.45254552E-17
  -28.9200001        -1.37557555E-17
  -28.7399998         7.69792559E-18
  -28.5599995         3.62640050E-17
  -28.3799992         6.46800579E-17
  -28.2000008         8.45752670E-17
  -28.0200005         9.04874643E-17
  -27.8400002         8.33616144E-17
  -27.6599998         7.04312197E-17
  -27.4799995         5.88653223E-17
  -27.2999992         4.40490021E-17
  -27.1200008        -8.69414697E-19
  -26.9400005        -1.23364724E-16
  -26.7600002        -3.69685650E-16
  -26.5799999        -7.46163446E-16
  -26.3999996        -1.18281915E-15
  -26.2199993        -1.52748892E-15
  -26.0400009        -1.59066657E-15
  -25.8600006        -1.23498854E-15
  -25.6800003        -4.71133701E-16
  -25.5000000         4.95439735E-16
  -25.3199997         1.30902452E-15
  -25.1399994         1.59860560E-15
  -24.9599991         1.15088166E-15
  -24.7800007         3.89661195E-17
  -24.6000004        -1.36395481E-15
  -24.4200001        -2.50567105E-15
  -24.2399998        -2.86541886E-15
  -24.0599995        -2.16339436E-15
  -23.8799992        -4.76885373E-16
  -23.7000008         1.78793091E-15
  -23.5200005         4.05563695E-15
  -23.3400002         5.80326878E-15
  -23.1599998         6.74938638E-15
  -22.9799995         6.93044899E-15
  -22.7999992         6.63179660E-15
  -22.6200008         6.20254953E-15
  -22.4400005         5.83752280E-15
  -22.2600002         5.43225395E-15
  -22.0799999         4.59560605E-15
  -21.8999996         2.83847136E-15
  -21.7199993        -1.29900404E-16
  -21.5400009        -4.13566335E-15
  -21.3600006        -8.45159056E-15
  -21.1800003        -1.19654068E-14
  -21.0000000        -1.35606951E-14
  -20.8199997        -1.25448629E-14
  -20.6399994        -8.91017674E-15
  -20.4599991        -3.27814329E-15
  -20.2800007         3.46376633E-15
  -20.1000004         1.06452975E-14
  -19.9200001         1.81257207E-14
  -19.7399998         2.61836468E-14
  -19.5599995         3.49094838E-14
  -19.3799992         4.32743407E-14
  -19.2000008         4.82514927E-14
  -19.0200005         4.44464412E-14
  -18.8400002         2.45961410E-14
  -18.6599998        -1.89337647E-14
  -18.4799995        -9.18251681E-14
  -18.2999992        -1.95104322E-13
  -18.1200008        -3.22686268E-13
  -17.9400005        -4.59833126E-13
  -17.7600002        -5.83094282E-13
  -17.5799999        -6.62085024E-13
  -17.3999996        -6.63177087E-13
  -17.2199993        -5.54850274E-13
  -17.0400009        -3.14121477E-13
  -16.8600006         6.68530037E-14
  -16.6800003         5.75168873E-13
  -16.5000000         1.17385192E-12
  -16.3199997         1.80204061E-12
  -16.1399994         2.37950566E-12
  -15.9600000         2.81565873E-12
  -15.7799997         3.02229118E-12
  -15.6000004         2.92831926E-12
  -15.4200001         2.49407244E-12
  -15.2399998         1.72232985E-12
  -15.0600004         6.63602040E-13
  -14.8800001        -5.86015991E-13
  -14.6999998        -1.89478077E-12
  -14.5200005        -3.11194690E-12
  -14.3400002        -4.08871548E-12
  -14.1599998        -4.70019726E-12
  -13.9799995        -4.86480951E-12
  -13.8000002        -4.55789486E-12
  -13.6199999        -3.81723863E-12
  -13.4399996        -2.73940723E-12
  -13.2600002        -1.46715658E-12
  -13.0799999        -1.69444916E-13
  -12.8999996         9.83337760E-13
  -12.7200003         1.84546497E-12
  -12.5400000         2.31928561E-12
  -12.3599997         2.37188806E-12
  -12.1800003         2.04151453E-12
  -12.0000000         1.43164376E-12
  -11.8199997         6.92821289E-13
  -11.6400003        -5.06795017E-15
  -11.4600000        -5.05034816E-13
  -11.2799997        -6.93241580E-13
  -11.1000004        -5.20901085E-13
  -10.9200001        -1.31036039E-14
  -10.7399998         7.37223488E-13
  -10.5600004         1.58871126E-12
  -10.3800001         2.37993653E-12
  -10.1999998         2.96072129E-12
  -10.0200005         3.22003470E-12
  -9.84000015         3.10526626E-12
  -9.65999985         2.62969442E-12
  -9.47999954         1.86743741E-12
  -9.30000019         9.37531086E-13
  -9.11999989        -1.93841982E-14
  -8.93999958        -8.67249740E-13
  -8.76000023        -1.49896534E-12
  -8.57999992        -1.85487194E-12
  -8.39999962        -1.93243251E-12
  -8.22000027        -1.78557928E-12
  -8.03999996        -1.51376340E-12
  -7.86000013        -1.24220187E-12
  -7.67999983        -1.09628636E-12
  -7.50000000        -1.17443674E-12
  -7.32000017        -1.52451858E-12
  -7.13999987        -2.12895977E-12
  -6.96000004        -2.90254561E-12
  -6.78000021        -3.70442912E-12
  -6.59999990        -4.36276579E-12
  -6.42000008        -4.70731223E-12
  -6.23999977        -4.60330819E-12
  -6.05999994        -3.97961221E-12
  -5.88000011        -2.84544263E-12
  -5.69999981        -1.29262703E-12
  -5.51999998         5.16700344E-13
  -5.34000015         2.37446087E-12
  -5.15999985         4.05869045E-12
  -4.98000002         5.36807838E-12
  -4.80000019         6.15359760E-12
  -4.61999989         6.34239970E-12
  -4.44000006         5.95022556E-12
  -4.26000023         5.08016025E-12
  -4.07999992         3.90752274E-12
  -3.90000010         2.65274760E-12
  -3.72000003         1.54605853E-12
  -3.53999996         7.89183226E-13
  -3.35999990         5.20262056E-13
  -3.18000007         7.88016408E-13
  -3.00000000         1.54030510E-12
  -2.81999993         2.63002250E-12
  -2.64000010         3.83823485E-12
  -2.46000004         4.91103295E-12
  -2.27999997         5.60344176E-12
  -2.09999990         5.72209250E-12
  -1.91999996         5.15854937E-12
  -1.74000001         3.90734623E-12
  -1.55999994         2.06605761E-12
  -1.38000000        -1.81680517E-13
  -1.20000005        -2.59662279E-12
  -1.01999998        -4.92242792E-12
 -0.839999974        -6.92610596E-12
 -0.660000026        -8.43419258E-12
 -0.479999989        -9.35881407E-12
 -0.300000012        -9.70888474E-12
 -0.119999997        -9.58371056E-12
   5.99999987E-02    -9.14924213E-12
  0.239999995        -8.60082752E-12
  0.419999987        -8.11941139E-12
  0.600000024        -7.83006125E-12
  0.779999971        -7.77165485E-12
  0.959999979        -7.88445264E-12
   1.13999999        -8.01888764E-12
   1.32000005        -7.96464630E-12
   1.50000000        -7.49488666E-12
   1.67999995        -6.41707477E-12
   1.86000001        -4.61985875E-12
   2.03999996        -2.10562232E-12
   2.22000003         9.99051753E-13
   2.40000010         4.45802379E-12
   2.57999992         7.96247356E-12
   2.75999999         1.11819711E-11
   2.94000006         1.38186381E-11
   3.11999989         1.56531680E-11
   3.29999995         1.65743374E-11
   3.48000002         1.65878405E-11
   3.66000009         1.58048886E-11
   3.83999991         1.44147801E-11
   4.01999998         1.26476095E-11
   4.19999981         1.07345790E-11
   4.38000011         8.87271420E-12
   4.55999994         7.19967792E-12
   4.73999977         5.78189840E-12
   4.92000008         4.61653936E-12
   5.09999990         3.64479801E-12
   5.28000021         2.77236220E-12
   5.46000004         1.89220926E-12
   5.63999987         9.05736423E-13
   5.82000017        -2.60393730E-13
   6.00000000        -1.64299390E-12
   6.17999983        -3.23758967E-12
   6.36000013        -5.00052170E-12
   6.53999996        -6.85805666E-12
   6.71999979        -8.72130406E-12
   6.90000010        -1.05038582E-11
   7.07999992        -1.21379599E-11
   7.26000023        -1.35846074E-11
   7.44000006        -1.48349926E-11
   7.61999989        -1.59034123E-11
   7.80000019        -1.68145289E-11
   7.98000002        -1.75898671E-11
   8.15999985        -1.82375781E-11
   8.34000015        -1.87481541E-11
   8.52000046        -1.90959592E-11
   8.69999981        -1.92448713E-11
   8.88000011        -1.91555175E-11
   9.06000042        -1.87915083E-11
   9.23999977        -1.81233136E-11
   9.42000008        -1.71296605E-11
   9.60000038        -1.57967806E-11
   9.77999973        -1.41167919E-11
   9.96000004        -1.20870267E-11
   10.1400003        -9.71106182E-12
   10.3199997        -7.00151916E-12
   10.5000000        -3.98410515E-12
   10.6800003        -7.00516251E-13
   10.8599997         2.79087344E-12
   11.0400000         6.41707867E-12
   11.2200003         1.00943828E-11
   11.3999996         1.37324258E-11
   11.5799999         1.72371475E-11
   11.7600002         2.05133931E-11
   11.9399996         2.34692300E-11
   12.1199999         2.60248472E-11
   12.3000002         2.81271065E-11
   12.4799995         2.97679173E-11
   12.6599998         3.10012953E-11
   12.8400002         3.19524442E-11
   13.0200005         3.28134742E-11
   13.1999998         3.38234198E-11
   13.3800001         3.52353077E-11
   13.5600004         3.72766089E-11
   13.7399998         4.01105781E-11
   13.9200001         4.38069303E-11
   14.1000004         4.83257670E-11
   14.2799997         5.35181066E-11
   14.4600000         5.91419622E-11
   14.6400003         6.48909884E-11
   14.8199997         7.04329650E-11
   15.0000000         7.54517560E-11
   15.1800003         7.96890123E-11
   15.3599997         8.29808652E-11
   15.5400000         8.52837662E-11
   15.7200003         8.66871505E-11
   15.8999996         8.74075395E-11
   16.0799999         8.77627276E-11
   16.2600002         8.81265061E-11
   16.4400005         8.88674204E-11
   16.6200008         9.02825037E-11
   16.7999992         9.25370683E-11
   16.9799995         9.56241683E-11
   17.1599998         9.93550867E-11
   17.3400002         1.03383226E-10
   17.5200005         1.07259195E-10
   17.7000008         1.10505931E-10
   17.8799992         1.12698961E-10
   18.0599995         1.13537575E-10
   18.2399998         1.12896956E-10
   18.4200001         1.10850717E-10
   18.6000004         1.07663441E-10
   18.7800007         1.03755719E-10
   18.9599991         9.96453267E-11
   19.1399994         9.58743016E-11
   19.3199997         9.29309615E-11
   19.5000000         9.11807296E-11
   19.6800003         9.08133985E-11
   19.8600006         9.18173593E-11
   20.0400009         9.39834044E-11
   20.2199993         9.69385752E-11
   20.3999996         1.00203797E-10
   20.5799999         1.03267075E-10
   20.7600002         1.05655831E-10
   20.9400005         1.06999833E-10
   21.1200008         1.07068458E-10
   21.2999992         1.05778594E-10
   21.4799995         1.03174726E-10
   21.6599998         9.93828769E-11
   21.8400002         9.45568623E-11
   22.0200005         8.88234972E-11
   22.2000008         8.22422894E-11
   22.3799992         7.47841927E-11
   22.5599995         6.63321065E-11
   22.7399998         5.67023303E-11
   22.9200001         4.56828048E-11
   23.1000004         3.30834977E-11
   23.2800007         1.87884135E-11
   23.4599991         2.80588898E-12
   23.6399994        -1.46979946E-11
   23.8199997        -3.33877787E-11
   24.0000000        -5.27777821E-11
   24.1800003        -7.22799529E-11
   24.3600006        -9.12749806E-11
   24.5400009        -1.09199358E-10
   24.7199993        -1.25624997E-10
   24.8999996        -1.40320963E-10
   25.0799999        -1.53281443E-10
   25.2600002        -1.64707956E-10
   25.4400005        -1.74953593E-10
   25.6200008        -1.84431817E-10
   25.7999992        -1.93511707E-10
   25.9799995        -2.02422107E-10
   26.1599998        -2.11185180E-10
   26.3400002        -2.19591692E-10
   26.5200005        -2.27227251E-10
   26.7000008        -2.33543629E-10
   26.8799992        -2.37953712E-10
   27.0599995        -2.39937903E-10
   27.2399998        -2.39139014E-10
   27.4200001        -2.35428177E-10
   27.6000004        -2.28933067E-10
   27.7800007        -2.20025095E-10
   27.9599991        -2.09267340E-10
   28.1399994        -1.97331568E-10
   28.3199997        -1.84902219E-10
   28.5000000        -1.72582754E-10
   28.6800003        -1.60819538E-10
   28.8600006        -1.49863427E-10
   29.0400009        -1.39768599E-10
   29.2199993        -1.30434302E-10
   29.3999996        -1.21673630E-10
   29.5799999        -1.13292452E-10
   29.7600002        -1.05169241E-10
   29.9400005        -9.73041855E-11
   30.1200008        -8.98363328E-11
   30.2999992        -8.30241639E-11
   30.4799995        -7.71839051E-11
   30.6599998        -7.26096058E-11
   30.8400002        -6.94863472E-11
   31.0200005        -6.78132828E-11
   31.2000008        -6.73610889E-11
   31.3799992        -6.76676423E-11
   31.5599995        -6.80795281E-11
   31.7399998        -6.78314349E-11
   31.9200001        -6.61552688E-11
   32.0999985        -6.23990373E-11
   32.2799988        -5.61427536E-11
   32.4599991        -4.72881075E-11
   32.6399994        -3.61037034E-11
   32.8199997        -2.32184064E-11
   33.0000000        -9.54860149E-12
   33.1800003         3.82647950E-12
   33.3600006         1.58285277E-11
   33.5400009         2.55493370E-11
   33.7200012         3.23962038E-11
   33.9000015         3.61852839E-11
   34.0800018         3.71571419E-11
   34.2599983         3.59200517E-11
   34.4399986         3.33241316E-11
   34.6199989         3.02963800E-11
   34.7999992         2.76667248E-11
   34.9799995         2.60249287E-11
   35.1599998         2.56306053E-11
   35.3400002         2.63994278E-11
   35.5200005         2.79562762E-11
   35.7000008         2.97491615E-11
   35.8800011         3.11885795E-11
   36.0600014         3.17864450E-11
   36.2400017         3.12624024E-11
   36.4199982         2.96009953E-11
   36.5999985         2.70526535E-11
   36.7799988         2.40804529E-11
   36.9599991         2.12674878E-11
   37.1399994         1.92015570E-11
   37.3199997         1.83598692E-11
   37.5000000         1.90157820E-11
   37.6800003         2.11788590E-11
   37.8600006         2.45900088E-11
   38.0400009         2.87614481E-11
   38.2200012         3.30610608E-11
   38.4000015         3.68257577E-11
   38.5800018         3.94793087E-11
   38.7599983         4.06390512E-11
   38.9399986         4.01881584E-11
   39.1199989         3.83071491E-11
   39.2999992         3.54555760E-11
   39.4799995         3.23053008E-11
   39.6599998         2.96438152E-11
   39.8400002         2.82540900E-11
   40.0200005         2.87975425E-11
   40.2000008         3.17131460E-11
   40.3800011         3.71539674E-11
   40.5600014         4.49602577E-11
   40.7400017         5.46747821E-11
   40.9199982         6.55936763E-11
   41.0999985         7.68445030E-11
   41.2799988         8.74819939E-11
   41.4599991         9.65934763E-11
   41.6399994         1.03404861E-10
   41.8199997         1.07378620E-10
   42.0000000         1.08285117E-10
   42.1800003         1.06240315E-10
   42.3600006         1.01699496E-10
   42.5400009         9.54018600E-11
   42.7200012         8.82804455E-11
   42.9000015         8.13442785E-11
   43.0800018         7.55627644E-11
   43.2599983         7.17606113E-11
   43.4399986         7.05481784E-11
   43.6199989         7.22855178E-11
   43.7999992         7.70867745E-11
   43.9799995         8.48509873E-11
   44.1599998         9.53104332E-11
   44.3400002         1.08082966E-10
   44.5200005         1.22715463E-10
   44.7000008         1.38714346E-10
   44.8800011         1.55563229E-10
   45.0600014         1.72727818E-10
   45.2400017         1.89659996E-10
   45.4199982         2.05803902E-10
   45.5999985         2.20604091E-10
   45.7799988         2.33519842E-10
   45.9599991         2.44041537E-10
   46.1399994         2.51709847E-10
   46.3199997         2.56140414E-10
   46.5000000         2.57052629E-10
   46.6800003         2.54299054E-10
   46.8600006         2.47890236E-10
   47.0400009         2.38003089E-10
   47.2200012         2.24965713E-10
   47.4000015         2.09215784E-10
   47.5800018         1.91239566E-10
   47.7599983         1.71503492E-10
   47.9399986         1.50393933E-10
   48.1199989         1.28181507E-10
   48.2999992         1.05016856E-10
   48.4799995         8.09586564E-11
   48.6599998         5.60263710E-11
   48.8400002         3.02659599E-11
   49.0200005         3.81036435E-12
   49.2000008        -2.30767801E-11
   49.3800011        -4.99864837E-11
   49.5600014        -7.63808461E-11
   49.7400017        -1.01641549E-10
   49.9199982        -1.25138150E-10
   50.0999985        -1.46310741E-10
   50.2799988        -1.64750741E-10
   50.4599991        -1.80271950E-10
   50.6399994        -1.92959468E-10
   50.8199997        -2.03187495E-10
   51.0000000        -2.11593479E-10
   51.1800003        -2.19009519E-10
   51.3600006        -2.26344832E-10
   51.5400009        -2.34440301E-10
   51.7200012        -2.43912085E-10
   51.9000015        -2.55019783E-10
   52.0800018        -2.67592309E-10
   52.2599983        -2.81024592E-10
   52.4399986        -2.94364061E-10
   52.6199989        -3.06472459E-10
   52.7999992        -3.16226767E-10
   52.9799995        -3.22733812E-10
   53.1599998        -3.25507704E-10
   53.3400002        -3.24574284E-10
   53.5200005        -3.20487942E-10
   53.7000008        -3.14245963E-10
   53.8800011        -3.07123271E-10
   54.0600014        -3.00453024E-10
   54.2400017        -2.95394431E-10
   54.4199982        -2.92733254E-10
   54.5999985        -2.92749325E-10
   54.7799988        -2.95175412E-10
   54.9599991        -2.99262559E-10
   55.1399994        -3.03934794E-10
   55.3199997        -3.08011450E-10
   55.5000000        -3.10456050E-10
   55.6800003        -3.10605930E-10
   55.8600006        -3.08346265E-10
   56.0400009        -3.04181902E-10
   56.2200012        -2.99201108E-10
   56.4000015        -2.94927138E-10
   56.5800018        -2.93075092E-10
   56.7599983        -2.95274916E-10
   56.9399986        -3.02785935E-10
   57.1199989        -3.16279697E-10
   57.2999992        -3.35707823E-10
   57.4799995        -3.60293739E-10
   57.6599998        -3.88636484E-10
   57.8400002        -4.18912294E-10
   58.0200005        -4.49130261E-10
   58.2000008        -4.77403395E-10
   58.3800011        -5.02181852E-10
   58.5600014        -5.22418941E-10
   58.7400017        -5.37638878E-10
   58.9199982        -5.47908052E-10
   59.0999985        -5.53716961E-10
   59.2799988        -5.55807012E-10
   59.4599991        -5.54972346E-10
   59.6399994        -5.51883594E-10
   59.8199997        -5.46957257E-10
   60.0000000        -5.40299083E-10
   60.1800003        -5.31720057E-10
   60.3600006        -5.20829158E-10
   60.5400009        -5.07164089E-10
   60.7200012        -4.90342711E-10
   60.9000015        -4.70197492E-10
   61.0800018        -4.46861326E-10
   61.2599983        -4.20794899E-10
   61.4399986        -3.92744004E-10
   61.6199989        -3.63648806E-10
   61.7999992        -3.34517997E-10
   61.9799995        -3.06304537E-10
   62.1599998        -2.79798240E-10
   62.3400002        -2.55554938E-10
   62.5200005        -2.33872477E-10
   62.7000008        -2.14796042E-10
   62.8800011        -1.98159988E-10
   63.0600014        -1.83645349E-10
   63.2400017        -1.70832182E-10
   63.4199982        -1.59261548E-10
   63.5999985        -1.48476564E-10
   63.7799988        -1.38065170E-10
   63.9599991        -1.27692329E-10
   64.1399994        -1.17131943E-10
   64.3199997        -1.06287736E-10
   64.5000000        -9.52053089E-11
   64.6800003        -8.40612649E-11
   64.8600006        -7.31366287E-11
   65.0400009        -6.27688942E-11
   65.2200012        -5.32982547E-11
   65.4000015        -4.50128095E-11
   65.5800018        -3.81099978E-11
   65.7600021        -3.26703387E-11
   65.9400024        -2.86574982E-11
   66.1200027        -2.59315625E-11
   66.3000031        -2.42710730E-11
   66.4800034        -2.34018933E-11
   66.6600037        -2.30179209E-11
   66.8399963        -2.27921067E-11
   67.0199966        -2.23833244E-11
   67.1999969        -2.14380874E-11
   67.3799973        -1.95918750E-11
   67.5599976        -1.64835229E-11
   67.7399979        -1.17785295E-11
   67.9199982        -5.20530233E-12
   68.0999985         3.40970459E-12
   68.2799988         1.41028916E-11
   68.4599991         2.67611922E-11
   68.6399994         4.11188410E-11
   68.8199997         5.67818119E-11
   69.0000000         7.32709449E-11
   69.1800003         9.00708119E-11
   69.3600006         1.06694813E-10
   69.5400009         1.22729729E-10
   69.7200012         1.37878778E-10
   69.9000015         1.51980109E-10
   70.0800018         1.65003441E-10
   70.2600021         1.77030474E-10
   70.4400024         1.88218677E-10
   70.6200027         1.98757497E-10
   70.8000031         2.08824430E-10
   70.9800034         2.18553037E-10
   71.1600037         2.28012137E-10
   71.3399963         2.37190989E-10
   71.5199966         2.46002052E-10
   71.6999969         2.54283039E-10
   71.8799973         2.61805966E-10
   72.0599976         2.68293388E-10
   72.2399979         2.73435552E-10
   72.4199982         2.76915102E-10
   72.5999985         2.78444323E-10
   72.7799988         2.77802281E-10
   72.9599991         2.74878287E-10
   73.1399994         2.69709644E-10
   73.3199997         2.62509542E-10
   73.5000000         2.53674998E-10
   73.6800003         2.43769227E-10
   73.8600006         2.33476793E-10
   74.0400009         2.23533525E-10
   74.2200012         2.14651741E-10
   74.4000015         2.07449266E-10
   74.5800018         2.02397960E-10
   74.7600021         1.99803993E-10
   74.9400024         1.99814498E-10
   75.1200027         2.02451139E-10
   75.3000031         2.07644693E-10
   75.4800034         2.15276241E-10
   75.6600037         2.25202107E-10
   75.8399963         2.37269454E-10
   76.0199966         2.51315802E-10
   76.1999969         2.67156991E-10
   76.3799973         2.84571477E-10
   76.5599976         3.03277375E-10
   76.7399979         3.22916582E-10
   76.9199982         3.43040318E-10
   77.0999985         3.63106406E-10
   77.2799988         3.82487181E-10
   77.4599991         4.00486116E-10
   77.6399994         4.16365525E-10
   77.8199997         4.29381058E-10
   78.0000000         4.38831665E-10
   78.1800003         4.44115578E-10
   78.3600006         4.44785209E-10
   78.5400009         4.40590564E-10
   78.7200012         4.31499697E-10
   78.9000015         4.17686358E-10
   79.0800018         3.99492828E-10
   79.2600021         3.77373244E-10
   79.4400024         3.51833146E-10
   79.6200027         3.23383154E-10
   79.8000031         2.92505825E-10
   79.9800034         2.59648997E-10
   80.1600037         2.25229294E-10
   80.3399963         1.89651031E-10
   80.5199966         1.53322841E-10
   80.6999969         1.16676946E-10
   80.8799973         8.01807162E-11
   81.0599976         4.43427309E-11
   81.2399979         9.71652793E-12
   81.4199982        -2.31069521E-11
   81.5999985        -5.35008739E-11
   81.7799988        -8.08113021E-11
   81.9599991        -1.04369985E-10
   82.1399994        -1.23513227E-10
   82.3199997        -1.37616279E-10
   82.5000000        -1.46141987E-10
   82.6800003        -1.48698179E-10
   82.8600006        -1.45100987E-10
   83.0400009        -1.35426004E-10
   83.2200012        -1.20042143E-10
   83.4000015        -9.96160932E-11
   83.5800018        -7.50884910E-11
   83.7600021        -4.76244079E-11
   83.9400024        -1.85345107E-11
   84.1200027         1.08184442E-11
   84.3000031         3.91291687E-11
   84.4800034         6.52687487E-11
   84.6600037         8.83903922E-11
   84.8399963         1.08020239E-10
   85.0199966         1.24102284E-10
   85.1999969         1.36991696E-10
   85.3799973         1.47386464E-10
   85.5599976         1.56201455E-10
   85.7399979         1.64401409E-10
   85.9199982         1.72819051E-10
   86.0999985         1.81987828E-10
   86.2799988         1.92020053E-10
   86.4599991         2.02561801E-10
   86.6399994         2.12834375E-10
   86.8199997         2.21763150E-10
   87.0000000         2.28174160E-10
   87.1800003         2.31015387E-10
   87.3600006         2.29564368E-10
   87.5400009         2.23573132E-10
   87.7200012         2.13328105E-10
   87.9000015         1.99613243E-10
   88.0800018         1.83595153E-10
   88.2600021         1.66650527E-10
   88.4400024         1.50172735E-10
   88.6200027         1.35392364E-10
   88.8000031         1.23237837E-10
   88.9800034         1.14257166E-10
   89.1600037         1.08609788E-10
   89.3399963         1.06119495E-10
   89.5199966         1.06381196E-10
   89.6999969         1.08891549E-10
   89.8799973         1.13178480E-10
   90.0599976         1.18903443E-10
   90.2399979         1.25922883E-10
   90.4199982         1.34299599E-10
   90.5999985         1.44271137E-10
   90.7799988         1.56184662E-10
   90.9599991         1.70416833E-10
   91.1399994         1.87293056E-10
   91.3199997         2.07023995E-10
   91.5000000         2.29669395E-10
   91.6800003         2.55130778E-10
   91.8600006         2.83166018E-10
   92.0400009         3.13414877E-10
   92.2200012         3.45417334E-10
   92.4000015         3.78620552E-10
   92.5800018         4.12374135E-10
   92.7600021         4.45927906E-10
   92.9400024         4.78445561E-10
   93.1200027         5.09045139E-10
   93.3000031         5.36865941E-10
   93.4800034         5.61148572E-10
   93.6600037         5.81307835E-10
   93.8399963         5.96981464E-10
   94.0199966         6.08038397E-10
   94.1999969         6.14548024E-10
   94.3799973         6.16720675E-10
   94.5599976         6.14836293E-10
   94.7399979         6.09183592E-10
   94.9199982         6.00019034E-10
   95.0999985         5.87557003E-10
   95.2799988         5.71983905E-10
   95.4599991         5.53482760E-10
   95.6399994         5.32258682E-10
   95.8199997         5.08546871E-10
   96.0000000         4.82604179E-10
   96.1800003         4.54693755E-10
   96.3600006         4.25069979E-10
   96.5400009         3.93982180E-10
   96.7200012         3.61695646E-10
   96.9000015         3.28521765E-10
   97.0800018         2.94843067E-10
   97.2600021         2.61115685E-10
   97.4400024         2.27839914E-10
   97.6200027         1.95504099E-10
   97.8000031         1.64516914E-10
   97.9800034         1.35149558E-10
   98.1600037         1.07508655E-10
   98.3399963         8.15462767E-11
   98.5199966         5.71060213E-11
   98.6999969         3.39834168E-11
   98.8799973         1.19857631E-11
   99.0599976        -9.02996775E-12
   99.2399979        -2.91520870E-11
   99.4199982        -4.84383401E-11
   99.5999985        -6.69596115E-11
   99.7799988        -8.48462203E-11
   99.9599991        -1.02315705E-10
   100.139999        -1.19672230E-10
   100.320000        -1.37275538E-10
   100.500000        -1.55487026E-10
   100.680000        -1.74609119E-10
   100.860001        -1.94837466E-10
   101.040001        -2.16235599E-10
   101.220001        -2.38737891E-10
   101.400002        -2.62176586E-10
   101.580002        -2.86327878E-10
   101.760002        -3.10964005E-10
   101.940002        -3.35910078E-10
   102.120003        -3.61093377E-10
   102.300003        -3.86584487E-10
   102.480003        -4.12615525E-10
   102.660004        -4.39565911E-10
   102.839996        -4.67912209E-10
   103.019997        -4.98137753E-10
   103.199997        -5.30617106E-10
   103.379997        -5.65499647E-10
   103.559998        -6.02617678E-10
   103.739998        -6.41445730E-10
   103.919998        -6.81126655E-10
   104.099998        -7.20559890E-10
   104.279999        -7.58538010E-10
   104.459999        -7.93903443E-10
   104.639999        -8.25691515E-10
   104.820000        -8.53235260E-10
   105.000000        -8.76211326E-10
   105.180000        -8.94622376E-10
   105.360001        -9.08735143E-10
   105.540001        -9.18984500E-10
   105.720001        -9.25875432E-10
   105.900002        -9.29895050E-10
   106.080002        -9.31441257E-10
   106.260002        -9.30777566E-10
   106.440002        -9.28012778E-10
   106.620003        -9.23109311E-10
   106.800003        -9.15928389E-10
   106.980003        -9.06313413E-10
   107.160004        -8.94201713E-10
   107.339996        -8.79755158E-10
   107.519997        -8.63463578E-10
   107.699997        -8.46193116E-10
   107.879997        -8.29146141E-10
   108.059998        -8.13725476E-10
   108.239998        -8.01317401E-10
   108.419998        -7.93033583E-10
   108.599998        -7.89466936E-10
   108.779999        -7.90521482E-10
   108.959999        -7.95362221E-10
   109.139999        -8.02502620E-10
   109.320000        -8.10021994E-10
   109.500000        -8.15872092E-10
   109.680000        -8.18206725E-10
   109.860001        -8.15676415E-10
   110.040001        -8.07617251E-10
   110.220001        -7.94118660E-10
   110.400002        -7.75950915E-10
   110.580002        -7.54387497E-10
   110.760002        -7.30957683E-10
   110.940002        -7.07178427E-10
   111.120003        -6.84308665E-10