  -34.5000000         0.00000000    
  -34.3195000         0.00000000    
  -34.1389999         0.00000000    
  -33.9584999         0.00000000    
  -33.7779999         2.18942859E-26
  -33.5974998         1.23242625E-24
  -33.4169998         4.50261957E-23
  -33.2364998         3.43348768E-22
  -33.0559998         8.93621230E-22
  -32.8754997        -9.91405651E-22
  -32.6949997        -1.14517719E-20
  -32.5144997        -2.51708427E-20
  -32.3339996        -1.84708946E-21
  -32.1534996         1.01546191E-19
  -31.9729996         2.17582829E-19
  -31.7924995         1.48935666E-19
  -31.6119995        -1.97656914E-19
  -31.4314995        -6.87027576E-19
  -31.2509995        -1.39302065E-18
  -31.0704994        -2.60029292E-18
  -30.8899994        -2.55420903E-18
  -30.7094994         4.76978356E-18
  -30.5289993         2.35544659E-17
  -30.3484993         3.90715784E-17
  -30.1679993         1.01678108E-17
  -29.9874992        -9.43539977E-17
  -29.8069992        -2.18845176E-16
  -29.6264992        -1.87803616E-16
  -29.4459991         1.70554412E-16
  -29.2654991         7.57757263E-16
  -29.0849991         1.03918502E-15
  -28.9044991         3.08493846E-16
  -28.7240009        -1.57873421E-15
  -28.5435009        -3.52464174E-15
  -28.3630009        -3.40322761E-15
  -28.1825008         4.34386394E-16
  -28.0020008         7.10634131E-15
  -27.8215008         1.23292320E-14
  -27.6410007         1.02380339E-14
  -27.4605007        -2.33760489E-15
  -27.2800007        -2.16529472E-14
  -27.0995007        -3.64253204E-14
  -26.9190006        -3.28519492E-14
  -26.7385006        -3.68763544E-15
  -26.5580006         4.37806733E-14
  -26.3775005         8.68898730E-14
  -26.1970005         9.67451081E-14
  -26.0165005         5.42668260E-14
  -25.8360004        -3.52264198E-14
  -25.6555004        -1.38254737E-13
  -25.4750004        -2.04876277E-13
  -25.2945004        -1.92126629E-13
  -25.1140003        -8.80536082E-14
  -24.9335003         7.67553474E-14
  -24.7530003         2.38062960E-13
  -24.5725002         3.25140088E-13
  -24.3920002         2.94229593E-13
  -24.2115002         1.52002380E-13
  -24.0310001        -4.36457240E-14
  -23.8505001        -2.07848983E-13
  -23.6700001        -2.68331283E-13
  -23.4895000        -2.02244837E-13
  -23.3090000        -5.19608431E-14
  -23.1285000         9.02198441E-14
  -22.9480000         1.24731822E-13
  -22.7674999        -2.43148050E-15
  -22.5869999        -2.61212466E-13
  -22.4064999        -5.34681945E-13
  -22.2259998        -6.59576831E-13
  -22.0454998        -4.97922775E-13
  -21.8649998        -9.83186209E-15
  -21.6844997         7.08406857E-13
  -21.5039997         1.44551276E-12
  -21.3234997         1.95404890E-12
  -21.1429996         2.05545151E-12
  -20.9624996         1.72196914E-12
  -20.7819996         1.09217128E-12
  -20.6014996         4.06612786E-13
  -20.4209995        -1.09196479E-13
  -20.2404995        -3.57379003E-13
  -20.0599995        -4.16791222E-13
  -19.8794994        -4.99294182E-13
  -19.6989994        -8.31183375E-13
  -19.5184994        -1.51817003E-12
  -19.3379993        -2.46373798E-12
  -19.1574993        -3.38618977E-12
  -18.9769993        -3.93132272E-12
  -18.7964993        -3.83005910E-12
  -18.6159992        -3.02737566E-12
  -18.4354992        -1.72124966E-12
  -18.2549992        -2.91231937E-13
  -18.0744991         8.54131978E-13
  -17.8939991         1.44563235E-12
  -17.7134991         1.46431120E-12
  -17.5330009         1.14477904E-12
  -17.3525009         8.65240063E-13
  -17.1720009         9.67265872E-13
  -16.9915009         1.58200308E-12
  -16.8110008         2.54290686E-12
  -16.6305008         3.43315567E-12
  -16.4500008         3.75814831E-12
  -16.2695007         3.17326243E-12
  -16.0890007         1.66329765E-12
  -15.9084997        -4.16323470E-13
  -15.7279997        -2.46621495E-12
  -15.5474997        -3.88607506E-12
  -15.3669996        -4.32187749E-12
  -15.1864996        -3.79861117E-12
  -15.0059996        -2.67528621E-12
  -14.8254995        -1.44843133E-12
  -14.6450005        -5.06873081E-13
  -14.4645004         3.73524725E-14
  -14.2840004         3.60748405E-13
  -14.1035004         7.85766959E-13
  -13.9230003         1.56584988E-12
  -13.7425003         2.71283712E-12
  -13.5620003         3.95475753E-12
  -13.3815002         4.84335141E-12
  -13.2010002         4.95738650E-12
  -13.0205002         4.10483453E-12
  -12.8400002         2.43114166E-12
  -12.6595001         3.85294146E-13
  -12.4790001        -1.44223143E-12
  -12.2985001        -2.54227975E-12
  -12.1180000        -2.67866805E-12
  -11.9375000        -1.96961132E-12
  -11.7570000        -8.25166216E-13
  -11.5764999         2.32055721E-13
  -11.3959999         7.83870798E-13
  -11.2154999         6.73869923E-13
  -11.0349998         3.49524283E-14
  -10.8544998        -8.19753336E-13
  -10.6739998        -1.58036529E-12
  -10.4934998        -2.09731104E-12
  -10.3129997        -2.42618382E-12
  -10.1324997        -2.73777116E-12
  -9.95199966        -3.14842878E-12
  -9.77149963        -3.57495153E-12
  -9.59099960        -3.70881754E-12
  -9.41049957        -3.14089488E-12
  -9.22999954        -1.58362516E-12
  -9.04950047         9.20198054E-13
  -8.86900043         3.91314845E-12
  -8.68850040         6.61831050E-12
  -8.50800037         8.18538900E-12
  -8.32750034         7.99158916E-12
  -8.14700031         5.87821068E-12
  -7.96649981         2.23218796E-12
  -7.78599977        -2.11544757E-12
  -7.60550022        -6.13380831E-12
  -7.42500019        -8.89051679E-12
  -7.24450016        -9.80264307E-12
  -7.06400013        -8.76215593E-12
  -6.88350010        -6.10712913E-12
  -6.70300007        -2.46711874E-12
  -6.52250004         1.44507247E-12
  -6.34200001         5.01036148E-12
  -6.16149998         7.78855539E-12
  -5.98099995         9.50280046E-12
  -5.80049992         9.96808885E-12
  -5.61999989         9.03573483E-12
  -5.43949986         6.61015947E-12
  -5.25899982         2.74288621E-12
  -5.07849979        -2.24873874E-12
  -4.89799976        -7.71936941E-12
  -4.71750021        -1.27530642E-11
  -4.53700018        -1.63474650E-11
  -4.35650015        -1.76701414E-11
  -4.17600012        -1.62979751E-11
  -3.99550009        -1.23583210E-11
  -3.81500006        -6.52982399E-12
  -3.63450003         9.29306206E-14
  -3.45400000         6.23403369E-12
  -3.27349997         1.07171052E-11
  -3.09299994         1.27332910E-11
  -2.91249990         1.20336900E-11
  -2.73200011         8.98889383E-12
  -2.55150008         4.48422723E-12
  -2.37100005        -3.30068275E-13
  -2.19050002        -4.35580131E-12
  -2.00999999        -6.81901627E-12
  -1.82949996        -7.40136771E-12
  -1.64900005        -6.20051406E-12
  -1.46850002        -3.57097750E-12
  -1.28799999         5.16620268E-14
  -1.10749996         4.25083710E-12
 -0.926999986         8.62568437E-12
 -0.746500015         1.27307080E-11
 -0.565999985         1.60428094E-11
 -0.385500014         1.80185242E-11
 -0.204999998         1.82414830E-11
  -2.44999994E-02     1.65979088E-11
  0.156000003         1.33955859E-11
  0.336499989         9.36604527E-12
  0.517000020         5.53786791E-12
  0.697499990         3.01277839E-12
  0.878000021         2.69766588E-12
   1.05850005         5.05159413E-12
   1.23899996         9.90662760E-12
   1.41949999         1.64217771E-11
   1.60000002         2.32145952E-11
   1.78050005         2.86710777E-11
   1.96099997         3.13628533E-11
   2.14150000         3.04376212E-11
   2.32200003         2.58362845E-11
   2.50250006         1.82516276E-11
   2.68300009         8.85596717E-12
   2.86350012        -1.06907116E-12
   3.04399991        -1.04336635E-11
   3.22449994        -1.84643151E-11
   3.40499997        -2.46571236E-11
   3.58550000        -2.86609070E-11
   3.76600003        -3.02128982E-11
   3.94650006        -2.91883462E-11
   4.12699986        -2.57310007E-11
   4.30749989        -2.03663388E-11
   4.48799992        -1.40052154E-11
   4.66849995        -7.80795220E-12
   4.84899998        -2.95173781E-12
   5.02950001        -3.80292911E-13
   5.21000004        -6.04628327E-13
   5.39050007        -3.58917930E-12
   5.57100010        -8.73344886E-12
   5.75150013        -1.49588727E-11
   5.93200016        -2.09117220E-11
   6.11250019        -2.52699320E-11
   6.29300022        -2.70912424E-11
   6.47349977        -2.60885809E-11
   6.65399981        -2.27144831E-11
   6.83449984        -1.80021449E-11
   7.01499987        -1.32182806E-11
   7.19549990        -9.47558525E-12
   7.37599993        -7.46462267E-12
   7.55649996        -7.39058207E-12
   7.73699999        -9.08292365E-12
   7.91750002        -1.21593621E-11
   8.09799957        -1.61266261E-11
   8.27849960        -2.03786727E-11
   8.45899963        -2.41520883E-11
   8.63949966        -2.65446987E-11
   8.81999969        -2.66642177E-11
   9.00049973        -2.38850831E-11
   9.18099976        -1.81091617E-11
   9.36149979        -9.90423455E-12
   9.54199982        -4.44257776E-13
   9.72249985         8.73969994E-12
   9.90299988         1.61197618E-11
   10.0834999         2.05428834E-11
   10.2639999         2.15270822E-11
   10.4445000         1.94157173E-11
   10.6250000         1.53403852E-11
   10.8055000         1.09729743E-11
   10.9860001         8.09772301E-12
   11.1665001         8.11075339E-12
   11.3470001         1.16158871E-11
   11.5275002         1.82838866E-11
   11.7080002         2.70418271E-11
   11.8885002         3.65053404E-11
   12.0690002         4.54481175E-11
   12.2495003         5.30879334E-11
   12.4300003         5.90808097E-11
   12.6105003         6.32949457E-11
   12.7910004         6.55645885E-11
   12.9715004         6.56229932E-11
   13.1520004         6.32786462E-11
   13.3325005         5.87215138E-11
   13.5129995         5.27451242E-11
   13.6934996         4.67052855E-11
   13.8739996         4.21813105E-11
   14.0544996         4.04717475E-11
   14.2349997         4.21390110E-11
   14.4154997         4.67837054E-11
   14.5959997         5.31171079E-11
   14.7764997         5.92831131E-11
   14.9569998         6.33187114E-11
   15.1374998         6.36339939E-11
   15.3179998         5.94113161E-11
   15.4984999         5.08321371E-11
   15.6789999         3.90605465E-11
   15.8594999         2.59525821E-11
   16.0400009         1.35538126E-11
   16.2205009         3.54780831E-12
   16.4009991        -3.14086777E-12
   16.5814991        -6.42644661E-12
   16.7619991        -6.83131243E-12
   16.9424992        -5.10117859E-12
   17.1229992        -1.89646020E-12
   17.3034992         2.28514256E-12
   17.4839993         6.96660698E-12
   17.6644993         1.15077722E-11
   17.8449993         1.50858805E-11
   18.0254993         1.69360619E-11
   18.2059994         1.67530087E-11
   18.3864994         1.50245320E-11
   18.5669994         1.30718162E-11
   18.7474995         1.27271093E-11
   18.9279995         1.57592151E-11
   19.1084995         2.33013348E-11
   19.2889996         3.55032774E-11
   19.4694996         5.15033259E-11
   19.6499996         6.96788391E-11
   19.8304996         8.80419765E-11
   20.0109997         1.04663701E-10
   20.1914997         1.18035567E-10
   20.3719997         1.27331812E-10
   20.5524998         1.32525657E-10
   20.7329998         1.34323219E-10
   20.9134998         1.33902389E-10
   21.0939999         1.32530237E-10
   21.2744999         1.31194486E-10
   21.4549999         1.30400746E-10
   21.6355000         1.30193994E-10
   21.8160000         1.30354380E-10
   21.9965000         1.30608177E-10
   22.1770000         1.30714523E-10
   22.3575001         1.30393002E-10
   22.5380001         1.29191088E-10
   22.7185001         1.26452737E-10
   22.8990002         1.21482879E-10
   23.0795002         1.13864744E-10
   23.2600002         1.03768730E-10
   23.4405003         9.20716212E-11
   23.6210003         8.01970226E-11
   23.8015003         6.97316094E-11
   23.9820004         6.19913634E-11
   24.1625004         5.77104926E-11
   24.3430004         5.69479498E-11
   24.5235004         5.91773019E-11
   24.7040005         6.34838154E-11
   24.8845005         6.87811891E-11
   25.0650005         7.40045247E-11
   25.2455006         7.82660881E-11
   25.4260006         8.09768780E-11
   25.6065006         8.19150997E-11
   25.7870007         8.12215017E-11
   25.9675007         7.93065127E-11
   26.1480007         7.67335501E-11
   26.3285007         7.41413944E-11
   26.5090008         7.22358492E-11
   26.6895008         7.18202511E-11
   26.8700008         7.37767972E-11
   27.0505009         7.89189963E-11
   27.2310009         8.77055165E-11
   27.4115009         9.99382868E-11
   27.5919991         1.14617059E-10
   27.7724991         1.30066360E-10
   27.9529991         1.44328369E-10
   28.1334991         1.55690016E-10
   28.3139992         1.63145511E-10
   28.4944992         1.66618053E-10
   28.6749992         1.66899161E-10
   28.8554993         1.65360475E-10
   29.0359993         1.63559694E-10
   29.2164993         1.62856451E-10
   29.3969994         1.64138703E-10
   29.5774994         1.67701741E-10
   29.7579994         1.73273992E-10
   29.9384995         1.80188559E-10
   30.1189995         1.87617130E-10
   30.2994995         1.94796790E-10
   30.4799995         2.01154940E-10
   30.6604996         2.06304848E-10
   30.8409996         2.09956594E-10
   31.0214996         2.11846651E-10
   31.2019997         2.11765563E-10
   31.3824997         2.09706100E-10
   31.5629997         2.06031844E-10
   31.7434998         2.01525310E-10
   31.9239998         1.97235020E-10
   32.1044998         1.94137165E-10
   32.2849998         1.92769467E-10
   32.4654999         1.92983102E-10
   32.6459999         1.93963651E-10
   32.8264999         1.94481778E-10
   33.0070000         1.93262864E-10
   33.1875000         1.89323071E-10
   33.3680000         1.82173596E-10
   33.5485001         1.71875458E-10
   33.7290001         1.58997843E-10
   33.9095001         1.44524684E-10
   34.0900002         1.29719513E-10
   34.2705002         1.15943734E-10
   34.4510002         1.04444085E-10
   34.6315002         9.61428506E-11
   34.8120003         9.15041098E-11
   34.9925003         9.05151232E-11
   35.1730003         9.27522018E-11
   35.3535004         9.74847494E-11
   35.5340004         1.03759092E-10
   35.7145004         1.10472284E-10
   35.8950005         1.16502683E-10
   36.0755005         1.20903926E-10
   36.2560005         1.23163355E-10
   36.4365005         1.23387259E-10
   36.6170006         1.22310315E-10
   36.7975006         1.21037166E-10
   36.9780006         1.20631657E-10
   37.1585007         1.21690533E-10
   37.3390007         1.24114136E-10
   37.5195007         1.27120647E-10
   37.7000008         1.29462899E-10
   37.8805008         1.29742384E-10
   38.0610008         1.26684080E-10
   38.2415009         1.19349419E-10
   38.4220009         1.07316413E-10
   38.6025009         9.08405712E-11
   38.7830009         7.09467207E-11
   38.9635010         4.93372530E-11
   39.1440010         2.80806801E-11
   39.3245010         9.10579424E-12
   39.5050011        -6.33268915E-12
   39.6855011        -1.79724655E-11
   39.8660011        -2.65220363E-11
   40.0465012        -3.33310810E-11
   40.2270012        -3.99128057E-11
   40.4075012        -4.75258131E-11
   40.5880013        -5.69662997E-11
   40.7685013        -6.85595539E-11
   40.9490013        -8.22194118E-11
   41.1295013        -9.74772485E-11
   41.3100014        -1.13489725E-10
   41.4905014        -1.29083078E-10
   41.6710014        -1.42927586E-10
   41.8515015        -1.53836166E-10
   42.0320015        -1.61106045E-10
   42.2125015        -1.64757291E-10
   42.3930016        -1.65597383E-10
   42.5735016        -1.65100489E-10
   42.7540016        -1.65185615E-10
   42.9345016        -1.67913877E-10
   43.1150017        -1.75143913E-10
   43.2955017        -1.88142335E-10
   43.4760017        -2.07197093E-10
   43.6565018        -2.31356961E-10
   43.8370018        -2.58466609E-10
   44.0175018        -2.85593132E-10
   44.1980019        -3.09745091E-10
   44.3785019        -3.28641808E-10
   44.5589981        -3.41229239E-10
   44.7394981        -3.47728762E-10
   44.9199982        -3.49262314E-10
   45.1004982        -3.47297191E-10
   45.2809982        -3.43212903E-10
   45.4614983        -3.38115924E-10
   45.6419983        -3.32843059E-10
   45.8224983        -3.27973482E-10
   46.0029984        -3.23700483E-10
   46.1834984        -3.19573618E-10
   46.3639984        -3.14281212E-10
   46.5444984        -3.05710707E-10
   46.7249985        -2.91364793E-10
   46.9054985        -2.69039679E-10
   47.0859985        -2.37517839E-10
   47.2664986        -1.97029684E-10
   47.4469986        -1.49340595E-10
   47.6274986        -9.75056910E-11
   47.8079987        -4.53771118E-11
   47.9884987         3.02481781E-12
   48.1689987         4.42206965E-11
   48.3494987         7.59330307E-11
   48.5299988         9.75425574E-11
   48.7104988         1.10182342E-10
   48.8909988         1.16366333E-10
   49.0714989         1.19233123E-10
   49.2519989         1.21672061E-10
   49.4324989         1.25668170E-10
   49.6129990         1.32073338E-10
   49.7934990         1.40783649E-10
   49.9739990         1.51094193E-10
   50.1544991         1.61959127E-10
   50.3349991         1.72047265E-10
   50.5154991         1.79679896E-10
   50.6959991         1.82872203E-10
   50.8764992         1.79689416E-10
   51.0569992         1.68850919E-10
   51.2374992         1.50325710E-10
   51.4179993         1.25623525E-10
   51.5984993         9.76111206E-11
   51.7789993         6.99322059E-11
   51.9594994         4.62333748E-11
   52.1399994         2.94952326E-11
   52.3204994         2.15731599E-11
   52.5009995         2.29524403E-11
   52.6814995         3.26472009E-11
   52.8619995         4.82704328E-11
   53.0424995         6.63544913E-11
   53.2229996         8.29741484E-11
   53.4034996         9.46080853E-11
   53.5839996         9.89900176E-11
   53.7644997         9.56389481E-11
   53.9449997         8.58658561E-11
   54.1254997         7.22758173E-11
   54.3059998         5.80155680E-11
   54.4864998         4.60958910E-11
   54.6669998         3.89650291E-11
   54.8474998         3.83428393E-11
   55.0279999         4.51548382E-11
   55.2084999         5.94795810E-11
   55.3889999         8.04567246E-11
   55.5695000         1.06273733E-10
   55.7500000         1.34346548E-10
   55.9305000         1.61728617E-10
   56.1110001         1.85627888E-10
   56.2915001         2.03875042E-10
   56.4720001         2.15252288E-10
   56.6525002         2.19694693E-10
   56.8330002         2.18400659E-10
   57.0135002         2.13838308E-10
   57.1940002         2.09558843E-10
   57.3745003         2.09663398E-10
   57.5550003         2.17894952E-10
   57.7355003         2.36521969E-10
   57.9160004         2.65489686E-10
   58.0965004         3.02188191E-10
   58.2770004         3.42029016E-10
   58.4575005         3.79605375E-10
   58.6380005         4.10022627E-10
   58.8185005         4.29906333E-10
   58.9990005         4.37812925E-10
   59.1795006         4.34089792E-10
   59.3600006         4.20463053E-10
   59.5405006         3.99653505E-10
   59.7210007         3.75104586E-10
   59.9015007         3.50719037E-10
   60.0820007         3.30487526E-10
   60.2625008         3.17908838E-10
   60.4430008         3.15282744E-10
   60.6235008         3.23051252E-10
   60.8040009         3.39474088E-10
   60.9845009         3.60755287E-10
   61.1650009         3.81622040E-10
   61.3455009         3.96261940E-10
   61.5260010         3.99516503E-10
   61.7065010         3.88060417E-10
   61.8870010         3.61290997E-10
   62.0675011         3.21619120E-10
   62.2480011         2.73972206E-10
   62.4285011         2.24573693E-10
   62.6090012         1.79335394E-10
   62.7895012         1.42379081E-10
   62.9700012         1.15231491E-10
   63.1505013         9.68861311E-11
   63.3310013         8.45313056E-11
   63.5115013         7.45264267E-11
   63.6920013         6.31949076E-11
   63.8725014         4.72941963E-11
   64.0530014         2.42225788E-11
   64.2334976        -7.78276315E-12
   64.4140015        -4.92114335E-11
   64.5944977        -9.87450191E-11
   64.7750015        -1.52932209E-10
   64.9554977        -2.06427514E-10
   65.1360016        -2.52877719E-10
   65.3164978        -2.86331236E-10
   65.4970016        -3.02709025E-10
   65.6774979        -3.00875991E-10
   65.8580017        -2.83015389E-10
   66.0384979        -2.54178095E-10
   66.2190018        -2.21203153E-10
   66.3994980        -1.91209923E-10
   66.5800018        -1.70080436E-10
   66.7604980        -1.61280600E-10
   66.9410019        -1.65273142E-10
   67.1214981        -1.79677176E-10
   67.3020020        -2.00160152E-10
   67.4824982        -2.21682783E-10
   67.6630020        -2.39653214E-10
   67.8434982        -2.50700072E-10
   68.0240021        -2.52867199E-10
   68.2044983        -2.45417464E-10
   68.3850021        -2.28569580E-10
   68.5654984        -2.03521811E-10
   68.7460022        -1.72625261E-10
   68.9264984        -1.39514580E-10
   69.1070023        -1.08858332E-10
   69.2874985        -8.55152199E-11
   69.4680023        -7.33256927E-11
   69.6484985        -7.39111411E-11
   69.8290024        -8.60918628E-11
   70.0094986        -1.06046068E-10
   70.1900024        -1.28251743E-10
   70.3704987        -1.46811091E-10
   70.5510025        -1.56846092E-10
   70.7314987        -1.55566185E-10
   70.9120026        -1.42795567E-10
   71.0924988        -1.20992175E-10
   71.2730026        -9.46792228E-11
   71.4534988        -6.94454702E-11
   71.6340027        -5.06442180E-11
   71.8144989        -4.21868686E-11
   71.9950027        -4.58411815E-11
   72.1754990        -6.10564099E-11
   72.3560028        -8.54070356E-11
   72.5364990        -1.15387096E-10
   72.7170029        -1.47220541E-10
   72.8974991        -1.77333245E-10
   73.0780029        -2.02619907E-10
   73.2584991        -2.20641741E-10
   73.4390030        -2.29781832E-10
   73.6194992        -2.29586600E-10
   73.8000031        -2.21106980E-10
   73.9804993        -2.06958187E-10
   74.1610031        -1.90983812E-10
   74.3414993        -1.77445697E-10
   74.5220032        -1.70196440E-10
   74.7024994        -1.71847203E-10
   74.8830032        -1.83293117E-10
   75.0634995        -2.03668665E-10
   75.2440033        -2.30606298E-10
   75.4244995        -2.60655664E-10
   75.6050034        -2.89836266E-10
   75.7854996        -3.14417437E-10
   75.9660034        -3.31701194E-10
   76.1464996        -3.40551559E-10
   76.3270035        -3.41597722E-10
   76.5074997        -3.36994904E-10
   76.6880035        -3.29707345E-10
   76.8684998        -3.22586152E-10
   77.0490036        -3.17766424E-10
   77.2294998        -3.16506377E-10
   77.4100037        -3.19262783E-10
   77.5904999        -3.25832639E-10
   77.7710037        -3.35506484E-10
   77.9514999        -3.47048779E-10
   78.1320038        -3.58616414E-10
   78.3125000        -3.67910119E-10
   78.4929962        -3.72701286E-10
   78.6735001        -3.71381981E-10
   78.8539963        -3.63398589E-10
   79.0345001        -3.49471008E-10
   79.2149963        -3.31482342E-10
   79.3955002        -3.12049664E-10
   79.5759964        -2.94027164E-10
   79.7565002        -2.80104578E-10
   79.9369965        -2.72392997E-10
   80.1175003        -2.71924261E-10
   80.2979965        -2.78349871E-10
   80.4785004        -2.89951008E-10
   80.6589966        -3.03897907E-10
   80.8395004        -3.16793619E-10
   81.0199966        -3.25505678E-10
   81.2005005        -3.27833288E-10
   81.3809967        -3.22689986E-10
   81.5615005        -3.09936216E-10
   81.7419968        -2.90112045E-10
   81.9225006        -2.64255340E-10
   82.1029968        -2.33820269E-10
   82.2835007        -2.00750250E-10
   82.4639969        -1.67474465E-10
   82.6445007        -1.36512510E-10
   82.8249969        -1.09770450E-10
   83.0055008        -8.78868436E-11
   83.1859970        -6.99905134E-11
   83.3665009        -5.38899377E-11
   83.5469971        -3.67479276E-11
   83.7275009        -1.59689588E-11
   83.9079971         1.00301070E-11
   84.0885010         4.14588849E-11
   84.2689972         7.70413386E-11
   84.4495010         1.14120637E-10
   84.6299973         1.49075974E-10
   84.8105011         1.78003237E-10
   84.9909973         1.97495728E-10
   85.1715012         2.05476386E-10
   85.3519974         2.01735906E-10
   85.5325012         1.87955526E-10
   85.7129974         1.67019662E-10
   85.8935013         1.42072312E-10
   86.0739975         1.15726609E-10
   86.2545013         8.97066796E-11
   86.4349976         6.49201803E-11
   86.6155014         4.18188539E-11
   86.7959976         2.06990657E-11
   86.9765015         1.67339883E-12
   87.1569977        -1.56133613E-11
   87.3375015        -3.21689619E-11
   87.5179977        -4.95439245E-11
   87.6985016        -6.94535748E-11
   87.8789978        -9.31569336E-11
   88.0595016        -1.20923202E-10
   88.2399979        -1.51872945E-10
   88.4205017        -1.84158883E-10
   88.6009979        -2.15318735E-10
   88.7815018        -2.42650428E-10
   88.9619980        -2.63687183E-10
   89.1425018        -2.76672296E-10
   89.3229980        -2.80972745E-10
   89.5035019        -2.77400269E-10
   89.6839981        -2.68266021E-10
   89.8645020        -2.56880184E-10
   90.0449982        -2.46549919E-10
   90.2255020        -2.39568809E-10
   90.4059982        -2.36632408E-10
   90.5865021        -2.36827585E-10
   90.7669983        -2.38207759E-10
   90.9475021        -2.38735642E-10
   91.1279984        -2.37022929E-10
   91.3085022        -2.32518754E-10
   91.4889984        -2.25292340E-10
   91.6695023        -2.15777701E-10
   91.8499985        -2.04605680E-10
   92.0305023        -1.92558886E-10
   92.2109985        -1.80596690E-10
   92.3915024        -1.69791500E-10
   92.5719986        -1.60975996E-10
   92.7525024        -1.54309454E-10
   92.9329987        -1.49117468E-10
   93.1135025        -1.44049356E-10
   93.2939987        -1.37429429E-10
   93.4745026        -1.27672803E-10
   93.6549988        -1.13624402E-10
   93.8355026        -9.47178724E-11
   94.0159988        -7.10089695E-11
   94.1965027        -4.32464516E-11
   94.3769989        -1.29845813E-11
   94.5575027         1.75533008E-11
   94.7379990         4.59448209E-11
   94.9185028         7.02347416E-11
   95.0989990         8.95928262E-11
   95.2795029         1.04695620E-10
   95.4599991         1.17488769E-10
   95.6405029         1.30381733E-10
   95.8209991         1.45364554E-10
   96.0015030         1.63491914E-10
   96.1819992         1.84871465E-10
   96.3625031         2.09098794E-10
   96.5429993         2.35812841E-10
   96.7235031         2.64986727E-10
   96.9039993         2.96765695E-10
   97.0845032         3.31045469E-10
   97.2649994         3.67187225E-10
   97.4455032         4.04030753E-10
   97.6259995         4.40139009E-10
   97.8065033         4.74154049E-10
   97.9869995         5.05055386E-10
   98.1675034         5.32160982E-10
   98.3479996         5.55046120E-10
   98.5285034         5.73547876E-10
   98.7089996         5.87799198E-10
   98.8895035         5.98170680E-10
   99.0699997         6.05139716E-10
   99.2505035         6.09093331E-10
   99.4309998         6.10138773E-10
   99.6115036         6.08126993E-10
   99.7919998         6.03036399E-10
   99.9725037         5.95486660E-10
   100.153000         5.86934223E-10
   100.333504         5.79391479E-10
   100.514000         5.74817638E-10
   100.694504         5.74443715E-10
   100.875000         5.78361692E-10
   101.055496         5.85756055E-10
   101.236000         5.95628713E-10
   101.416496         6.07506545E-10
   101.597000         6.21723451E-10
   101.777496         6.39283682E-10
   101.958000         6.61346700E-10
   102.138496         6.88624935E-10
   102.319000         7.21027849E-10
   102.499496         7.57727658E-10
   102.680000         7.97379607E-10
   102.860497         8.38301595E-10
   103.041000         8.78598527E-10
   103.221497         9.16303144E-10
   103.402000         9.49534895E-10
   103.582497         9.76717263E-10
   103.763000         9.96850380E-10
   103.943497         1.00963482E-09
   104.124001         1.01529862E-09
   104.304497         1.01429332E-09
   104.485001         1.00712449E-09
   104.665497         9.94365368E-10
   104.846001         9.76755454E-10
   105.026497         9.55270196E-10
   105.207001         9.31020372E-10
   105.387497         9.04887387E-10
   105.568001         8.77182660E-10
   105.748497         8.47592441E-10
   105.929001         8.15507384E-10
   106.109497         7.80554676E-10
   106.290001         7.43031192E-10
   106.470497         7.04027892E-10
   106.651001         6.65101751E-10
   106.831497         6.27776886E-10
   107.012001         5.93226912E-10
   107.192497         5.62265456E-10
   107.373001         5.35555822E-10
   107.553497         5.13749543E-10
   107.734001         4.97468955E-10
   107.914497         4.86995111E-10
   108.095001         4.81935825E-10
   108.275497         4.81179874E-10
   108.456001         4.83200979E-10
   108.636497         4.86495955E-10
   108.817001         4.89905172E-10
   108.997498         4.92683727E-10
   109.178001         4.94326968E-10
   109.358498         4.94253083E-10
   109.539001         4.91682028E-10
   109.719498         4.85786522E-10
   109.900002         4.75930850E-10
   110.080498         4.61794297E-10
   110.261002         4.43265868E-10
   110.441498         4.20237789E-10
   110.622002         3.92421845E-10
   110.802498         3.59366037E-10
   110.983002         3.20723836E-10
   111.163498         2.76575735E-10
   111.344002         2.27500629E-10
   111.524498         1.74425682E-10