  -34.5000000         0.00000000    
  -34.3199997         0.00000000    
  -34.1399994         0.00000000    
  -33.9599991        -1.12018999E-29
  -33.7799988        -4.57366423E-26
  -33.5999985        -3.02997332E-25
  -33.4199982        -2.57251170E-24
  -33.2400017        -7.88779653E-24
  -33.0600014        -2.01791586E-24
  -32.8800011         3.81653777E-23
  -32.7000008         5.67262935E-23
  -32.5200005        -1.52938736E-22
  -32.3400002        -6.52287550E-22
  -32.1599998        -6.47938743E-22
  -31.9799995         1.47596779E-21
  -31.7999992         5.69357503E-21
  -31.6200008         6.53754483E-21
  -31.4400005        -5.82455028E-21
  -31.2600002        -3.34494101E-20
  -31.0799999        -5.32594745E-20
  -30.8999996        -1.73070030E-20
  -30.7199993         1.07150734E-19
  -30.5400009         2.70125781E-19
  -30.3600006         3.06164205E-19
  -30.1800003         1.14486118E-20
  -30.0000000        -6.59855313E-19
  -29.8199997        -1.39278159E-18
  -29.6399994        -1.50218264E-18
  -29.4599991        -2.67579538E-19
  -29.2800007         2.44790537E-18
  -29.1000004         5.63063042E-18
  -28.9200001         7.08782033E-18
  -28.7399998         4.29727070E-18
  -28.5599995        -3.99099177E-18
  -28.3799992        -1.61153461E-17
  -28.2000008        -2.68930066E-17
  -28.0200005        -2.89035402E-17
  -27.8400002        -1.57041381E-17
  -27.6599998         1.41134102E-17
  -27.4799995         5.39874316E-17
  -27.2999992         8.95306678E-17
  -27.1200008         1.02654279E-16
  -26.9400005         7.87165386E-17
  -26.7600002         1.39519627E-17
  -26.5799999        -8.03109723E-17
  -26.3999996        -1.79250899E-16
  -26.2199993        -2.52102363E-16
  -26.0400009        -2.72893449E-16
  -25.8600006        -2.29628409E-16
  -25.6800003        -1.27554771E-16
  -25.5000000         1.51594148E-17
  -25.3199997         1.76929182E-16
  -25.1399994         3.41806223E-16
  -24.9599991         5.02057074E-16
  -24.7800007         6.51348961E-16
  -24.6000004         7.71232710E-16
  -24.4200001         8.18734476E-16
  -24.2399998         7.24794499E-16
  -24.0599995         4.10020459E-16
  -23.8799992        -1.83055771E-16
  -23.7000008        -1.05054574E-15
  -23.5200005        -2.09536533E-15
  -23.3400002        -3.11721105E-15
  -23.1599998        -3.83190124E-15
  -22.9799995        -3.91707888E-15
  -22.7999992        -3.07178658E-15
  -22.6200008        -1.07211565E-15
  -22.4400005         2.19201073E-15
  -22.2600002         6.70745486E-15
  -22.0799999         1.23534716E-14
  -21.8999996         1.89326026E-14
  -21.7199993         2.62044296E-14
  -21.5400009         3.39116180E-14
  -21.3600006         4.17946893E-14
  -21.1800003         4.95977567E-14
  -21.0000000         5.70715079E-14
  -20.8199997         6.39791158E-14
  -20.6399994         7.01069723E-14
  -20.4599991         7.52766786E-14
  -20.2800007         7.93527299E-14
  -20.1000004         8.22392894E-14
  -19.9200001         8.38644475E-14
  -19.7399998         8.41553254E-14
  -19.5599995         8.30151106E-14
  -19.3799992         8.03087523E-14
  -19.2000008         7.58675078E-14
  -19.0200005         6.95136697E-14
  -18.8400002         6.11003219E-14
  -18.6599998         5.05573299E-14
  -18.4799995         3.79326019E-14
  -18.2999992         2.34200459E-14
  -18.1200008         7.36715292E-15
  -17.9400005        -9.73947451E-15
  -17.7600002        -2.73077154E-14
  -17.5799999        -4.46913963E-14
  -17.3999996        -6.12498943E-14
  -17.2199993        -7.64079555E-14
  -17.0400009        -8.97038791E-14
  -16.8600006        -1.00816220E-13
  -16.6800003        -1.09562201E-13
  -16.5000000        -1.15870218E-13
  -16.3199997        -1.19734585E-13
  -16.1399994        -1.21171424E-13
  -15.9600000        -1.20191102E-13
  -15.7799997        -1.16800599E-13
  -15.6000004        -1.11036695E-13
  -15.4200001        -1.03020951E-13
  -15.2399998        -9.30161506E-14
  -15.0600004        -8.14683404E-14
  -14.8800001        -6.90169493E-14
  -14.6999998        -5.64724049E-14
  -14.5200005        -4.47648951E-14
  -14.3400002        -3.48773575E-14
  -14.1599998        -2.77704393E-14
  -13.9799995        -2.43085598E-14
  -13.8000002        -2.51850881E-14
  -13.6199999        -3.08476491E-14
  -13.4399996        -4.14233636E-14
  -13.2600002        -5.66535276E-14
  -13.0799999        -7.58482564E-14
  -12.8999996        -9.78817044E-14
  -12.7200003        -1.21233888E-13
  -12.5400000        -1.44084709E-13
  -12.3599997        -1.64446717E-13
  -12.1800003        -1.80319640E-13
  -12.0000000        -1.89840778E-13
  -11.8199997        -1.91410025E-13
  -11.6400003        -1.83779438E-13
  -11.4600000        -1.66108921E-13
  -11.2799997        -1.37979702E-13
  -11.1000004        -9.93887589E-14
  -10.9200001        -5.07190623E-14
  -10.7399998         7.30761582E-15
  -10.5600004         7.36907009E-14
  -10.3800001         1.47218934E-13
  -10.1999998         2.26542431E-13
  -10.0200005         3.10231523E-13
  -9.84000015         3.96811273E-13
  -9.65999985         4.84765873E-13
  -9.47999954         5.72513662E-13
  -9.30000019         6.58361712E-13
  -9.11999989         7.40461945E-13
  -8.93999958         8.16790917E-13
  -8.76000023         8.85172252E-13
  -8.57999992         9.43351408E-13
  -8.39999962         9.89120136E-13
  -8.22000027         1.02047429E-12
  -8.03999996         1.03578712E-12
  -7.86000013         1.03397141E-12
  -7.67999983         1.01461569E-12
  -7.50000000         9.78072224E-13
  -7.32000017         9.25502838E-13
  -7.13999987         8.58866038E-13
  -6.96000004         7.80869130E-13
  -6.78000021         6.94858342E-13
  -6.59999990         6.04694300E-13
  -6.42000008         5.14589293E-13
  -6.23999977         4.28932904E-13
  -6.05999994         3.52112518E-13
  -5.88000011         2.88362487E-13
  -5.69999981         2.41619902E-13
  -5.51999998         2.15432788E-13
  -5.34000015         2.12893031E-13
  -5.15999985         2.36632139E-13
  -4.98000002         2.88828071E-13
  -4.80000019         3.71234890E-13
  -4.61999989         4.85199175E-13
  -4.44000006         6.31627454E-13
  -4.26000023         8.10927009E-13
  -4.07999992         1.02286571E-12
  -3.90000010         1.26638619E-12
  -3.72000003         1.53940196E-12
  -3.53999996         1.83863016E-12
  -3.35999990         2.15944081E-12
  -3.18000007         2.49584988E-12
  -3.00000000         2.84059581E-12
  -2.81999993         3.18532700E-12
  -2.64000010         3.52091663E-12
  -2.46000004         3.83782069E-12
  -2.27999997         4.12648518E-12
  -2.09999990         4.37775033E-12
  -1.91999996         4.58322182E-12
  -1.74000001         4.73559863E-12
  -1.55999994         4.82886517E-12
  -1.38000000         4.85841922E-12
  -1.20000005         4.82106933E-12
  -1.01999998         4.71488820E-12
 -0.839999974         4.53906357E-12
 -0.660000026         4.29364573E-12
 -0.479999989         3.97938410E-12
 -0.300000012         3.59758902E-12
 -0.119999997         3.15014898E-12
   5.99999987E-02     2.63958755E-12
  0.239999995         2.06929114E-12
  0.419999987         1.44363178E-12
  0.600000024         7.68180495E-13
  0.779999971         4.97498296E-14
  0.959999979        -7.03675020E-13
   1.13999999        -1.48310487E-12
   1.32000005        -2.27888216E-12
   1.50000000        -3.08107879E-12
   1.67999995        -3.87989944E-12
   1.86000001        -4.66611385E-12
   2.03999996        -5.43147558E-12
   2.22000003        -6.16900194E-12
   2.40000010        -6.87318258E-12
   2.57999992        -7.54007967E-12
   2.75999999        -8.16717700E-12
   2.94000006        -8.75318915E-12
   3.11999989        -9.29764772E-12
   3.29999995        -9.80047293E-12
   3.48000002        -1.02615390E-11
   3.66000009        -1.06804105E-11
   3.83999991        -1.10562262E-11
   4.01999998        -1.13877675E-11
   4.19999981        -1.16738225E-11
   4.38000011        -1.19135144E-11
   4.55999994        -1.21067080E-11
   4.73999977        -1.22543512E-11
   4.92000008        -1.23585187E-11
   5.09999990        -1.24223626E-11
   5.28000021        -1.24498051E-11
   5.46000004        -1.24451213E-11
   5.63999987        -1.24124660E-11
   5.82000017        -1.23553685E-11
   6.00000000        -1.22763544E-11
   6.17999983        -1.21766382E-11
   6.36000013        -1.20559717E-11
   6.53999996        -1.19126939E-11
   6.71999979        -1.17439192E-11
   6.90000010        -1.15458754E-11
   7.07999992        -1.13144745E-11
   7.26000023        -1.10458309E-11
   7.44000006        -1.07367917E-11
   7.61999989        -1.03853219E-11
   7.80000019        -9.99071138E-12
   7.98000002        -9.55341622E-12
   8.15999985        -9.07475397E-12
   8.34000015        -8.55634227E-12
   8.52000046        -7.99955154E-12
   8.69999981        -7.40504793E-12
   8.88000011        -6.77243851E-12
   9.06000042        -6.10026092E-12
   9.23999977        -5.38613642E-12
   9.42000008        -4.62716237E-12
   9.60000038        -3.82033554E-12
   9.77999973        -2.96303607E-12
   9.96000004        -2.05348672E-12
   10.1400003        -1.09108154E-12
   10.3199997        -7.65960713E-14
   10.5000000         9.87720322E-13
   10.6800003         2.09810164E-12
   10.8599997         3.24940834E-12
   11.0400000         4.43532667E-12
   11.2200003         5.64863954E-12
   11.3999996         6.88154178E-12
   11.5799999         8.12586717E-12
   11.7600002         9.37324957E-12
   11.9399996         1.06152578E-11
   12.1199999         1.18432764E-11
   12.3000002         1.30482500E-11
   12.4799995         1.42207678E-11
   12.6599998         1.53506010E-11
   12.8400002         1.64268616E-11
   13.0200005         1.74379174E-11
   13.1999998         1.83716046E-11
   13.3800001         1.92154695E-11
   13.5600004         1.99571956E-11
   13.7399998         2.05849834E-11
   13.9200001         2.10879543E-11
   14.1000004         2.14566889E-11
   14.2799997         2.16835230E-11
   14.4600000         2.17628224E-11
   14.6400003         2.16910136E-11
   14.8199997         2.14664692E-11
   15.0000000         2.10890593E-11
   15.1800003         2.05597223E-11
   15.3599997         1.98798148E-11
   15.5400000         1.90505754E-11
   15.7200003         1.80728297E-11
   15.8999996         1.69466524E-11
   16.0799999         1.56715682E-11
   16.2600002         1.42467540E-11
   16.4400005         1.26712876E-11
   16.6200008         1.09446853E-11
   16.7999992         9.06711598E-12
   16.9799995         7.03964274E-12
   17.1599998         4.86434460E-12
   17.3400002         2.54433323E-12
   17.5200005         8.35604846E-14
   17.7000008        -2.51318172E-12
   17.8799992        -5.24051852E-12
   18.0599995        -8.09277124E-12
   18.2399998        -1.10640958E-11
   18.4200001        -1.41486779E-11
   18.6000004        -1.73408440E-11
   18.7800007        -2.06349937E-11
   18.9599991        -2.40253494E-11
   19.1399994        -2.75057858E-11
   19.3199997        -3.10692513E-11
   19.5000000        -3.47073897E-11
   19.6800003        -3.84102541E-11
   19.8600006        -4.21659790E-11
   20.0400009        -4.59607630E-11
   20.2199993        -4.97789344E-11
   20.3999996        -5.36030144E-11
   20.5799999        -5.74139868E-11
   20.7600002        -6.11914200E-11
   20.9400005        -6.49138243E-11
   21.1200008        -6.85588392E-11
   21.2999992        -7.21036356E-11
   21.4799995        -7.55251486E-11
   21.6599998        -7.88005841E-11
   21.8400002        -8.19074739E-11
   22.0200005        -8.48238910E-11
   22.2000008        -8.75284983E-11
   22.3799992        -9.00001670E-11
   22.5599995        -9.22178792E-11
   22.7399998        -9.41605960E-11
   22.9200001        -9.58069943E-11
   23.1000004        -9.71359382E-11
   23.2800007        -9.81266804E-11
   23.4599991        -9.87597573E-11
   23.6399994        -9.90176136E-11
   23.8199997        -9.88853721E-11
   24.0000000        -9.83516046E-11
   24.1800003        -9.74084077E-11
   24.3600006        -9.60517915E-11
   24.5400009        -9.42814021E-11
   24.7199993        -9.21002302E-11
   24.8999996        -8.95140004E-11
   25.0799999        -8.65305466E-11
   25.2600002        -8.31590491E-11
   25.4400005        -7.94095067E-11
   25.6200008        -7.52921961E-11
   25.7999992        -7.08171022E-11
   25.9799995        -6.59942795E-11
   26.1599998        -6.08336020E-11
   26.3400002        -5.53453880E-11
   26.5200005        -4.95403822E-11
   26.7000008        -4.34303843E-11
   26.8799992        -3.70280681E-11
   27.0599995        -3.03466800E-11
   27.2399998        -2.33996381E-11
   27.4200001        -1.61997239E-11
   27.6000004        -8.75812270E-12
   27.7800007        -1.08387724E-12
   27.9599991         6.81675766E-12
   28.1399994         1.49404170E-11
   28.3199997         2.32866348E-11
   28.5000000         3.18572391E-11
   28.6800003         4.06557878E-11
   28.8600006         4.96869074E-11
   29.0400009         5.89552226E-11
   29.2199993         6.84646714E-11
   29.3999996         7.82177864E-11
   29.5799999         8.82149284E-11
   29.7600002         9.84538562E-11
   29.9400005         1.08929581E-10
   30.1200008         1.19634178E-10
   30.2999992         1.30557176E-10
   30.4799995         1.41685677E-10
   30.6599998         1.53004720E-10
   30.8400002         1.64497582E-10
   31.0200005         1.76145848E-10
   31.2000008         1.87929172E-10
   31.3799992         1.99825281E-10
   31.5599995         2.11809625E-10
   31.7399998         2.23854879E-10
   31.9200001         2.35931191E-10
   32.0999985         2.48005755E-10
   32.2799988         2.60043459E-10
   32.4599991         2.72007084E-10
   32.6399994         2.83858048E-10
   32.8199997         2.95556718E-10
   33.0000000         3.07063347E-10
   33.1800003         3.18338772E-10
   33.3600006         3.29344579E-10
   33.5400009         3.40043910E-10
   33.7200012         3.50401763E-10
   33.9000015         3.60385166E-10
   34.0800018         3.69963060E-10
   34.2599983         3.79106385E-10
   34.4399986         3.87787746E-10
   34.6199989         3.95981137E-10
   34.7999992         4.03661687E-10
   34.9799995         4.10805584E-10
   35.1599998         4.17390289E-10
   35.3400002         4.23394653E-10
   35.5200005         4.28799468E-10
   35.7000008         4.33587999E-10
   35.8800011         4.37746450E-10
   36.0600014         4.41264442E-10
   36.2400017         4.44135201E-10
   36.4199982         4.46355425E-10
   36.5999985         4.47925308E-10
   36.7799988         4.48847681E-10
   36.9599991         4.49127874E-10
   37.1399994         4.48772686E-10
   37.3199997         4.47790305E-10
   37.5000000         4.46189807E-10
   37.6800003         4.43981019E-10
   37.8600006         4.41174847E-10
   38.0400009         4.37783448E-10
   38.2200012         4.33820868E-10
   38.4000015         4.29303204E-10
   38.5800018         4.24249080E-10
   38.7599983         4.18679813E-10
   38.9399986         4.12619189E-10
   39.1199989         4.06092937E-10
   39.2999992         3.99128397E-10
   39.4799995         3.91753574E-10
   39.6599998         3.83996474E-10
   39.8400002         3.75884601E-10
   40.0200005         3.67444825E-10
   40.2000008         3.58703067E-10
   40.3800011         3.49684948E-10
   40.5600014         3.40416195E-10
   40.7400017         3.30923428E-10
   40.9199982         3.21234650E-10
   41.0999985         3.11379811E-10
   41.2799988         3.01390829E-10
   41.4599991         2.91300983E-10
   41.6399994         2.81144108E-10
   41.8199997         2.70953787E-10
   42.0000000         2.60761662E-10
   42.1800003         2.50597071E-10
   42.3600006         2.40485604E-10
   42.5400009         2.30449451E-10
   42.7200012         2.20506821E-10
   42.9000015         2.10672646E-10
   43.0800018         2.00958708E-10
   43.2599983         1.91374083E-10
   43.4399986         1.81924989E-10
   43.6199989         1.72614992E-10
   43.7999992         1.63444480E-10
   43.9799995         1.54410332E-10
   44.1599998         1.45505691E-10
   44.3400002         1.36719552E-10
   44.5200005         1.28036873E-10
   44.7000008         1.19438334E-10
   44.8800011         1.10901087E-10
   45.0600014         1.02398888E-10
   45.2400017         9.39026357E-11
   45.4199982         8.53810495E-11
   45.5999985         7.68014471E-11
   45.7799988         6.81303763E-11
   45.9599991         5.93341418E-11
   46.1399994         5.03801133E-11
   46.3199997         4.12366981E-11
   46.5000000         3.18742151E-11
   46.6800003         2.22655314E-11
   46.8600006         1.23867010E-11
   47.0400009         2.21715571E-12
   47.2200012        -8.25923791E-12
   47.4000015        -1.90542530E-11
   47.5800018        -3.01746649E-11
   47.7599983        -4.16230522E-11
   47.9399986        -5.33973837E-11
   48.1199989        -6.54923893E-11
   48.2999992        -7.78997977E-11
   48.4799995        -9.06089717E-11
   48.6599998        -1.03607456E-10
   48.8400002        -1.16880589E-10
   49.0200005        -1.30411723E-10
   49.2000008        -1.44181125E-10
   49.3800011        -1.58166216E-10
   49.5600014        -1.72341655E-10
   49.7400017        -1.86679644E-10
   49.9199982        -2.01150874E-10
   50.0999985        -2.15726145E-10
   50.2799988        -2.30377953E-10
   50.4599991        -2.45081677E-10
   50.6399994        -2.59816529E-10
   50.8199997        -2.74566203E-10
   51.0000000        -2.89318597E-10
   51.1800003        -3.04065523E-10
   51.3600006        -3.18801652E-10
   51.5400009        -3.33523570E-10
   51.7200012        -3.48228918E-10
   51.9000015        -3.62915448E-10
   52.0800018        -3.77580883E-10
   52.2599983        -3.92222477E-10
   52.4399986        -4.06837508E-10
   52.6199989        -4.21423674E-10
   52.7999992        -4.35979225E-10
   52.9799995        -4.50503912E-10
   53.1599998        -4.64998595E-10
   53.3400002        -4.79464801E-10
   53.5200005        -4.93904029E-10
   53.7000008        -5.08316667E-10
   53.8800011        -5.22699994E-10
   54.0600014        -5.37047073E-10
   54.2400017        -5.51345969E-10
   54.4199982        -5.65579306E-10
   54.5999985        -5.79724602E-10
   54.7799988        -5.93754990E-10
   54.9599991        -6.07640827E-10
   55.1399994        -6.21350693E-10
   55.3199997        -6.34851671E-10
   55.5000000        -6.48111897E-10
   55.6800003        -6.61098731E-10
   55.8600006        -6.73780864E-10
   56.0400009        -6.86126822E-10
   56.2200012        -6.98106017E-10
   56.4000015        -7.09688808E-10
   56.5800018        -7.20846216E-10
   56.7599983        -7.31551486E-10
   56.9399986        -7.41779138E-10
   57.1199989        -7.51506801E-10
   57.2999992        -7.60714103E-10
   57.4799995        -7.69383834E-10
   57.6599998        -7.77501286E-10
   57.8400002        -7.85054188E-10
   58.0200005        -7.92032995E-10
   58.2000008        -7.98430377E-10
   58.3800011        -8.04240785E-10
   58.5600014        -8.09460776E-10
   58.7400017        -8.14088463E-10
   58.9199982        -8.18123680E-10
   59.0999985        -8.21567758E-10
   59.2799988        -8.24423474E-10
   59.4599991        -8.26694768E-10
   59.6399994        -8.28386415E-10
   59.8199997        -8.29503133E-10
   60.0000000        -8.30049085E-10
   60.1800003        -8.30026714E-10
   60.3600006        -8.29436186E-10
   60.5400009        -8.28274671E-10
   60.7200012        -8.26536395E-10
   60.9000015        -8.24213531E-10
   61.0800018        -8.21296475E-10
   61.2599983        -8.17775903E-10
   61.4399986        -8.13643319E-10
   61.6199989        -8.08892286E-10
   61.7999992        -8.03518307E-10
   61.9799995        -7.97519217E-10
   62.1599998        -7.90893906E-10
   62.3400002        -7.83642318E-10
   62.5200005        -7.75763342E-10
   62.7000008        -7.67255648E-10
   62.8800011        -7.58117125E-10
   63.0600014        -7.48344609E-10
   63.2400017        -7.37936212E-10
   63.4199982        -7.26890992E-10
   63.5999985        -7.15211279E-10
   63.7799988        -7.02903846E-10
   63.9599991        -6.89980240E-10
   64.1399994        -6.76457945E-10
   64.3199997        -6.62359334E-10
   64.5000000        -6.47711884E-10
   64.6800003        -6.32546293E-10
   64.8600006        -6.16894813E-10
   65.0400009        -6.00789751E-10
   65.2200012        -5.84261917E-10
   65.4000015        -5.67339509E-10
   65.5800018        -5.50047619E-10
   65.7600021        -5.32409394E-10
   65.9400024        -5.14445486E-10
   66.1200027        -4.96175934E-10
   66.3000031        -4.77621109E-10
   66.4800034        -4.58801663E-10
   66.6600037        -4.39739190E-10
   66.8399963        -4.20455337E-10
   67.0199966        -4.00970951E-10
   67.1999969        -3.81305321E-10
   67.3799973        -3.61474600E-10
   67.5599976        -3.41491696E-10
   67.7399979        -3.21365101E-10
   67.9199982        -3.01100034E-10
   68.0999985        -2.80698714E-10
   68.2799988        -2.60161698E-10
   68.4599991        -2.39488679E-10
   68.6399994        -2.18680490E-10
   68.8199997        -1.97740033E-10
   69.0000000        -1.76673870E-10
   69.1800003        -1.55492258E-10
   69.3600006        -1.34210518E-10
   69.5400009        -1.12848092E-10
   69.7200012        -9.14289200E-11
   69.9000015        -6.99802091E-11
   70.0800018        -4.85321228E-11
   70.2600021        -2.71168765E-11
   70.4400024        -5.76822791E-12
   70.6200027         1.54790781E-11
   70.8000031         3.65898110E-11
   70.9800034         5.75288497E-11
   71.1600037         7.82605300E-11
   71.3399963         9.87497653E-11
   71.5199966         1.18962340E-10
   71.6999969         1.38864462E-10
   71.8799973         1.58422830E-10
   72.0599976         1.77605458E-10
   72.2399979         1.96380801E-10
   72.4199982         2.14718632E-10
   72.5999985         2.32589364E-10
   72.7799988         2.49965049E-10
   72.9599991         2.66819872E-10
   73.1399994         2.83130019E-10
   73.3199997         2.98875397E-10
   73.5000000         3.14038823E-10
   73.6800003         3.28607030E-10
   73.8600006         3.42570194E-10
   74.0400009         3.55921459E-10
   74.2200012         3.68655939E-10
   74.4000015         3.80770582E-10
   74.5800018         3.92262556E-10
   74.7600021         4.03128947E-10
   74.9400024         4.13366452E-10
   75.1200027         4.22971019E-10
   75.3000031         4.31938540E-10
   75.4800034         4.40265491E-10
   75.6600037         4.47949761E-10
   75.8399963         4.54991544E-10
   76.0199966         4.61393396E-10
   76.1999969         4.67161254E-10
   76.3799973         4.72303308E-10
   76.5599976         4.76829298E-10
   76.7399979         4.80748941E-10
   76.9199982         4.84071061E-10
   77.0999985         4.86801710E-10
   77.2799988         4.88944663E-10
   77.4599991         4.90500751E-10
   77.6399994         4.91468366E-10
   77.8199997         4.91845176E-10
   78.0000000         4.91629348E-10
   78.1800003         4.90820495E-10
   78.3600006         4.89421725E-10
   78.5400009         4.87439422E-10
   78.7200012         4.84884355E-10
   78.9000015         4.81771456E-10
   79.0800018         4.78119488E-10
   79.2600021         4.73950712E-10
   79.4400024         4.69289996E-10
   79.6200027         4.64165512E-10
   79.8000031         4.58607013E-10
   79.9800034         4.52647198E-10
   80.1600037         4.46321230E-10
   80.3399963         4.39666692E-10
   80.5199966         4.32723690E-10
   80.6999969         4.25534802E-10
   80.8799973         4.18144352E-10
   81.0599976         4.10597306E-10
   81.2399979         4.02938821E-10
   81.4199982         3.95212446E-10
   81.5999985         3.87459703E-10
   81.7799988         3.79718701E-10
   81.9599991         3.72024272E-10
   82.1399994         3.64407199E-10
   82.3199997         3.56894653E-10
   82.5000000         3.49510559E-10
   82.6800003         3.42274958E-10
   82.8600006         3.35204919E-10
   83.0400009         3.28313737E-10
   83.2200012         3.21610849E-10
   83.4000015         3.15102305E-10
   83.5800018         3.08790132E-10
   83.7600021         3.02673275E-10
   83.9400024         2.96747876E-10
   84.1200027         2.91007968E-10
   84.3000031         2.85445806E-10
   84.4800034         2.80052453E-10
   84.6600037         2.74817336E-10
   84.8399963         2.69728295E-10
   85.0199966         2.64770622E-10
   85.1999969         2.59926497E-10
   85.3799973         2.55174770E-10
   85.5599976         2.50489907E-10
   85.7399979         2.45842291E-10
   85.9199982         2.41198450E-10
   86.0999985         2.36521469E-10
   86.2799988         2.31771921E-10
   86.4599991         2.26909394E-10
   86.6399994         2.21893823E-10
   86.8199997         2.16686613E-10
   87.0000000         2.11252696E-10
   87.1800003         2.05561096E-10
   87.3600006         1.99585473E-10
   87.5400009         1.93304650E-10
   87.7200012         1.86702320E-10
   87.9000015         1.79766174E-10
   88.0800018         1.72487594E-10
   88.2600021         1.64861375E-10
   88.4400024         1.56885588E-10
   88.6200027         1.48561233E-10
   88.8000031         1.39893014E-10
   88.9800034         1.30888869E-10
   89.1600037         1.21560303E-10
   89.3399963         1.11921125E-10
   89.5199966         1.01987342E-10
   89.6999969         9.17757120E-11
   89.8799973         8.13030615E-11
   90.0599976         7.05851766E-11
   90.2399979         5.96371355E-11
   90.4199982         4.84724830E-11
   90.5999985         3.71041357E-11
   90.7799988         2.55445960E-11
   90.9599991         1.38066451E-11
   91.1399994         1.90363740E-12
   91.3199997        -1.01502678E-11
   91.5000000        -2.23394081E-11
   91.6800003        -3.46471254E-11
   91.8600006        -4.70555088E-11
   92.0400009        -5.95457711E-11
   92.2200012        -7.20980081E-11
   92.4000015        -8.46920312E-11
   92.5800018        -9.73069264E-11
   92.7600021        -1.09921065E-10
   92.9400024        -1.22511903E-10
   93.1200027        -1.35055245E-10
   93.3000031        -1.47524215E-10
   93.4800034        -1.59889185E-10
   93.6600037        -1.72116654E-10
   93.8399963        -1.84169777E-10
   94.0199966        -1.96008584E-10
   94.1999969        -2.07590944E-10
   94.3799973        -2.18874183E-10
   94.5599976        -2.29816180E-10
   94.7399979        -2.40376663E-10
   94.9199982        -2.50518273E-10
   95.0999985        -2.60206107E-10
   95.2799988        -2.69408690E-10
   95.4599991        -2.78096546E-10
   95.6399994        -2.86242141E-10
   95.8199997        -2.93819691E-10
   96.0000000        -3.00805075E-10
   96.1800003        -3.07176395E-10
   96.3600006        -3.12914722E-10
   96.5400009        -3.18005011E-10
   96.7200012        -3.22437715E-10
   96.9000015        -3.26209643E-10
   97.0800018        -3.29325012E-10
   97.2600021        -3.31796229E-10
   97.4400024        -3.33644362E-10
   97.6200027        -3.34898831E-10
   97.8000031        -3.35597050E-10
   97.9800034        -3.35783706E-10
   98.1600037        -3.35509204E-10
   98.3399963        -3.34828887E-10
   98.5199966        -3.33801625E-10
   98.6999969        -3.32488953E-10
   98.8799973        -3.30954486E-10
   99.0599976        -3.29263006E-10
   99.2399979        -3.27479960E-10
   99.4199982        -3.25671046E-10
   99.5999985        -3.23900601E-10
   99.7799988        -3.22230520E-10
   99.9599991        -3.20717841E-10
   100.139999        -3.19413496E-10
   100.320000        -3.18360283E-10
   100.500000        -3.17591092E-10
   100.680000        -3.17128462E-10
   100.860001        -3.16984522E-10
   101.040001        -3.17161630E-10
   101.220001        -3.17653293E-10
   101.400002        -3.18445326E-10
   101.580002        -3.19517524E-10
   101.760002        -3.20844518E-10
   101.940002        -3.22396720E-10
   102.120003        -3.24140798E-10
   102.300003        -3.26040750E-10
   102.480003        -3.28058053E-10
   102.660004        -3.30152794E-10
   102.839996        -3.32284450E-10
   103.019997        -3.34413497E-10
   103.199997        -3.36502437E-10
   103.379997        -3.38517214E-10
   103.559998        -3.40428796E-10
   103.739998        -3.42213369E-10
   103.919998        -3.43853029E-10
   104.099998        -3.45335593E-10
   104.279999        -3.46653595E-10
   104.459999        -3.47803092E-10
   104.639999        -3.48782142E-10
   104.820000        -3.49589718E-10
   105.000000        -3.50224183E-10
   105.180000        -3.50683288E-10
   105.360001        -3.50963286E-10
   105.540001        -3.51060181E-10
   105.720001        -3.50970281E-10
   105.900002        -3.50690754E-10
   106.080002        -3.50220408E-10
   106.260002        -3.49558743E-10
   106.440002        -3.48705897E-10
   106.620003        -3.47661344E-10
   106.800003        -3.46422419E-10
   106.980003        -3.44983930E-10
   107.160004        -3.43337581E-10
   107.339996        -3.41472128E-10
   107.519997        -3.39375167E-10
   107.699997        -3.37034262E-10
   107.879997        -3.34439088E-10
   108.059998        -3.31582539E-10
   108.239998        -3.28462479E-10
   108.419998        -3.25081045E-10
   108.599998        -3.21445065E-10
   108.779999        -3.17564419E-10
   108.959999        -3.13450710E-10
   109.139999        -3.09116233E-10
   109.320000        -3.04572090E-10
   109.500000        -2.99827885E-10
   109.680000        -2.94891445E-10
   109.860001        -2.89769070E-10
   110.040001        -2.84467006E-10
   110.220001        -2.78991913E-10
   110.400002        -2.73353062E-10
   110.580002        -2.67562222E-10
   110.760002        -2.61634797E-10
   110.940002        -2.55589577E-10
   111.120003        -2.49447657E-10