  -34.5000000         0.00000000    
  -34.3195000         0.00000000    
  -34.1389999         0.00000000    
  -33.9584999        -2.48494628E-28
  -33.7779999         4.01610073E-24
  -33.5974998         2.45763651E-23
  -33.4169998         7.45231785E-23
  -33.2364998         1.42327332E-22
  -33.0559998         1.74556301E-22
  -32.8754997         1.02221524E-22
  -32.6949997        -8.56328834E-23
  -32.5144997        -2.87972399E-22
  -32.3339996        -3.65322343E-22
  -32.1534996        -3.72997922E-22
  -31.9729996        -7.67148020E-22
  -31.7924995        -2.17981620E-21
  -31.6119995        -4.49072558E-21
  -31.4314995        -5.62886956E-21
  -31.2509995        -1.32606695E-21
  -31.0704994         1.31301343E-20
  -30.8899994         3.93487717E-20
  -30.7094994         7.14700593E-20
  -30.5289993         9.17227946E-20
  -30.3484993         6.85984372E-20
  -30.1679993        -3.37792903E-20
  -29.9874992        -2.26077328E-19
  -29.8069992        -4.55049788E-19
  -29.6264992        -5.99281497E-19
  -29.4459991        -5.41620132E-19
  -29.2654991        -2.85795348E-19
  -29.0849991         1.56945275E-20
  -28.9044991         2.44270829E-19
  -28.7240009         6.23085015E-19
  -28.5435009         1.79575472E-18
  -28.3630009         4.31315794E-18
  -28.1825008         7.61476829E-18
  -28.0020008         9.27130583E-18
  -27.8215008         5.55288868E-18
  -27.6410007        -6.21216156E-18
  -27.4605007        -2.44018744E-17
  -27.2800007        -4.12232936E-17
  -27.0995007        -4.45694973E-17
  -26.9190006        -2.43346527E-17
  -26.7385006         1.91066148E-17
  -26.5580006         6.93754858E-17
  -26.3775005         9.71733138E-17
  -26.1970005         7.43599901E-17
  -26.0165005        -5.15062579E-18
  -25.8360004        -1.08774826E-16
  -25.6555004        -1.66600568E-16
  -25.4750004        -9.89865334E-17
  -25.2945004         1.34516297E-16
  -25.1140003         4.85401654E-16
  -24.9335003         7.95168696E-16
  -24.7530003         8.27145831E-16
  -24.5725002         3.53785836E-16
  -24.3920002        -7.27793949E-16
  -24.2115002        -2.30248860E-15
  -24.0310001        -4.01812694E-15
  -23.8505001        -5.36663346E-15
  -23.6700001        -5.84651786E-15
  -23.4895000        -5.14562902E-15
  -23.3090000        -3.26608112E-15
  -23.1285000        -5.34563975E-16
  -22.9480000         2.50791866E-15
  -22.7674999         5.28565966E-15
  -22.5869999         7.35252042E-15
  -22.4064999         8.46598758E-15
  -22.2259998         8.54573065E-15
  -22.0454998         7.55835027E-15
  -21.8649998         5.41847866E-15
  -21.6844997         1.99844485E-15
  -21.5039997        -2.71289915E-15
  -21.3234997        -8.34668469E-15
  -21.1429996        -1.39093118E-14
  -20.9624996        -1.77118062E-14
  -20.7819996        -1.75876041E-14
  -20.6014996        -1.14101072E-14
  -20.4209995         2.20729883E-15
  -20.2404995         2.32447576E-14
  -20.0599995         4.98772336E-14
  -19.8794994         7.85025257E-14
  -19.6989994         1.04210714E-13
  -19.5184994         1.21556573E-13
  -19.3379993         1.25407253E-13
  -19.1574993         1.11646986E-13
  -18.9769993         7.76311727E-14
  -18.7964993         2.24213162E-14
  -18.6159992        -5.30648828E-14
  -18.4354992        -1.45862299E-13
  -18.2549992        -2.50709365E-13
  -18.0744991        -3.59882209E-13
  -17.8939991        -4.63358356E-13
  -17.7134991        -5.49532967E-13
  -17.5330009        -6.06538420E-13
  -17.3525009        -6.23984534E-13
  -17.1720009        -5.94717851E-13
  -16.9915009        -5.16145395E-13
  -16.8110008        -3.90774977E-13
  -16.6305008        -2.25874671E-13
  -16.4500008        -3.24045126E-14
  -16.2695007         1.76454988E-13
  -16.0890007         3.86836911E-13
  -15.9084997         5.85544796E-13
  -15.7279997         7.61139795E-13
  -15.5474997         9.04764978E-13
  -15.3669996         1.01072677E-12
  -15.1864996         1.07680867E-12
  -15.0059996         1.10422815E-12
  -14.8254995         1.09714776E-12
  -14.6450005         1.06172178E-12
  -14.4645004         1.00480952E-12
  -14.2840004         9.32634395E-13
  -14.1035004         8.49732231E-13
  -13.9230003         7.58508653E-13
  -13.7425003         6.59523488E-13
  -13.5620003         5.52367180E-13
  -13.3815002         4.36751330E-13
  -13.2010002         3.13315752E-13
  -13.0205002         1.83785252E-13
  -12.8400002         5.04247895E-14
  -12.6595001        -8.48820864E-14
  -12.4790001        -2.21329818E-13
  -12.2985001        -3.59150833E-13
  -12.1180000        -4.98661496E-13
  -11.9375000        -6.38791483E-13
  -11.7570000        -7.75878439E-13
  -11.5764999        -9.03545413E-13
  -11.3959999        -1.01405494E-12
  -11.2154999        -1.10081215E-12
  -11.0349998        -1.16106734E-12
  -10.8544998        -1.19763520E-12
  -10.6739998        -1.21880641E-12
  -10.4934998        -1.23637060E-12
  -10.3129997        -1.26249597E-12
  -10.1324997        -1.30666626E-12
  -9.95199966        -1.37379366E-12
  -9.77149963        -1.46402877E-12
  -9.59099960        -1.57398638E-12
  -9.41049957        -1.69847730E-12
  -9.22999954        -1.83166655E-12
  -9.04950047        -1.96694440E-12
  -8.86900043        -2.09548373E-12
  -8.68850040        -2.20421641E-12
  -8.50800037        -2.27440441E-12
  -8.32750034        -2.28194265E-12
  -8.14700031        -2.19995831E-12
  -7.96649981        -2.00344775E-12
  -7.78599977        -1.67483410E-12
  -7.60550022        -1.20887621E-12
  -7.42500019        -6.15445520E-13
  -7.24450016         8.06799966E-14
  -7.06400013         8.42969737E-13
  -6.88350010         1.62831727E-12
  -6.70300007         2.39290228E-12
  -6.52250004         3.09742206E-12
  -6.34200001         3.71083546E-12
  -6.16149998         4.21236657E-12
  -5.98099995         4.59196960E-12
  -5.80049992         4.84968012E-12
  -5.61999989         4.99419733E-12
  -5.43949986         5.04090476E-12
  -5.25899982         5.00940782E-12
  -5.07849979         4.92069146E-12
  -4.89799976         4.79413427E-12
  -4.71750021         4.64471907E-12
  -4.53700018         4.48084235E-12
  -4.35650015         4.30312903E-12
  -4.17600012         4.10449149E-12
  -3.99550009         3.87155932E-12
  -3.81500006         3.58734028E-12
  -3.63450003         3.23476424E-12
  -3.45400000         2.80049334E-12
  -3.27349997         2.27826677E-12
  -3.09299994         1.67100676E-12
  -2.91249990         9.91256881E-13
  -2.73200011         2.59799262E-13
  -2.55150008        -4.97123772E-13
  -2.37100005        -1.25133888E-12
  -2.19050002        -1.97625033E-12
  -2.00999999        -2.64966933E-12
  -1.82949996        -3.25553755E-12
  -1.64900005        -3.78440161E-12
  -1.46850002        -4.23269102E-12
  -1.28799999        -4.60104958E-12
  -1.10749996        -4.89220470E-12
 -0.926999986        -5.10895016E-12
 -0.746500015        -5.25289968E-12
 -0.565999985        -5.32435684E-12
 -0.385500014        -5.32329996E-12
 -0.204999998        -5.25096286E-12
  -2.44999994E-02    -5.11112463E-12
  0.156000003        -4.91036465E-12
  0.336499989        -4.65690117E-12
  0.517000020        -4.35837347E-12
  0.697499990        -4.01944016E-12
  0.878000021        -3.64020749E-12
   1.05850005        -3.21624932E-12
   1.23899996        -2.74026873E-12
   1.41949999        -2.20478952E-12
   1.60000002        -1.60484299E-12
   1.78050005        -9.39795659E-13
   1.96099997        -2.13907912E-13
   2.14150000         5.64026473E-13
   2.32200003         1.38108427E-12
   2.50250006         2.21979488E-12
   2.68300009         3.05647478E-12
   2.86350012         3.85892013E-12
   3.04399991         4.58481820E-12
   3.22449994         5.18266549E-12
   3.40499997         5.59642046E-12
   3.58550000         5.77377469E-12
   3.76600003         5.67635912E-12
   3.94650006         5.28892381E-12
   4.12699986         4.62448959E-12
   4.30749989         3.72357136E-12
   4.48799992         2.64761910E-12
   4.66849995         1.46889293E-12
   4.84899998         2.59988076E-13
   5.02950001        -9.13961940E-13
   5.21000004        -1.99907126E-12
   5.39050007        -2.95299787E-12
   5.57100010        -3.74376658E-12
   5.75150013        -4.34930607E-12
   5.93200016        -4.75888643E-12
   6.11250019        -4.97589513E-12
   6.29300022        -5.02001695E-12
   6.47349977        -4.92667105E-12
   6.65399981        -4.74219145E-12
   6.83449984        -4.51535380E-12
   7.01499987        -4.28746968E-12
   7.19549990        -4.08436262E-12
   7.37599993        -3.91312026E-12
   7.55649996        -3.76526111E-12
   7.73699999        -3.62526220E-12
   7.91750002        -3.48177390E-12
   8.09799957        -3.33775564E-12
   8.27849960        -3.21603638E-12
   8.45899963        -3.15869032E-12
   8.63949966        -3.22061193E-12
   8.81999969        -3.45951588E-12
   9.00049973        -3.92524641E-12
   9.18099976        -4.65085522E-12
   9.36149979        -5.64643211E-12
   9.54199982        -6.89565115E-12
   9.72249985        -8.35425912E-12
   9.90299988        -9.95010584E-12
   10.0834999        -1.15855398E-11
   10.2639999        -1.31433588E-11
   10.4445000        -1.44975984E-11
   10.6250000        -1.55289965E-11
   10.8055000        -1.61430973E-11
   10.9860001        -1.62871348E-11
   11.1665001        -1.59615030E-11
   11.3470001        -1.52223286E-11
   11.5275002        -1.41740690E-11
   11.7080002        -1.29537795E-11
   11.8885002        -1.17108033E-11
   12.0690002        -1.05864163E-11
   12.2495003        -9.69757261E-12
   12.4300003        -9.12695527E-12
   12.6105003        -8.91959250E-12
   12.7910004        -9.08477547E-12
   12.9715004        -9.60106213E-12
   13.1520004        -1.04227738E-11
   13.3325005        -1.14873579E-11
   13.5129995        -1.27234889E-11
   13.6934996        -1.40608636E-11
   13.8739996        -1.54410911E-11
   14.0544996        -1.68282853E-11
   14.2349997        -1.82161716E-11
   14.4154997        -1.96287587E-11
   14.5959997        -2.11124469E-11
   14.7764997        -2.27204054E-11
   14.9569998        -2.44928643E-11
   15.1374998        -2.64388563E-11
   15.3179998        -2.85259576E-11
   15.4984999        -3.06809265E-11
   15.6789999        -3.28019244E-11
   15.8594999        -3.47785307E-11
   16.0400009        -3.65134034E-11
   16.2205009        -3.79397520E-11
   16.4009991        -3.90303588E-11
   16.5814991        -3.97967805E-11
   16.7619991        -4.02809834E-11
   16.9424992        -4.05427497E-11
   17.1229992        -4.06466596E-11
   17.3034992        -4.06512081E-11
   17.4839993        -4.06009150E-11
   17.6644993        -4.05210449E-11
   17.8449993        -4.04136793E-11
   18.0254993        -4.02546711E-11
   18.2059994        -3.99922213E-11
   18.3864994        -3.95482605E-11
   18.5669994        -3.88251688E-11
   18.7474995        -3.77182729E-11
   18.9279995        -3.61331347E-11
   19.1084995        -3.40045110E-11
   19.2889996        -3.13119981E-11
   19.4694996        -2.80878567E-11
   19.6499996        -2.44147827E-11
   19.8304996        -2.04133984E-11
   20.0109997        -1.62231634E-11
   20.1914997        -1.19820091E-11
   20.3719997        -7.80917345E-12
   20.5524998        -3.79471064E-12
   20.7329998         3.31914540E-15
   20.9134998         3.55568960E-12
   21.0939999         6.85476112E-12
   21.2744999         9.90609851E-12
   21.4549999         1.27197497E-11
   21.6355000         1.53030869E-11
   21.8160000         1.76556859E-11
   21.9965000         1.97656318E-11
   22.1770000         2.16088224E-11
   22.3575001         2.31506724E-11
   22.5380001         2.43508720E-11
   22.7185001         2.51700570E-11
   22.8990002         2.55778419E-11
   23.0795002         2.55607497E-11
   23.2600002         2.51285451E-11
   23.4405003         2.43180597E-11
   23.6210003         2.31927776E-11
   23.8015003         2.18385067E-11
   23.9820004         2.03556200E-11
   24.1625004         1.88481435E-11
   24.3430004         1.74127050E-11
   24.5235004         1.61275888E-11
   24.7040005         1.50441257E-11
   24.8845005         1.41811328E-11
   25.0650005         1.35229883E-11
   25.2455006         1.30212603E-11
   25.4260006         1.26007989E-11
   25.6065006         1.21685006E-11
   25.7870007         1.16241817E-11
   25.9675007         1.08712024E-11
   26.1480007         9.82475819E-12
   26.3285007         8.41623039E-12
   26.5090008         6.59402307E-12
   26.6895008         4.32142603E-12
   26.8700008         1.57485299E-12
   27.0505009        -1.65677248E-12
   27.2310009        -5.36973200E-12
   27.4115009        -9.54246491E-12
   27.5919991        -1.41313601E-11
   27.7724991        -1.90693693E-11
   27.9529991        -2.42673590E-11
   28.1334991        -2.96179158E-11
   28.3139992        -3.50005719E-11
   28.4944992        -4.02865553E-11
   28.6749992        -4.53421120E-11
   28.8554993        -5.00295118E-11
   29.0359993        -5.42074025E-11
   29.2164993        -5.77298938E-11
   29.3969994        -6.04472375E-11
   29.5774994        -6.22070104E-11
   29.7579994        -6.28575803E-11
   29.9384995        -6.22524254E-11
   30.1189995        -6.02545999E-11
   30.2994995        -5.67419410E-11
   30.4799995        -5.16110210E-11
   30.6604996        -4.47808041E-11
   30.8409996        -3.61952517E-11
   31.0214996        -2.58256992E-11
   31.2019997        -1.36720201E-11
   31.3824997         2.38205289E-13
   31.5629997         1.58525207E-11
   31.7434998         3.30987390E-11
   31.9239998         5.18923064E-11
   32.1044998         7.21432497E-11
   32.2849998         9.37623243E-11
   32.4654999         1.16663651E-10
   32.6459999         1.40765677E-10
   32.8264999         1.65989486E-10
   33.0070000         1.92258140E-10
   33.1875000         2.19496005E-10
   33.3680000         2.47629112E-10
   33.5485001         2.76585754E-10
   33.7290001         3.06294018E-10
   33.9095001         3.36676798E-10
   34.0900002         3.67644165E-10
   34.2705002         3.99084182E-10
   34.4510002         4.30856073E-10
   34.6315002         4.62787170E-10
   34.8120003         4.94674357E-10
   34.9925003         5.26290955E-10
   35.1730003         5.57396185E-10
   35.3535004         5.87744853E-10
   35.5340004         6.17096096E-10
   35.7145004         6.45218212E-10
   35.8950005         6.71890210E-10
   36.0755005         6.96900315E-10
   36.2560005         7.20041915E-10
   36.4365005         7.41110284E-10
   36.6170006         7.59898588E-10
   36.7975006         7.76196052E-10
   36.9780006         7.89787569E-10
   37.1585007         8.00453981E-10
   37.3390007         8.07974132E-10
   37.5195007         8.12129974E-10
   37.7000008         8.12712897E-10
   37.8805008         8.09535106E-10
   38.0610008         8.02443612E-10
   38.2415009         7.91333554E-10
   38.4220009         7.76161579E-10
   38.6025009         7.56954666E-10
   38.7830009         7.33812122E-10
   38.9635010         7.06903869E-10
   39.1440010         6.76461998E-10
   39.3245010         6.42770781E-10
   39.5050011         6.06155182E-10
   39.6855011         5.66970526E-10
   39.8660011         5.25593791E-10
   40.0465012         4.82418883E-10
   40.2270012         4.37854780E-10
   40.4075012         3.92326005E-10
   40.5880013         3.46273898E-10
   40.7685013         3.00156955E-10
   40.9490013         2.54447019E-10
   41.1295013         2.09620668E-10
   41.3100014         1.66146097E-10
   41.4905014         1.24466271E-10
   41.6710014         8.49808973E-11
   41.8515015         4.80304477E-11
   42.0320015         1.38828697E-11
   42.2125015        -1.72729071E-11
   42.3930016        -4.53276340E-11
   42.5735016        -7.02448100E-11
   42.7540016        -9.20485285E-11
   42.9345016        -1.10806475E-10
   43.1150017        -1.26611416E-10
   43.2955017        -1.39564485E-10
   43.4760017        -1.49762161E-10
   43.6565018        -1.57288779E-10
   43.8370018        -1.62214783E-10
   44.0175018        -1.64599334E-10
   44.1980019        -1.64495792E-10
   44.3785019        -1.61957850E-10
   44.5589981        -1.57045335E-10
   44.7394981        -1.49828788E-10
   44.9199982        -1.40392198E-10
   45.1004982        -1.28835012E-10
   45.2809982        -1.15272868E-10
   45.4614983        -9.98379088E-11
   45.6419983        -8.26789123E-11
   45.8224983        -6.39594974E-11
   46.0029984        -4.38548260E-11
   46.1834984        -2.25461941E-11
   46.3639984        -2.15280457E-13
   46.5444984         2.29604287E-11
   46.7249985         4.68066662E-11
   46.9054985         7.11456727E-11
   47.0859985         9.57836310E-11
   47.2664986         1.20497168E-10
   47.4469986         1.45024104E-10
   47.6274986         1.69065928E-10
   47.8079987         1.92301980E-10
   47.9884987         2.14414972E-10
   48.1689987         2.35119230E-10
   48.3494987         2.54183924E-10
   48.5299988         2.71442951E-10
   48.7104988         2.86791008E-10
   48.8909988         3.00166975E-10
   49.0714989         3.11533854E-10
   49.2519989         3.20862253E-10
   49.4324989         3.28122834E-10
   49.6129990         3.33288314E-10
   49.7934990         3.36340511E-10
   49.9739990         3.37276124E-10
   50.1544991         3.36105366E-10
   50.3349991         3.32841865E-10
   50.5154991         3.27486011E-10
   50.6959991         3.20008853E-10
   50.8764992         3.10343168E-10
   51.0569992         2.98386427E-10
   51.2374992         2.84014867E-10
   51.4179993         2.67103839E-10
   51.5984993         2.47546456E-10
   51.7789993         2.25262961E-10
   51.9594994         2.00200218E-10
   52.1399994         1.72322781E-10
   52.3204994         1.41603479E-10
   52.5009995         1.08020960E-10
   52.6814995         7.15675158E-11
   52.8619995         3.22651766E-11
   53.0424995        -9.81672556E-12
   53.2229996        -5.45519567E-11
   53.4034996        -1.01761696E-10
   53.5839996        -1.51232846E-10
   53.7644997        -2.02745293E-10
   53.9449997        -2.56099586E-10
   54.1254997        -3.11135090E-10
   54.3059998        -3.67735620E-10
   54.4864998        -4.25819990E-10
   54.6669998        -4.85326168E-10
   54.8474998        -5.46189538E-10
   55.0279999        -6.08326667E-10
   55.2084999        -6.71623646E-10
   55.3889999        -7.35927486E-10
   55.5695000        -8.01044453E-10
   55.7500000        -8.66736294E-10
   55.9305000        -9.32720789E-10
   56.1110001        -9.98674587E-10
   56.2915001        -1.06424158E-09
   56.4720001        -1.12905241E-09
   56.6525002        -1.19274524E-09
   56.8330002        -1.25499611E-09
   57.0135002        -1.31553990E-09
   57.1940002        -1.37418232E-09
   57.3745003        -1.43079815E-09
   57.5550003        -1.48531543E-09
   57.7355003        -1.53769164E-09
   57.9160004        -1.58788716E-09
   58.0965004        -1.63584601E-09
   58.2770004        -1.68148739E-09
   58.4575005        -1.72469883E-09
   58.6380005        -1.76534309E-09
   58.8185005        -1.80326254E-09
   58.9990005        -1.83828441E-09
   59.1795006        -1.87023086E-09
   59.3600006        -1.89893212E-09
   59.5405006        -1.92424165E-09
   59.7210007        -1.94605354E-09
   59.9015007        -1.96431849E-09
   60.0820007        -1.97904737E-09
   60.2625008        -1.99030215E-09
   60.4430008        -1.99817829E-09
   60.6235008        -2.00277350E-09
   60.8040009        -2.00416173E-09
   60.9845009        -2.00237427E-09
   61.1650009        -1.99738959E-09
   61.3455009        -1.98913863E-09
   61.5260010        -1.97751904E-09
   61.7065010        -1.96241334E-09
   61.8870010        -1.94371030E-09
   62.0675011        -1.92131955E-09
   62.2480011        -1.89518468E-09
   62.4285011        -1.86529481E-09
   62.6090012        -1.83169058E-09
   62.7895012        -1.79446769E-09
   62.9700012        -1.75377302E-09
   63.1505013        -1.70979531E-09
   63.3310013        -1.66274206E-09
   63.5115013        -1.61281277E-09
   63.6920013        -1.56017144E-09
   63.8725014        -1.50492974E-09
   64.0530014        -1.44714285E-09
   64.2334976        -1.38682521E-09
   64.4140015        -1.32398348E-09
   64.5944977        -1.25865218E-09
   64.7750015        -1.19093002E-09
   64.9554977        -1.12100196E-09
   65.1360016        -1.04915088E-09
   65.3164978        -9.75755032E-10
   65.4970016        -9.01276387E-10
   65.6774979        -8.26245961E-10
   65.8580017        -7.51240348E-10
   66.0384979        -6.76856571E-10
   66.2190018        -6.03673667E-10
   66.3994980        -5.32215327E-10
   66.5800018        -4.62911737E-10
   66.7604980        -3.96071453E-10
   66.9410019        -3.31877414E-10
   67.1214981        -2.70404171E-10
   67.3020020        -2.11656956E-10
   67.4824982        -1.55622557E-10
   67.6630020        -1.02312860E-10
   67.8434982        -5.17938296E-11
   68.0240021        -4.18761510E-12
   68.2044983         4.03480825E-11
   68.3850021         8.16575349E-11
   68.5654984         1.19624199E-10
   68.7460022         1.54202692E-10
   68.9264984         1.85432794E-10
   69.1070023         2.13441029E-10
   69.2874985         2.38433412E-10
   69.4680023         2.60686583E-10
   69.6484985         2.80541562E-10
   69.8290024         2.98397584E-10
   70.0094986         3.14704762E-10
   70.1900024         3.29940353E-10
   70.3704987         3.44578810E-10
   70.5510025         3.59047292E-10
   70.7314987         3.73685721E-10
   70.9120026         3.88722637E-10
   71.0924988         4.04271450E-10
   71.2730026         4.20352197E-10
   71.4534988         4.36931852E-10
   71.6340027         4.53969806E-10
   71.8144989         4.71452266E-10
   71.9950027         4.89409735E-10
   72.1754990         5.07910436E-10
   72.3560028         5.27037414E-10
   72.5364990         5.46859003E-10
   72.7170029         5.67400793E-10
   72.8974991         5.88629590E-10
   73.0780029         6.10451079E-10
   73.2584991         6.32720765E-10
   73.4390030         6.55259957E-10
   73.6194992         6.77872314E-10
   73.8000031         7.00356106E-10
   73.9804993         7.22508831E-10
   74.1610031         7.44126705E-10
   74.3414993         7.65000896E-10
   74.5220032         7.84921572E-10
   74.7024994         8.03682898E-10
   74.8830032         8.21095192E-10
   75.0634995         8.37001912E-10
   75.2440033         8.51294424E-10
   75.4244995         8.63919825E-10
   75.6050034         8.74882222E-10
   75.7854996         8.84232410E-10
   75.9660034         8.92050545E-10
   76.1464996         8.98425168E-10
   76.3270035         9.03438102E-10
   76.5074997         9.07154907E-10
   76.6880035         9.09627373E-10
   76.8684998         9.10903741E-10
   77.0490036         9.11044518E-10
   77.2294998         9.10129361E-10
   77.4100037         9.08257192E-10
   77.5904999         9.05527042E-10
   77.7710037         9.02015518E-10
   77.9514999         8.97751262E-10
   78.1320038         8.92702356E-10
   78.3125000         8.86781371E-10
   78.4929962         8.79869511E-10
   78.6735001         8.71849870E-10
   78.8539963         8.62638683E-10
   79.0345001         8.52203419E-10
   79.2149963         8.40561953E-10
   79.3955002         8.27763691E-10
   79.5759964         8.13865308E-10
   79.7565002         7.98909994E-10
   79.9369965         7.82921616E-10
   80.1175003         7.65910890E-10
   80.2979965         7.47891749E-10
   80.4785004         7.28897720E-10
   80.6589966         7.08985926E-10
   80.8395004         6.88227586E-10
   81.0199966         6.66691036E-10
   81.2005005         6.44420406E-10
   81.3809967         6.21427632E-10
   81.5615005         5.97699612E-10
   81.7419968         5.73222692E-10
   81.9225006         5.48016799E-10
   82.1029968         5.22160370E-10
   82.2835007         4.95800012E-10
   82.4639969         4.69134565E-10
   82.6445007         4.42382325E-10
   82.8249969         4.15739276E-10
   83.0055008         3.89348026E-10
   83.1859970         3.63285707E-10
   83.3665009         3.37571970E-10
   83.5469971         3.12191356E-10
   83.7275009         2.87119384E-10
   83.9079971         2.62338706E-10
   84.0885010         2.37845660E-10
   84.2689972         2.13647600E-10
   84.4495010         1.89760291E-10
   84.6299973         1.66213335E-10
   84.8105011         1.43064255E-10
   84.9909973         1.20416996E-10
   85.1715012         9.84361065E-11
   85.3519974         7.73452621E-11
   85.5325012         5.74092891E-11
   85.7129974         3.88997307E-11
   85.8935013         2.20563550E-11
   86.0739975         7.05568329E-12
   86.2545013        -6.00269921E-12
   86.4349976        -1.70895225E-11
   86.6155014        -2.62232441E-11
   86.7959976        -3.34420235E-11
   86.9765015        -3.87799896E-11
   87.1569977        -4.22564622E-11
   87.3375015        -4.38793342E-11
   87.5179977        -4.36563528E-11
   87.6985016        -4.16070442E-11
   87.8789978        -3.77689581E-11
   88.0595016        -3.21968181E-11
   88.2399979        -2.49587209E-11
   88.4205017        -1.61368176E-11
   88.6009979        -5.83691212E-12
   88.7815018         5.79142507E-12
   88.9619980         1.85313466E-11
   89.1425018         3.20804147E-11
   89.3229980         4.60475338E-11
   89.5035019         5.99695987E-11
   89.6839981         7.33446845E-11
   89.8645020         8.56737181E-11
   90.0449982         9.65013555E-11
   90.2255020         1.05445319E-10
   90.4059982         1.12212045E-10
   90.5865021         1.16596607E-10
   90.7669983         1.18473981E-10
   90.9475021         1.17782520E-10
   91.1279984         1.14507057E-10
   91.3085022         1.08664182E-10
   91.4889984         1.00292497E-10
   91.6695023         8.94496074E-11
   91.8499985         7.62174837E-11
   92.0305023         6.07143918E-11
   92.2109985         4.31088637E-11
   92.3915024         2.36346637E-11
   92.5719986         2.59722452E-12
   92.7525024        -1.96288194E-11
   92.9329987        -4.26158275E-11
   93.1135025        -6.59089172E-11
   93.2939987        -8.90584204E-11
   93.4745026        -1.11653090E-10
   93.6549988        -1.33347694E-10
   93.8355026        -1.53880436E-10
   94.0159988        -1.73082396E-10
   94.1965027        -1.90873567E-10
   94.3769989        -2.07255740E-10
   94.5575027        -2.22295585E-10
   94.7379990        -2.36104275E-10
   94.9185028        -2.48808946E-10
   95.0989990        -2.60519772E-10
   95.2795029        -2.71294764E-10
   95.4599991        -2.81111634E-10
   95.6405029        -2.89856389E-10
   95.8209991        -2.97336100E-10
   96.0015030        -3.03318842E-10
   96.1819992        -3.07592229E-10
   96.3625031        -3.10025061E-10
   96.5429993        -3.10614617E-10
   96.7235031        -3.09506643E-10
   96.9039993        -3.06983022E-10
   97.0845032        -3.03424008E-10
   97.2649994        -2.99259478E-10
   97.4455032        -2.94925306E-10
   97.6259995        -2.90832192E-10
   97.8065033        -2.87352392E-10
   97.9869995        -2.84816254E-10
   98.1675034        -2.83509799E-10
   98.3479996        -2.83668228E-10
   98.5285034        -2.85464485E-10
   98.7089996        -2.88999685E-10
   98.8895035        -2.94303942E-10
   99.0699997        -3.01354136E-10
   99.2505035        -3.10108300E-10
   99.4309998        -3.20547255E-10
   99.6115036        -3.32709860E-10
   99.7919998        -3.46704609E-10
   99.9725037        -3.62693431E-10
   100.153000        -3.80848408E-10
   100.333504        -4.01293582E-10
   100.514000        -4.24052959E-10
   100.694504        -4.49018295E-10
   100.875000        -4.75944784E-10
   101.055496        -5.04473296E-10
   101.236000        -5.34163602E-10
   101.416496        -5.64530422E-10
   101.597000        -5.95070382E-10
   101.777496        -6.25277830E-10
   101.958000        -6.54663546E-10
   102.138496        -6.82772894E-10
   102.319000        -7.09215964E-10
   102.499496        -7.33697325E-10
   102.680000        -7.56036456E-10
   102.860497        -7.76164522E-10
   103.041000        -7.94090016E-10
   103.221497        -8.09842859E-10
   103.402000        -8.23408675E-10
   103.582497        -8.34676883E-10
   103.763000        -8.43420167E-10
   103.943497        -8.49315562E-10
   104.124001        -8.51997806E-10
   104.304497        -8.51132997E-10
   104.485001        -8.46489323E-10
   104.665497        -8.37986458E-10
   104.846001        -8.25714608E-10
   105.026497        -8.09927292E-10
   105.207001        -7.91009924E-10
   105.387497        -7.69439346E-10
   105.568001        -7.45742523E-10
   105.748497        -7.20456417E-10
   105.929001        -6.94088231E-10
   106.109497        -6.67072231E-10
   106.290001        -6.39731157E-10
   106.470497        -6.12239759E-10
   106.651001        -5.84610360E-10
   106.831497        -5.56705182E-10
   107.012001        -5.28281530E-10
   107.192497        -4.99063346E-10
   107.373001        -4.68820704E-10
   107.553497        -4.37441194E-10
   107.734001        -4.04969225E-10
   107.914497        -3.71610048E-10
   108.095001        -3.37695788E-10
   108.275497        -3.03629399E-10
   108.456001        -2.69816169E-10
   108.636497        -2.36610703E-10
   108.817001        -2.04276249E-10
   108.997498        -1.72968737E-10
   109.178001        -1.42741735E-10
   109.358498        -1.13567801E-10
   109.539001        -8.53710297E-11
   109.719498        -5.80645566E-11
   109.900002        -3.15908272E-11
   110.080498        -5.95584302E-12
   110.261002         1.87452068E-11
   110.441498         4.23209280E-11
   110.622002         6.44925155E-11
   110.802498         8.49267323E-11
   110.983002         1.03280655E-10
   111.163498         1.19255730E-10
   111.344002         1.32647893E-10
   111.524498         1.43382542E-10