  -34.5000000       0.00000000    
  -34.3199997       0.00000000    
  -34.1399994       0.00000000    
  -33.9599991       0.00000000    
  -33.7799988       3.46109933E-22
  -33.5999985       1.17632111E-20
  -33.4199982       9.42241436E-21
  -33.2400017      -1.86464721E-19
  -33.0600014      -7.50923452E-19
  -32.8800011      -7.96261842E-19
  -32.7000008       2.67885543E-18
  -32.5200005       1.09444532E-17
  -32.3400002       1.14715376E-17
  -32.1599998      -2.76363111E-17
  -31.9799995      -1.24146297E-16
  -31.7999992      -2.06668733E-16
  -31.6200008      -8.09693882E-17
  -31.4400005       4.41981448E-16
  -31.2600002       1.27294112E-15
  -31.0799999       1.85691412E-15
  -30.8999996       1.24695617E-15
  -30.7199993      -1.69489673E-15
  -30.5400009      -7.86280102E-15
  -30.3600006      -1.61055997E-14
  -30.1800003      -1.94050590E-14
  -30.0000000      -2.98641413E-15
  -29.8199997       4.65760514E-14
  -29.6399994       1.17390079E-13
  -29.4599991       1.50036694E-13
  -29.2800007       5.31193911E-14
  -29.1000004      -2.20497869E-13
  -28.9200001      -5.71018872E-13
  -28.7399998      -7.19461166E-13
  -28.5599995      -3.38462439E-13
  -28.3799992       6.69942834E-13
  -28.2000008       1.92161478E-12
  -28.0200005       2.56537651E-12
  -27.8400002       1.69226959E-12
  -27.6599998      -1.00305549E-12
  -27.4799995      -4.69758650E-12
  -27.2999992      -7.47114870E-12
  -27.1200008      -7.06139487E-12
  -26.9400005      -2.09960630E-12
  -26.7600002       6.75216957E-12
  -26.5799999       1.64096237E-11
  -26.3999996       2.21167130E-11
  -26.2199993       1.92637954E-11
  -26.0400009       5.68432454E-12
  -25.8600006      -1.65221864E-11
  -25.6800003      -4.06268248E-11
  -25.5000000      -5.69421003E-11
  -25.3199997      -5.62868953E-11
  -25.1399994      -3.40640571E-11
  -24.9599991       6.83124520E-12
  -24.7800007       5.58846441E-11
  -24.6000004       9.81829618E-11
  -24.4200001       1.19994029E-10
  -24.2399998       1.14373129E-10
  -24.0599995       8.40524178E-11
  -23.8799992       3.97732819E-11
  -23.7000008      -5.74773085E-12
  -23.5200005      -4.56406267E-11
  -23.3400002      -8.42945574E-11
  -23.1599998      -1.36385861E-10
  -22.9799995      -2.18023752E-10
  -22.7999992      -3.32560479E-10
  -22.6200008      -4.57440280E-10
  -22.4400005      -5.39902956E-10
  -22.2600002      -5.07046571E-10
  -22.0799999      -2.90087204E-10
  -21.8999996       1.44091891E-10
  -21.7199993       7.65721153E-10
  -21.5400009       1.47113799E-09
  -21.3600006       2.09523887E-09
  -21.1800003       2.44681808E-09
  -21.0000000       2.35822406E-09
  -20.8199997       1.73551662E-09
  -20.6399994       5.94602478E-10
  -20.4599991      -9.27347865E-10
  -20.2800007      -2.58899413E-09
  -20.1000004      -4.08670831E-09
  -19.9200001      -5.11179010E-09
  -19.7399998      -5.41102763E-09
  -19.5599995      -4.83929252E-09
  -19.3799992      -3.39537487E-09
  -19.2000008      -1.23510624E-09
  -19.0200005       1.34175937E-09
  -18.8400002       3.93195032E-09
  -18.6599998       6.09373085E-09
  -18.4799995       7.42860129E-09
  -18.2999992       7.66557573E-09
  -18.1200008       6.72944500E-09
  -17.9400005       4.77397499E-09
  -17.7600002       2.16638041E-09
  -17.5799999      -5.79785608E-10
  -17.3999996      -2.91213031E-09
  -17.2199993      -4.36286385E-09
  -17.0400009      -4.65607064E-09
  -16.8600006      -3.76845888E-09
  -16.6800003      -1.92548399E-09
  -16.5000000       4.65576966E-10
  -16.3199997       2.92378721E-09
  -16.1399994       5.00930097E-09
  -15.9600000       6.40999387E-09
  -15.7799997       6.97807323E-09
  -15.6000004       6.71478650E-09
  -15.4200001       5.72003289E-09
  -15.2399998       4.13365120E-09
  -15.0600004       2.09318052E-09
  -14.8800001      -2.78842255E-10
  -14.6999998      -2.86051738E-09
  -14.5200005      -5.50417578E-09
  -14.3400002      -8.01759370E-09
  -14.1599998      -1.01679039E-08
  -13.9799995      -1.17121655E-08
  -13.8000002      -1.24460593E-08
  -13.6199999      -1.22535670E-08
  -13.4399996      -1.11392628E-08
  -13.2600002      -9.23114563E-09
  -13.0799999      -6.75277612E-09
  -12.8999996      -3.97434929E-09
  -12.7200003      -1.15886833E-09
  -12.5400000       1.48048751E-09
  -12.3599997       3.80213194E-09
  -12.1800003       5.73709791E-09
  -12.0000000       7.27800753E-09
  -11.8199997       8.46761417E-09
  -11.6400003       9.39407752E-09
  -11.4600000       1.01904121E-08
  -11.2799997       1.10262706E-08
  -11.1000004       1.20781332E-08
  -10.9200001       1.34725129E-08
  -10.7399998       1.52131587E-08
  -10.5600004       1.71194277E-08
  -10.3800001       1.88089206E-08
  -10.1999998       1.97472758E-08
  -10.0200005       1.93639185E-08
  -9.84000015       1.72045542E-08
  -9.65999985       1.30720972E-08
  -9.47999954       7.10742132E-09
  -9.30000019      -2.19522858E-10
  -9.11999989      -8.20639379E-09
  -8.93999958      -1.60714357E-08
  -8.76000023      -2.31147208E-08
  -8.57999992      -2.88414377E-08
  -8.39999962      -3.30186438E-08
  -8.22000027      -3.56608112E-08
  -8.03999996      -3.69608983E-08
  -7.86000013      -3.71958429E-08
  -7.67999983      -3.66368624E-08
  -7.50000000      -3.54883340E-08
  -7.32000017      -3.38672059E-08
  -7.13999987      -3.18217097E-08
  -6.96000004      -2.93776541E-08
  -6.78000021      -2.65939750E-08
  -6.59999990      -2.36093776E-08
  -6.42000008      -2.06667714E-08
  -6.23999977      -1.81084054E-08
  -6.05999994      -1.63397189E-08
  -5.88000011      -1.57617634E-08
  -5.69999981      -1.66744361E-08
  -5.51999998      -1.91590921E-08
  -5.34000015      -2.29615971E-08
  -5.15999985      -2.74117724E-08
  -4.98000002      -3.14237631E-08
  -4.80000019      -3.36134107E-08
  -4.61999989      -3.25405018E-08
  -4.44000006      -2.70391656E-08
  -4.26000023      -1.65564114E-08
  -4.07999992      -1.39362266E-09
  -3.90000010       1.72439485E-08
  -3.72000003       3.74370011E-08
  -3.53999996       5.69555461E-08
  -3.35999990       7.37760075E-08
  -3.18000007       8.65664660E-08
  -3.00000000       9.49956913E-08
  -2.81999993       9.97721159E-08
  -2.64000010       1.02401110E-07
  -2.46000004       1.04733175E-07
  -2.27999997       1.08433468E-07
  -2.09999990       1.14516759E-07
  -1.91999996       1.23063415E-07
  -1.74000001       1.33174950E-07
  -1.55999994       1.43162652E-07
  -1.38000000       1.50910452E-07
  -1.20000005       1.54321640E-07
  -1.01999998       1.51751806E-07
 -0.839999974       1.42344092E-07
 -0.660000026       1.26206174E-07
 -0.479999989       1.04398808E-07
 -0.300000012       7.87360435E-08
 -0.119999997       5.14289695E-08
   5.99999987E-02   2.46346872E-08
  0.239999995      -1.03679402E-12
  0.419999987      -2.17078995E-08
  0.600000024      -4.07700043E-08
  0.779999971      -5.84648525E-08
  0.959999979      -7.67622268E-08
   1.13999999      -9.78461685E-08
   1.32000005      -1.23569791E-07
   1.50000000      -1.54972255E-07
   1.67999995      -1.91972106E-07
   1.86000001      -2.33308285E-07
   2.03999996      -2.76740849E-07
   2.22000003      -3.19466039E-07
   2.40000010      -3.58652670E-07
   2.57999992      -3.91981558E-07
   2.75999999      -4.18069703E-07
   2.94000006      -4.36687316E-07
   3.11999989      -4.48721096E-07
   3.29999995      -4.55894991E-07
   3.48000002      -4.60312094E-07
   3.66000009      -4.63920060E-07
   3.83999991      -4.68015713E-07
   4.01999998      -4.72893873E-07
   4.19999981      -4.77711694E-07
   4.38000011      -4.80595020E-07
   4.55999994      -4.78964296E-07
   4.73999977      -4.70012822E-07
   4.92000008      -4.51240197E-07
   5.09999990      -4.20930689E-07
   5.28000021      -3.78476557E-07
   5.46000004      -3.24477213E-07
   5.63999987      -2.60597346E-07
   5.82000017      -1.89221197E-07
   6.00000000      -1.12989575E-07
   6.17999983      -3.43318831E-08
   6.36000013       4.48985453E-08
   6.53999996       1.23610050E-07
   6.71999979       2.01450888E-07
   6.90000010       2.78606620E-07
   7.07999992       3.55480125E-07
   7.26000023       4.32343313E-07
   7.44000006       5.09047311E-07
   7.61999989       5.84860629E-07
   7.80000019       6.58473709E-07
   7.98000002       7.28165958E-07
   8.15999985       7.92090873E-07
   8.34000015       8.48604031E-07
   8.52000046       8.96542360E-07
   8.69999981       9.35376988E-07
   8.88000011       9.65196818E-07
   9.06000042       9.86535838E-07
   9.23999977       1.00010504E-06
   9.42000008       1.00651721E-06
   9.60000038       1.00608781E-06
   9.77999973       9.98752625E-07
   9.96000004       9.84089070E-07
   10.1400003       9.61391834E-07
   10.3199997       9.29739144E-07
   10.5000000       8.88016643E-07
   10.6800003       8.34908633E-07
   10.8599997       7.68903874E-07
   11.0400000       6.88370790E-07
   11.2200003       5.91730782E-07
   11.3999996       4.77710159E-07
   11.5799999       3.45600910E-07
   11.7600002       1.95447996E-07
   11.9399996       2.80849122E-08
   12.1199999      -1.54999725E-07
   12.3000002      -3.51936478E-07
   12.4799995      -5.60807734E-07
   12.6599998      -7.79947527E-07
   12.8400002      -1.00813531E-06
   13.0200005      -1.24465600E-06
   13.1999998      -1.48924164E-06
   13.3800001      -1.74193542E-06
   13.5600004      -2.00292834E-06
   13.7399998      -2.27239298E-06
   13.9200001      -2.55032705E-06
   14.1000004      -2.83641407E-06
   14.2799997      -3.12990505E-06
   14.4600000      -3.42955354E-06
   14.6400003      -3.73363150E-06
   14.8199997      -4.04006460E-06
   15.0000000      -4.34669982E-06
   15.1800003      -4.65168341E-06
   15.3599997      -4.95387849E-06
   15.5400000      -5.25323594E-06
   15.7200003      -5.55100905E-06
   15.8999996      -5.84974032E-06
   16.0799999      -6.15298495E-06
   16.2600002      -6.46481112E-06
   16.4400005      -6.78916149E-06
   16.6200008      -7.12920428E-06
   16.7999992      -7.48677485E-06
   16.9799995      -7.86201235E-06
   17.1599998      -8.25323332E-06
   17.3400002      -8.65707079E-06
   17.5200005      -9.06887090E-06
   17.7000008      -9.48331217E-06
   17.8799992      -9.89518958E-06
   18.0599995      -1.03002549E-05
   18.2399998      -1.06959651E-05
   18.4200001      -1.10819574E-05
   18.6000004      -1.14601116E-05
   18.7800007      -1.18341013E-05
   18.9599991      -1.22084757E-05
   19.1399994      -1.25874458E-05
   19.3199997      -1.29736700E-05
   19.5000000      -1.33673257E-05
   19.6800003      -1.37657580E-05
   19.8600006      -1.41637875E-05
   20.0400009      -1.45546383E-05
   20.2199993      -1.49312664E-05
   20.3999996      -1.52877583E-05
   20.5799999      -1.56204951E-05
   20.7600002      -1.59288102E-05
   20.9400005      -1.62150154E-05
   21.1200008      -1.64838202E-05
   21.2999992      -1.67412600E-05
   21.4799995      -1.69934010E-05
   21.6599998      -1.72450582E-05
   21.8400002      -1.74988218E-05
   22.0200005      -1.77545371E-05
   22.2000008      -1.80093703E-05
   22.3799992      -1.82584226E-05
   22.5599995      -1.84958080E-05
   22.7399998      -1.87159239E-05
   22.9200001      -1.89147322E-05
   23.1000004      -1.90907194E-05
   23.2800007      -1.92453499E-05
   23.4599991      -1.93828855E-05
   23.6399994      -1.95095981E-05
   23.8199997      -1.96325309E-05
   24.0000000      -1.97580812E-05
   24.1800003      -1.98907401E-05
   24.3600006      -2.00322356E-05
   24.5400009      -2.01812891E-05
   24.7199993      -2.03340169E-05
   24.8999996      -2.04848529E-05
   25.0799999      -2.06278291E-05
   25.2600002      -2.07579196E-05
   25.4400005      -2.08722267E-05
   25.6200008      -2.09707960E-05
   25.7999992      -2.10569233E-05
   25.9799995      -2.11369043E-05
   26.1599998      -2.12192699E-05
   26.3400002      -2.13135991E-05
   26.5200005      -2.14291194E-05
   26.7000008      -2.15733053E-05
   26.8799992      -2.17507441E-05
   27.0599995      -2.19624399E-05
   27.2399998      -2.22057406E-05
   27.4200001      -2.24748583E-05
   27.6000004      -2.27619366E-05
   27.7800007      -2.30584228E-05
   27.9599991      -2.33565097E-05
   28.1399994      -2.36503329E-05
   28.3199997      -2.39367564E-05
   28.5000000      -2.42155693E-05
   28.6800003      -2.44891544E-05
   28.8600006      -2.47616608E-05
   29.0400009      -2.50379271E-05
   29.2199993      -2.53223207E-05
   29.3999996      -2.56177191E-05
   29.5799999      -2.59248118E-05
   29.7600002      -2.62417889E-05
   29.9400005      -2.65644903E-05
   30.1200008      -2.68869280E-05
   30.2999992      -2.72021443E-05
   30.4799995      -2.75032544E-05
   30.6599998      -2.77845211E-05
   30.8400002      -2.80423301E-05
   31.0200005      -2.82758574E-05
   31.2000008      -2.84873349E-05
   31.3799992      -2.86818085E-05
   31.5599995      -2.88664014E-05
   31.7399998      -2.90491826E-05
   31.9200001      -2.92378190E-05
   32.0999985      -2.94382280E-05
   32.2799988      -2.96535363E-05
   32.4599991      -2.98835294E-05
   32.6399994      -3.01247437E-05
   32.8199997      -3.03712040E-05
   33.0000000      -3.06156908E-05
   33.1800003      -3.08512499E-05
   33.3600006      -3.10726391E-05
   33.5400009      -3.12774246E-05
   33.7200012      -3.14664685E-05
   33.9000015      -3.16437290E-05
   34.0800018      -3.18154234E-05
   34.2599983      -3.19887477E-05
   34.4399986      -3.21704101E-05
   34.6199989      -3.23652966E-05
   34.7999992      -3.25755027E-05
   34.9799995      -3.27999223E-05
   35.1599998      -3.30344374E-05
   35.3400002      -3.32726486E-05
   35.5200005      -3.35070108E-05
   35.7000008      -3.37301826E-05
   35.8800011      -3.39363105E-05
   36.0600014      -3.41220730E-05
   36.2400017      -3.42872518E-05
   36.4199982      -3.44347827E-05
   36.5999985      -3.45702538E-05
   36.7799988      -3.47009591E-05
   36.9599991      -3.48346693E-05
   37.1399994      -3.49784204E-05
   37.3199997      -3.51374583E-05
   37.5000000      -3.53145952E-05
   37.6800003      -3.55099801E-05
   37.8600006      -3.57212812E-05
   38.0400009      -3.59441838E-05
   38.2200012      -3.61730163E-05
   38.4000015      -3.64013977E-05
   38.5800018      -3.66227687E-05
   38.7599983      -3.68308647E-05
   38.9399986      -3.70200687E-05
   39.1199989      -3.71857059E-05
   39.2999992      -3.73242983E-05
   39.4799995      -3.74337033E-05
   39.6599998      -3.75131422E-05
   39.8400002      -3.75630225E-05
   40.0200005      -3.75846466E-05
   40.2000008      -3.75797244E-05
   40.3800011      -3.75499039E-05
   40.5600014      -3.74963383E-05
   40.7400017      -3.74193951E-05
   40.9199982      -3.73185394E-05
   41.0999985      -3.71923743E-05
   41.2799988      -3.70388880E-05
   41.4599991      -3.68558067E-05
   41.6399994      -3.66410895E-05
   41.8199997      -3.63934632E-05
   42.0000000      -3.61129642E-05
   42.1800003      -3.58013458E-05
   42.3600006      -3.54622316E-05
   42.5400009      -3.51009512E-05
   42.7200012      -3.47239838E-05
   42.9000015      -3.43381944E-05
   43.0800018      -3.39498765E-05
   43.2599983      -3.35639052E-05
   43.4399986      -3.31831216E-05
   43.6199989      -3.28081405E-05
   43.7999992      -3.24375505E-05
   43.9799995      -3.20685322E-05
   44.1599998      -3.16977930E-05
   44.3400002      -3.13226046E-05
   44.5200005      -3.09418174E-05
   44.7000008      -3.05566100E-05
   44.8800011      -3.01708151E-05
   45.0600014      -2.97907518E-05
   45.2400017      -2.94245001E-05
   45.4199982      -2.90807893E-05
   45.5999985      -2.87676648E-05
   45.7799988      -2.84912421E-05
   45.9599991      -2.82547426E-05
   46.1399994      -2.80580407E-05
   46.3199997      -2.78977459E-05
   46.5000000      -2.77677882E-05
   46.6800003      -2.76603751E-05
   46.8600006      -2.75671082E-05
   47.0400009      -2.74800859E-05
   47.2200012      -2.73927908E-05
   47.4000015      -2.73006826E-05
   47.5800018      -2.72014222E-05
   47.7599983      -2.70947567E-05
   47.9399986      -2.69821467E-05
   48.1199989      -2.68662097E-05
   48.2999992      -2.67501000E-05
   48.4799995      -2.66368661E-05
   48.6599998      -2.65288400E-05
   48.8400002      -2.64271275E-05
   49.0200005      -2.63313013E-05
   49.2000008      -2.62393260E-05
   49.3800011      -2.61478181E-05
   49.5600014      -2.60526140E-05
   49.7400017      -2.59495573E-05
   49.9199982      -2.58353430E-05
   50.0999985      -2.57082556E-05
   50.2799988      -2.55685791E-05
   50.4599991      -2.54186598E-05
   50.6399994      -2.52625941E-05
   50.8199997      -2.51056263E-05
   51.0000000      -2.49534278E-05
   51.1800003      -2.48112956E-05
   51.3600006      -2.46834516E-05
   51.5400009      -2.45724241E-05
   51.7200012      -2.44786079E-05
   51.9000015      -2.44000566E-05
   52.0800018      -2.43325412E-05
   52.2599983      -2.42699552E-05
   52.4399986      -2.42049955E-05
   52.6199989      -2.41301022E-05
   52.7999992      -2.40384452E-05
   52.9799995      -2.39248056E-05
   53.1599998      -2.37861568E-05
   53.3400002      -2.36217948E-05
   53.5200005      -2.34329909E-05
   53.7000008      -2.32222137E-05
   53.8800011      -2.29920497E-05
   54.0600014      -2.27440669E-05
   54.2400017      -2.24778032E-05
   54.4199982      -2.21901664E-05
   54.5999985      -2.18753612E-05
   54.7799988      -2.15254331E-05
   54.9599991      -2.11313800E-05
   55.1399994      -2.06846526E-05
   55.3199997      -2.01788152E-05
   55.5000000      -1.96110177E-05
   55.6800003      -1.89830153E-05
   55.8600006      -1.83014563E-05
   56.0400009      -1.75773530E-05
   56.2200012      -1.68247207E-05
   56.4000015      -1.60586260E-05
   56.5800018      -1.52929351E-05
   56.7599983      -1.45381800E-05
   56.9399986      -1.37999614E-05
   57.1199989      -1.30782173E-05
   57.2999992      -1.23675063E-05
   57.4799995      -1.16583087E-05
   57.6599998      -1.09390739E-05
   57.8400002      -1.01986361E-05
   58.0200005      -9.42851966E-06
   58.2000008      -8.62467732E-06
   58.3800011      -7.78827871E-06
   58.5600014      -6.92543881E-06
   58.7400017      -6.04597108E-06
   58.9199982      -5.16146065E-06
   59.0999985      -4.28312433E-06
   59.2799988      -3.41995337E-06
   59.4599991      -2.57755823E-06
   59.6399994      -1.75789978E-06
   59.8199997      -9.59887643E-07
   60.0000000      -1.80604033E-07
   60.1800003       5.83218082E-07
   60.3600006       1.33381491E-06
   60.5400009       2.07142057E-06
   60.7200012       2.79383380E-06
   60.9000015       3.49650077E-06
   61.0800018       4.17306501E-06
   61.2599983       4.81623238E-06
   61.4399986       5.41880627E-06
   61.6199989       5.97475491E-06
   61.7999992       6.48017885E-06
   61.9799995       6.93403445E-06
   62.1599998       7.33848856E-06
   62.3400002       7.69885992E-06
   62.5200005       8.02315208E-06
   62.7000008       8.32123715E-06
   62.8800011       8.60390628E-06
   63.0600014       8.88192699E-06
   63.2400017       9.16530189E-06
   63.4199982       9.46282853E-06
   63.5999985       9.78200933E-06
   63.7799988       1.01292153E-05
   63.9599991       1.05100189E-05
   64.1399994       1.09295188E-05
   64.3199997       1.13925489E-05
   64.5000000       1.19036531E-05
   64.6800003       1.24668431E-05
   64.8600006       1.30852131E-05
   65.0400009       1.37604757E-05
   65.2200012       1.44925561E-05
   65.4000015       1.52792800E-05
   65.5800018       1.61162152E-05
   65.7600021       1.69966061E-05
   65.9400024       1.79114450E-05
   66.1200027       1.88496124E-05
   66.3000031       1.97982135E-05
   66.4800034       2.07430912E-05
   66.6600037       2.16695971E-05
   66.8399963       2.25635122E-05
   67.0199966       2.34119798E-05
   67.1999969       2.42042661E-05
   67.3799973       2.49321602E-05
   67.5599976       2.55900013E-05
   67.7399979       2.61743608E-05
   67.9199982       2.66835668E-05
   68.0999985       2.71172357E-05
   68.2799988       2.74759423E-05
   68.4599991       2.77610998E-05
   68.6399994       2.79749456E-05
   68.8199997       2.81205794E-05
   69.0000000       2.82019992E-05
   69.1800003       2.82241108E-05
   69.3600006       2.81926405E-05
   69.5400009       2.81140128E-05
   69.7200012       2.79951710E-05
   69.9000015       2.78432526E-05
   70.0800018       2.76651790E-05
   70.2600021       2.74671402E-05
   70.4400024       2.72541038E-05
   70.6200027       2.70294531E-05
   70.8000031       2.67948944E-05
   70.9800034       2.65507333E-05
   71.1600037       2.62964641E-05
   71.3399963       2.60315774E-05
   71.5199966       2.57564479E-05
   71.6999969       2.54730003E-05
   71.8799973       2.51850543E-05
   72.0599976       2.48982233E-05
   72.2399979       2.46193886E-05
   72.4199982       2.43558443E-05
   72.5999985       2.41143589E-05
   72.7799988       2.39003311E-05
   72.9599991       2.37172499E-05
   73.1399994       2.35665320E-05
   73.3199997       2.34477338E-05
   73.5000000       2.33590199E-05
   73.6800003       2.32977254E-05
   73.8600006       2.32608745E-05
   74.0400009       2.32454840E-05
   74.2200012       2.32487273E-05
   74.4000015       2.32678794E-05
   74.5800018       2.33002120E-05
   74.7600021       2.33428582E-05
   74.9400024       2.33927985E-05
   75.1200027       2.34469189E-05
   75.3000031       2.35022562E-05
   75.4800034       2.35563057E-05
   75.6600037       2.36073865E-05
   75.8399963       2.36549458E-05
   76.0199966       2.36996893E-05
   76.1999969       2.37434579E-05
   76.3799973       2.37888962E-05
   76.5599976       2.38388511E-05
   76.7399979       2.38957509E-05
   76.9199982       2.39610545E-05
   77.0999985       2.40349109E-05
   77.2799988       2.41161524E-05
   77.4599991       2.42025235E-05
   77.6399994       2.42911410E-05
   77.8199997       2.43789655E-05
   78.0000000       2.44631519E-05
   78.1800003       2.45412448E-05
   78.3600006       2.46111085E-05
   78.5400009       2.46707623E-05
   78.7200012       2.47181415E-05
   78.9000015       2.47509706E-05
   79.0800018       2.47667958E-05
   79.2600021       2.47631287E-05
   79.4400024       2.47376793E-05
   79.6200027       2.46885083E-05
   79.8000031       2.46140607E-05
   79.9800034       2.45130122E-05
   80.1600037       2.43840441E-05
   80.3399963       2.42256774E-05
   80.5199966       2.40362388E-05
   80.6999969       2.38140747E-05
   80.8799973       2.35579500E-05
   81.0599976       2.32675138E-05
   81.2399979       2.29436973E-05
   81.4199982       2.25888816E-05
   81.5999985       2.22067374E-05
   81.7799988       2.18017740E-05
   81.9599991       2.13786061E-05
   82.1399994       2.09411428E-05
   82.3199997       2.04917797E-05
   82.5000000       2.00308259E-05
   82.6800003       1.95562516E-05
   82.8600006       1.90639003E-05
   83.0400009       1.85481567E-05
   83.2200012       1.80029747E-05
   83.4000015       1.74231409E-05
   83.5800018       1.68054976E-05
   83.7600021       1.61499247E-05
   83.9400024       1.54598583E-05
   84.1200027       1.47422425E-05
   84.3000031       1.40069187E-05
   84.4800034       1.32654795E-05
   84.6600037       1.25298475E-05
   84.8399963       1.18107446E-05
   85.0199966       1.11163890E-05
   85.1999969       1.04516321E-05
   85.3799973       9.81773428E-06
   85.5599976       9.21284845E-06
   85.7399979       8.63309924E-06
   85.9199982       8.07404194E-06
   86.0999985       7.53217682E-06
   86.2799988       7.00620740E-06
   86.4599991       6.49780350E-06
   86.6399994       6.01175998E-06
   86.8199997       5.55556289E-06
   87.0000000       5.13852274E-06
   87.1800003       4.77060803E-06
   87.3600006       4.46115246E-06
   87.5400009       4.21756204E-06
   87.7200012       4.04411639E-06
   87.9000015       3.94102153E-06
   88.0800018       3.90384321E-06
   88.2600021       3.92349921E-06
   88.4400024       3.98690599E-06
   88.6200027       4.07827110E-06
   88.8000031       4.18088393E-06
   88.9800034       4.27909299E-06
   89.1600037       4.36013033E-06
   89.3399963       4.41544034E-06
   89.5199966       4.44125681E-06
   89.6999969       4.43837871E-06
   89.8799973       4.41120164E-06
   90.0599976       4.36623895E-06
   90.2399979       4.31041917E-06
   90.4199982       4.24948576E-06
   90.5999985       4.18677791E-06
   90.7799988       4.12260488E-06
   90.9599991       4.05428636E-06
   91.1399994       3.97682834E-06
   91.3199997       3.88408489E-06
   91.5000000       3.77016136E-06
   91.6800003       3.63077152E-06
   91.8600006       3.46429874E-06
   92.0400009       3.27234466E-06
   92.2200012       3.05965045E-06
   92.4000015       2.83337704E-06
   92.5800018       2.60186130E-06
   92.7600021       2.37302493E-06
   92.9400024       2.15272576E-06
   93.1200027       1.94334893E-06
   93.3000031       1.74291870E-06
   93.4800034       1.54495081E-06
   93.6600037       1.33912170E-06
   93.8399963       1.11268730E-06
   94.0199966       8.52419362E-07
   94.1999969       5.46728529E-07
   94.3799973       1.87596541E-07
   94.5599976      -2.28031382E-07
   94.7399979      -6.97627286E-07
   94.9199982      -1.21333767E-06
   95.0999985      -1.76305525E-06
   95.2799988      -2.33212836E-06
   95.4599991      -2.90541993E-06
   95.6399994      -3.46938828E-06
   95.8199997      -4.01385250E-06
   96.0000000      -4.53315670E-06
   96.1800003      -5.02653029E-06
   96.3600006      -5.49757124E-06
   96.5400009      -5.95292749E-06
   96.7200012      -6.40038343E-06
   96.9000015      -6.84665292E-06
   97.0800018      -7.29528210E-06
   97.2600021      -7.74500404E-06
   97.4400024      -8.18889293E-06
   97.6200027      -8.61451372E-06
   97.8000031      -9.00513442E-06
   97.9800034      -9.34186664E-06
   98.1600037      -9.60644866E-06
   98.3399963      -9.78421031E-06
   98.5199966      -9.86672330E-06
   98.6999969      -9.85360384E-06
   98.8799973      -9.75308558E-06
   99.0599976      -9.58117744E-06
   99.2399979      -9.35947719E-06
   99.4199982      -9.11198913E-06
   99.5999985      -8.86151884E-06
   99.7799988      -8.62634352E-06
   99.9599991      -8.41780184E-06
   100.139999      -8.23928895E-06
   100.320000      -8.08684763E-06
   100.500000      -7.95120468E-06
   100.680000      -7.82083316E-06
   100.860001      -7.68536302E-06
   101.040001      -7.53865561E-06
   101.220001      -7.38090966E-06
   101.400002      -7.21940251E-06
   101.580002      -7.06770652E-06
   101.760002      -6.94357141E-06
   101.940002      -6.86587055E-06
   102.120003      -6.85119767E-06
   102.300003      -6.91077048E-06
   102.480003      -7.04821423E-06
   102.660004      -7.25864766E-06
   102.839996      -7.52922551E-06
   103.019997      -7.84102394E-06
   103.199997      -8.17185264E-06
   103.379997      -8.49944536E-06
   103.559998      -8.80442349E-06
   103.739998      -9.07248523E-06
   103.919998      -9.29549788E-06
   104.099998      -9.47137505E-06
   104.279999      -9.60291527E-06
   104.459999      -9.69592656E-06
   104.639999      -9.75708463E-06
   104.820000      -9.79197375E-06
   105.000000      -9.80366167E-06
   105.180000      -9.79199467E-06
   105.360001      -9.75362218E-06
   105.540001      -9.68264249E-06
   105.720001      -9.57167231E-06
   105.900002      -9.41308190E-06
   106.080002      -9.20022012E-06
   106.260002      -8.92843309E-06
   106.440002      -8.59575266E-06
   106.620003      -8.20318110E-06
   106.800003      -7.75449189E-06
   106.980003      -7.25561449E-06
   107.160004      -6.71367252E-06
   107.339996      -6.13584461E-06
   107.519997      -5.52825441E-06
   107.699997      -4.89508648E-06
   107.879997      -4.23809206E-06
   108.059998      -3.55656357E-06
   108.239998      -2.84775433E-06
   108.419998      -2.10768030E-06
   108.599998      -1.33212222E-06
   108.779999      -5.17659089E-07
   108.959999       3.37426002E-07
   109.139999       1.23252153E-06
   109.320000       2.16437002E-06
   109.500000       3.12708630E-06
   109.680000       4.11245173E-06
   109.860001       5.11045073E-06
   110.040001       6.10997859E-06
   110.220001       7.09970436E-06
   110.400002       8.06906883E-06
   110.580002       9.00935083E-06
   110.760002       9.91467277E-06
   110.940002       1.07827764E-05
   111.120003       1.16153396E-05
   111.300003       1.24176759E-05
   111.480003       1.31977577E-05
   111.660004       1.39646645E-05
   111.839996       1.47267820E-05
   112.019997       1.54901209E-05
   112.199997       1.62571869E-05
   112.379997       1.70266831E-05
   112.559998       1.77941656E-05
   112.739998       1.85534482E-05
   112.919998       1.92985262E-05
   113.099998       2.00254872E-05
   113.279999       2.07340418E-05
   113.459999       2.14283245E-05
   113.639999       2.21168630E-05
   113.820000       2.28117169E-05
   114.000000       2.35270345E-05
   114.180000       2.42772749E-05
   114.360001       2.50753783E-05
   114.540001       2.59311655E-05
   114.720001       2.68501408E-05
   114.900002       2.78328625E-05
   115.080002       2.88750180E-05
   115.260002       2.99682051E-05
   115.440002       3.11013828E-05
   115.620003       3.22627566E-05
   115.800003       3.34417491E-05
   115.980003       3.46305824E-05
   116.160004       3.58250945E-05
   116.339996       3.70245543E-05
   116.519997       3.82305079E-05
   116.699997       3.94449889E-05
   116.879997       4.06685904E-05
   117.059998       4.18989512E-05
   117.239998       4.31299813E-05
   117.419998       4.43520839E-05
   117.599998       4.55532208E-05
   117.779999       4.67204918E-05
   117.959999       4.78419206E-05
   118.139999       4.89080303E-05
   118.320000       4.99129710E-05
   118.500000       5.08550329E-05
   118.680000       5.17365334E-05
   118.860001       5.25631112E-05
   119.040001       5.33425518E-05
   119.220001       5.40832843E-05
   119.400002       5.47928394E-05
   119.580002       5.54764883E-05