  -34.5000000         0.00000000    
  -34.3199997         0.00000000    
  -34.1399994         0.00000000    
  -33.9599991        -3.47977476E-21
  -33.7799988        -2.28741337E-20
  -33.5999985        -8.52857656E-20
  -33.4199982        -2.37071747E-19
  -33.2400017        -5.45012555E-19
  -33.0600014        -1.08839205E-18
  -32.8800011        -1.93253938E-18
  -32.7000008        -3.07536032E-18
  -32.5200005        -4.36907990E-18
  -32.3400002        -5.43990739E-18
  -32.1599998        -5.65085995E-18
  -31.9799995        -4.16368641E-18
  -31.7999992        -1.41173364E-19
  -31.6200008         6.91353627E-18
  -31.4400005         1.67484817E-17
  -31.2600002         2.80136394E-17
  -31.0799999         3.81259356E-17
  -30.8999996         4.34741083E-17
  -30.7199993         4.00003137E-17
  -30.5400009         2.40687340E-17
  -30.3600006        -6.59062440E-18
  -30.1800003        -5.21418494E-17
  -30.0000000        -1.10360353E-16
  -29.8199997        -1.76934118E-16
  -29.6399994        -2.46279541E-16
  -29.4599991        -3.12603121E-16
  -29.2800007        -3.70815566E-16
  -29.1000004        -4.16919543E-16
  -28.9200001        -4.47656489E-16
  -28.7399998        -4.59478740E-16
  -28.5599995        -4.47202797E-16
  -28.3799992        -4.02907024E-16
  -28.2000008        -3.15652069E-16
  -28.0200005        -1.72420174E-16
  -27.8400002         3.96892673E-17
  -27.6599998         3.30382686E-16
  -27.4799995         7.02927761E-16
  -27.2999992         1.15159275E-15
  -27.1200008         1.66049840E-15
  -26.9400005         2.20423109E-15
  -26.7600002         2.75005658E-15
  -26.5799999         3.26110056E-15
  -26.3999996         3.69960020E-15
  -26.2199993         4.02939206E-15
  -26.0400009         4.21713903E-15
  -25.8600006         4.23225010E-15
  -25.6800003         4.04586939E-15
  -25.5000000         3.62952559E-15
  -25.3199997         2.95412841E-15
  -25.1399994         1.98993937E-15
  -24.9599991         7.08121344E-16
  -24.7800007        -9.15756648E-16
  -24.6000004        -2.89625383E-15
  -24.4200001        -5.23124626E-15
  -24.2399998        -7.89525255E-15
  -24.0599995        -1.08348897E-14
  -23.8799992        -1.39685457E-14
  -23.7000008        -1.71914434E-14
  -23.5200005        -2.03856216E-14
  -23.3400002        -2.34322093E-14
  -23.1599998        -2.62217497E-14
  -22.9799995        -2.86579198E-14
  -22.7999992        -3.06516660E-14
  -22.6200008        -3.21061842E-14
  -22.4400005        -3.28978008E-14
  -22.2600002        -3.28613886E-14
  -22.0799999        -3.17899190E-14
  -21.8999996        -2.94543815E-14
  -21.7199993        -2.56431771E-14
  -21.5400009        -2.02109549E-14
  -21.3600006        -1.31203989E-14
  -21.1800003        -4.45945059E-15
  -21.0000000         5.57650112E-15
  -20.8199997         1.67347503E-14
  -20.6399994         2.87707954E-14
  -20.4599991         4.15029542E-14
  -20.2800007         5.48312142E-14
  -20.1000004         6.87078094E-14
  -19.9200001         8.30672946E-14
  -19.7399998         9.77423166E-14
  -19.5599995         1.12400879E-13
  -19.3799992         1.26534783E-13
  -19.2000008         1.39508807E-13
  -19.0200005         1.50653388E-13
  -18.8400002         1.59362988E-13
  -18.6599998         1.65156924E-13
  -18.4799995         1.67674305E-13
  -18.2999992         1.66606461E-13
  -18.1200008         1.61602814E-13
  -17.9400005         1.52205830E-13
  -17.7600002         1.37865725E-13
  -17.5799999         1.18052988E-13
  -17.3999996         9.24407713E-14
  -17.2199993         6.10874063E-14
  -17.0400009         2.45345583E-14
  -16.8600006        -1.62410995E-14
  -16.6800003        -6.00307971E-14
  -16.5000000        -1.05691816E-13
  -16.3199997        -1.52432456E-13
  -16.1399994        -1.99965139E-13
  -15.9600000        -2.48449996E-13
  -15.7799997        -2.98227507E-13
  -15.6000004        -3.49426244E-13
  -15.4200001        -4.01584473E-13
  -15.2399998        -4.53432512E-13
  -15.0600004        -5.02925284E-13
  -14.8800001        -5.47520579E-13
  -14.6999998        -5.84606799E-13
  -14.5200005        -6.11921212E-13
  -14.3400002        -6.27811876E-13
  -14.1599998        -6.31253079E-13
  -13.9799995        -6.21630839E-13
  -13.8000002        -5.98405494E-13
  -13.6199999        -5.60808507E-13
  -13.4399996        -5.07716265E-13
  -13.2600002        -4.37775196E-13
  -13.0799999        -3.49754730E-13
  -12.8999996        -2.43022779E-13
  -12.7200003        -1.17997761E-13
  -12.5400000         2.35487729E-14
  -12.3599997         1.78410075E-13
  -12.1800003         3.42080693E-13
  -12.0000000         5.09056556E-13
  -11.8199997         6.73231544E-13
  -11.6400003         8.28341735E-13
  -11.4600000         9.68440497E-13
  -11.2799997         1.08841159E-12
  -11.1000004         1.18450464E-12
  -10.9200001         1.25483890E-12
  -10.7399998         1.29974514E-12
  -10.5600004         1.32180432E-12
  -10.3800001         1.32543987E-12
  -10.1999998         1.31602747E-12
  -10.0200005         1.29862625E-12
  -9.84000015         1.27657889E-12
  -9.65999985         1.25033566E-12
  -9.47999954         1.21685821E-12
  -9.30000019         1.16985339E-12
  -9.11999989         1.10088577E-12
  -8.93999958         1.00119067E-12
  -8.76000023         8.63794767E-13
  -8.57999992         6.85454785E-13
  -8.39999962         4.67951903E-13
  -8.22000027         2.18429441E-13
  -8.03999996        -5.13165390E-14
  -7.86000013        -3.26423784E-13
  -7.67999983        -5.91088756E-13
  -7.50000000        -8.30796423E-13
  -7.32000017        -1.03425363E-12
  -7.13999987        -1.19474233E-12
  -6.96000004        -1.31075944E-12
  -6.78000021        -1.38597369E-12
  -6.59999990        -1.42861688E-12
  -6.42000008        -1.45047147E-12
  -6.23999977        -1.46559858E-12
  -6.05999994        -1.48891966E-12
  -5.88000011        -1.53473317E-12
  -5.69999981        -1.61523735E-12
  -5.51999998        -1.73916350E-12
  -5.34000015        -1.91064525E-12
  -5.15999985        -2.12846559E-12
  -4.98000002        -2.38577907E-12
  -4.80000019        -2.67036632E-12
  -4.61999989        -2.96534498E-12
  -4.44000006        -3.25022171E-12
  -4.26000023        -3.50211461E-12
  -4.07999992        -3.69698933E-12
  -3.90000010        -3.81085961E-12
  -3.72000003        -3.82096958E-12
  -3.53999996        -3.70704682E-12
  -3.35999990        -3.45272205E-12
  -3.18000007        -3.04712484E-12
  -3.00000000        -2.48653463E-12
  -2.81999993        -1.77583209E-12
  -2.64000010        -9.29365959E-13
  -2.46000004         2.90907740E-14
  -2.27999997         1.06757214E-12
  -2.09999990         2.14835354E-12
  -1.91999996         3.23136158E-12
  -1.74000001         4.27807095E-12
  -1.55999994         5.25522985E-12
  -1.38000000         6.13773225E-12
  -1.20000005         6.91007234E-12
  -1.01999998         7.56604501E-12
 -0.839999974         8.10674965E-12
 -0.660000026         8.53728806E-12
 -0.479999989         8.86284796E-12
 -0.300000012         9.08506170E-12
 -0.119999997         9.19951788E-12
   5.99999987E-02     9.19509868E-12
  0.239999995         9.05541614E-12
  0.419999987         8.76216200E-12
  0.600000024         8.29967779E-12
  0.779999971         7.65967584E-12
  0.959999979         6.84501110E-12
   1.13999999         5.87143962E-12
   1.32000005         4.76695723E-12
   1.50000000         3.56872778E-12
   1.67999995         2.31838832E-12
   1.86000001         1.05684157E-12
   2.03999996        -1.80218931E-13
   2.22000003        -1.36510551E-12
   2.40000010        -2.47881229E-12
   2.57999992        -3.50981614E-12
   2.75999999        -4.45177489E-12
   2.94000006        -5.30112933E-12
   3.11999989        -6.05556013E-12
   3.29999995        -6.71382611E-12
   3.48000002        -7.27684666E-12
   3.66000009        -7.74958396E-12
   3.83999991        -8.14265929E-12
   4.01999998        -8.47292722E-12
   4.19999981        -8.76241527E-12
   4.38000011        -9.03551799E-12
   4.55999994        -9.31507562E-12
   4.73999977        -9.61808931E-12
   4.92000008        -9.95218838E-12
   5.09999990        -1.03136883E-11
   5.28000021        -1.06876279E-11
   5.46000004        -1.10498668E-11
   5.63999987        -1.13706735E-11
   5.82000017        -1.16190486E-11
   6.00000000        -1.17669416E-11
   6.17999983        -1.17925314E-11
   6.36000013        -1.16820763E-11
   6.53999996        -1.14301494E-11
   6.71999979        -1.10383543E-11
   6.90000010        -1.05130470E-11
   7.07999992        -9.86258211E-12
   7.26000023        -9.09490712E-12
   7.44000006        -8.21596263E-12
   7.61999989        -7.22931827E-12
   7.80000019        -6.13712553E-12
   7.98000002        -4.94197912E-12
   8.15999985        -3.64918859E-12
   8.34000015        -2.26870259E-12
   8.52000046        -8.16032734E-13
   8.69999981         6.88232132E-13
   8.88000011         2.22044171E-12
   9.06000042         3.75690538E-12
   9.23999977         5.27732545E-12
   9.42000008         6.76763376E-12
   9.60000038         8.22142875E-12
   9.77999973         9.63955304E-12
   9.96000004         1.10277386E-11
   10.1400003         1.23928749E-11
   10.3199997         1.37389457E-11
   10.5000000         1.50636864E-11
   10.6800003         1.63570216E-11
   10.8599997         1.76019060E-11
   11.0400000         1.87774848E-11
   11.2200003         1.98638866E-11
   11.3999996         2.08475147E-11
   11.5799999         2.17252535E-11
   11.7600002         2.25065435E-11
   11.9399996         2.32125603E-11
   12.1199999         2.38725081E-11
   12.3000002         2.45179311E-11
   12.4799995         2.51763419E-11
   12.6599998         2.58659066E-11
   12.8400002         2.65925840E-11
   13.0200005         2.73505593E-11
   13.1999998         2.81262392E-11
   13.3800001         2.89047258E-11
   13.5600004         2.96776007E-11
   13.7399998         3.04502881E-11
   13.9200001         3.12470605E-11
   14.1000004         3.21126320E-11
   14.2799997         3.31098031E-11
   14.4600000         3.43133577E-11
   14.6400003         3.58009525E-11
   14.8199997         3.76430137E-11
   15.0000000         3.98929639E-11
   15.1800003         4.25794781E-11
   15.3599997         4.57023655E-11
   15.5400000         4.92324966E-11
   15.7200003         5.31158000E-11
   15.8999996         5.72804443E-11
   16.0799999         6.16459522E-11
   16.2600002         6.61324537E-11
   16.4400005         7.06683184E-11
   16.6200008         7.51950308E-11
   16.7999992         7.96686606E-11
   16.9799995         8.40581840E-11
   17.1599998         8.83417992E-11
   17.3400002         9.25022489E-11
   17.5200005         9.65233032E-11
   17.7000008         1.00388378E-10
   17.8799992         1.04081604E-10
   18.0599995         1.07591720E-10
   18.2399998         1.10916866E-10
   18.4200001         1.14068942E-10
   18.6000004         1.17076279E-10
   18.7800007         1.19982857E-10
   18.9599991         1.22843985E-10
   19.1399994         1.25719601E-10
   19.3199997         1.28666036E-10
   19.5000000         1.31728919E-10
   19.6800003         1.34938657E-10
   19.8600006         1.38309669E-10
   20.0400009         1.41844300E-10
   20.2199993         1.45538748E-10
   20.3999996         1.49390750E-10
   20.5799999         1.53405649E-10
   20.7600002         1.57599711E-10
   20.9400005         1.61998817E-10
   21.1200008         1.66633915E-10
   21.2999992         1.71534772E-10
   21.4799995         1.76723344E-10
   21.6599998         1.82210719E-10
   21.8400002         1.87998325E-10
   22.0200005         1.94083555E-10
   22.2000008         2.00469544E-10
   22.3799992         2.07173806E-10
   22.5599995         2.14236157E-10
   22.7399998         2.21718685E-10
   22.9200001         2.29699232E-10
   23.1000004         2.38257664E-10
   23.2800007         2.47457721E-10
   23.4599991         2.57328464E-10
   23.6399994         2.67850020E-10
   23.8199997         2.78948614E-10
   24.0000000         2.90501373E-10
   24.1800003         3.02351449E-10
   24.3600006         3.14329618E-10
   24.5400009         3.26277616E-10
   24.7199993         3.38066825E-10
   24.8999996         3.49608120E-10
   25.0799999         3.60850017E-10
   25.2600002         3.71766451E-10
   25.4400005         3.82335941E-10
   25.6200008         3.92520350E-10
   25.7999992         4.02245709E-10
   25.9799995         4.11392559E-10
   26.1599998         4.19795976E-10
   26.3400002         4.27255731E-10
   26.5200005         4.33552749E-10
   26.7000008         4.38467818E-10
   26.8799992         4.41796433E-10
   27.0599995         4.43359433E-10
   27.2399998         4.43003384E-10
   27.4200001         4.40598752E-10
   27.6000004         4.36032238E-10
   27.7800007         4.29201258E-10
   27.9599991         4.20012469E-10
   28.1399994         4.08384743E-10
   28.3199997         3.94258376E-10
   28.5000000         3.77606113E-10
   28.6800003         3.58445801E-10
   28.8600006         3.36848410E-10
   29.0400009         3.12942200E-10
   29.2199993         2.86910495E-10
   29.3999996         2.58983807E-10
   29.5799999         2.29428393E-10
   29.7600002         1.98533870E-10
   29.9400005         1.66602065E-10
   30.1200008         1.33937930E-10
   30.2999992         1.00844458E-10
   30.4799995         6.76202358E-11
   30.6599998         3.45590674E-11
   30.8400002         1.94852099E-12
   31.0200005        -2.99330144E-11
   31.2000008        -6.08229161E-11
   31.3799992        -9.04837594E-11
   31.5599995        -1.18714982E-10
   31.7399998        -1.45364720E-10
   31.9200001        -1.70338924E-10
   32.0999985        -1.93605257E-10
   32.2799988        -2.15191906E-10
   32.4599991        -2.35177544E-10
   32.6399994        -2.53678467E-10
   32.8199997        -2.70830747E-10
   33.0000000        -2.86773993E-10
   33.1800003        -3.01637298E-10
   33.3600006        -3.15529741E-10
   33.5400009        -3.28535060E-10
   33.7200012        -3.40710737E-10
   33.9000015        -3.52087803E-10
   34.0800018        -3.62670477E-10
   34.2599983        -3.72434167E-10
   34.4399986        -3.81322279E-10
   34.6199989        -3.89241250E-10
   34.7999992        -3.96057381E-10
   34.9799995        -4.01597366E-10
   35.1599998        -4.05652956E-10
   35.3400002        -4.07992556E-10
   35.5200005        -4.08376888E-10
   35.7000008        -4.06579714E-10
   35.8800011        -4.02407468E-10
   36.0600014        -3.95719513E-10
   36.2400017        -3.86442017E-10
   36.4199982        -3.74577175E-10
   36.5999985        -3.60205726E-10
   36.7799988        -3.43483159E-10
   36.9599991        -3.24631377E-10
   37.1399994        -3.03928466E-10
   37.3199997        -2.81696222E-10
   37.5000000        -2.58289445E-10
   37.6800003        -2.34086139E-10
   37.8600006        -2.09479462E-10
   38.0400009        -1.84870549E-10
   38.2200012        -1.60660762E-10
   38.4000015        -1.37242995E-10
   38.5800018        -1.14991405E-10
   38.7599983        -9.42492473E-11
   38.9399986        -7.53169332E-11
   39.1199989        -5.84416612E-11
   39.2999992        -4.38091750E-11
   39.4799995        -3.15411412E-11
   39.6599998        -2.16949323E-11
   39.8400002        -1.42683556E-11
   40.0200005        -9.20434649E-12
   40.2000008        -6.39613796E-12
   40.3800011        -5.69029025E-12
   40.5600014        -6.88791385E-12
   40.7400017        -9.74574848E-12
   40.9199982        -1.39763895E-11
   41.0999985        -1.92542666E-11
   41.2799988        -2.52252646E-11
   41.4599991        -3.15226838E-11
   41.6399994        -3.77887825E-11
   41.8199997        -4.36981180E-11
   42.0000000        -4.89810657E-11
   42.1800003        -5.34427988E-11
   42.3600006        -5.69770550E-11
   42.5400009        -5.95712021E-11
   42.7200012        -6.13049334E-11
   42.9000015        -6.23432972E-11
   43.0800018        -6.29256439E-11
   43.2599983        -6.33529132E-11
   43.4399986        -6.39723483E-11
   43.6199989        -6.51618551E-11
   43.7999992        -6.73107611E-11
   43.9799995        -7.07988737E-11
   44.1599998        -7.59730473E-11
   44.3400002        -8.31235220E-11
   44.5200005        -9.24622115E-11
   44.7000008        -1.04108257E-10
   44.8800011        -1.18081211E-10
   45.0600014        -1.34306052E-10
   45.2400017        -1.52626439E-10
   45.4199982        -1.72825768E-10
   45.5999985        -1.94649866E-10
   45.7799988        -2.17826868E-10
   45.9599991        -2.42078635E-10
   46.1399994        -2.67124850E-10
   46.3199997        -2.92677271E-10
   46.5000000        -3.18429644E-10
   46.6800003        -3.44048512E-10
   46.8600006        -3.69168668E-10
   47.0400009        -3.93398397E-10
   47.2200012        -4.16334522E-10
   47.4000015        -4.37587105E-10
   47.5800018        -4.56806065E-10
   47.7599983        -4.73709683E-10
   47.9399986        -4.88101559E-10
   48.1199989        -4.99880359E-10
   48.2999992        -5.09033315E-10
   48.4799995        -5.15618492E-10
   48.6599998        -5.19738697E-10
   48.8400002        -5.21511667E-10
   49.0200005        -5.21041932E-10
   49.2000008        -5.18400600E-10
   49.3800011        -5.13615594E-10
   49.5600014        -5.06670872E-10
   49.7400017        -4.97517860E-10
   49.9199982        -4.86088503E-10
   50.0999985        -4.72314132E-10
   50.2799988        -4.56137933E-10
   50.4599991        -4.37523517E-10
   50.6399994        -4.16455592E-10
   50.8199997        -3.92935462E-10
   51.0000000        -3.66973923E-10
   51.1800003        -3.38583633E-10
   51.3600006        -3.07776915E-10
   51.5400009        -2.74568757E-10
   51.7200012        -2.38986969E-10
   51.9000015        -2.01084552E-10
   52.0800018        -1.60953778E-10
   52.2599983        -1.18733703E-10
   52.4399986        -7.46104359E-11
   52.6199989        -2.88071737E-11
   52.7999992         1.84349411E-11
   52.9799995         6.68804803E-11
   53.1599998         1.16323999E-10
   53.3400002         1.66609171E-10
   53.5200005         2.17637228E-10
   53.7000008         2.69363115E-10
   53.8800011         3.21780741E-10
   54.0600014         3.74899528E-10
   54.2400017         4.28717895E-10
   54.4199982         4.83201035E-10
   54.5999985         5.38266598E-10
   54.7799988         5.93781968E-10
   54.9599991         6.49573340E-10
   55.1399994         7.05445369E-10
   55.3199997         7.61201602E-10
   55.5000000         8.16667345E-10
   55.6800003         8.71701156E-10
   55.8600006         9.26199062E-10
   56.0400009         9.80083681E-10
   56.2200012         1.03328734E-09
   56.4000015         1.08572984E-09
   56.5800018         1.13729703E-09
   56.7599983         1.18782995E-09
   56.9399986         1.23712407E-09
   57.1199989         1.28494060E-09
   57.2999992         1.33102740E-09
   57.4799995         1.37514145E-09
   57.6599998         1.41706968E-09
   57.8400002         1.45663825E-09
   58.0200005         1.49371226E-09
   58.2000008         1.52818469E-09
   58.3800011         1.55995761E-09
   58.5600014         1.58892743E-09
   58.7400017         1.61497860E-09
   58.9199982         1.63798408E-09
   59.0999985         1.65782754E-09
   59.2799988         1.67442338E-09
   59.4599991         1.68774561E-09
   59.6399994         1.69784309E-09
   59.8199997         1.70484449E-09
   60.0000000         1.70894054E-09
   60.1800003         1.71035663E-09
   60.3600006         1.70931203E-09
   60.5400009         1.70598191E-09
   60.7200012         1.70046821E-09
   60.9000015         1.69278902E-09
   61.0800018         1.68288827E-09
   61.2599983         1.67066150E-09
   61.4399986         1.65598946E-09
   61.6199989         1.63877556E-09
   61.7999992         1.61897074E-09
   61.9799995         1.59658498E-09
   62.1599998         1.57168278E-09
   62.3400002         1.54436341E-09
   62.5200005         1.51473623E-09
   62.7000008         1.48289581E-09
   62.8800011         1.44890877E-09
   63.0600014         1.41281087E-09
   63.2400017         1.37462008E-09
   63.4199982         1.33435696E-09
   63.5999985         1.29206912E-09
   63.7799988         1.24784894E-09
   63.9599991         1.20184118E-09
   64.1399994         1.15423660E-09
   64.3199997         1.10525233E-09
   64.5000000         1.05510556E-09
   64.6800003         1.00398767E-09
   64.8600006         9.52043888E-10
   65.0400009         8.99369357E-10
   65.2200012         8.46017201E-10
   65.4000015         7.92020394E-10
   65.5800018         7.37419903E-10
   65.7600021         6.82289225E-10
   65.9400024         6.26749541E-10
   66.1200027         5.70969494E-10
   66.3000031         5.15145593E-10
   66.4800034         4.59471544E-10
   66.6600037         4.04099421E-10
   66.8399963         3.49107826E-10
   67.0199966         2.94482161E-10
   67.1999969         2.40116649E-10
   67.3799973         1.85839288E-10
   67.5599976         1.31453778E-10
   67.7399979         7.67923225E-11
   67.9199982         2.17652910E-11
   68.0999985        -3.36022946E-11
   68.2799988        -8.91600960E-11
   68.4599991        -1.44643381E-10
   68.6399994        -1.99710581E-10
   68.8199997        -2.53993743E-10
   69.0000000        -3.07150444E-10
   69.1800003        -3.58903601E-10
   69.3600006        -4.09062950E-10
   69.5400009        -4.57519689E-10
   69.7200012        -5.04219611E-10
   69.9000015        -5.49122914E-10
   70.0800018        -5.92161320E-10
   70.2600021        -6.33204766E-10
   70.4400024        -6.72047695E-10
   70.6200027        -7.08414050E-10
   70.8000031        -7.41984751E-10
   70.9800034        -7.72437503E-10
   71.1600037        -7.99482924E-10
   71.3399963        -8.22902135E-10
   71.5199966        -8.42562298E-10
   71.6999969        -8.58419835E-10
   71.8799973        -8.70508110E-10
   72.0599976        -8.78917494E-10
   72.2399979        -8.83771278E-10
   72.4199982        -8.85208851E-10
   72.5999985        -8.83374651E-10
   72.7799988        -8.78413398E-10
   72.9599991        -8.70472971E-10
   73.1399994        -8.59706140E-10
   73.3199997        -8.46271053E-10
   73.5000000        -8.30327751E-10
   73.6800003        -8.12030609E-10
   73.8600006        -7.91519350E-10
   74.0400009        -7.68912767E-10
   74.2200012        -7.44307893E-10
   74.4000015        -7.17781723E-10
   74.5800018        -6.89400814E-10
   74.7600021        -6.59229837E-10
   74.9400024        -6.27339569E-10
   75.1200027        -5.93804561E-10
   75.3000031        -5.58695146E-10
   75.4800034        -5.22059618E-10
   75.6600037        -4.83905360E-10
   75.8399963        -4.44179749E-10
   76.0199966        -4.02763267E-10
   76.1999969        -3.59474450E-10
   76.3799973        -3.14091891E-10
   76.5599976        -2.66388689E-10
   76.7399979        -2.16176396E-10
   76.9199982        -1.63346336E-10
   77.0999985        -1.07903519E-10
   77.2799988        -4.99888499E-11
   77.4599991         1.01191980E-11
   77.6399994         7.20137908E-11
   77.8199997         1.35181255E-10
   78.0000000         1.99025380E-10
   78.1800003         2.62890099E-10
   78.3600006         3.26075916E-10
   78.5400009         3.87850280E-10
   78.7200012         4.47452714E-10
   78.9000015         5.04100484E-10
   79.0800018         5.56996949E-10
   79.2600021         6.05346051E-10
   79.4400024         6.48374521E-10
   79.6200027         6.85355883E-10
   79.8000031         7.15636050E-10
   79.9800034         7.38657024E-10
   80.1600037         7.53973994E-10
   80.3399963         7.61266827E-10
   80.5199966         7.60346841E-10
   80.6999969         7.51161244E-10
   80.8799973         7.33794803E-10
   81.0599976         7.08473780E-10
   81.2399979         6.75566825E-10
   81.4199982         6.35582920E-10
   81.5999985         5.89163052E-10
   81.7799988         5.37061895E-10
   81.9599991         4.80120554E-10
   82.1399994         4.19231566E-10
   82.3199997         3.55299040E-10
   82.5000000         2.89204577E-10
   82.6800003         2.21776070E-10
   82.8600006         1.53773189E-10
   83.0400009         8.58837307E-11
   83.2200012         1.87325173E-11
   83.4000015        -4.71037376E-11
   83.5800018        -1.11080589E-10
   83.7600021        -1.72673889E-10
   83.9400024        -2.31379735E-10
   84.1200027        -2.86722757E-10
   84.3000031        -3.38274880E-10
   84.4800034        -3.85678572E-10
   84.6600037        -4.28668878E-10
   84.8399963        -4.67088201E-10
   85.0199966        -5.00891995E-10
   85.1999969        -5.30140098E-10
   85.3799973        -5.54978286E-10
   85.5599976        -5.75613668E-10
   85.7399979        -5.92287330E-10
   85.9199982        -6.05252348E-10
   86.0999985        -6.14758411E-10
   86.2799988        -6.21045770E-10
   86.4599991        -6.24347907E-10
   86.6399994        -6.24897745E-10
   86.8199997        -6.22934704E-10
   87.0000000        -6.18708418E-10
   87.1800003        -6.12474793E-10
   87.3600006        -6.04486239E-10
   87.5400009        -5.94975624E-10
   87.7200012        -5.84138016E-10
   87.9000015        -5.72116354E-10
   88.0800018        -5.58992741E-10
   88.2600021        -5.44790935E-10
   88.4400024        -5.29488953E-10
   88.6200027        -5.13042442E-10
   88.8000031        -4.95412322E-10
   88.9800034        -4.76594875E-10
   89.1600037        -4.56646138E-10
   89.3399963        -4.35699810E-10
   89.5199966        -4.13973245E-10
   89.6999969        -3.91762817E-10
   89.8799973        -3.69430569E-10
   90.0599976        -3.47382678E-10
   90.2399979        -3.26046107E-10
   90.4199982        -3.05845238E-10
   90.5999985        -2.87179280E-10
   90.7799988        -2.70403477E-10
   90.9599991        -2.55810817E-10
   91.1399994        -2.43614767E-10
   91.3199997        -2.33932068E-10
   91.5000000        -2.26765898E-10
   91.6800003        -2.21992827E-10
   91.8600006        -2.19355131E-10
   92.0400009        -2.18465565E-10
   92.2200012        -2.18825943E-10
   92.4000015        -2.19859617E-10
   92.5800018        -2.20956947E-10
   92.7600021        -2.21528226E-10
   92.9400024        -2.21053773E-10
   93.1200027        -2.19124593E-10
   93.3000031        -2.15466880E-10
   93.4800034        -2.09942216E-10
   93.6600037        -2.02528744E-10
   93.8399963        -1.93286553E-10
   94.0199966        -1.82313512E-10
   94.1999969        -1.69706763E-10
   94.3799973        -1.55534363E-10
   94.5599976        -1.39824985E-10
   94.7399979        -1.22576074E-10
   94.9199982        -1.03776911E-10
   95.0999985        -8.34375416E-11
   95.2799988        -6.16162607E-11
   95.4599991        -3.84353521E-11
   95.6399994        -1.40810835E-11
   95.8199997         1.12133141E-11
   96.0000000         3.71968845E-11
   96.1800003         6.36343131E-11
   96.3600006         9.03356903E-11
   96.5400009         1.17170995E-10
   96.7200012         1.44070075E-10
   96.9000015         1.71003184E-10
   97.0800018         1.97949643E-10
   97.2600021         2.24865793E-10
   97.4400024         2.51654003E-10
   97.6200027         2.78150919E-10
   97.8000031         3.04128389E-10
   97.9800034         3.29311356E-10
   98.1600037         3.53405472E-10
   98.3399963         3.76125631E-10
   98.5199966         3.97218453E-10
   98.6999969         4.16472024E-10
   98.8799973         4.33714065E-10
   99.0599976         4.48798859E-10
   99.2399979         4.61590821E-10
   99.4199982         4.71954253E-10
   99.5999985         4.79749407E-10
   99.7799988         4.84844165E-10
   99.9599991         4.87132945E-10
   100.139999         4.86561624E-10
   100.320000         4.83149742E-10
   100.500000         4.77003770E-10
   100.680000         4.68316885E-10
   100.860001         4.57355182E-10
   101.040001         4.44432852E-10
   101.220001         4.29882435E-10
   101.400002         4.14025536E-10
   101.580002         3.97151950E-10
   101.760002         3.79506260E-10
   101.940002         3.61289026E-10
   102.120003         3.42664258E-10
   102.300003         3.23775284E-10
   102.480003         3.04761300E-10
   102.660004         2.85773044E-10
   102.839996         2.66982769E-10
   103.019997         2.48588650E-10
   103.199997         2.30811578E-10
   103.379997         2.13888476E-10
   103.559998         1.98060804E-10
   103.739998         1.83561263E-10
   103.919998         1.70601408E-10
   104.099998         1.59358346E-10
   104.279999         1.49961585E-10
   104.459999         1.42481554E-10
   104.639999         1.36916908E-10
   104.820000         1.33182410E-10
   105.000000         1.31098646E-10
   105.180000         1.30383149E-10
   105.360001         1.30648409E-10
   105.540001         1.31404485E-10
   105.720001         1.32069494E-10
   105.900002         1.31987338E-10
   106.080002         1.30451372E-10
   106.260002         1.26734734E-10
   106.440002         1.20121205E-10
   106.620003         1.09940869E-10
   106.800003         9.56056831E-11
   106.980003         7.66443090E-11
   107.160004         5.27363916E-11
   107.339996         2.37412347E-11
   107.519997        -1.02821527E-11
   107.699997        -4.90688531E-11
   107.879997        -9.21556095E-11
   108.059998        -1.38908440E-10
   108.239998        -1.88563859E-10
   108.419998        -2.40278991E-10
   108.599998        -2.93186114E-10
   108.779999        -3.46440071E-10
   108.959999        -3.99254380E-10
   109.139999        -4.50920468E-10
   109.320000        -5.00813280E-10
   109.500000        -5.48383783E-10
   109.680000        -5.93146365E-10
   109.860001        -6.34664099E-10
   110.040001        -6.72538192E-10
   110.220001        -7.06401382E-10
   110.400002        -7.35915218E-10
   110.580002        -7.60768004E-10
   110.760002        -7.80674636E-10
   110.940002        -7.95370325E-10
   111.120003        -8.04612210E-10