  -34.5000000         0.00000000    
  -34.3195000         0.00000000    
  -34.1389999         0.00000000    
  -33.9584999        -2.23954857E-27
  -33.7779999         4.45042443E-23
  -33.5974998         2.94274148E-22
  -33.4169998         9.99022336E-22
  -33.2364998         2.26319665E-21
  -33.0559998         3.71008155E-21
  -32.8754997         4.38579481E-21
  -32.6949997         3.21469467E-21
  -32.5144997        -1.15621740E-22
  -32.3339996        -4.57306842E-21
  -32.1534996        -8.45903410E-21
  -31.9729996        -1.16158397E-20
  -31.7924995        -1.79497563E-20
  -31.6119995        -3.56071430E-20
  -31.4314995        -7.17768722E-20
  -31.2509995        -1.20800164E-19
  -31.0704994        -1.48939220E-19
  -30.8899994        -8.61301296E-20
  -30.7094994         1.60338842E-19
  -30.5289993         6.60474406E-19
  -30.3484993         1.39254553E-18
  -30.1679993         2.17990836E-18
  -29.9874992         2.67249876E-18
  -29.8069992         2.39885666E-18
  -29.6264992         8.85263064E-19
  -29.4459991        -2.18914321E-18
  -29.2654991        -6.84011654E-18
  -29.0849991        -1.26481772E-17
  -28.9044991        -1.86375621E-17
  -28.7240009        -2.31481713E-17
  -28.5435009        -2.37596861E-17
  -28.3630009        -1.74768093E-17
  -28.1825008        -1.49341163E-18
  -28.0020008         2.52766675E-17
  -27.8215008         6.01988036E-17
  -27.6410007         9.54163888E-17
  -27.4605007         1.18197651E-16
  -27.2800007         1.14039831E-16
  -27.0995007         7.20778915E-17
  -26.9190006        -9.33217309E-18
  -26.7385006        -1.19874392E-16
  -26.5580006        -2.39575302E-16
  -26.3775005        -3.45855649E-16
  -26.1970005        -4.22090335E-16
  -26.0165005        -4.62837702E-16
  -25.8360004        -4.71955376E-16
  -25.6555004        -4.53376503E-16
  -25.4750004        -3.98726916E-16
  -25.2945004        -2.78881707E-16
  -25.1140003        -4.62245798E-17
  -24.9335003         3.49416946E-16
  -24.7530003         9.34232977E-16
  -24.5725002         1.68219505E-15
  -24.3920002         2.49732143E-15
  -24.2115002         3.21738519E-15
  -24.0310001         3.64367104E-15
  -23.8505001         3.59127020E-15
  -23.6700001         2.94377428E-15
  -23.4895000         1.69029374E-15
  -23.3090000        -7.41636042E-17
  -23.1285000        -2.19037490E-15
  -22.9480000        -4.50385206E-15
  -22.7674999        -6.92876085E-15
  -22.5869999        -9.46950817E-15
  -22.4064999        -1.21773124E-14
  -22.2259998        -1.50496630E-14
  -22.0454998        -1.79148383E-14
  -21.8649998        -2.03638393E-14
  -21.6844997        -2.17835732E-14
  -21.5039997        -2.15068730E-14
  -21.3234997        -1.90402249E-14
  -21.1429996        -1.42843568E-14
  -20.9624996        -7.64991369E-15
  -20.7819996        -2.84271371E-18
  -20.6014996         7.55873483E-15
  -20.4209995         1.40192177E-14
  -20.2404995         1.87281204E-14
  -20.0599995         2.15335511E-14
  -19.8794994         2.27125668E-14
  -19.6989994         2.27389417E-14
  -19.5184994         2.20122094E-14
  -19.3379993         2.06997929E-14
  -19.1574993         1.87984021E-14
  -18.9769993         1.64125458E-14
  -18.7964993         1.41258202E-14
  -18.6159992         1.32645698E-14
  -18.4354992         1.58667143E-14
  -18.2549992         2.42798437E-14
  -18.0744991         4.04743987E-14
  -17.8939991         6.53026962E-14
  -17.7134991         9.79826639E-14
  -17.5330009         1.36014138E-13
  -17.3525009         1.75560277E-13
  -17.1720009         2.12137193E-13
  -16.9915009         2.41333510E-13
  -16.8110008         2.59297060E-13
  -16.6305008         2.62873328E-13
  -16.4500008         2.49482726E-13
  -16.2695007         2.16978020E-13
  -16.0890007         1.63740400E-13
  -15.9084997         8.91227061E-14
  -15.7279997        -5.88439040E-15
  -15.5474997        -1.18103010E-13
  -15.3669996        -2.42122620E-13
  -15.1864996        -3.70989291E-13
  -15.0059996        -4.97543087E-13
  -14.8254995        -6.15974231E-13
  -14.6450005        -7.22987046E-13
  -14.4645004        -8.18038779E-13
  -14.2840004        -9.02466470E-13
  -14.1035004        -9.77779923E-13
  -13.9230003        -1.04377845E-12
  -13.7425003        -1.09725846E-12
  -13.5620003        -1.13184223E-12
  -13.3815002        -1.13897964E-12
  -13.2010002        -1.10965967E-12
  -13.0205002        -1.03608658E-12
  -12.8400002        -9.12634118E-13
  -12.6595001        -7.35817765E-13
  -12.4790001        -5.03571143E-13
  -12.2985001        -2.14542156E-13
  -12.1180000         1.31823033E-13
  -11.9375000         5.34008168E-13
  -11.7570000         9.86202873E-13
  -11.5764999         1.47598795E-12
  -11.3959999         1.98306020E-12
  -11.2154999         2.47989758E-12
  -11.0349998         2.93458248E-12
  -10.8544998         3.31513376E-12
  -10.6739998         3.59406645E-12
  -10.4934998         3.75175151E-12
  -10.3129997         3.77763706E-12
  -10.1324997         3.66925067E-12
  -9.95199966         3.42981004E-12
  -9.77149963         3.06577268E-12
  -9.59099960         2.58553248E-12
  -9.41049957         1.99977686E-12
  -9.22999954         1.32310666E-12
  -9.04950047         5.75765401E-13
  -8.86900043        -2.15818764E-13
  -8.68850040        -1.02050735E-12
  -8.50800037        -1.80585560E-12
  -8.32750034        -2.54243393E-12
  -8.14700031        -3.20758654E-12
  -7.96649981        -3.78732158E-12
  -7.78599977        -4.27579066E-12
  -7.60550022        -4.67281162E-12
  -7.42500019        -4.98063700E-12
  -7.24450016        -5.20135541E-12
  -7.06400013        -5.33584938E-12
  -6.88350010        -5.38434965E-12
  -6.70300007        -5.34780553E-12
  -6.52250004        -5.22887679E-12
  -6.34200001        -5.03158279E-12
  -6.16149998        -4.75941031E-12
  -5.98099995        -4.41260310E-12
  -5.80049992        -3.98597821E-12
  -5.61999989        -3.46861190E-12
  -5.43949986        -2.84609944E-12
  -5.25899982        -2.10502687E-12
  -5.07849979        -1.23832997E-12
  -4.89799976        -2.49758032E-13
  -4.71750021         8.44067980E-13
  -4.53700018         2.01462024E-12
  -4.35650015         3.22493876E-12
  -4.17600012         4.43427023E-12
  -3.99550009         5.60228123E-12
  -3.81500006         6.69172487E-12
  -3.63450003         7.66934433E-12
  -3.45400000         8.50563630E-12
  -3.27349997         9.17454654E-12
  -3.09299994         9.65397727E-12
  -2.91249990         9.92729163E-12
  -2.73200011         9.98526695E-12
  -2.55150008         9.82744355E-12
  -2.37100005         9.46191823E-12
  -2.19050002         8.90324880E-12
  -2.00999999         8.16893948E-12
  -1.82949996         7.27569610E-12
  -1.64900005         6.23677238E-12
  -1.46850002         5.06140746E-12
  -1.28799999         3.75655410E-12
  -1.10749996         2.33028462E-12
 -0.926999986         7.95668598E-13
 -0.746500015        -8.26137390E-13
 -0.565999985        -2.50455429E-12
 -0.385500014        -4.20023304E-12
 -0.204999998        -5.86737126E-12
  -2.44999994E-02    -7.45690055E-12
  0.156000003        -8.91975903E-12
  0.336499989        -1.02097107E-11
  0.517000020        -1.12856061E-11
  0.697499990        -1.21132757E-11
  0.878000021        -1.26673680E-11
   1.05850005        -1.29331970E-11
   1.23899996        -1.29083220E-11
   1.41949999        -1.26033507E-11
   1.60000002        -1.20413072E-11
   1.78050005        -1.12552780E-11
   1.96099997        -1.02845015E-11
   2.14150000        -9.16958436E-12
   2.32200003        -7.94784464E-12
   2.50250006        -6.64978966E-12
   2.68300009        -5.29738840E-12
   2.86350012        -3.90434343E-12
   3.04399991        -2.47798093E-12
   3.22449994        -1.02207435E-12
   3.40499997         4.60188962E-13
   3.58550000         1.96389454E-12
   3.76600003         3.48112598E-12
   3.94650006         5.00084522E-12
   4.12699986         6.50957326E-12
   4.30749989         7.99235417E-12
   4.48799992         9.43329529E-12
   4.66849995         1.08153530E-11
   4.84899998         1.21192899E-11
   5.02950001         1.33223241E-11
   5.21000004         1.43972282E-11
   5.39050007         1.53125845E-11
   5.57100010         1.60344810E-11
   5.75150013         1.65294462E-11
   5.93200016         1.67676966E-11
   6.11250019         1.67256538E-11
   6.29300022         1.63870167E-11
   6.47349977         1.57421697E-11
   6.65399981         1.47865661E-11
   6.83449984         1.35192448E-11
   7.01499987         1.19426335E-11
   7.19549990         1.00641682E-11
   7.37599993         7.89952999E-12
   7.55649996         5.47622885E-12
   7.73699999         2.83580538E-12
   7.91750002         3.32649794E-14
   8.09799957        -2.86692762E-12
   8.27849960        -5.79736476E-12
   8.45899963        -8.69502560E-12
   8.63949966        -1.15068371E-11
   8.81999969        -1.41915377E-11
   9.00049973        -1.67172456E-11
   9.18099976        -1.90554950E-11
   9.36149979        -2.11744303E-11
   9.54199982        -2.30335039E-11
   9.72249985        -2.45820725E-11
   9.90299988        -2.57622569E-11
   10.0834999        -2.65151408E-11
   10.2639999        -2.67878376E-11
   10.4445000        -2.65391858E-11
   10.6250000        -2.57425158E-11
   10.8055000        -2.43852577E-11
   10.9860001        -2.24664801E-11
   11.1665001        -1.99941574E-11
   11.3470001        -1.69831701E-11
   11.5275002        -1.34543661E-11
   11.7080002        -9.43410194E-12
   11.8885002        -4.95286321E-12
   12.0690002        -4.21277325E-14
   12.2495003         5.27030850E-12
   12.4300003         1.09653267E-11
   12.6105003         1.70355795E-11
   12.7910004         2.34852138E-11
   12.9715004         3.03251695E-11
   13.1520004         3.75652426E-11
   13.3325005         4.52051209E-11
   13.5129995         5.32275508E-11
   13.6934996         6.15957355E-11
   13.8739996         7.02556624E-11
   14.0544996         7.91423593E-11
   14.2349997         8.81868953E-11
   14.4154997         9.73220254E-11
   14.5959997         1.06483593E-10
   14.7764997         1.15608530E-10
   14.9569998         1.24630417E-10
   15.1374998         1.33475439E-10
   15.3179998         1.42060863E-10
   15.4984999         1.50296608E-10
   15.6789999         1.58089486E-10
   15.8594999         1.65347291E-10
   16.0400009         1.71981387E-10
   16.2205009         1.77906537E-10
   16.4009991         1.83038598E-10
   16.5814991         1.87292293E-10
   16.7619991         1.90581592E-10
   16.9424992         1.92824215E-10
   17.1229992         1.93950356E-10
   17.3034992         1.93913927E-10
   17.4839993         1.92702215E-10
   17.6644993         1.90341548E-10
   17.8449993         1.86896193E-10
   18.0254993         1.82460824E-10
   18.2059994         1.77148560E-10
   18.3864994         1.71078318E-10
   18.5669994         1.64364758E-10
   18.7474995         1.57113808E-10
   18.9279995         1.49423779E-10
   19.1084995         1.41390774E-10
   19.2889996         1.33115324E-10
   19.4694996         1.24707938E-10
   19.6499996         1.16291157E-10
   19.8304996         1.07998367E-10
   20.0109997         9.99704278E-11
   20.1914997         9.23514945E-11
   20.3719997         8.52852164E-11
   20.5524998         7.89125223E-11
   20.7329998         7.33686653E-11
   20.9134998         6.87798915E-11
   21.0939999         6.52578824E-11
   21.2744999         6.28920874E-11
   21.4549999         6.17412094E-11
   21.6355000         6.18253712E-11
   21.8160000         6.31220978E-11
   21.9965000         6.55666563E-11
   22.1770000         6.90579746E-11
   22.3575001         7.34691197E-11
   22.5380001         7.86597940E-11
   22.7185001         8.44884926E-11
   22.8990002         9.08218015E-11
   23.0795002         9.75393238E-11
   23.2600002         1.04535026E-10
   23.4405003         1.11714686E-10
   23.6210003         1.18993440E-10
   23.8015003         1.26293601E-10
   23.9820004         1.33544523E-10
   24.1625004         1.40684853E-10
   24.3430004         1.47665505E-10
   24.5235004         1.54454283E-10
   24.7040005         1.61038960E-10
   24.8845005         1.67430500E-10
   25.0650005         1.73664708E-10
   25.2455006         1.79803325E-10
   25.4260006         1.85933186E-10
   25.6065006         1.92162675E-10
   25.7870007         1.98615291E-10
   25.9675007         2.05418627E-10
   26.1480007         2.12690587E-10
   26.3285007         2.20523724E-10
   26.5090008         2.28970329E-10
   26.6895008         2.38032205E-10
   26.8700008         2.47654980E-10
   27.0505009         2.57730476E-10
   27.2310009         2.68103956E-10
   27.4115009         2.78584850E-10
   27.5919991         2.88957525E-10
   27.7724991         2.98988473E-10
   27.9529991         3.08431197E-10
   28.1334991         3.17026683E-10
   28.3139992         3.24504229E-10
   28.4944992         3.30585448E-10
   28.6749992         3.34991840E-10
   28.8554993         3.37459033E-10
   29.0359993         3.37754186E-10
   29.2164993         3.35693501E-10
   29.3969994         3.31156186E-10
   29.5774994         3.24092198E-10
   29.7579994         3.14523324E-10
   29.9384995         3.02538106E-10
   30.1189995         2.88283064E-10
   30.2994995         2.71953654E-10
   30.4799995         2.53785326E-10
   30.6604996         2.34045089E-10
   30.8409996         2.13022863E-10
   31.0214996         1.91021296E-10
   31.2019997         1.68343242E-10
   31.3824997         1.45277096E-10
   31.5629997         1.22082733E-10
   31.7434998         9.89796647E-11
   31.9239998         7.61407534E-11
   32.1044998         5.36914645E-11
   32.2849998         3.17161887E-11
   32.4654999         1.02675221E-11
   32.6459999        -1.06230563E-11
   32.8264999        -3.09361738E-11
   33.0070000        -5.06606042E-11
   33.1875000        -6.97912353E-11
   33.3680000        -8.83318904E-11
   33.5485001        -1.06296860E-10
   33.7290001        -1.23713081E-10
   33.9095001        -1.40618808E-10
   34.0900002        -1.57061086E-10
   34.2705002        -1.73091375E-10
   34.4510002        -1.88761173E-10
   34.6315002        -2.04116446E-10
   34.8120003        -2.19191595E-10
   34.9925003        -2.34002179E-10
   35.1730003        -2.48536552E-10
   35.3535004        -2.62746269E-10
   35.5340004        -2.76539236E-10
   35.7145004        -2.89775204E-10
   35.8950005        -3.02268127E-10
   36.0755005        -3.13795101E-10
   36.2560005        -3.24111349E-10
   36.4365005        -3.32970373E-10
   36.6170006        -3.40144773E-10
   36.7975006        -3.45444062E-10
   36.9780006        -3.48727575E-10
   37.1585007        -3.49909240E-10
   37.3390007        -3.48956697E-10
   37.5195007        -3.45884960E-10
   37.7000008        -3.40749484E-10
   37.8805008        -3.33640254E-10
   38.0610008        -3.24678284E-10
   38.2415009        -3.14015147E-10
   38.4220009        -3.01833170E-10
   38.6025009        -2.88343349E-10
   38.7830009        -2.73780915E-10
   38.9635010        -2.58397276E-10
   39.1440010        -2.42447895E-10
   39.3245010        -2.26181629E-10
   39.5050011        -2.09829501E-10
   39.6855011        -1.93596833E-10
   39.8660011        -1.77658860E-10
   40.0465012        -1.62157579E-10
   40.2270012        -1.47201154E-10
   40.4075012        -1.32862721E-10
   40.5880013        -1.19180249E-10
   40.7685013        -1.06158013E-10
   40.9490013        -9.37703595E-11
   41.1295013        -8.19690496E-11
   41.3100014        -7.06942213E-11
   41.4905014        -5.98867414E-11
   41.6710014        -4.95015695E-11
   41.8515015        -3.95172263E-11
   42.0320015        -2.99402933E-11
   42.2125015        -2.08044502E-11
   42.3930016        -1.21654119E-11
   42.5735016        -4.09356967E-12
   42.7540016         3.33235154E-12
   42.9345016         1.00285205E-11
   43.1150017         1.59058652E-11
   43.2955017         2.08679653E-11
   43.4760017         2.48091669E-11
   43.6565018         2.76154759E-11
   43.8370018         2.91685842E-11
   44.0175018         2.93532455E-11
   44.1980019         2.80658517E-11
   44.3785019         2.52223589E-11
   44.5589981         2.07651465E-11
   44.7394981         1.46675692E-11
   44.9199982         6.93894421E-12
   45.1004982        -2.37004015E-12
   45.2809982        -1.31600165E-11
   45.4614983        -2.52758457E-11
   45.6419983        -3.85013618E-11
   45.8224983        -5.25603484E-11
   46.0029984        -6.71255065E-11
   46.1834984        -8.18375923E-11
   46.3639984        -9.63311167E-11
   46.5444984        -1.10263673E-10
   46.7249985        -1.23341976E-10
   46.9054985        -1.35339989E-10
   47.0859985        -1.46104795E-10
   47.2664986        -1.55551391E-10
   47.4469986        -1.63648955E-10
   47.6274986        -1.70403164E-10
   47.8079987        -1.75841050E-10
   47.9884987        -1.79999807E-10
   48.1689987        -1.82922760E-10
   48.3494987        -1.84658303E-10
   48.5299988        -1.85260821E-10
   48.7104988        -1.84789586E-10
   48.8909988        -1.83304344E-10
   49.0714989        -1.80859133E-10
   49.2519989        -1.77494783E-10
   49.4324989        -1.73233983E-10
   49.6129990        -1.68081174E-10
   49.7934990        -1.62024172E-10
   49.9739990        -1.55040258E-10
   50.1544991        -1.47100040E-10
   50.3349991        -1.38167033E-10
   50.5154991        -1.28192623E-10
   50.6959991        -1.17104271E-10
   50.8764992        -1.04792806E-10
   51.0569992        -9.11007381E-11
   51.2374992        -7.58184279E-11
   51.4179993        -5.86908647E-11
   51.5984993        -3.94340845E-11
   51.7789993        -1.77615145E-11
   51.9594994         6.58716614E-12
   52.1399994         3.38190032E-11
   52.3204994         6.40684172E-11
   52.5009995         9.73880490E-11
   52.6814995         1.33750053E-10
   52.8619995         1.73054876E-10
   53.0424995         2.15145013E-10
   53.2229996         2.59818361E-10
   53.4034996         3.06837999E-10
   53.5839996         3.55940333E-10
   53.7644997         4.06836065E-10
   53.9449997         4.59212085E-10
   54.1254997         5.12729637E-10
   54.3059998         5.67021541E-10
   54.4864998         6.21691865E-10
   54.6669998         6.76313394E-10
   54.8474998         7.30427663E-10
   55.0279999         7.83549614E-10
   55.2084999         8.35174596E-10
   55.3889999         8.84795237E-10
   55.5695000         9.31923649E-10
   55.7500000         9.76117298E-10
   55.9305000         1.01700492E-09
   56.1110001         1.05430620E-09
   56.2915001         1.08784115E-09
   56.4720001         1.11752541E-09
   56.6525002         1.14335863E-09
   56.8330002         1.16540455E-09
   57.0135002         1.18377319E-09
   57.1940002         1.19860943E-09
   57.3745003         1.21008892E-09
   57.5550003         1.21841992E-09
   57.7355003         1.22384791E-09
   57.9160004         1.22665456E-09
   58.0965004         1.22715249E-09
   58.2770004         1.22566857E-09
   58.4575005         1.22252541E-09
   58.6380005         1.21802246E-09
   58.8185005         1.21242216E-09
   58.9990005         1.20594279E-09
   59.1795006         1.19875831E-09
   59.3600006         1.19100063E-09
   59.5405006         1.18275945E-09
   59.7210007         1.17407684E-09
   59.9015007         1.16494192E-09
   60.0820007         1.15528032E-09
   60.2625008         1.14495391E-09
   60.4430008         1.13376752E-09
   60.6235008         1.12149090E-09
   60.8040009         1.10788323E-09
   60.9845009         1.09272302E-09
   61.1650009         1.07582887E-09
   61.3455009         1.05707199E-09
   61.5260010         1.03637499E-09
   61.7065010         1.01370423E-09
   61.8870010         9.89061055E-10
   62.0675011         9.62475988E-10
   62.2480011         9.34011091E-10
   62.4285011         9.03765396E-10
   62.6090012         8.71884343E-10
   62.7895012         8.38560610E-10
   62.9700012         8.04029288E-10
   63.1505013         7.68554442E-10
   63.3310013         7.32412297E-10
   63.5115013         6.95875080E-10
   63.6920013         6.59203359E-10
   63.8725014         6.22645768E-10
   64.0530014         5.86445226E-10
   64.2334976         5.50844814E-10
   64.4140015         5.16087617E-10
   64.5944977         4.82407392E-10
   64.7750015         4.50008864E-10
   64.9554977         4.19044771E-10
   65.1360016         3.89595911E-10
   65.3164978         3.61661090E-10
   65.4970016         3.35164535E-10
   65.6774979         3.09974130E-10
   65.8580017         2.85931195E-10
   66.0384979         2.62877775E-10
   66.2190018         2.40680781E-10
   66.3994980         2.19242180E-10
   66.5800018         1.98499411E-10
   66.7604980         1.78416448E-10
   66.9410019         1.58969518E-10
   67.1214981         1.40135958E-10
   67.3020020         1.21883684E-10
   67.4824982         1.04166627E-10
   67.6630020         8.69241762E-11
   67.8434982         7.00823150E-11
   68.0240021         5.35582065E-11
   68.2044983         3.72654477E-11
   68.3850021         2.11200536E-11
   68.5654984         5.04811427E-12
   68.7460022        -1.10065472E-11
   68.9264984        -2.70760688E-11
   69.1070023        -4.31632646E-11
   69.2874985        -5.92401198E-11
   69.4680023        -7.52489876E-11
   69.6484985        -9.11065529E-11
   69.8290024        -1.06708205E-10
   70.0094986        -1.21932256E-10
   70.1900024        -1.36645500E-10
   70.3704987        -1.50705656E-10
   70.5510025        -1.63967423E-10
   70.7314987        -1.76287387E-10
   70.9120026        -1.87530408E-10
   71.0924988        -1.97577149E-10
   71.2730026        -2.06330120E-10
   71.4534988        -2.13719389E-10
   71.6340027        -2.19703464E-10
   71.8144989        -2.24270297E-10
   71.9950027        -2.27435515E-10
   72.1754990        -2.29239253E-10
   72.3560028        -2.29742322E-10
   72.5364990        -2.29022995E-10
   72.7170029        -2.27171060E-10
   72.8974991        -2.24285063E-10
   73.0780029        -2.20469837E-10
   73.2584991        -2.15837528E-10
   73.4390030        -2.10513079E-10
   73.6194992        -2.04640624E-10
   73.8000031        -1.98390415E-10
   73.9804993        -1.91961474E-10
   74.1610031        -1.85575236E-10
   74.3414993        -1.79461196E-10
   74.5220032        -1.73833406E-10
   74.7024994        -1.68864145E-10
   74.8830032        -1.64662020E-10
   75.0634995        -1.61257729E-10
   75.2440033        -1.58604962E-10
   75.4244995        -1.56592656E-10
   75.6050034        -1.55067736E-10
   75.7854996        -1.53857663E-10
   75.9660034        -1.52791391E-10
   76.1464996        -1.51710783E-10
   76.3270035        -1.50474216E-10
   76.5074997        -1.48957763E-10
   76.6880035        -1.47055743E-10
   76.8684998        -1.44688594E-10
   77.0490036        -1.41813991E-10
   77.2294998        -1.38442438E-10
   77.4100037        -1.34645614E-10
   77.5904999        -1.30557398E-10
   77.7710037        -1.26358715E-10
   77.9514999        -1.22253319E-10
   78.1320038        -1.18439203E-10
   78.3125000        -1.15083582E-10
   78.4929962        -1.12309800E-10
   78.6735001        -1.10197865E-10
   78.8539963        -1.08797985E-10
   79.0345001        -1.08147415E-10
   79.2149963        -1.08285651E-10
   79.3955002        -1.09259705E-10
   79.5759964        -1.11119294E-10
   79.7565002        -1.13902388E-10
   79.9369965        -1.17619289E-10
   80.1175003        -1.22239482E-10
   80.2979965        -1.27686001E-10
   80.4785004        -1.33838066E-10
   80.6589966        -1.40539386E-10
   80.8395004        -1.47607052E-10
   81.0199966        -1.54838156E-10
   81.2005005        -1.62013764E-10
   81.3809967        -1.68901101E-10
   81.5615005        -1.75259654E-10
   81.7419968        -1.80852194E-10
   81.9225006        -1.85462715E-10
   82.1029968        -1.88918617E-10
   82.2835007        -1.91109129E-10
   82.4639969        -1.91997154E-10
   82.6445007        -1.91617736E-10
   82.8249969        -1.90066698E-10
   83.0055008        -1.87480656E-10
   83.1859970        -1.84016913E-10
   83.3665009        -1.79837922E-10
   83.5469971        -1.75102613E-10
   83.7275009        -1.69965361E-10
   83.9079971        -1.64577560E-10
   84.0885010        -1.59088465E-10
   84.2689972        -1.53643126E-10
   84.4495010        -1.48377324E-10
   84.6299973        -1.43412601E-10
   84.8105011        -1.38854775E-10
   84.9909973        -1.34799186E-10
   85.1715012        -1.31341479E-10
   85.3519974        -1.28590985E-10
   85.5325012        -1.26679792E-10
   85.7129974        -1.25762858E-10
   85.8935013        -1.26004804E-10
   86.0739975        -1.27554606E-10
   86.2545013        -1.30514183E-10
   86.4349976        -1.34908418E-10
   86.6155014        -1.40666007E-10
   86.7959976        -1.47616933E-10
   86.9765015        -1.55507870E-10
   87.1569977        -1.64032163E-10
   87.3375015        -1.72867401E-10
   87.5179977        -1.81713158E-10
   87.6985016        -1.90320162E-10
   87.8789978        -1.98509320E-10
   88.0595016        -2.06178186E-10
   88.2399979        -2.13296686E-10
   88.4205017        -2.19896143E-10
   88.6009979        -2.26053676E-10
   88.7815018        -2.31875782E-10
   88.9619980        -2.37482450E-10
   89.1425018        -2.42992654E-10
   89.3229980        -2.48513043E-10
   89.5035019        -2.54128246E-10
   89.6839981        -2.59894051E-10
   89.8645020        -2.65832273E-10
   90.0449982        -2.71928230E-10
   90.2255020        -2.78130102E-10
   90.4059982        -2.84353263E-10
   90.5865021        -2.90486551E-10
   90.7669983        -2.96403124E-10
   90.9475021        -3.01971226E-10
   91.1279984        -3.07066095E-10
   91.3085022        -3.11576154E-10
   91.4889984        -3.15406146E-10
   91.6695023        -3.18472720E-10
   91.8499985        -3.20696886E-10
   92.0305023        -3.21993959E-10
   92.2109985        -3.22265326E-10
   92.3915024        -3.21394050E-10
   92.5719986        -3.19246463E-10
   92.7525024        -3.15679177E-10
   92.9329987        -3.10550113E-10
   93.1135025        -3.03729986E-10
   93.2939987        -2.95114100E-10
   93.4745026        -2.84631846E-10
   93.6549988        -2.72256301E-10
   93.8355026        -2.58013305E-10
   94.0159988        -2.41990400E-10
   94.1965027        -2.24344113E-10
   94.3769989        -2.05299625E-10
   94.5575027        -1.85143095E-10
   94.7379990        -1.64199460E-10
   94.9185028        -1.42801562E-10
   95.0989990        -1.21254423E-10
   95.2795029        -9.98028535E-11
   95.4599991        -7.86123597E-11
   95.6405029        -5.77661113E-11
   95.8209991        -3.72774520E-11
   96.0015030        -1.71119559E-11
   96.1819992         2.78928139E-12
   96.3625031         2.24935019E-11
   96.5429993         4.20717211E-11
   96.7235031         6.15999612E-11
   96.9039993         8.11644918E-11
   97.0845032         1.00861104E-10
   97.2649994         1.20784507E-10
   97.4455032         1.41010953E-10
   97.6259995         1.61578070E-10
   97.8065033         1.82471219E-10
   97.9869995         2.03624381E-10
   98.1675034         2.24936028E-10
   98.3479996         2.46295734E-10
   98.5285034         2.67611489E-10
   98.7089996         2.88826629E-10
   98.8895035         3.09919063E-10
   99.0699997         3.30883931E-10
   99.2505035         3.51705498E-10
   99.4309998         3.72332942E-10
   99.6115036         3.92666955E-10
   99.7919998         4.12565287E-10
   99.9725037         4.31862657E-10
   100.153000         4.50394971E-10
   100.333504         4.68019179E-10
   100.514000         4.84617790E-10
   100.694504         5.00090636E-10
   100.875000         5.14337239E-10
   101.055496         5.27243249E-10
   101.236000         5.38676825E-10
   101.416496         5.48500689E-10
   101.597000         5.56593882E-10
   101.777496         5.62876135E-10
   101.958000         5.67321967E-10
   102.138496         5.69961134E-10
   102.319000         5.70864800E-10
   102.499496         5.70124392E-10
   102.680000         5.67834946E-10
   102.860497         5.64088054E-10
   103.041000         5.58979751E-10
   103.221497         5.52625168E-10
   103.402000         5.45170631E-10
   103.582497         5.36793776E-10
   103.763000         5.27683786E-10
   103.943497         5.18005805E-10
   104.124001         5.07861642E-10
   104.304497         4.97256458E-10
   104.485001         4.86086560E-10
   104.665497         4.74153494E-10
   104.846001         4.61199273E-10
   105.026497         4.46954196E-10
   105.207001         4.31181479E-10
   105.387497         4.13711149E-10
   105.568001         3.94454996E-10
   105.748497         3.73408165E-10
   105.929001         3.50641099E-10
   106.109497         3.26288718E-10
   106.290001         3.00543090E-10
   106.470497         2.73645412E-10
   106.651001         2.45877263E-10
   106.831497         2.17545440E-10
   107.012001         1.88960542E-10
   107.192497         1.60411393E-10
   107.373001         1.32142047E-10
   107.553497         1.04338822E-10
   107.734001         7.71292197E-11
   107.914497         5.05990701E-11
   108.095001         2.48156790E-11
   108.275497        -1.45226279E-13
   108.456001        -2.41804198E-11
   108.636497        -4.71544227E-11
   108.817001        -6.89093296E-11
   108.997498        -8.92890900E-11
   109.178001        -1.08167954E-10
   109.358498        -1.25478461E-10
   109.539001        -1.41230347E-10
   109.719498        -1.55516197E-10
   109.900002        -1.68504669E-10
   110.080498        -1.80421109E-10
   110.261002        -1.91521174E-10
   110.441498        -2.02060868E-10
   110.622002        -2.12267842E-10
   110.802498        -2.22316290E-10
   110.983002        -2.32308631E-10
   111.163498        -2.42268955E-10
   111.344002        -2.52140114E-10
   111.524498        -2.61795363E-10