  -34.5000000         0.00000000    
  -34.3195000         0.00000000    
  -34.1389999         0.00000000    
  -33.9584999        -8.53305082E-24
  -33.7779999        -6.36271269E-20
  -33.5974998        -4.75003245E-19
  -33.4169998        -1.81559217E-18
  -33.2364998        -2.02674718E-18
  -33.0559998         4.90776101E-18
  -32.8754997         1.30982247E-17
  -32.6949997        -3.38986225E-18
  -32.5144997        -2.65644256E-17
  -32.3339996         6.58440731E-17
  -32.1534996         3.00850565E-16
  -31.9729996         2.05236838E-16
  -31.7924995        -1.02304311E-15
  -31.6119995        -3.09164866E-15
  -31.4314995        -3.06528666E-15
  -31.2509995         3.31966125E-15
  -31.0704994         1.59137772E-14
  -30.8899994         2.40409363E-14
  -30.7094994         9.02820147E-15
  -30.5289993        -3.90854849E-14
  -30.3484993        -9.90044703E-14
  -30.1679993        -1.12328116E-13
  -29.9874992        -1.49180154E-14
  -29.8069992         1.99669491E-13
  -29.6264992         4.25852658E-13
  -29.4459991         4.58874150E-13
  -29.2654991         1.05811891E-13
  -29.0849991        -6.42132452E-13
  -28.9044991        -1.48242421E-12
  -28.7240009        -1.84115787E-12
  -28.5435009        -1.13194090E-12
  -28.3630009         8.48936373E-13
  -28.1825008         3.59787959E-12
  -28.0020008         5.88410006E-12
  -27.8215008         6.15533622E-12
  -27.6410007         3.27227503E-12
  -27.4605007        -2.73950329E-12
  -27.2800007        -1.03159798E-11
  -27.0995007        -1.66392976E-11
  -26.9190006        -1.85760921E-11
  -26.7385006        -1.39435442E-11
  -26.5580006        -2.58122538E-12
  -26.3775005         1.32578089E-11
  -26.1970005         2.94226588E-11
  -26.0165005         4.11390019E-11
  -25.8360004         4.45668225E-11
  -25.6555004         3.80271509E-11
  -25.4750004         2.24042868E-11
  -25.2945004         5.78158832E-13
  -25.1140003        -2.38183882E-11
  -24.9335003        -4.76863236E-11
  -24.7530003        -6.91024876E-11
  -24.5725002        -8.69183475E-11
  -24.3920002        -9.94659077E-11
  -24.2115002        -1.03099182E-10
  -24.0310001        -9.16131268E-11
  -23.8505001        -5.74003935E-11
  -23.6700001         5.49918227E-12
  -23.4895000         9.72775818E-11
  -23.3090000         2.08767684E-10
  -23.1285000         3.20108773E-10
  -22.9480000         4.02685496E-10
  -22.7674999         4.24064672E-10
  -22.5869999         3.54368007E-10
  -22.4064999         1.71887116E-10
  -22.2259998        -1.33885306E-10
  -22.0454998        -5.62400182E-10
  -21.8649998        -1.10446352E-09
  -21.6844997        -1.74498982E-09
  -21.5039997        -2.46416776E-09
  -21.3234997        -3.23612181E-09
  -21.1429996        -4.02567579E-09
  -20.9624996        -4.78509854E-09
  -20.7819996        -5.45313572E-09
  -20.6014996        -5.95801808E-09
  -20.4209995        -6.22473939E-09
  -20.2404995        -6.18528118E-09
  -20.0599995        -5.78923798E-09
  -19.8794994        -5.01199615E-09
  -19.6989994        -3.85839494E-09
  -19.5184994        -2.36138997E-09
  -19.3379993        -5.77063120E-10
  -19.1574993         1.42142853E-09
  -18.9769993         3.54830343E-09
  -18.7964993         5.70661829E-09
  -18.6159992         7.78746401E-09
  -18.4354992         9.66956115E-09
  -18.2549992         1.12226175E-08
  -18.0744991         1.23166748E-08
  -17.8939991         1.28371411E-08
  -17.7134991         1.27023405E-08
  -17.5330009         1.18787753E-08
  -17.3525009         1.03895408E-08
  -17.1720009         8.31347169E-09
  -16.9915009         5.77554848E-09
  -16.8110008         2.93152858E-09
  -16.6305008        -4.91491778E-11
  -16.4500008        -2.99868730E-09
  -16.2695007        -5.76243808E-09
  -16.0890007        -8.20618329E-09
  -15.9084997        -1.02198561E-08
  -15.7279997        -1.17188499E-08
  -15.5474997        -1.26440263E-08
  -15.3669996        -1.29613165E-08
  -15.1864996        -1.26613759E-08
  -15.0059996        -1.17591892E-08
  -14.8254995        -1.02929523E-08
  -14.6450005        -8.32136848E-09
  -14.4645004        -5.91885740E-09
  -14.2840004        -3.16919646E-09
  -14.1035004        -1.59230601E-10
  -13.9230003         3.02518099E-09
  -13.7425003         6.29938279E-09
  -13.5620003         9.57640900E-09
  -13.3815002         1.27618769E-08
  -13.2010002         1.57507607E-08
  -13.0205002         1.84291338E-08
  -12.8400002         2.06820694E-08
  -12.6595001         2.24062315E-08
  -12.4790001         2.35236062E-08
  -12.2985001         2.39923583E-08
  -12.1180000         2.38118787E-08
  -11.9375000         2.30211104E-08
  -11.7570000         2.16911769E-08
  -11.5764999         1.99143741E-08
  -11.3959999         1.77917840E-08
  -11.2154999         1.54211737E-08
  -11.0349998         1.28862458E-08
  -10.8544998         1.02479278E-08
  -10.6739998         7.53834062E-09
  -10.4934998         4.75808681E-09
  -10.3129997         1.87744309E-09
  -10.1324997        -1.15808874E-09
  -9.95199966        -4.41761783E-09
  -9.77149963        -7.97025734E-09
  -9.59099960        -1.18671224E-08
  -9.41049957        -1.61223230E-08
  -9.22999954        -2.06968647E-08
  -9.04950047        -2.54900794E-08
  -8.86900043        -3.03424237E-08
  -8.68850040        -3.50509062E-08
  -8.50800037        -3.93946529E-08
  -8.32750034        -4.31647784E-08
  -8.14700031        -4.61910084E-08
  -7.96649981        -4.83583946E-08
  -7.78599977        -4.96107759E-08
  -7.60550022        -4.99418462E-08
  -7.42500019        -4.93781300E-08
  -7.24450016        -4.79594782E-08
  -7.06400013        -4.57222313E-08
  -6.88350010        -4.26876667E-08
  -6.70300007        -3.88564949E-08
  -6.52250004        -3.42083197E-08
  -6.34200001        -2.87050632E-08
  -6.16149998        -2.22974368E-08
  -5.98099995        -1.49349191E-08
  -5.80049992        -6.57961019E-09
  -5.61999989         2.77617906E-09
  -5.43949986         1.30902302E-08
  -5.25899982         2.42523122E-08
  -5.07849979         3.60722296E-08
  -4.89799976         4.82792579E-08
  -4.71750021         6.05358963E-08
  -4.53700018         7.24660083E-08
  -4.35650015         8.36932372E-08
  -4.17600012         9.38820577E-08
  -3.99550009         1.02772404E-07
  -3.81500006         1.10199757E-07
  -3.63450003         1.16096480E-07
  -3.45400000         1.20475548E-07
  -3.27349997         1.23402501E-07
  -3.09299994         1.24964657E-07
  -2.91249990         1.25245606E-07
  -2.73200011         1.24310461E-07
  -2.55150008         1.22201399E-07
  -2.37100005         1.18940228E-07
  -2.19050002         1.14532540E-07
  -2.00999999         1.08970184E-07
  -1.82949996         1.02232477E-07
  -1.64900005         9.42897671E-08
  -1.46850002         8.51132924E-08
  -1.28799999         7.46925011E-08
  -1.10749996         6.30565111E-08
 -0.926999986         5.02911597E-08
 -0.746500015         3.65431809E-08
 -0.565999985         2.20057377E-08
 -0.385500014         6.88711710E-09
 -0.204999998        -8.62889404E-09
  -2.44999994E-02    -2.44180249E-08
  0.156000003        -4.04333100E-08
  0.336499989        -5.66984397E-08
  0.517000020        -7.32790255E-08
  0.697499990        -9.02399080E-08
  0.878000021        -1.07602204E-07
   1.05850005        -1.25312454E-07
   1.23899996        -1.43230906E-07
   1.41949999        -1.61140406E-07
   1.60000002        -1.78767664E-07
   1.78050005        -1.95810046E-07
   1.96099997        -2.11958294E-07
   2.14150000        -2.26912277E-07
   2.32200003        -2.40390136E-07
   2.50250006        -2.52137369E-07
   2.68300009        -2.61937458E-07
   2.86350012        -2.69627861E-07
   3.04399991        -2.75116463E-07
   3.22449994        -2.78392520E-07
   3.40499997        -2.79524130E-07
   3.58550000        -2.78641323E-07
   3.76600003        -2.75905535E-07
   3.94650006        -2.71473823E-07
   4.12699986        -2.65467349E-07
   4.30749989        -2.57952877E-07
   4.48799992        -2.48941916E-07
   4.66849995        -2.38405519E-07
   4.84899998        -2.26300543E-07
   5.02950001        -2.12600526E-07
   5.21000004        -1.97321512E-07
   5.39050007        -1.80538279E-07
   5.57100010        -1.62387565E-07
   5.75150013        -1.43056297E-07
   5.93200016        -1.22758337E-07
   6.11250019        -1.01706092E-07
   6.29300022        -8.00825219E-08
   6.47349977        -5.80217971E-08
   6.65399981        -3.56032110E-08
   6.83449984        -1.28567663E-08
   7.01499987         1.02213420E-08
   7.19549990         3.36495596E-08
   7.37599993         5.74425982E-08
   7.55649996         8.15945143E-08
   7.73699999         1.06065428E-07
   7.91750002         1.30766267E-07
   8.09799957         1.55546701E-07
   8.27849960         1.80184941E-07
   8.45899963         2.04386950E-07
   8.63949966         2.27798012E-07
   8.81999969         2.50031036E-07
   9.00049973         2.70705016E-07
   9.18099976         2.89487787E-07
   9.36149979         3.06128612E-07
   9.54199982         3.20475124E-07
   9.72249985         3.32459621E-07
   9.90299988         3.42064851E-07
   10.0834999         3.49273108E-07
   10.2639999         3.54017544E-07
   10.4445000         3.56154146E-07
   10.6250000         3.55465033E-07
   10.8055000         3.51692677E-07
   10.9860001         3.44594838E-07
   11.1665001         3.33999964E-07
   11.3470001         3.19844361E-07
   11.5275002         3.02179672E-07
   11.7080002         2.81156730E-07
   11.8885002         2.56993417E-07
   12.0690002         2.29949364E-07
   12.2495003         2.00310566E-07
   12.4300003         1.68386791E-07
   12.6105003         1.34507246E-07
   12.7910004         9.90040832E-08
   12.9715004         6.21784366E-08
   13.1520004         2.42538913E-08
   13.3325005        -1.46616079E-08
   13.5129995        -5.45870797E-08
   13.6934996        -9.56414894E-08
   13.8739996        -1.37975064E-07
   14.0544996        -1.81685635E-07
   14.2349997        -2.26737257E-07
   14.4154997        -2.72915514E-07
   14.5959997        -3.19826000E-07
   14.7764997        -3.66937428E-07
   14.9569998        -4.13654789E-07
   15.1374998        -4.59388929E-07
   15.3179998        -5.03610750E-07
   15.4984999        -5.45870080E-07
   15.6789999        -5.85783880E-07
   15.8594999        -6.23007963E-07
   16.0400009        -6.57207920E-07
   16.2205009        -6.88044452E-07
   16.4009991        -7.15174053E-07
   16.5814991        -7.38263964E-07
   16.7619991        -7.57000919E-07
   16.9424992        -7.71095017E-07
   17.1229992        -7.80269659E-07
   17.3034992        -7.84251824E-07
   17.4839993        -7.82774691E-07
   17.6644993        -7.75604065E-07
   17.8449993        -7.62585898E-07
   18.0254993        -7.43710928E-07
   18.2059994        -7.19166792E-07
   18.3864994        -6.89363560E-07
   18.5669994        -6.54916789E-07
   18.7474995        -6.16584941E-07
   18.9279995        -5.75179854E-07
   19.1084995        -5.31468061E-07
   19.2889996        -4.86091324E-07
   19.4694996        -4.39518175E-07
   19.6499996        -3.92033058E-07
   19.8304996        -3.43756568E-07
   20.0109997        -2.94684440E-07
   20.1914997        -2.44731666E-07
   20.3719997        -1.93769267E-07
   20.5524998        -1.41661232E-07
   20.7329998        -8.82860292E-08
   20.9134998        -3.35621984E-08
   21.0939999         2.25371277E-08
   21.2744999         7.99725370E-08
   21.4549999         1.38634206E-07
   21.6355000         1.98348104E-07
   21.8160000         2.58886757E-07
   21.9965000         3.19978739E-07
   22.1770000         3.81314578E-07
   22.3575001         4.42542728E-07
   22.5380001         5.03259287E-07
   22.7185001         5.62979494E-07
   22.8990002         6.21111724E-07
   23.0795002         6.76913487E-07
   23.2600002         7.29450448E-07
   23.4405003         7.77567379E-07
   23.6210003         8.19877471E-07
   23.8015003         8.54790699E-07
   23.9820004         8.80580899E-07
   24.1625004         8.95487915E-07
   24.3430004         8.97840494E-07
   24.5235004         8.86174860E-07
   24.7040005         8.59335614E-07
   24.8845005         8.16528484E-07
   25.0650005         7.57340445E-07
   25.2455006         6.81715051E-07
   25.4260006         5.89910712E-07
   25.6065006         4.82446922E-07
   25.7870007         3.60052411E-07
   25.9675007         2.23618684E-07
   26.1480007         7.41574127E-08
   26.3285007        -8.72495605E-08
   26.5090008        -2.59499728E-07
   26.6895008        -4.41529892E-07
   26.8700008        -6.32365357E-07
   27.0505009        -8.31150544E-07
   27.2310009        -1.03713785E-06
   27.4115009        -1.24965504E-06
   27.5919991        -1.46803802E-06
   27.7724991        -1.69157090E-06
   27.9529991        -1.91944287E-06
   28.1334991        -2.15074851E-06
   28.3139992        -2.38452458E-06
   28.4944992        -2.61980040E-06
   28.6749992        -2.85564624E-06
   28.8554993        -3.09118991E-06
   29.0359993        -3.32560148E-06
   29.2164993        -3.55804673E-06
   29.3969994        -3.78764298E-06
   29.5774994        -4.01342368E-06
   29.7579994        -4.23433676E-06
   29.9384995        -4.44926536E-06
   30.1189995        -4.65705398E-06
   30.2994995        -4.85652936E-06
   30.4799995        -5.04650461E-06
   30.6604996        -5.22577056E-06
   30.8409996        -5.39309394E-06
   31.0214996        -5.54722965E-06
   31.2019997        -5.68696078E-06
   31.3824997        -5.81117047E-06
   31.5629997        -5.91890603E-06
   31.7434998        -6.00943531E-06
   31.9239998        -6.08225491E-06
   32.1044998        -6.13704833E-06
   32.2849998        -6.17361047E-06
   32.4654999        -6.19174762E-06
   32.6459999        -6.19119373E-06
   32.8264999        -6.17156002E-06
   33.0070000        -6.13233533E-06
   33.1875000        -6.07293941E-06
   33.3680000        -5.99279747E-06
   33.5485001        -5.89142383E-06
   33.7290001        -5.76848242E-06
   33.9095001        -5.62382411E-06
   34.0900002        -5.45750072E-06
   34.2705002        -5.26976464E-06
   34.4510002        -5.06106380E-06
   34.6315002        -4.83204803E-06
   34.8120003        -4.58356499E-06
   34.9925003        -4.31665421E-06
   35.1730003        -4.03252852E-06
   35.3535004        -3.73253374E-06
   35.5340004        -3.41811915E-06
   35.7145004        -3.09079405E-06
   35.8950005        -2.75211505E-06
   36.0755005        -2.40366353E-06
   36.2560005        -2.04703588E-06
   36.4365005        -1.68383224E-06
   36.6170006        -1.31564366E-06
   36.7975006        -9.44037311E-07
   36.9780006        -5.70536031E-07
   37.1585007        -1.96601249E-07
   37.3390007         1.76391140E-07
   37.5195007         5.47188108E-07
   37.7000008         9.14693146E-07
   37.8805008         1.27799512E-06
   38.0610008         1.63637822E-06
   38.2415009         1.98930411E-06
   38.4220009         2.33637138E-06
   38.6025009         2.67725000E-06
   38.7830009         3.01162299E-06
   38.9635010         3.33913795E-06
   39.1440010         3.65938399E-06
   39.3245010         3.97189388E-06
   39.5050011         4.27616123E-06
   39.6855011         4.57166379E-06
   39.8660011         4.85787723E-06
   40.0465012         5.13426767E-06
   40.2270012         5.40028168E-06
   40.4075012         5.65531354E-06
   40.5880013         5.89869069E-06
   40.7685013         6.12967051E-06
   40.9490013         6.34745493E-06
   41.1295013         6.55123267E-06
   41.3100014         6.74021430E-06
   41.4905014         6.91364949E-06
   41.6710014         7.07083564E-06
   41.8515015         7.21108336E-06
   42.0320015         7.33368688E-06
   42.2125015         7.43790952E-06
   42.3930016         7.52299184E-06
   42.5735016         7.58819169E-06
   42.7540016         7.63284697E-06
   42.9345016         7.65641744E-06
   43.1150017         7.65851473E-06
   43.2955017         7.63889420E-06
   43.4760017         7.59742215E-06
   43.6565018         7.53403856E-06
   43.8370018         7.44874751E-06
   44.0175018         7.34163177E-06
   44.1980019         7.21289734E-06
   44.3785019         7.06292712E-06
   44.5589981         6.89231319E-06
   44.7394981         6.70186682E-06
   44.9199982         6.49259255E-06
   45.1004982         6.26563815E-06
   45.2809982         6.02223872E-06
   45.4614983         5.76366619E-06
   45.6419983         5.49119704E-06
   45.8224983         5.20610229E-06
   46.0029984         4.90964931E-06
   46.1834984         4.60309639E-06
   46.3639984         4.28768089E-06
   46.5444984         3.96457563E-06
   46.7249985         3.63482536E-06
   46.9054985         3.29927957E-06
   47.0859985         2.95852351E-06
   47.2664986         2.61284208E-06
   47.4469986         2.26221050E-06
   47.6274986         1.90631511E-06
   47.8079987         1.54457382E-06
   47.9884987         1.17617481E-06
   48.1689987         8.00104146E-07
   48.3494987         4.15196865E-07
   48.5299988         2.01909334E-08
   48.7104988        -3.86178613E-07
   48.8909988        -8.05071352E-07
   49.0714989        -1.23743996E-06
   49.2519989        -1.68393194E-06
   49.4324989        -2.14483930E-06
   49.6129990        -2.62008280E-06
   49.7934990        -3.10921678E-06
   49.9739990        -3.61147249E-06
   50.1544991        -4.12579493E-06
   50.3349991        -4.65088533E-06
   50.5154991        -5.18526258E-06
   50.6959991        -5.72729277E-06
   50.8764992        -6.27523423E-06
   51.0569992        -6.82727796E-06
   51.2374992        -7.38157314E-06
   51.4179993        -7.93628351E-06
   51.5984993        -8.48964100E-06
   51.7789993        -9.04002536E-06
   51.9594994        -9.58605870E-06
   52.1399994        -1.01266933E-05
   52.3204994        -1.06612924E-05
   52.5009995        -1.11896979E-05
   52.6814995        -1.17122454E-05
   52.8619995        -1.22297743E-05
   53.0424995        -1.27435806E-05
   53.2229996        -1.32553478E-05
   53.4034996        -1.37670331E-05
   53.5839996        -1.42807521E-05
   53.7644997        -1.47986402E-05
   53.9449997        -1.53227338E-05
   54.1254997        -1.58548628E-05
   54.3059998        -1.63965415E-05
   54.4864998        -1.69489067E-05
   54.6669998        -1.75126552E-05
   54.8474998        -1.80880143E-05
   55.0279999        -1.86747639E-05
   55.2084999        -1.92722891E-05
   55.3889999        -1.98796661E-05
   55.5695000        -2.04957960E-05
   55.7500000        -2.11194983E-05
   55.9305000        -2.17495963E-05
   56.1110001        -2.23849602E-05
   56.2915001        -2.30245114E-05
   56.4720001        -2.36672477E-05
   56.6525002        -2.43122267E-05
   56.8330002        -2.49586101E-05
   57.0135002        -2.56056956E-05
   57.1940002        -2.62529484E-05
   57.3745003        -2.69000157E-05
   57.5550003        -2.75467482E-05
   57.7355003        -2.81931570E-05
   57.9160004        -2.88393840E-05
   58.0965004        -2.94856600E-05
   58.2770004        -3.01322762E-05
   58.4575005        -3.07795563E-05
   58.6380005        -3.14278477E-05
   58.8185005        -3.20775398E-05
   58.9990005        -3.27290109E-05
   59.1795006        -3.33826174E-05
   59.3600006        -3.40386541E-05
   59.5405006        -3.46972665E-05
   59.7210007        -3.53584437E-05
   59.9015007        -3.60219419E-05
   60.0820007        -3.66873428E-05
   60.2625008        -3.73540497E-05
   60.4430008        -3.80213423E-05
   60.6235008        -3.86883949E-05
   60.8040009        -3.93543087E-05
   60.9845009        -4.00180979E-05
   61.1650009        -4.06786821E-05
   61.3455009        -4.13349117E-05
   61.5260010        -4.19856005E-05
   61.7065010        -4.26295665E-05
   61.8870010        -4.32656925E-05
   62.0675011        -4.38929346E-05
   62.2480011        -4.45103433E-05
   62.4285011        -4.51170599E-05
   62.6090012        -4.57122296E-05
   62.7895012        -4.62950338E-05
   62.9700012        -4.68646067E-05
   63.1505013        -4.74200788E-05
   63.3310013        -4.79605951E-05
   63.5115013        -4.84853081E-05
   63.6920013        -4.89934682E-05
   63.8725014        -4.94843953E-05
   64.0530014        -4.99575508E-05
   64.2334976        -5.04125128E-05
   64.4140015        -5.08489829E-05
   64.5944977        -5.12667757E-05
   64.7750015        -5.16657747E-05
   64.9554977        -5.20458998E-05
   65.1360016        -5.24070892E-05
   65.3164978        -5.27492739E-05
   65.4970016        -5.30723446E-05
   65.6774979        -5.33761267E-05
   65.8580017        -5.36604093E-05
   66.0384979        -5.39249450E-05
   66.2190018        -5.41695226E-05
   66.3994980        -5.43940296E-05
   66.5800018        -5.45985167E-05
   66.7604980        -5.47832497E-05
   66.9410019        -5.49487195E-05
   67.1214981        -5.50956320E-05
   67.3020020        -5.52248821E-05
   67.4824982        -5.53374848E-05
   67.6630020        -5.54345097E-05
   67.8434982        -5.55169972E-05
   68.0240021        -5.55858969E-05
   68.2044983        -5.56419618E-05
   68.3850021        -5.56857121E-05
   68.5654984        -5.57174062E-05
   68.7460022        -5.57370440E-05
   68.9264984        -5.57444182E-05
   69.1070023        -5.57391832E-05
   69.2874985        -5.57209169E-05
   69.4680023        -5.56891900E-05
   69.6484985        -5.56435843E-05
   69.8290024        -5.55837250E-05
   70.0094986        -5.55092556E-05
   70.1900024        -5.54198232E-05
   70.3704987        -5.53150821E-05
   70.5510025        -5.51947123E-05
   70.7314987        -5.50584227E-05
   70.9120026        -5.49059841E-05
   71.0924988        -5.47372983E-05
   71.2730026        -5.45524199E-05
   71.4534988        -5.43515926E-05
   71.6340027        -5.41352529E-05
   71.8144989        -5.39040666E-05
   71.9950027        -5.36589032E-05
   72.1754990        -5.34008686E-05
   72.3560028        -5.31312871E-05
   72.5364990        -5.28516939E-05
   72.7170029        -5.25637806E-05
   72.8974991        -5.22693153E-05
   73.0780029        -5.19700297E-05
   73.2584991        -5.16674991E-05
   73.4390030        -5.13630257E-05
   73.6194992        -5.10575810E-05
   73.8000031        -5.07517761E-05
   73.9804993        -5.04458694E-05
   74.1610031        -5.01397917E-05
   74.3414993        -4.98332010E-05
   74.5220032        -4.95254790E-05
   74.7024994        -4.92157815E-05
   74.8830032        -4.89030135E-05
   75.0634995        -4.85858909E-05
   75.2440033        -4.82629439E-05
   75.4244995        -4.79325900E-05
   75.6050034        -4.75931993E-05
   75.7854996        -4.72431639E-05
   75.9660034        -4.68809740E-05
   76.1464996        -4.65053017E-05
   76.3270035        -4.61150485E-05
   76.5074997        -4.57094138E-05
   76.6880035        -4.52879249E-05
   76.8684998        -4.48505052E-05
   77.0490036        -4.43975041E-05
   77.2294998        -4.39297255E-05
   77.4100037        -4.34484573E-05
   77.5904999        -4.29554493E-05
   77.7710037        -4.24528516E-05
   77.9514999        -4.19431344E-05
   78.1320038        -4.14289862E-05
   78.3125000        -4.09131972E-05
   78.4929962        -4.03985614E-05
   78.6735001        -3.98878219E-05
   78.8539963        -3.93835508E-05
   79.0345001        -3.88880799E-05
   79.2149963        -3.84033847E-05
   79.3955002        -3.79309531E-05
   79.5759964        -3.74716838E-05
   79.7565002        -3.70257731E-05
   79.9369965        -3.65926826E-05
   80.1175003        -3.61711245E-05
   80.2979965        -3.57590870E-05
   80.4785004        -3.53539435E-05
   80.6589966        -3.49525326E-05
   80.8395004        -3.45513326E-05
   81.0199966        -3.41466221E-05
   81.2005005        -3.37346792E-05
   81.3809967        -3.33119642E-05
   81.5615005        -3.28752685E-05
   81.7419968        -3.24218563E-05
   81.9225006        -3.19495375E-05
   82.1029968        -3.14567224E-05
   82.2835007        -3.09424286E-05
   82.4639969        -3.04062778E-05
   82.6445007        -2.98484447E-05
   82.8249969        -2.92696041E-05
   83.0055008        -2.86708491E-05
   83.1859970        -2.80536442E-05
   83.3665009        -2.74197646E-05
   83.5469971        -2.67712221E-05
   83.7275009        -2.61102214E-05
   83.9079971        -2.54390798E-05
   84.0885010        -2.47601565E-05
   84.2689972        -2.40757563E-05
   84.4495010        -2.33881001E-05
   84.6299973        -2.26992524E-05
   84.8105011        -2.20111051E-05
   84.9909973        -2.13253479E-05
   85.1715012        -2.06434452E-05
   85.3519974        -1.99665828E-05
   85.5325012        -1.92956450E-05
   85.7129974        -1.86311936E-05
   85.8935013        -1.79734743E-05
   86.0739975        -1.73224471E-05
   86.2545013        -1.66778373E-05
   86.4349976        -1.60392010E-05
   86.6155014        -1.54059890E-05
   86.7959976        -1.47776209E-05
   86.9765015        -1.41535556E-05
   87.1569977        -1.35333612E-05
   87.3375015        -1.29167802E-05
   87.5179977        -1.23037680E-05
   87.6985016        -1.16945148E-05
   87.8789978        -1.10894352E-05
   88.0595016        -1.04891205E-05
   88.2399979        -9.89428190E-06
   88.4205017        -9.30566148E-06
   88.6009979        -8.72394503E-06
   88.7815018        -8.14968007E-06
   88.9619980        -7.58324359E-06
   89.1425018        -7.02482339E-06
   89.3229980        -6.47445722E-06
   89.5035019        -5.93209961E-06
   89.6839981        -5.39770235E-06
   89.8645020        -4.87129500E-06
   90.0449982        -4.35302900E-06
   90.2255020        -3.84320674E-06
   90.4059982        -3.34226411E-06
   90.5865021        -2.85075180E-06
   90.7669983        -2.36929372E-06
   90.9475021        -1.89855086E-06
   91.1279984        -1.43918339E-06
   91.3085022        -9.91805905E-07
   91.4889984        -5.56964949E-07
   91.6695023        -1.35127621E-07
   91.8499985         2.73304266E-07
   92.0305023         6.67950701E-07
   92.2109985         1.04839705E-06
   92.3915024         1.41413204E-06
   92.5719986         1.76449998E-06
   92.7525024         2.09868631E-06
   92.9329987         2.41572366E-06
   93.1135025         2.71451609E-06
   93.2939987         2.99390194E-06
   93.4745026         3.25272276E-06
   93.6549988         3.48991557E-06
   93.8355026         3.70461885E-06
   94.0159988         3.89627348E-06
   94.1965027         4.06471145E-06
   94.3769989         4.21021741E-06
   94.5575027         4.33355717E-06
   94.7379990         4.43596309E-06
   94.9185028         4.51909455E-06
   95.0989990         4.58496288E-06
   95.2795029         4.63582001E-06
   95.4599991         4.67403743E-06
   95.6405029         4.70195391E-06
   95.8209991         4.72172405E-06
   96.0015030         4.73519458E-06
   96.1819992         4.74381613E-06
   96.3625031         4.74861326E-06
   96.5429993         4.75020124E-06
   96.7235031         4.74884155E-06
   96.9039993         4.74451872E-06
   97.0845032         4.73704222E-06
   97.2649994         4.72612328E-06
   97.4455032         4.71145268E-06
   97.6259995         4.69275165E-06
   97.8065033         4.66976371E-06
   97.9869995         4.64222057E-06
   98.1675034         4.60977617E-06
   98.3479996         4.57192982E-06
   98.5285034         4.52797985E-06
   98.7089996         4.47703360E-06
   98.8895035         4.41807651E-06
   99.0699997         4.35007587E-06
   99.2505035         4.27214263E-06
   99.4309998         4.18366108E-06
   99.6115036         4.08443157E-06
   99.7919998         3.97476742E-06
   99.9725037         3.85555268E-06
   100.153000         3.72824729E-06
   100.333504         3.59481055E-06
   100.514000         3.45756712E-06
   100.694504         3.31900105E-06
   100.875000         3.18149546E-06
   101.055496         3.04708760E-06
   101.236000         2.91723359E-06
   101.416496         2.79266169E-06
   101.597000         2.67330347E-06
   101.777496         2.55834607E-06
   101.958000         2.44634884E-06
   102.138496         2.33542664E-06
   102.319000         2.22345261E-06
   102.499496         2.10825442E-06
   102.680000         1.98774023E-06
   102.860497         1.85996817E-06
   103.041000         1.72316447E-06
   103.221497         1.57568479E-06
   103.402000         1.41597218E-06
   103.582497         1.24251869E-06
   103.763000         1.05382128E-06
   103.943497         8.48388538E-07
   104.124001         6.24762492E-07
   104.304497         3.81572789E-07
   104.485001         1.17643737E-07
   104.665497        -1.67857792E-07
   104.846001        -4.75235026E-07
   105.026497        -8.04085118E-07
   105.207001        -1.15315754E-06
   105.387497        -1.52031714E-06
   105.568001        -1.90259391E-06
   105.748497        -2.29636612E-06
   105.929001        -2.69760403E-06
   106.109497        -3.10216910E-06
   106.290001        -3.50610071E-06
   106.470497        -3.90587093E-06
   106.651001        -4.29856436E-06
   106.831497        -4.68201097E-06
   107.012001        -5.05481239E-06
   107.192497        -5.41633335E-06
   107.373001        -5.76660659E-06
   107.553497        -6.10620054E-06
   107.734001        -6.43605790E-06
   107.914497        -6.75732463E-06
   108.095001        -7.07120762E-06
   108.275497        -7.37887376E-06
   108.456001        -7.68141854E-06
   108.636497        -7.97988923E-06
   108.817001        -8.27535678E-06
   108.997498        -8.56901534E-06
   109.178001        -8.86225007E-06
   109.358498        -9.15665896E-06
   109.539001        -9.45400825E-06
   109.719498        -9.75613057E-06
   109.900002        -1.00647694E-05
   110.080498        -1.03814391E-05
   110.261002        -1.07073110E-05
   110.441498        -1.10431492E-05
   110.622002        -1.13892829E-05
   110.802498        -1.17456293E-05
   110.983002        -1.21117400E-05
   111.163498        -1.24868602E-05
   111.344002        -1.28700285E-05
   111.524498        -1.32601872E-05