  -34.5000000         0.00000000    
  -34.3199997         0.00000000    
  -34.1399994         0.00000000    
  -33.9599991         9.00700490E-21
  -33.7799988         4.59623844E-20
  -33.5999985         1.17217063E-19
  -33.4199982         1.77904319E-19
  -33.2400017         1.10768234E-19
  -33.0600014        -2.38201055E-19
  -32.8800011        -9.53814416E-19
  -32.7000008        -1.90814210E-18
  -32.5200005        -2.65189658E-18
  -32.3400002        -2.42188681E-18
  -32.1599998        -3.15828337E-19
  -31.9799995         4.37027311E-18
  -31.7999992         1.17077092E-17
  -31.6200008         2.07169188E-17
  -31.4400005         2.91053524E-17
  -31.2600002         3.33019110E-17
  -31.0799999         2.88966944E-17
  -30.8999996         1.15226119E-17
  -30.7199993        -2.18985231E-17
  -30.5400009        -7.17598901E-17
  -30.3600006        -1.34566046E-16
  -30.1800003        -2.02338119E-16
  -30.0000000        -2.63019506E-16
  -29.8199997        -3.02117991E-16
  -29.6399994        -3.05536695E-16
  -29.4599991        -2.63183883E-16
  -29.2800007        -1.72603887E-16
  -29.1000004        -4.16430050E-17
  -28.9200001         1.10858852E-16
  -28.7399998         2.57101869E-16
  -28.5599995         3.65270094E-16
  -28.3799992         4.06749748E-16
  -28.2000008         3.64106536E-16
  -28.0200005         2.37686154E-16
  -27.8400002         4.86353646E-17
  -27.6599998        -1.63262649E-16
  -27.4799995        -3.47368291E-16
  -27.2999992        -4.54489292E-16
  -27.1200008        -4.50985223E-16
  -26.9400005        -3.30571416E-16
  -26.7600002        -1.19191631E-16
  -26.5799999         1.30475830E-16
  -26.3999996         3.55020969E-16
  -26.2199993         5.02233098E-16
  -26.0400009         5.50431496E-16
  -25.8600006         5.16184154E-16
  -25.6800003         4.45842886E-16
  -25.5000000         3.94184570E-16
  -25.3199997         4.00508968E-16
  -25.1399994         4.74215631E-16
  -24.9599991         5.96478272E-16
  -24.7800007         7.35353347E-16
  -24.6000004         8.64500620E-16
  -24.4200001         9.75583644E-16
  -24.2399998         1.08089112E-15
  -24.0599995         1.21008175E-15
  -23.8799992         1.40634214E-15
  -23.7000008         1.72138578E-15
  -23.5200005         2.20110384E-15
  -23.3400002         2.85375056E-15
  -23.1599998         3.60509547E-15
  -22.9799995         4.26428785E-15
  -22.7999992         4.53614265E-15
  -22.6200008         4.10545138E-15
  -22.4400005         2.78479255E-15
  -22.2600002         6.72553425E-16
  -22.0799999        -1.76109362E-15
  -21.8999996        -3.73478002E-15
  -21.7199993        -4.38589637E-15
  -21.5400009        -3.11571710E-15
  -21.3600006         7.26644419E-17
  -21.1800003         4.39247824E-15
  -21.0000000         8.36168225E-15
  -20.8199997         1.01881114E-14
  -20.6399994         8.36441647E-15
  -20.4599991         2.29052617E-15
  -20.2800007        -7.30276147E-15
  -20.1000004        -1.83195303E-14
  -19.9200001        -2.77355145E-14
  -19.7399998        -3.24311331E-14
  -19.5599995        -3.01907648E-14
  -19.3799992        -2.05469813E-14
  -19.2000008        -5.16413415E-15
  -19.0200005         1.24149687E-14
  -18.8400002         2.76240331E-14
  -18.6599998         3.60879539E-14
  -18.4799995         3.48263458E-14
  -18.2999992         2.30858948E-14
  -18.1200008         2.57630026E-15
  -17.9400005        -2.29130374E-14
  -17.7600002        -4.83598825E-14
  -17.5799999        -6.85757400E-14
  -17.3999996        -7.92595156E-14
  -17.2199993        -7.78793940E-14
  -17.0400009        -6.42927958E-14
  -16.8600006        -4.10409011E-14
  -16.6800003        -1.32327875E-14
  -16.5000000         1.20805863E-14
  -16.3199997         2.71063299E-14
  -16.1399994         2.50333049E-14
  -15.9600000         2.05297853E-15
  -15.7799997        -4.07162300E-14
  -15.6000004        -9.59101437E-14
  -15.4200001        -1.49714632E-13
  -15.2399998        -1.83164044E-13
  -15.0600004        -1.75085830E-13
  -14.8800001        -1.06486434E-13
  -14.6999998         3.42359774E-14
  -14.5200005         2.46286688E-13
  -14.3400002         5.12973886E-13
  -14.1599998         8.01019949E-13
  -13.9799995         1.06359398E-12
  -13.8000002         1.24720058E-12
  -13.6199999         1.30151380E-12
  -13.4399996         1.19029591E-12
  -13.2600002         9.00918446E-13
  -13.0799999         4.50069615E-13
  -12.8999996        -1.16026478E-13
  -12.7200003        -7.27298484E-13
  -12.5400000        -1.30039870E-12
  -12.3599997        -1.75201986E-12
  -12.1800003        -2.01226926E-12
  -12.0000000        -2.03562167E-12
  -11.8199997        -1.80777756E-12
  -11.6400003        -1.34782062E-12
  -11.4600000        -7.05996459E-13
  -11.2799997         4.20572119E-14
  -11.1000004         8.03773281E-13
  -10.9200001         1.48021677E-12
  -10.7399998         1.97831335E-12
  -10.5600004         2.22406143E-12
  -10.3800001         2.17527125E-12
  -10.1999998         1.83136189E-12
  -10.0200005         1.23717562E-12
  -9.84000015         4.78093259E-13
  -9.65999985        -3.34499003E-13
  -9.47999954        -1.08555862E-12
  -9.30000019        -1.68172236E-12
  -9.11999989        -2.07274042E-12
  -8.93999958        -2.26215639E-12
  -8.76000023        -2.30294646E-12
  -8.57999992        -2.27813146E-12
  -8.39999962        -2.27142350E-12
  -8.22000027        -2.33660920E-12
  -8.03999996        -2.47539532E-12
  -7.86000013        -2.63125329E-12
  -7.67999983        -2.70198360E-12
  -7.50000000        -2.56796082E-12
  -7.32000017        -2.12815399E-12
  -7.13999987        -1.33372588E-12
  -6.96000004        -2.09863973E-13
  -6.78000021         1.13997884E-12
  -6.59999990         2.54840962E-12
  -6.42000008         3.81328476E-12
  -6.23999977         4.73510163E-12
  -6.05999994         5.15486612E-12
  -5.88000011         4.98556231E-12
  -5.69999981         4.23221614E-12
  -5.51999998         2.99763469E-12
  -5.34000015         1.47265457E-12
  -5.15999985        -8.85603575E-14
  -4.98000002        -1.40608315E-12
  -4.80000019        -2.22039596E-12
  -4.61999989        -2.34061685E-12
  -4.44000006        -1.68610416E-12
  -4.26000023        -3.12263832E-13
  -4.07999992         1.58726396E-12
  -3.90000010         3.70560180E-12
  -3.72000003         5.67252408E-12
  -3.53999996         7.12061920E-12
  -3.35999990         7.75463721E-12
  -3.18000007         7.40916963E-12
  -3.00000000         6.08227227E-12
  -2.81999993         3.93797191E-12
  -2.64000010         1.27738900E-12
  -2.46000004        -1.51527510E-12
  -2.27999997        -4.04113982E-12
  -2.09999990        -5.95673901E-12
  -1.91999996        -7.03367139E-12
  -1.74000001        -7.19778447E-12
  -1.55999994        -6.54122242E-12
  -1.38000000        -5.30442096E-12
  -1.20000005        -3.82967529E-12
  -1.01999998        -2.49280306E-12
 -0.839999974        -1.62434161E-12
 -0.660000026        -1.43555588E-12
 -0.479999989        -1.96578951E-12
 -0.300000012        -3.06532469E-12
 -0.119999997        -4.42130360E-12
   5.99999987E-02    -5.62463834E-12
  0.239999995        -6.26512687E-12
  0.419999987        -6.03339601E-12
  0.600000024        -4.80455606E-12
  0.779999971        -2.68120422E-12
  0.959999979         1.75322030E-14
   1.13999999         2.82062026E-12
   1.32000005         5.20918118E-12
   1.50000000         6.73489129E-12
   1.67999995         7.12364803E-12
   1.86000001         6.33864706E-12
   2.03999996         4.58836918E-12
   2.22000003         2.27824270E-12
   2.40000010        -8.05569939E-14
   2.57999992        -1.98252027E-12
   2.75999999        -3.03347278E-12
   2.94000006        -3.02768249E-12
   3.11999989        -1.98196125E-12
   3.29999995        -1.23153888E-13
   3.48000002         2.16517516E-12
   3.66000009         4.42276901E-12
   3.83999991         6.20198467E-12
   4.01999998         7.14873646E-12
   4.19999981         7.06062769E-12
   4.38000011         5.91381718E-12
   4.55999994         3.85673785E-12
   4.73999977         1.17510754E-12
   4.92000008        -1.76250833E-12
   5.09999990        -4.56707805E-12
   5.28000021        -6.88847677E-12
   5.46000004        -8.46265592E-12
   5.63999987        -9.14034213E-12
   5.82000017        -8.89512162E-12
   6.00000000        -7.81097929E-12
   6.17999983        -6.05299795E-12
   6.36000013        -3.82797049E-12
   6.53999996        -1.34316516E-12
   6.71999979         1.22734949E-12
   6.90000010         3.76177605E-12
   7.07999992         6.19111403E-12
   7.26000023         8.48308923E-12
   7.44000006         1.06157695E-11
   7.61999989         1.25501311E-11
   7.80000019         1.42111331E-11
   7.98000002         1.54836699E-11
   8.15999985         1.62252503E-11
   8.34000015         1.62919695E-11
   8.52000046         1.55703783E-11
   8.69999981         1.40057939E-11
   8.88000011         1.16182454E-11
   9.06000042         8.50067673E-12
   9.23999977         4.79899540E-12
   9.42000008         6.79455407E-13
   9.60000038        -3.70714527E-12
   9.77999973        -8.25322536E-12
   9.96000004        -1.29050399E-11
   10.1400003        -1.76529746E-11
   10.3199997        -2.25033586E-11
   10.5000000        -2.74402376E-11
   10.6800003        -3.23876446E-11
   10.8599997        -3.71829303E-11
   11.0400000        -4.15690919E-11
   11.2200003        -4.52098810E-11
   11.3999996        -4.77287168E-11
   11.5799999        -4.87664700E-11
   11.7600002        -4.80497968E-11
   11.9399996        -4.54578944E-11
   12.1199999        -4.10700710E-11
   12.3000002        -3.51798243E-11
   12.4799995        -2.82633830E-11
   12.6599998        -2.09027969E-11
   12.8400002        -1.36748841E-11
   13.0200005        -7.03038192E-12
   13.1999998        -1.19212420E-12
   13.3800001         3.89976983E-12
   13.5600004         8.57884944E-12
   13.7399998         1.33789264E-11
   13.9200001         1.89116899E-11
   14.1000004         2.57258052E-11
   14.2799997         3.41818275E-11
   14.4600000         4.43738171E-11
   14.6400003         5.61168195E-11
   14.8199997         6.89995422E-11
   15.0000000         8.24852756E-11
   15.1800003         9.60309124E-11
   15.3599997         1.09189401E-10
   15.5400000         1.21670424E-10
   15.7200003         1.33347222E-10
   15.8999996         1.44216805E-10
   16.0799999         1.54332019E-10
   16.2600002         1.63731972E-10
   16.4400005         1.72393558E-10
   16.6200008         1.80215537E-10
   16.7999992         1.87036386E-10
   16.9799995         1.92677263E-10
   17.1599998         1.96996267E-10
   17.3400002         1.99935762E-10
   17.5200005         2.01555939E-10
   17.7000008         2.02041647E-10
   17.8799992         2.01684211E-10
   18.0599995         2.00839664E-10
   18.2399998         1.99870759E-10
   18.4200001         1.99090161E-10
   18.6000004         1.98711797E-10
   18.7800007         1.98823263E-10
   18.9599991         1.99386549E-10
   19.1399994         2.00256922E-10
   19.3199997         2.01218417E-10
   19.5000000         2.02022732E-10
   19.6800003         2.02411213E-10
   19.8600006         2.02127218E-10
   20.0400009         2.00902545E-10
   20.2199993         1.98436365E-10
   20.3999996         1.94368119E-10
   20.5799999         1.88277435E-10
   20.7600002         1.79701906E-10
   20.9400005         1.68207587E-10
   21.1200008         1.53479798E-10
   21.2999992         1.35431111E-10
   21.4799995         1.14290556E-10
   21.6599998         9.06342570E-11
   21.8400002         6.53497326E-11
   22.0200005         3.95232562E-11
   22.2000008         1.42689541E-11
   22.3799992        -9.44619209E-12
   22.5599995        -3.09615354E-11
   22.7399998        -5.00097533E-11
   22.9200001        -6.67127256E-11
   23.1000004        -8.15068568E-11
   23.2800007        -9.49948384E-11
   23.4599991        -1.07792372E-10
   23.6399994        -1.20380164E-10
   23.8199997        -1.33021205E-10
   24.0000000        -1.45743376E-10
   24.1800003        -1.58381586E-10
   24.3600006        -1.70671088E-10
   24.5400009        -1.82332732E-10
   24.7199993        -1.93139282E-10
   24.8999996        -2.02924608E-10
   25.0799999        -2.11559339E-10
   25.2600002        -2.18881482E-10
   25.4400005        -2.24626526E-10
   25.6200008        -2.28401215E-10
   25.7999992        -2.29695943E-10
   25.9799995        -2.27969810E-10
   26.1599998        -2.22764196E-10
   26.3400002        -2.13854295E-10
   26.5200005        -2.01399647E-10
   26.7000008        -1.86012303E-10
   26.8799992        -1.68768041E-10
   27.0599995        -1.51122323E-10
   27.2399998        -1.34734834E-10
   27.4200001        -1.21205795E-10
   27.6000004        -1.11834993E-10
   27.7800007        -1.07388001E-10
   27.9599991        -1.07984122E-10
   28.1399994        -1.13093701E-10
   28.3199997        -1.21690755E-10
   28.5000000        -1.32486064E-10
   28.6800003        -1.44234388E-10
   28.8600006        -1.55984406E-10
   29.0400009        -1.67237280E-10
   29.2199993        -1.77980866E-10
   29.3999996        -1.88561416E-10
   29.5799999        -1.99451039E-10
   29.7600002        -2.10955767E-10
   29.9400005        -2.22973501E-10
   30.1200008        -2.34844921E-10
   30.2999992        -2.45370363E-10
   30.4799995        -2.52990406E-10
   30.6599998        -2.56085042E-10
   30.8400002        -2.53308791E-10
   31.0200005        -2.43920939E-10
   31.2000008        -2.27978331E-10
   31.3799992        -2.06386269E-10
   31.5599995        -1.80784152E-10
   31.7399998        -1.53306548E-10
   31.9200001        -1.26246721E-10
   32.0999985        -1.01730194E-10
   32.2799988        -8.13982423E-11
   32.4599991        -6.62335881E-11
   32.6399994        -5.64611691E-11
   32.8199997        -5.16264427E-11
   33.0000000        -5.07560625E-11
   33.1800003        -5.25907096E-11
   33.3600006        -5.58539499E-11
   33.5400009        -5.94642668E-11
   33.7200012        -6.26923374E-11
   33.9000015        -6.52100873E-11
   34.0800018        -6.70389091E-11
   34.2599983        -6.84200266E-11
   34.4399986        -6.96536856E-11
   34.6199989        -7.09178549E-11
   34.7999992        -7.21479335E-11
   34.9799995        -7.29845628E-11
   35.1599998        -7.28035549E-11
   35.3400002        -7.08277326E-11
   35.5200005        -6.62910282E-11
   35.7000008        -5.85946153E-11
   35.8800011        -4.74504637E-11
   36.0600014        -3.29314492E-11
   36.2400017        -1.54859996E-11
   36.4199982         4.15262833E-12
   36.5999985         2.50771955E-11
   36.7799988         4.63589098E-11
   36.9599991         6.71581818E-11
   37.1399994         8.68390776E-11
   37.3199997         1.05009321E-10
   37.5000000         1.21518087E-10
   37.6800003         1.36412340E-10
   37.8600006         1.49861692E-10
   38.0400009         1.62061628E-10
   38.2200012         1.73156198E-10
   38.4000015         1.83188978E-10
   38.5800018         1.92082961E-10
   38.7599983         1.99650782E-10
   38.9399986         2.05649567E-10
   39.1199989         2.09829001E-10
   39.2999992         2.11980072E-10
   39.4799995         2.11997642E-10
   39.6599998         2.09874951E-10
   39.8400002         2.05724562E-10
   40.0200005         1.99745651E-10
   40.2000008         1.92190958E-10
   40.3800011         1.83338858E-10
   40.5600014         1.73474402E-10
   40.7400017         1.62895905E-10
   40.9199982         1.51944166E-10
   41.0999985         1.41048173E-10
   41.2799988         1.30751174E-10
   41.4599991         1.21714680E-10
   41.6399994         1.14667185E-10
   41.8199997         1.10321967E-10
   42.0000000         1.09246209E-10
   42.1800003         1.11745953E-10
   42.3600006         1.17762966E-10
   42.5400009         1.26852986E-10
   42.7200012         1.38215425E-10
   42.9000015         1.50797569E-10
   43.0800018         1.63456165E-10
   43.2599983         1.75118559E-10
   43.4399986         1.84924950E-10
   43.6199989         1.92306851E-10
   43.7999992         1.96990077E-10
   43.9799995         1.98936201E-10
   44.1599998         1.98237982E-10
   44.3400002         1.95030769E-10
   44.5200005         1.89420035E-10
   44.7000008         1.81476029E-10
   44.8800011         1.71262518E-10
   45.0600014         1.58904917E-10
   45.2400017         1.44647960E-10
   45.4199982         1.28901195E-10
   45.5999985         1.12245026E-10
   45.7799988         9.54083132E-11
   45.9599991         7.92141561E-11
   46.1399994         6.45112089E-11
   46.3199997         5.20907414E-11
   46.5000000         4.26071713E-11
   46.6800003         3.64934472E-11
   46.8600006         3.38972080E-11
   47.0400009         3.46309717E-11
   47.2200012         3.81530189E-11
   47.4000015         4.35936391E-11
   47.5800018         4.98193951E-11
   47.7599983         5.55560736E-11
   47.9399986         5.95463540E-11
   48.1199989         6.07325301E-11
   48.2999992         5.84286161E-11
   48.4799995         5.24598906E-11
   48.6599998         4.32150565E-11
   48.8400002         3.16245155E-11
   49.0200005         1.90370861E-11
   49.2000008         7.02747929E-12
   49.3800011        -2.84487668E-12
   49.5600014        -9.28127714E-12
   49.7400017        -1.14667130E-11
   49.9199982        -9.23521329E-12
   50.0999985        -3.14381724E-12
   50.2799988         5.56505710E-12
   50.4599991         1.51104892E-11
   50.6399994         2.34269479E-11
   50.8199997         2.84839999E-11
   51.0000000         2.85972062E-11
   51.1800003         2.26884449E-11
   51.3600006         1.04110574E-11
   51.5400009        -7.86913243E-12
   51.7200012        -3.12472721E-11
   51.9000015        -5.85358914E-11
   52.0800018        -8.85738843E-11
   52.2599983        -1.20471452E-10
   52.4399986        -1.53756244E-10
   52.6199989        -1.88360300E-10
   52.7999992        -2.24474425E-10
   52.9799995        -2.62291050E-10
   53.1599998        -3.01715264E-10
   53.3400002        -3.42132489E-10
   53.5200005        -3.82299775E-10
   53.7000008        -4.20387614E-10
   53.8800011        -4.54205201E-10
   54.0600014        -4.81529483E-10
   54.2400017        -5.00478436E-10
   54.4199982        -5.09841280E-10
   54.5999985        -5.09289388E-10
   54.7799988        -4.99446484E-10
   54.9599991        -4.81780005E-10
   55.1399994        -4.58358351E-10
   55.3199997        -4.31525454E-10
   55.5000000        -4.03535677E-10
   55.6800003        -3.76246923E-10
   55.8600006        -3.50909996E-10
   56.0400009        -3.28098132E-10
   56.2200012        -3.07781384E-10
   56.4000015        -2.89517632E-10
   56.5800018        -2.72730671E-10
   56.7599983        -2.56972194E-10
   56.9399986        -2.42141307E-10
   57.1199989        -2.28586483E-10
   57.2999992        -2.17089138E-10
   57.4799995        -2.08728812E-10
   57.6599998        -2.04644593E-10
   57.8400002        -2.05760534E-10
   58.0200005        -2.12518655E-10
   58.2000008        -2.24670213E-10
   58.3800011        -2.41191317E-10
   58.5600014        -2.60348854E-10
   58.7400017        -2.79917534E-10
   58.9199982        -2.97513791E-10
   59.0999985        -3.11001114E-10
   59.2799988        -3.18873344E-10
   59.4599991        -3.20564159E-10
   59.6399994        -3.16593252E-10
   59.8199997        -3.08550269E-10
   60.0000000        -2.98880865E-10
   60.1800003        -2.90518609E-10
   60.3600006        -2.86433072E-10
   60.5400009        -2.89125612E-10
   60.7200012        -3.00211661E-10
   60.9000015        -3.20119570E-10
   61.0800018        -3.48008761E-10
   61.2599983        -3.81869175E-10
   61.4399986        -4.18836521E-10
   61.6199989        -4.55645521E-10
   61.7999992        -4.89121021E-10
   61.9799995        -5.16650889E-10
   62.1599998        -5.36540257E-10
   62.3400002        -5.48186108E-10
   62.5200005        -5.52050183E-10
   62.7000008        -5.49460588E-10
   62.8800011        -5.42231593E-10
   63.0600014        -5.32259292E-10
   63.2400017        -5.21092947E-10
   63.4199982        -5.09684739E-10
   63.5999985        -4.98261099E-10
   63.7799988        -4.86425678E-10
   63.9599991        -4.73409478E-10
   64.1399994        -4.58367122E-10
   64.3199997        -4.40701448E-10
   64.5000000        -4.20249585E-10
   64.6800003        -3.97326783E-10
   64.8600006        -3.72621461E-10
   65.0400009        -3.46989881E-10
   65.2200012        -3.21151689E-10
   65.4000015        -2.95486607E-10
   65.5800018        -2.69877426E-10
   65.7600021        -2.43692039E-10
   65.9400024        -2.15927207E-10
   66.1200027        -1.85432364E-10
   66.3000031        -1.51198304E-10
   66.4800034        -1.12575824E-10
   66.6600037        -6.94608468E-11
   66.8399963        -2.23236186E-11
   67.0199966         2.78829564E-11
   67.1999969         7.98785343E-11
   67.3799973         1.32279160E-10
   67.5599976         1.83795382E-10
   67.7399979         2.33389308E-10
   67.9199982         2.80339058E-10
   68.0999985         3.24200278E-10
   68.2799988         3.64716007E-10
   68.4599991         4.01653516E-10
   68.6399994         4.34637326E-10
   68.8199997         4.63065419E-10
   69.0000000         4.86116647E-10
   69.1800003         5.02893560E-10
   69.3600006         5.12660137E-10
   69.5400009         5.15136489E-10
   69.7200012         5.10764597E-10
   69.9000015         5.00817776E-10
   70.0800018         4.87328844E-10
   70.2600021         4.72822448E-10
   70.4400024         4.59873306E-10
   70.6200027         4.50592452E-10
   70.8000031         4.46198800E-10
   70.9800034         4.46725046E-10
   71.1600037         4.51001458E-10
   71.3399963         4.56906790E-10
   71.5199966         4.61876343E-10
   71.6999969         4.63517169E-10
   71.8799973         4.60208371E-10
   72.0599976         4.51563620E-10
   72.2399979         4.38564574E-10
   72.4199982         4.23392849E-10
   72.5999985         4.08974771E-10
   72.7799988         3.98329120E-10
   72.9599991         3.93879401E-10
   73.1399994         3.96897432E-10
   73.3199997         4.07162803E-10
   73.5000000         4.22981816E-10
   73.6800003         4.41484682E-10
   73.8600006         4.59193739E-10
   74.0400009         4.72717421E-10
   74.2200012         4.79380646E-10
   74.4000015         4.77738071E-10
   74.5800018         4.67775763E-10
   74.7600021         4.50811249E-10
   74.9400024         4.29125790E-10
   75.1200027         4.05434825E-10
   75.3000031         3.82292142E-10
   75.4800034         3.61595753E-10
   75.6600037         3.44320045E-10
   75.8399963         3.30429267E-10
   76.0199966         3.19054477E-10
   76.1999969         3.08805065E-10
   76.3799973         2.98176123E-10
   76.5599976         2.85900553E-10
   76.7399979         2.71232398E-10
   76.9199982         2.54066435E-10
   77.0999985         2.34904929E-10
   77.2799988         2.14725002E-10
   77.4599991         1.94734701E-10
   77.6399994         1.76135828E-10
   77.8199997         1.59912014E-10
   78.0000000         1.46695586E-10
   78.1800003         1.36708186E-10
   78.3600006         1.29806804E-10
   78.5400009         1.25567709E-10
   78.7200012         1.23453275E-10
   78.9000015         1.22921368E-10
   79.0800018         1.23566171E-10
   79.2600021         1.25166114E-10
   79.4400024         1.27682559E-10
   79.6200027         1.31188810E-10
   79.8000031         1.35773601E-10
   79.9800034         1.41431214E-10
   80.1600037         1.47988594E-10
   80.3399963         1.55076660E-10
   80.5199966         1.62165753E-10
   80.6999969         1.68619660E-10
   80.8799973         1.73768666E-10
   81.0599976         1.76956047E-10
   81.2399979         1.77546672E-10
   81.4199982         1.74919551E-10
   81.5999985         1.68448130E-10
   81.7799988         1.57518915E-10
   81.9599991         1.41575140E-10
   82.1399994         1.20225829E-10
   82.3199997         9.33724209E-11
   82.5000000         6.13199977E-11
   82.6800003         2.48458268E-11
   82.8600006        -1.48302360E-11
   83.0400009        -5.61770040E-11
   83.2200012        -9.75725334E-11
   83.4000015        -1.37561865E-10
   83.5800018        -1.75078174E-10
   83.7600021        -2.09595979E-10
   83.9400024        -2.41151932E-10
   84.1200027        -2.70237444E-10
   84.3000031        -2.97591424E-10
   84.4800034        -3.23963217E-10
   84.6600037        -3.49885398E-10
   84.8399963        -3.75531550E-10
   85.0199966        -4.00681294E-10
   85.1999969        -4.24789343E-10
   85.3799973        -4.47128667E-10
   85.5599976        -4.66974126E-10
   85.7399979        -4.83748208E-10
   85.9199982        -4.97099806E-10
   86.0999985        -5.06890752E-10
   86.2799988        -5.13094012E-10
   86.4599991        -5.15617216E-10
   86.6399994        -5.14149001E-10
   86.8199997        -5.08040054E-10
   87.0000000        -4.96303887E-10
   87.1800003        -4.77737072E-10
   87.3600006        -4.51146787E-10
   87.5400009        -4.15640689E-10
   87.7200012        -3.70902559E-10
   87.9000015        -3.17374460E-10
   88.0800018        -2.56300731E-10
   88.2600021        -1.89585847E-10
   88.4400024        -1.19506072E-10
   88.6200027        -4.83213261E-11
   88.8000031         2.21144145E-11
   88.9800034         9.06396624E-11
   89.1600037         1.56911220E-10
   89.3399963         2.21298091E-10
   89.5199966         2.84609392E-10
   89.6999969         3.47684326E-10
   89.8799973         4.10975448E-10
   90.0599976         4.74225270E-10
   90.2399979         5.36326150E-10
   90.4199982         5.95400451E-10
   90.5999985         6.49089560E-10
   90.7799988         6.94996005E-10
   90.9599991         7.31172733E-10
   91.1399994         7.56552709E-10
   91.3199997         7.71206377E-10
   91.5000000         7.76386344E-10
   91.6800003         7.74304676E-10
   91.8600006         7.67716613E-10
   92.0400009         7.59373175E-10
   92.2200012         7.51470663E-10
   92.4000015         7.45203788E-10
   92.5800018         7.40531136E-10
   92.7600021         7.36190886E-10
   92.9400024         7.29972638E-10
   93.1200027         7.19204973E-10
   93.3000031         7.01331326E-10
   93.4800034         6.74502065E-10
   93.6600037         6.38017250E-10
   93.8399963         5.92557170E-10
   94.0199966         5.40123668E-10
   94.1999969         4.83723395E-10
   94.3799973         4.26847196E-10
   94.5599976         3.72861880E-10
   94.7399979         3.24462790E-10
   94.9199982         2.83290919E-10
   95.0999985         2.49819221E-10
   95.2799988         2.23511765E-10
   95.4599991         2.03202719E-10
   95.6399994         1.87597465E-10
   95.8199997         1.75740367E-10
   96.0000000         1.67335937E-10
   96.1800003         1.62810612E-10
   96.3600006         1.63101352E-10
   96.5400009         1.69230116E-10
   96.7200012         1.81788126E-10
   96.9000015         2.00491415E-10
   97.0800018         2.23955965E-10
   97.2600021         2.49796822E-10
   97.4400024         2.75020701E-10
   97.6200027         2.96632524E-10
   97.8000031         3.12275178E-10
   97.9800034         3.20717980E-10
   98.1600037         3.22038701E-10
   98.3399963         3.17451149E-10
   98.5199966         3.08786524E-10
   98.6999969         2.97827846E-10
   98.8799973         2.85633434E-10
   99.0599976         2.72094347E-10
   99.2399979         2.55858223E-10
   99.4199982         2.34639780E-10
   99.5999985         2.05882034E-10
   99.7799988         1.67566946E-10
   99.9599991         1.18971735E-10
   100.139999         6.11315235E-11
   100.320000        -3.09631444E-12
   100.500000        -6.94483360E-11
   100.680000        -1.33038053E-10
   100.860001        -1.89333008E-10
   101.040001        -2.35093250E-10
   101.220001        -2.69049477E-10
   101.400002        -2.92148389E-10
   101.580002        -3.07320336E-10
   101.760002        -3.18807897E-10
   101.940002        -3.31201760E-10
   102.120003        -3.48427481E-10
   102.300003        -3.72884335E-10
   102.480003        -4.04967532E-10
   102.660004        -4.43077547E-10
   102.839996        -4.84100315E-10
   103.019997        -5.24244814E-10
   103.199997        -5.60014590E-10
   103.379997        -5.89083671E-10
   103.559998        -6.10831108E-10
   103.739998        -6.26436625E-10
   103.919998        -6.38518960E-10
   104.099998        -6.50435150E-10
   104.279999        -6.65442479E-10
   104.459999        -6.85947688E-10
   104.639999        -7.13013815E-10
   104.820000        -7.46240902E-10
   105.000000        -7.84016685E-10
   105.180000        -8.24008972E-10
   105.360001        -8.63760119E-10
   105.540001        -9.01206054E-10
   105.720001        -9.34996969E-10
   105.900002        -9.64575642E-10
   106.080002        -9.90048710E-10
   106.260002        -1.01195152E-09
   106.440002        -1.03099707E-09
   106.620003        -1.04789921E-09
   106.800003        -1.06328801E-09
   106.980003        -1.07768983E-09
   107.160004        -1.09152554E-09
   107.339996        -1.10506515E-09
   107.519997        -1.11833243E-09
   107.699997        -1.13097742E-09
   107.879997        -1.14217191E-09
   108.059998        -1.15061394E-09
   108.239998        -1.15464838E-09
   108.419998        -1.15254795E-09
   108.599998        -1.14286403E-09
   108.779999        -1.12479337E-09
   108.959999        -1.09842824E-09
   109.139999        -1.06482445E-09
   109.320000        -1.02583941E-09
   109.500000        -9.83748194E-10
   109.680000        -9.40752587E-10
   109.860001        -8.98458419E-10
   110.040001        -8.57505844E-10
   110.220001        -8.17416246E-10
   110.400002        -7.76731957E-10
   110.580002        -7.33407890E-10
   110.760002        -6.85372314E-10
   110.940002        -6.31122488E-10
   111.120003        -5.70216097E-10