  -34.5000000       0.00000000    
  -34.3199997       0.00000000    
  -34.1399994       0.00000000    
  -33.9599991       0.00000000    
  -33.7799988       8.24141378E-25
  -33.5999985       1.73609921E-23
  -33.4199982      -6.54176095E-23
  -33.2400017      -1.99248758E-22
  -33.0600014       5.55361157E-22
  -32.8800011       2.14131373E-21
  -32.7000008       2.19342686E-22
  -32.5200005      -7.52456719E-21
  -32.3400002      -7.61655387E-21
  -32.1599998       1.74785170E-20
  -31.9799995       4.30312764E-20
  -31.7999992      -2.24677542E-21
  -31.6200008      -1.31775416E-19
  -31.4400005      -2.07296683E-19
  -31.2600002      -6.10791069E-20
  -31.0799999       2.64984285E-19
  -30.8999996       5.91506465E-19
  -30.7199993       9.99377489E-19
  -30.5400009       1.64167269E-18
  -30.3600006       1.37487137E-18
  -30.1800003      -2.90763684E-18
  -30.0000000      -1.27575098E-17
  -29.8199997      -2.11561517E-17
  -29.6399994      -1.10611683E-17
  -29.4599991       3.03557484E-17
  -29.2800007       8.70243701E-17
  -29.1000004       1.05065252E-16
  -28.9200001       2.51991078E-17
  -28.7399998      -1.53221656E-16
  -28.5599995      -3.29803131E-16
  -28.3799992      -3.39352051E-16
  -28.2000008      -6.82057002E-17
  -28.0200005       4.23938455E-16
  -27.8400002       8.78710815E-16
  -27.6599998       9.56854263E-16
  -27.4799995       4.44265499E-16
  -27.2999992      -5.78109039E-16
  -27.1200008      -1.71058007E-15
  -26.9400005      -2.38278521E-15
  -26.7600002      -2.10539865E-15
  -26.5799999      -7.10902735E-16
  -26.3999996       1.51712039E-15
  -26.2199993       3.87853422E-15
  -26.0400009       5.45591751E-15
  -25.8600006       5.43159666E-15
  -25.6800003       3.42526931E-15
  -25.5000000      -2.84060837E-16
  -25.3199997      -4.77643658E-15
  -25.1399994      -8.78486753E-15
  -24.9599991      -1.11603418E-14
  -24.7800007      -1.12953385E-14
  -24.6000004      -9.29161008E-15
  -24.4200001      -5.77625690E-15
  -24.2399998      -1.44820039E-15
  -24.0599995       3.41234444E-15
  -23.8799992       9.18213022E-15
  -23.7000008       1.66610957E-14
  -23.5200005       2.63404902E-14
  -23.3400002       3.74163794E-14
  -23.1599998       4.70291734E-14
  -22.9799995       5.02692438E-14
  -22.7999992       4.12725003E-14
  -22.6200008       1.52726851E-14
  -22.4400005      -2.90182544E-14
  -22.2600002      -8.75981484E-14
  -22.0799999      -1.50697949E-13
  -21.8999996      -2.03948715E-13
  -21.7199993      -2.30966044E-13
  -21.5400009      -2.16774596E-13
  -21.3600006      -1.51422969E-13
  -21.1800003      -3.32299936E-14
  -21.0000000       1.28827775E-13
  -20.8199997       3.14137090E-13
  -20.6399994       4.91529181E-13
  -20.4599991       6.23024852E-13
  -20.2800007       6.70421672E-13
  -20.1000004       6.04050664E-13
  -19.9200001       4.11930608E-13
  -19.7399998       1.06672063E-13
  -19.5599995      -2.72622284E-13
  -19.3799992      -6.65210888E-13
  -19.2000008      -1.00011113E-12
  -19.0200005      -1.21155809E-12
  -18.8400002      -1.25440218E-12
  -18.6599998      -1.11504480E-12
  -18.4799995      -8.14769096E-13
  -18.2999992      -4.04623953E-13
  -18.1200008       4.65231627E-14
  -17.9400005       4.67328487E-13
  -17.7600002       7.98564014E-13
  -17.5799999       1.00326984E-12
  -17.3999996       1.07021293E-12
  -17.2199993       1.01054625E-12
  -17.0400009       8.49725184E-13
  -16.8600006       6.18232950E-13
  -16.6800003       3.44694596E-13
  -16.5000000       5.35259703E-14
  -16.3199997      -2.33005049E-13
  -16.1399994      -4.90454519E-13
  -15.9600000      -6.88704952E-13
  -15.7799997      -7.92012181E-13
  -15.6000004      -7.63960022E-13
  -15.4200001      -5.76901916E-13
  -15.2399998      -2.23682563E-13
  -15.0600004       2.71920480E-13
  -14.8800001       8.50144174E-13
  -14.6999998       1.41893539E-12
  -14.5200005       1.86764233E-12
  -14.3400002       2.08880200E-12
  -14.1599998       2.00300844E-12
  -13.9799995       1.58010302E-12
  -13.8000002       8.50509713E-13
  -13.6199999      -9.68712415E-14
  -13.4399996      -1.13001893E-12
  -13.2600002      -2.09873958E-12
  -13.0799999      -2.86335907E-12
  -12.8999996      -3.32071978E-12
  -12.7200003      -3.42198579E-12
  -12.5400000      -3.17887058E-12
  -12.3599997      -2.65753695E-12
  -12.1800003      -1.96215461E-12
  -12.0000000      -1.21220492E-12
  -11.8199997      -5.18659931E-13
  -11.6400003       3.58514454E-14
  -11.4600000       4.08921838E-13
  -11.2799997       6.00283657E-13
  -11.1000004       6.44298525E-13
  -10.9200001       5.96149811E-13
  -10.7399998       5.16657192E-13
  -10.5600004       4.60785164E-13
  -10.3800001       4.72906057E-13
  -10.1999998       5.88414408E-13
  -10.0200005       8.37682246E-13
  -9.84000015       1.24672527E-12
  -9.65999985       1.83048867E-12
  -9.47999954       2.57896070E-12
  -9.30000019       3.44161852E-12
  -9.11999989       4.31895535E-12
  -8.93999958       5.06896695E-12
  -8.76000023       5.53148456E-12
  -8.57999992       5.56575489E-12
  -8.39999962       5.09024420E-12
  -8.22000027       4.11134581E-12
  -8.03999996       2.73046885E-12
  -7.86000013       1.12608100E-12
  -7.67999983      -4.84430584E-13
  -7.50000000      -1.89177992E-12
  -7.32000017      -2.93698854E-12
  -7.13999987      -3.53733015E-12
  -6.96000004      -3.69039608E-12
  -6.78000021      -3.45784729E-12
  -6.59999990      -2.93692089E-12
  -6.42000008      -2.23099772E-12
  -6.23999977      -1.42973090E-12
  -6.05999994      -6.04381725E-13
  -5.88000011       1.82925371E-13
  -5.69999981       8.63310942E-13
  -5.51999998       1.34897822E-12
  -5.34000015       1.53313104E-12
  -5.15999985       1.30555647E-12
  -4.98000002       5.81004049E-13
  -4.80000019      -6.67586863E-13
  -4.61999989      -2.38131953E-12
  -4.44000006      -4.40312110E-12
  -4.26000023      -6.48770490E-12
  -4.07999992      -8.33577391E-12
  -3.90000010      -9.64810003E-12
  -3.72000003      -1.01894370E-11
  -3.53999996      -9.84782568E-12
  -3.35999990      -8.67349855E-12
  -3.18000007      -6.88449081E-12
  -3.00000000      -4.83237365E-12
  -2.81999993      -2.93123642E-12
  -2.64000010      -1.56316106E-12
  -2.46000004      -9.82197071E-13
  -2.27999997      -1.24249146E-12
  -2.09999990      -2.17296558E-12
  -1.91999996      -3.41021937E-12
  -1.74000001      -4.48451172E-12
  -1.55999994      -4.93763797E-12
  -1.38000000      -4.44032441E-12
  -1.20000005      -2.87615591E-12
  -1.01999998      -3.69155851E-13
 -0.839999974       2.75126818E-12
 -0.660000026       6.03574092E-12
 -0.479999989       9.02484944E-12
 -0.300000012       1.13524121E-11
 -0.119999997       1.28159662E-11
   5.99999987E-02   1.33996972E-11
  0.239999995       1.32510860E-11
  0.419999987       1.26249488E-11
  0.600000024       1.18152632E-11
  0.779999971       1.10939114E-11
  0.959999979       1.06677523E-11
   1.13999999       1.06560871E-11
   1.32000005       1.10841718E-11
   1.50000000       1.18870634E-11
   1.67999995       1.29210852E-11
   1.86000001       1.39836016E-11
   2.03999996       1.48432499E-11
   2.22000003       1.52793490E-11
   2.40000010       1.51251980E-11
   2.57999992       1.43052167E-11
   2.75999999       1.28558735E-11
   2.94000006       1.09235598E-11
   3.11999989       8.73842838E-12
   3.29999995       6.56979245E-12
   3.48000002       4.67267501E-12
   3.66000009       3.23638772E-12
   3.83999991       2.34544068E-12
   4.01999998       1.95966138E-12
   4.19999981       1.91857229E-12
   4.38000011       1.96981624E-12
   4.55999994       1.81841814E-12
   4.73999977       1.18779628E-12
   4.92000008      -1.19998317E-13
   5.09999990      -2.17903473E-12
   5.28000021      -4.92057133E-12
   5.46000004      -8.14585639E-12
   5.63999987      -1.15673972E-11
   5.82000017      -1.48689845E-11
   6.00000000      -1.77694855E-11
   6.17999983      -2.00745618E-11
   6.36000013      -2.17041628E-11
   6.53999996      -2.26887953E-11
   6.71999979      -2.31362915E-11
   6.90000010      -2.31785494E-11
   7.07999992      -2.29159591E-11
   7.26000023      -2.23783162E-11
   7.44000006      -2.15179177E-11
   7.61999989      -2.02397439E-11
   7.80000019      -1.84583633E-11
   7.98000002      -1.61602433E-11
   8.15999985      -1.34454158E-11
   8.34000015      -1.05283334E-11
   8.52000046      -7.69388719E-12
   8.69999981      -5.22175792E-12
   8.88000011      -3.30593907E-12
   9.06000042      -1.99837260E-12
   9.23999977      -1.19616697E-12
   9.42000008      -6.75610826E-13
   9.60000038      -1.58414650E-13
   9.77999973       6.12604585E-13
   9.96000004       1.81235994E-12
   10.1400003       3.50168288E-12
   10.3199997       5.62931949E-12
   10.5000000       8.06129209E-12
   10.6800003       1.06242619E-11
   10.8599997       1.31484199E-11
   11.0400000       1.54960281E-11
   11.2200003       1.75686150E-11
   11.3999996       1.92927202E-11
   11.5799999       2.05948886E-11
   11.7600002       2.13804703E-11
   11.9399996       2.15319689E-11
   12.1199999       2.09337513E-11
   12.3000002       1.95198926E-11
   12.4799995       1.73281545E-11
   12.6599998       1.45392691E-11
   12.8400002       1.14810904E-11
   13.0200005       8.59039315E-12
   13.1999998       6.33605798E-12
   13.3800001       5.12050602E-12
   13.5600004       5.18568868E-12
   13.7399998       6.54844278E-12
   13.9200001       8.98598296E-12
   14.1000004       1.20769610E-11
   14.2799997       1.52936778E-11
   14.4600000       1.81261811E-11
   14.6400003       2.02092995E-11
   14.8199997       2.14216943E-11
   15.0000000       2.19324871E-11
   15.1800003       2.21793486E-11
   15.3599997       2.27835910E-11
   15.5400000       2.44210017E-11
   15.7200003       2.76797248E-11
   15.8999996       3.29377983E-11
   16.0799999       4.02861355E-11
   16.2600002       4.95082725E-11
   16.4400005       6.01143996E-11
   16.6200008       7.14162895E-11
   16.7999992       8.26235053E-11
   16.9799995       9.29434377E-11
   17.1599998       1.01668375E-10
   17.3400002       1.08241867E-10
   17.5200005       1.12302695E-10
   17.7000008       1.13709792E-10
   17.8799992       1.12552412E-10
   18.0599995       1.09148496E-10
   18.2399998       1.04027294E-10
   18.4200001       9.78866155E-11
   18.6000004       9.15143239E-11
   18.7800007       8.56762092E-11
   18.9599991       8.09836226E-11
   19.1399994       7.77707690E-11
   19.3199997       7.60155411E-11
   19.5000000       7.53360638E-11
   19.6800003       7.50714421E-11
   19.8600006       7.44336676E-11
   20.0400009       7.26926019E-11
   20.2199993       6.93491861E-11
   20.3999996       6.42499734E-11
   20.5799999       5.76158010E-11
   20.7600002       4.99811199E-11
   20.9400005       4.20596578E-11
   21.1200008       3.45752975E-11
   21.2999992       2.80958781E-11
   21.4799995       2.29110446E-11
   21.6599998       1.89761401E-11
   21.8400002       1.59374562E-11
   22.0200005       1.32271590E-11
   22.2000008       1.02023988E-11
   22.3799992       6.29706270E-12
   22.5599995       1.14546545E-12
   22.7399998      -5.34588129E-12
   22.9200001      -1.29936166E-11
   23.1000004      -2.13919871E-11
   23.2800007      -3.00109416E-11
   23.4599991      -3.83073850E-11
   23.6399994      -4.58306310E-11
   23.8199997      -5.22994634E-11
   24.0000000      -5.76418739E-11
   24.1800003      -6.20006199E-11
   24.3600006      -6.57019508E-11
   24.5400009      -6.92067029E-11
   24.7199993      -7.30408511E-11
   24.8999996      -7.77208645E-11
   25.0799999      -8.36741926E-11
   25.2600002      -9.11585321E-11
   25.4400005      -1.00191244E-10
   25.6200008      -1.10493399E-10
   25.7999992      -1.21471222E-10
   25.9799995      -1.32251238E-10
   26.1599998      -1.41786513E-10
   26.3400002      -1.49027624E-10
   26.5200005      -1.53134783E-10
   26.7000008      -1.53691185E-10
   26.8799992      -1.50856008E-10
   27.0599995      -1.45408241E-10
   27.2399998      -1.38655101E-10
   27.4200001      -1.32209840E-10
   27.6000004      -1.27681810E-10
   27.7800007      -1.26344532E-10
   27.9599991      -1.28863323E-10
   28.1399994      -1.35141440E-10
   28.3199997      -1.44327023E-10
   28.5000000      -1.54976573E-10
   28.6800003      -1.65343295E-10
   28.8600006      -1.73724368E-10
   29.0400009      -1.78790288E-10
   29.2199993      -1.79825418E-10
   29.3999996      -1.76834034E-10
   29.5799999      -1.70497283E-10
   29.7600002      -1.62000344E-10
   29.9400005      -1.52768048E-10
   30.1200008      -1.44168733E-10
   30.2999992      -1.37245826E-10
   30.4799995      -1.32527003E-10
   30.6599998      -1.29944208E-10
   30.8400002      -1.28874938E-10
   31.0200005      -1.28286590E-10
   31.2000008      -1.26949909E-10
   31.3799992      -1.23679511E-10
   31.5599995      -1.17547305E-10
   31.7399998      -1.08031049E-10
   31.9200001      -9.50842322E-11
   32.0999985      -7.91231525E-11
   32.2799988      -6.09421125E-11
   32.4599991      -4.15821579E-11
   32.6399994      -2.21779348E-11
   32.8199997      -3.79724550E-12
   33.0000000       1.26977448E-11
   33.1800003       2.67612564E-11
   33.3600006       3.82282435E-11
   33.5400009       4.73202588E-11
   33.7200012       5.45886149E-11
   33.9000015       6.07973810E-11
   34.0800018       6.67747593E-11
   34.2599983       7.32487682E-11
   34.4399986       8.07014386E-11
   34.6199989       8.92733526E-11
   34.7999992       9.87241816E-11
   34.9799995       1.08466139E-10
   35.1599998       1.17658674E-10
   35.3400002       1.25348412E-10
   35.5200005       1.30631519E-10
   35.7000008       1.32802755E-10
   35.8800011       1.31471362E-10
   36.0600014       1.26621102E-10
   36.2400017       1.18606791E-10
   36.4199982       1.08104213E-10
   36.5999985       9.60213228E-11
   36.7799988       8.33941249E-11
   36.9599991       7.12758533E-11
   37.1399994       6.06266495E-11
   37.3199997       5.22062636E-11
   37.5000000       4.64738872E-11
   37.6800003       4.35113126E-11
   37.8600006       4.29803033E-11
   38.0400009       4.41379155E-11
   38.2200012       4.59149559E-11
   38.4000015       4.70724709E-11
   38.5800018       4.63954361E-11
   38.7599983       4.29140681E-11
   38.9399986       3.61010041E-11
   39.1199989       2.60080516E-11
   39.2999992       1.33161321E-11
   39.4799995      -7.31631715E-13
   39.6599998      -1.44970425E-11
   39.8400002      -2.62012009E-11
   40.0200005      -3.42193253E-11
   40.2000008      -3.73723309E-11
   40.3800011      -3.51645761E-11
   40.5600014      -2.79155657E-11
   40.7400017      -1.67710915E-11
   40.9199982      -3.56779840E-12
   41.0999985       9.43192573E-12
   41.2799988       1.99072338E-11
   41.4599991       2.58902101E-11
   41.6399994       2.61490309E-11
   41.8199997       2.04674264E-11
   42.0000000       9.74792729E-12
   42.1800003      -4.08582239E-12
   42.3600006      -1.83838032E-11
   42.5400009      -3.02141194E-11
   42.7200012      -3.68688136E-11
   42.9000015      -3.63449999E-11
   43.0800018      -2.77130142E-11
   43.2599983      -1.13011597E-11
   43.4399986       1.13375108E-11
   43.6199989       3.76825307E-11
   43.7999992       6.46853682E-11
   43.9799995       8.93140631E-11
   44.1599998       1.09105253E-10
   44.3400002       1.22606328E-10
   44.5200005       1.29617900E-10
   44.7000008       1.31186062E-10
   44.8800011       1.29353347E-10
   45.0600014       1.26720592E-10
   45.2400017       1.25919108E-10
   45.4199982       1.29096581E-10
   45.5999985       1.37514652E-10
   45.7799988       1.51325424E-10
   45.9599991       1.69562309E-10
   46.1399994       1.90336871E-10
   46.3199997       2.11199877E-10
   46.5000000       2.29592706E-10
   46.6800003       2.43290804E-10
   46.8600006       2.50752086E-10
   47.0400009       2.51309057E-10
   47.2200012       2.45177822E-10
   47.4000015       2.33320668E-10
   47.5800018       2.17211651E-10
   47.7599983       1.98567829E-10
   47.9399986       1.79098278E-10
   48.1199989       1.60302369E-10
   48.2999992       1.43316525E-10
   48.4799995       1.28815084E-10
   48.6599998       1.16964965E-10
   48.8400002       1.07428122E-10
   49.0200005       9.94263977E-11
   49.2000008       9.18538717E-11
   49.3800011       8.34262381E-11
   49.5600014       7.28582125E-11
   49.7400017       5.90449634E-11
   49.9199982       4.12262655E-11
   50.0999985       1.91186494E-11
   50.2799988      -7.01541603E-12
   50.4599991      -3.63767280E-11
   50.6399994      -6.77237572E-11
   50.8199997      -9.95546631E-11
   51.0000000      -1.30349967E-10
   51.1800003      -1.58823205E-10
   51.3600006      -1.84134097E-10
   51.5400009      -2.06023559E-10
   51.7200012      -2.24843713E-10
   51.9000015      -2.41484388E-10
   52.0800018      -2.57211502E-10
   52.2599983      -2.73443823E-10
   52.4399986      -2.91506735E-10
   52.6199989      -3.12387838E-10
   52.7999992      -3.36536243E-10
   52.9799995      -3.63752556E-10
   53.1599998      -3.93173522E-10
   53.3400002      -4.23382801E-10
   53.5200005      -4.52614002E-10
   53.7000008      -4.79029483E-10
   53.8800011      -5.01017228E-10
   54.0600014      -5.17464682E-10
   54.2400017      -5.27967614E-10
   54.4199982      -5.32932642E-10
   54.5999985      -5.33544098E-10
   54.7799988      -5.31588162E-10
   54.9599991      -5.29138899E-10
   55.1399994      -5.28166899E-10
   55.3199997      -5.30135935E-10
   55.5000000      -5.35684330E-10
   55.6800003      -5.44467693E-10
   55.8600006      -5.55197888E-10
   56.0400009      -5.65893665E-10
   56.2200012      -5.74273518E-10
   56.4000015      -5.78228354E-10
   56.5800018      -5.76267700E-10
   56.7599983      -5.67858982E-10
   56.9399986      -5.53589785E-10
   57.1199989      -5.35104461E-10
   57.2999992      -5.14829235E-10
   57.4799995      -4.95529173E-10
   57.6599998      -4.79787376E-10
   57.8400002      -4.69513872E-10
   58.0200005      -4.65597921E-10
   58.2000008      -4.67773043E-10
   58.3800011      -4.74700002E-10
   58.5600014      -4.84246643E-10
   58.7400017      -4.93881769E-10
   58.9199982      -5.01096109E-10
   59.0999985      -5.03775521E-10
   59.2799988      -5.00483543E-10
   59.4599991      -4.90621821E-10
   59.6399994      -4.74453199E-10
   59.8199997      -4.53011989E-10
   60.0000000      -4.27919256E-10
   60.1800003      -4.01138428E-10
   60.3600006      -3.74715786E-10
   60.5400009      -3.50538737E-10
   60.7200012      -3.30148991E-10
   60.9000015      -3.14602261E-10
   61.0800018      -3.04387182E-10
   61.2599983      -2.99390790E-10
   61.4399986      -2.98923997E-10
   61.6199989      -3.01807912E-10
   61.7999992      -3.06547593E-10
   61.9799995      -3.11570630E-10
   62.1599998      -3.15496990E-10
   62.3400002      -3.17381732E-10
   62.5200005      -3.16879106E-10
   62.7000008      -3.14273468E-10
   62.8800011      -3.10370785E-10
   63.0600014      -3.06285775E-10
   63.2400017      -3.03166742E-10
   63.4199982      -3.01940001E-10
   63.5999985      -3.03108649E-10
   63.7799988      -3.06647568E-10
   63.9599991      -3.12011667E-10
   64.1399994      -3.18238241E-10
   64.3199997      -3.24117039E-10
   64.5000000      -3.28400362E-10
   64.6800003      -3.29983485E-10
   64.8600006      -3.28039207E-10
   65.0400009      -3.22082999E-10
   65.2200012      -3.11975806E-10
   65.4000015      -2.97882941E-10
   65.5800018      -2.80214768E-10
   65.7600021      -2.59569422E-10
   65.9400024      -2.36670711E-10
   66.1200027      -2.12300955E-10
   66.3000031      -1.87231536E-10
   66.4800034      -1.62135055E-10
   66.6600037      -1.37497388E-10
   66.8399963      -1.13533884E-10
   67.0199966      -9.01548489E-11
   67.1999969      -6.69796094E-11
   67.3799973      -4.34148793E-11
   67.5599976      -1.88015003E-11
   67.7399979       7.39489806E-12
   67.9199982       3.53848964E-11
   68.0999985       6.49076209E-11
   68.2799988       9.51642098E-11
   68.4599991       1.24870461E-10
   68.6399994       1.52430360E-10
   68.8199997       1.76204717E-10
   69.0000000       1.94808669E-10
   69.1800003       2.07375478E-10
   69.3600006       2.13719709E-10
   69.5400009       2.14368023E-10
   69.7200012       2.10440942E-10
   69.9000015       2.03424180E-10
   70.0800018       1.94869287E-10
   70.2600021       1.86105090E-10
   70.4400024       1.78024845E-10
   70.6200027       1.71000908E-10
   70.8000031       1.64933817E-10
   70.9800034       1.59412247E-10
   71.1600037       1.53940610E-10
   71.3399963       1.48126469E-10
   71.5199966       1.41794007E-10
   71.6999969       1.34988187E-10
   71.8799973       1.27892516E-10
   72.0599976       1.20706972E-10
   72.2399979       1.13549642E-10
   72.4199982       1.06417111E-10
   72.5999985       9.92168916E-11
   72.7799988       9.18578061E-11
   72.9599991       8.43502629E-11
   73.1399994       7.68778236E-11
   73.3199997       6.98225852E-11
   73.5000000       6.37123687E-11
   73.6800003       5.91031946E-11
   73.8600006       5.64450535E-11
   74.0400009       5.59450646E-11
   74.2200012       5.74874627E-11
   74.4000015       6.06407424E-11
   74.5800018       6.47652487E-11
   74.7600021       6.91896540E-11
   74.9400024       7.34339672E-11
   75.1200027       7.73815456E-11
   75.3000031       8.13825674E-11
   75.4800034       8.62293709E-11
   75.6600037       9.30204525E-11
   75.8399963       1.02951300E-10
   76.0199966       1.17078583E-10
   76.1999969       1.36111497E-10
   76.3799973       1.60270561E-10
   76.5599976       1.89237639E-10
   76.7399979       2.22199426E-10
   76.9199982       2.57981997E-10
   77.0999985       2.95224650E-10
   77.2799988       3.32575217E-10
   77.4599991       3.68850894E-10
   77.6399994       4.03136774E-10
   77.8199997       4.34801556E-10
   78.0000000       4.63453692E-10
   78.1800003       4.88859619E-10
   78.3600006       5.10869569E-10
   78.5400009       5.29369160E-10
   78.7200012       5.44274126E-10
   78.9000015       5.55553492E-10
   79.0800018       5.63267155E-10
   79.2600021       5.67594194E-10
   79.4400024       5.68836533E-10
   79.6200027       5.67391967E-10
   79.8000031       5.63707248E-10
   79.9800034       5.58205371E-10
   80.1600037       5.51212798E-10
   80.3399963       5.42903111E-10
   80.5199966       5.33271260E-10
   80.6999969       5.22156596E-10
   80.8799973       5.09306874E-10
   81.0599976       4.94473962E-10
   81.2399979       4.77520412E-10
   81.4199982       4.58513644E-10
   81.5999985       4.37792691E-10
   81.7799988       4.15999402E-10
   81.9599991       3.94075328E-10
   82.1399994       3.73199138E-10
   82.3199997       3.54664853E-10
   82.5000000       3.39697659E-10
   82.6800003       3.29241523E-10
   82.8600006       3.23741201E-10
   83.0400009       3.22996602E-10
   83.2200012       3.26114385E-10
   83.4000015       3.31593253E-10
   83.5800018       3.37525091E-10
   83.7600021       3.41875556E-10
   83.9400024       3.42792073E-10
   84.1200027       3.38883227E-10
   84.3000031       3.29420741E-10
   84.4800034       3.14433757E-10
   84.6600037       2.94670233E-10
   84.8399963       2.71418193E-10
   85.0199966       2.46227067E-10
   85.1999969       2.20601593E-10
   85.3799973       1.95726491E-10
   85.5599976       1.72301756E-10
   85.7399979       1.50523510E-10
   85.9199982       1.30208275E-10
   86.0999985       1.11003130E-10
   86.2799988       9.26196272E-11
   86.4599991       7.50121770E-11
   86.6399994       5.84737744E-11
   86.8199997       4.36381625E-11
   87.0000000       3.13834791E-11
   87.1800003       2.26728601E-11
   87.3600006       1.83627471E-11
   87.5400009       1.90115493E-11
   87.7200012       2.47386712E-11
   87.9000015       3.51719834E-11
   88.0800018       4.95037795E-11
   88.2600021       6.66580402E-11
   88.4400024       8.55250107E-11
   88.6200027       1.05184909E-10
   88.8000031       1.25064986E-10
   88.9800034       1.44984330E-10
   89.1600037       1.65079450E-10
   89.3399963       1.85643112E-10
   89.5199966       2.06945280E-10
   89.6999969       2.29069569E-10
   89.8799973       2.51818899E-10
   90.0599976       2.74704759E-10
   90.2399979       2.97017050E-10
   90.4199982       3.17958576E-10
   90.5999985       3.36816547E-10
   90.7799988       3.53117396E-10
   90.9599991       3.66739805E-10
   91.1399994       3.77948589E-10
   91.3199997       3.87326754E-10
   91.5000000       3.95625199E-10
   91.6800003       4.03566985E-10
   91.8600006       4.11643442E-10
   92.0400009       4.19956792E-10
   92.2200012       4.28145408E-10
   92.4000015       4.35405628E-10
   92.5800018       4.40627479E-10
   92.7600021       4.42630821E-10
   92.9400024       4.40455505E-10
   93.1200027       4.33644232E-10
   93.3000031       4.22451685E-10
   93.4800034       4.07905265E-10
   93.6600037       3.91672805E-10
   93.8399963       3.75754039E-10
   94.0199966       3.62057301E-10
   94.1999969       3.51955604E-10
   94.3799973       3.45935558E-10
   94.5599976       3.43415962E-10
   94.7399979       3.42794348E-10
   94.9199982       3.41716072E-10
   95.0999985       3.37515293E-10
   95.2799988       3.27752853E-10
   95.4599991       3.10740184E-10
   95.6399994       2.85932694E-10
   95.8199997       2.54100657E-10
   96.0000000       2.17237159E-10
   96.1800003       1.78204410E-10
   96.3600006       1.40193773E-10
   96.5400009       1.06125074E-10
   96.7200012       7.80966541E-11
   96.9000015       5.69945306E-11
   97.0800018       4.23247513E-11
   97.2600021       3.22899346E-11
   97.4400024       2.40921918E-11
   97.6200027       1.44238692E-11
   97.8000031       6.84618716E-14
   97.9800034      -2.14807339E-11
   98.1600037      -5.14945066E-11
   98.3399963      -8.96933222E-11
   98.5199966      -1.34208755E-10
   98.6999969      -1.81848217E-10
   98.8799973      -2.28612282E-10
   99.0599976      -2.70354905E-10
   99.2399979      -3.03450653E-10
   99.4199982      -3.25357491E-10
   99.5999985      -3.34980627E-10
   99.7799988      -3.32784356E-10
   99.9599991      -3.20649118E-10
   100.139999      -3.01509484E-10
   100.320000      -2.78829598E-10
   100.500000      -2.56006771E-10
   100.680000      -2.35815478E-10
   100.860001      -2.19993246E-10
   101.040001      -2.09056536E-10
   101.220001      -2.02359629E-10
   101.400002      -1.98373901E-10
   101.580002      -1.95125208E-10
   101.760002      -1.90692337E-10
   101.940002      -1.83668691E-10
   102.120003      -1.73520240E-10
   102.300003      -1.60785954E-10
   102.480003      -1.47085732E-10
   102.660004      -1.34946804E-10
   102.839996      -1.27466107E-10
   103.019997      -1.27867578E-10
   103.199997      -1.39029455E-10
   103.379997      -1.63059566E-10
   103.559998      -2.00979552E-10
   103.739998      -2.52557419E-10
   103.919998      -3.16311033E-10
   104.099998      -3.89657279E-10
   104.279999      -4.69186801E-10
   104.459999      -5.51036938E-10
   104.639999      -6.31315833E-10
   104.820000      -7.06531944E-10
   105.000000      -7.73967945E-10
   105.180000      -8.31935965E-10
   105.360001      -8.79879170E-10
   105.540001      -9.18284560E-10
   105.720001      -9.48414902E-10
   105.900002      -9.71920766E-10
   106.080002      -9.90408533E-10
   106.260002      -1.00504627E-09
   106.440002      -1.01628894E-09
   106.620003      -1.02379827E-09
   106.800003      -1.02657693E-09
   106.980003      -1.02330022E-09
   107.160004      -1.01276232E-09
   107.339996      -9.94329730E-10
   107.519997      -9.68281566E-10
   107.699997      -9.35939437E-10
   107.879997      -8.99539665E-10
   108.059998      -8.61883287E-10
   108.239998      -8.25853663E-10
   108.419998      -7.93906552E-10
   108.599998      -7.67655550E-10
   108.779999      -7.47629847E-10
   108.959999      -7.33244521E-10
   109.139999      -7.22979454E-10
   109.320000      -7.14725834E-10
   109.500000      -7.06232406E-10
   109.680000      -6.95565439E-10
   109.860001      -6.81483092E-10
   110.040001      -6.63646582E-10
   110.220001      -6.42641385E-10
   110.400002      -6.19819973E-10
   110.580002      -5.97020322E-10
   110.760002      -5.76234616E-10
   110.940002      -5.59300772E-10
   111.120003      -5.47657864E-10
   111.300003      -5.42178968E-10
   111.480003      -5.43068757E-10
   111.660004      -5.49825019E-10
   111.839996      -5.61273306E-10
   112.019997      -5.75678949E-10
   112.199997      -5.90934413E-10
   112.379997      -6.04824857E-10
   112.559998      -6.15337448E-10
   112.739998      -6.20963114E-10
   112.919998      -6.20933194E-10
   113.099998      -6.15354101E-10
   113.279999      -6.05192507E-10
   113.459999      -5.92107974E-10
   113.639999      -5.78142978E-10
   113.820000      -5.65313463E-10
   114.000000      -5.55187840E-10
   114.180000      -5.48544044E-10
   114.360001      -5.45185730E-10
   114.540001      -5.43973644E-10
   114.720001      -5.43078083E-10
   114.900002      -5.40380296E-10
   115.080002      -5.33931455E-10
   115.260002      -5.22359100E-10
   115.440002      -5.05127273E-10
   115.620003      -4.82596074E-10
   115.800003      -4.55876670E-10
   115.980003      -4.26518626E-10
   116.160004      -3.96120359E-10
   116.339996      -3.65949659E-10
   116.519997      -3.36662725E-10
   116.699997      -3.08199660E-10
   116.879997      -2.79878565E-10
   117.059998      -2.50652915E-10
   117.239998      -2.19466945E-10
   117.419998      -1.85619867E-10
   117.599998      -1.49044915E-10
   117.779999      -1.10440983E-10
   117.959999      -7.12292933E-11
   118.139999      -3.33392133E-11
   118.320000       1.11962555E-12
   118.500000       3.02452924E-11
   118.680000       5.27127092E-11
   118.860001       6.80595164E-11
   119.040001       7.68103775E-11
   119.220001       8.04353112E-11
   119.400002       8.11372358E-11
   119.580002       8.15282217E-11