  -34.5000000       0.00000000    
  -34.3199997       0.00000000    
  -34.1399994       0.00000000    
  -33.9599991       4.43385488E-23
  -33.7799988       3.30197123E-20
  -33.5999985       1.43608041E-19
  -33.4199982       2.74739665E-19
  -33.2400017       2.06928197E-20
  -33.0600014      -1.49680059E-18
  -32.8800011      -5.61834059E-18
  -32.7000008      -1.37284370E-17
  -32.5200005      -2.06000001E-17
  -32.3400002       2.54597218E-18
  -32.1599998       1.06906291E-16
  -31.9799995       2.90782255E-16
  -31.7999992       3.66753275E-16
  -31.6200008      -4.28737704E-17
  -31.4400005      -1.15849480E-15
  -31.2600002      -2.45293838E-15
  -31.0799999      -2.45221184E-15
  -30.8999996       3.78719310E-16
  -30.7199993       5.83196965E-15
  -30.5400009       1.06638407E-14
  -30.3600006       9.58546021E-15
  -30.1800003      -1.10151150E-15
  -30.0000000      -1.92253236E-14
  -29.8199997      -3.51297665E-14
  -29.6399994      -3.49198887E-14
  -29.4599991      -7.86076391E-15
  -29.2800007       4.54233344E-14
  -29.1000004       1.08092524E-13
  -28.9200001       1.48663308E-13
  -28.7399998       1.30189045E-13
  -28.5599995       2.60193190E-14
  -28.3799992      -1.61743123E-13
  -28.2000008      -3.88417163E-13
  -28.0200005      -5.67006186E-13
  -27.8400002      -5.89587298E-13
  -27.6599998      -3.68301526E-13
  -27.4799995       1.17388887E-13
  -27.2999992       7.88713225E-13
  -27.1200008       1.47049636E-12
  -26.9400005       1.93544247E-12
  -26.7600002       1.97765892E-12
  -26.5799999       1.48843026E-12
  -26.3999996       5.03294726E-13
  -26.2199993      -8.01897394E-13
  -26.0400009      -2.17036914E-12
  -25.8600006      -3.36243511E-12
  -25.6800003      -4.25701358E-12
  -25.5000000      -4.91256862E-12
  -25.3199997      -5.54952048E-12
  -25.1399994      -6.43996011E-12
  -24.9599991      -7.72816880E-12
  -24.7800007      -9.24429890E-12
  -24.6000004      -1.03955950E-11
  -24.4200001      -1.02087748E-11
  -24.2399998      -7.55070746E-12
  -24.0599995      -1.48513970E-12
  -23.8799992       8.34235632E-12
  -23.7000008       2.14334054E-11
  -23.5200005       3.64067144E-11
  -23.3400002       5.12711262E-11
  -23.1599998       6.39684417E-11
  -22.9799995       7.30572061E-11
  -22.7999992       7.83467735E-11
  -22.6200008       8.12866649E-11
  -22.4400005       8.49745344E-11
  -22.2600002       9.37498204E-11
  -22.0799999       1.12455510E-10
  -21.8999996       1.45537221E-10
  -21.7199993       1.96176658E-10
  -21.5400009       2.65620081E-10
  -21.3600006       3.52783358E-10
  -21.1800003       4.54137145E-10
  -21.0000000       5.63834202E-10
  -20.8199997       6.74053369E-10
  -20.6399994       7.75572329E-10
  -20.4599991       8.58608074E-10
  -20.2800007       9.13933429E-10
  -20.1000004       9.34178179E-10
  -19.9200001       9.15101328E-10
  -19.7399998       8.56530347E-10
  -19.5599995       7.62690688E-10
  -19.3799992       6.41793785E-10
  -19.2000008       5.04989994E-10
  -19.0200005       3.65009745E-10
  -18.8400002       2.34905873E-10
  -18.6599998       1.27230837E-10
  -18.4799995       5.37428851E-11
  -18.2999992       2.54669012E-11
  -18.1200008       5.27466577E-11
  -17.9400005       1.44935661E-10
  -17.7600002       3.09588438E-10
  -17.5799999       5.51325430E-10
  -17.3999996       8.70826300E-10
  -17.2199993       1.26447430E-09
  -17.0400009       1.72498982E-09
  -16.8600006       2.24299734E-09
  -16.6800003       2.80904078E-09
  -16.5000000       3.41528716E-09
  -16.3199997       4.05618827E-09
  -16.1399994       4.72773198E-09
  -15.9600000       5.42544276E-09
  -15.7799997       6.14183371E-09
  -15.6000004       6.86424917E-09
  -15.4200001       7.57392815E-09
  -15.2399998       8.24666913E-09
  -15.0600004       8.85485196E-09
  -14.8800001       9.37012690E-09
  -14.6999998       9.76584769E-09
  -14.5200005       1.00186002E-08
  -14.3400002       1.01085442E-08
  -14.1599998       1.00188249E-08
  -13.9799995       9.73451364E-09
  -13.8000002       9.24157906E-09
  -13.6199999       8.52609894E-09
  -13.4399996       7.57371765E-09
  -13.2600002       6.36921671E-09
  -13.0799999       4.89620255E-09
  -12.8999996       3.13717430E-09
  -12.7200003       1.07446685E-09
  -12.5400000      -1.30751066E-09
  -12.3599997      -4.01866851E-09
  -12.1800003      -7.05882064E-09
  -12.0000000      -1.04135811E-08
  -11.8199997      -1.40519836E-08
  -11.6400003      -1.79269293E-08
  -11.4600000      -2.19788117E-08
  -11.2799997      -2.61415565E-08
  -11.1000004      -3.03493515E-08
  -10.9200001      -3.45418947E-08
  -10.7399998      -3.86663253E-08
  -10.5600004      -4.26750510E-08
  -10.3800001      -4.65200110E-08
  -10.1999998      -5.01452639E-08
  -10.0200005      -5.34804130E-08
  -9.84000015      -5.64370666E-08
  -9.65999985      -5.89098335E-08
  -9.47999954      -6.07818222E-08
  -9.30000019      -6.19335125E-08
  -9.11999989      -6.22530791E-08
  -8.93999958      -6.16460127E-08
  -8.76000023      -6.00424244E-08
  -8.57999992      -5.74010031E-08
  -8.39999962      -5.37095275E-08
  -8.22000027      -4.89822085E-08
  -8.03999996      -4.32549463E-08
  -7.86000013      -3.65794861E-08
  -7.67999983      -2.90177145E-08
  -7.50000000      -2.06373425E-08
  -7.32000017      -1.15096830E-08
  -7.13999987      -1.71019476E-09
  -6.96000004       8.67861427E-09
  -6.78000021       1.95627319E-08
  -6.59999990       3.08319663E-08
  -6.42000008       4.23567919E-08
  -6.23999977       5.39877618E-08
  -6.05999994       6.55581971E-08
  -5.88000011       7.68896129E-08
  -5.69999981       8.77988455E-08
  -5.51999998       9.81052182E-08
  -5.34000015       1.07636211E-07
  -5.15999985       1.16230773E-07
  -4.98000002       1.23740307E-07
  -4.80000019       1.30027971E-07
  -4.61999989       1.34967550E-07
  -4.44000006       1.38442815E-07
  -4.26000023       1.40348320E-07
  -4.07999992       1.40591169E-07
  -3.90000010       1.39093700E-07
  -3.72000003       1.35795972E-07
  -3.53999996       1.30657654E-07
  -3.35999990       1.23659092E-07
  -3.18000007       1.14801630E-07
  -3.00000000       1.04107535E-07
  -2.81999993       9.16192775E-08
  -2.64000010       7.73989441E-08
  -2.46000004       6.15268334E-08
  -2.27999997       4.40994725E-08
  -2.09999990       2.52271519E-08
  -1.91999996       5.03127051E-09
  -1.74000001      -1.63578608E-08
  -1.55999994      -3.88021455E-08
  -1.38000000      -6.21555785E-08
  -1.20000005      -8.62633982E-08
  -1.01999998      -1.10960343E-07
 -0.839999974      -1.36069815E-07
 -0.660000026      -1.61403563E-07
 -0.479999989      -1.86762520E-07
 -0.300000012      -2.11938996E-07
 -0.119999997      -2.36718677E-07
   5.99999987E-02  -2.60883525E-07
  0.239999995      -2.84214309E-07
  0.419999987      -3.06493121E-07
  0.600000024      -3.27506314E-07
  0.779999971      -3.47047205E-07
  0.959999979      -3.64918606E-07
   1.13999999      -3.80935660E-07
   1.32000005      -3.94926388E-07
   1.50000000      -4.06732482E-07
   1.67999995      -4.16208053E-07
   1.86000001      -4.23217642E-07
   2.03999996      -4.27635001E-07
   2.22000003      -4.29342293E-07
   2.40000010      -4.28228844E-07
   2.57999992      -4.24192166E-07
   2.75999999      -4.17137159E-07
   2.94000006      -4.06976341E-07
   3.11999989      -3.93627403E-07
   3.29999995      -3.77012555E-07
   3.48000002      -3.57057189E-07
   3.66000009      -3.33692071E-07
   3.83999991      -3.06859135E-07
   4.01999998      -2.76521064E-07
   4.19999981      -2.42673678E-07
   4.38000011      -2.05360095E-07
   4.55999994      -1.64681310E-07
   4.73999977      -1.20801644E-07
   4.92000008      -7.39480370E-08
   5.09999990      -2.44014196E-08
   5.28000021       2.75169967E-08
   5.46000004       8.14616570E-08
   5.63999987       1.37078018E-07
   5.82000017       1.94011548E-07
   6.00000000       2.51910393E-07
   6.17999983       3.10420290E-07
   6.36000013       3.69172398E-07
   6.53999996       4.27768441E-07
   6.71999979       4.85765952E-07
   6.90000010       5.42666839E-07
   7.07999992       5.97913925E-07
   7.26000023       6.50897448E-07
   7.44000006       7.00968656E-07
   7.61999989       7.47461456E-07
   7.80000019       7.89717092E-07
   7.98000002       8.27104657E-07
   8.15999985       8.59038209E-07
   8.34000015       8.84984161E-07
   8.52000046       9.04455248E-07
   8.69999981       9.17001387E-07
   8.88000011       9.22188804E-07
   9.06000042       9.19582249E-07
   9.23999977       9.08729817E-07
   9.42000008       8.89154933E-07
   9.60000038       8.60359421E-07
   9.77999973       8.21838114E-07
   9.96000004       7.73098066E-07
   10.1400003       7.13684813E-07
   10.3199997       6.43203521E-07
   10.5000000       5.61337629E-07
   10.6800003       4.67854647E-07
   10.8599997       3.62603885E-07
   11.0400000       2.45504282E-07
   11.2200003       1.16526614E-07
   11.3999996      -2.43250451E-08
   11.5799999      -1.77029548E-07
   11.7600002      -3.41559911E-07
   11.9399996      -5.17885951E-07
   12.1199999      -7.05968205E-07
   12.3000002      -9.05745935E-07
   12.4799995      -1.11712427E-06
   12.6599998      -1.33996025E-06
   12.8400002      -1.57405236E-06
   13.0200005      -1.81913754E-06
   13.1999998      -2.07489347E-06
   13.3800001      -2.34094591E-06
   13.5600004      -2.61688137E-06
   13.7399998      -2.90226035E-06
   13.9200001      -3.19662763E-06
   14.1000004      -3.49952302E-06
   14.2799997      -3.81048767E-06
   14.4600000      -4.12906547E-06
   14.6400003      -4.45480237E-06
   14.8199997      -4.78723859E-06
   15.0000000      -5.12590577E-06
   15.1800003      -5.47032005E-06
   15.3599997      -5.81997483E-06
   15.5400000      -6.17433852E-06
   15.7200003      -6.53285497E-06
   15.8999996      -6.89494254E-06
   16.0799999      -7.25999735E-06
   16.2600002      -7.62739683E-06
   16.4400005      -7.99649933E-06
   16.6200008      -8.36665095E-06
   16.7999992      -8.73718363E-06
   16.9799995      -9.10742438E-06
   17.1599998      -9.47669741E-06
   17.3400002      -9.84433609E-06
   17.5200005      -1.02096910E-05
   17.7000008      -1.05721438E-05
   17.8799992      -1.09311131E-05
   18.0599995      -1.12860635E-05
   18.2399998      -1.16365072E-05
   18.4200001      -1.19820088E-05
   18.6000004      -1.23221716E-05
   18.7800007      -1.26566256E-05
   18.9599991      -1.29850332E-05
   19.1399994      -1.33070689E-05
   19.3199997      -1.36224298E-05
   19.5000000      -1.39308349E-05
   19.6800003      -1.42320350E-05
   19.8600006      -1.45258273E-05
   20.0400009      -1.48120662E-05
   20.2199993      -1.50906681E-05
   20.3999996      -1.53616220E-05
   20.5799999      -1.56249789E-05
   20.7600002      -1.58808434E-05
   20.9400005      -1.61293538E-05
   21.1200008      -1.63706627E-05
   21.2999992      -1.66049267E-05
   21.4799995      -1.68322767E-05
   21.6599998      -1.70528183E-05
   21.8400002      -1.72666223E-05
   22.0200005      -1.74737379E-05
   22.2000008      -1.76741978E-05
   22.3799992      -1.78680166E-05
   22.5599995      -1.80552142E-05
   22.7399998      -1.82358090E-05
   22.9200001      -1.84098208E-05
   23.1000004      -1.85772587E-05
   23.2800007      -1.87381211E-05
   23.4599991      -1.88923823E-05
   23.6399994      -1.90399951E-05
   23.8199997      -1.91808977E-05
   24.0000000      -1.93150172E-05
   24.1800003      -1.94423010E-05
   24.3600006      -1.95627235E-05
   24.5400009      -1.96763085E-05
   24.7199993      -1.97831469E-05
   24.8999996      -1.98833859E-05
   25.0799999      -1.99772312E-05
   25.2600002      -2.00649320E-05
   25.4400005      -2.01467610E-05
   25.6200008      -2.02229949E-05
   25.7999992      -2.02939191E-05
   25.9799995      -2.03598102E-05
   26.1599998      -2.04209591E-05
   26.3400002      -2.04776807E-05
   26.5200005      -2.05303350E-05
   26.7000008      -2.05793494E-05
   26.8799992      -2.06252225E-05
   27.0599995      -2.06685236E-05
   27.2399998      -2.07098728E-05
   27.4200001      -2.07499234E-05
   27.6000004      -2.07893190E-05
   27.7800007      -2.08286674E-05
   27.9599991      -2.08685306E-05
   28.1399994      -2.09093978E-05
   28.3199997      -2.09517111E-05
   28.5000000      -2.09958725E-05
   28.6800003      -2.10422713E-05
   28.8600006      -2.10913204E-05
   29.0400009      -2.11434581E-05
   29.2199993      -2.11991737E-05
   29.3999996      -2.12590076E-05
   29.5799999      -2.13235235E-05
   29.7600002      -2.13933126E-05
   29.9400005      -2.14689589E-05
   30.1200008      -2.15510318E-05
   30.2999992      -2.16400713E-05
   30.4799995      -2.17365796E-05
   30.6599998      -2.18410223E-05
   30.8400002      -2.19538379E-05
   31.0200005      -2.20754355E-05
   31.2000008      -2.22062026E-05
   31.3799992      -2.23465122E-05
   31.5599995      -2.24967152E-05
   31.7399998      -2.26571447E-05
   31.9200001      -2.28280987E-05
   32.0999985      -2.30098358E-05
   32.2799988      -2.32025468E-05
   32.4599991      -2.34063591E-05
   32.6399994      -2.36213091E-05
   32.8199997      -2.38473494E-05
   33.0000000      -2.40843419E-05
   33.1800003      -2.43320592E-05
   33.3600006      -2.45901902E-05
   33.5400009      -2.48583528E-05
   33.7200012      -2.51360943E-05
   33.9000015      -2.54228980E-05
   34.0800018      -2.57181964E-05
   34.2599983      -2.60213656E-05
   34.4399986      -2.63317397E-05
   34.6199989      -2.66486295E-05
   34.7999992      -2.69713200E-05
   34.9799995      -2.72990947E-05
   35.1599998      -2.76312367E-05
   35.3400002      -2.79670458E-05
   35.5200005      -2.83058325E-05
   35.7000008      -2.86469312E-05
   35.8800011      -2.89897052E-05
   36.0600014      -2.93335434E-05
   36.2400017      -2.96778708E-05
   36.4199982      -3.00221691E-05
   36.5999985      -3.03659654E-05
   36.7799988      -3.07088631E-05
   36.9599991      -3.10505166E-05
   37.1399994      -3.13906494E-05
   37.3199997      -3.17290396E-05
   37.5000000      -3.20654945E-05
   37.6800003      -3.23998574E-05
   37.8600006      -3.27319831E-05
   38.0400009      -3.30617368E-05
   38.2200012      -3.33889620E-05
   38.4000015      -3.37135025E-05
   38.5800018      -3.40351799E-05
   38.7599983      -3.43537904E-05
   38.9399986      -3.46690977E-05
   39.1199989      -3.49808615E-05
   39.2999992      -3.52888346E-05
   39.4799995      -3.55927659E-05
   39.6599998      -3.58924226E-05
   39.8400002      -3.61875973E-05
   40.0200005      -3.64781081E-05
   40.2000008      -3.67637622E-05
   40.3800011      -3.70443740E-05
   40.5600014      -3.73197036E-05
   40.7400017      -3.75894560E-05
   40.9199982      -3.78532459E-05
   41.0999985      -3.81106001E-05
   41.2799988      -3.83609658E-05
   41.4599991      -3.86037318E-05
   41.6399994      -3.88382614E-05
   41.8199997      -3.90639216E-05
   42.0000000      -3.92801157E-05
   42.1800003      -3.94863164E-05
   42.3600006      -3.96820651E-05
   42.5400009      -3.98669763E-05
   42.7200012      -4.00407152E-05
   42.9000015      -4.02029727E-05
   43.0800018      -4.03534250E-05
   43.2599983      -4.04917228E-05
   43.4399986      -4.06174549E-05
   43.6199989      -4.07301377E-05
   43.7999992      -4.08292362E-05
   43.9799995      -4.09141830E-05
   44.1599998      -4.09844106E-05
   44.3400002      -4.10393986E-05
   44.5200005      -4.10786961E-05
   44.7000008      -4.11019500E-05
   44.8800011      -4.11088986E-05
   45.0600014      -4.10993744E-05
   45.2400017      -4.10732682E-05
   45.4199982      -4.10305001E-05
   45.5999985      -4.09710010E-05
   45.7799988      -4.08946908E-05
   45.9599991      -4.08014675E-05
   46.1399994      -4.06912186E-05
   46.3199997      -4.05638311E-05
   46.5000000      -4.04192069E-05
   46.6800003      -4.02572841E-05
   46.8600006      -4.00780373E-05
   47.0400009      -3.98815064E-05
   47.2200012      -3.96677824E-05
   47.4000015      -3.94370109E-05
   47.5800018      -3.91893991E-05
   47.7599983      -3.89251836E-05
   47.9399986      -3.86446591E-05
   48.1199989      -3.83481456E-05
   48.2999992      -3.80360143E-05
   48.4799995      -3.77086762E-05
   48.6599998      -3.73665971E-05
   48.8400002      -3.70102971E-05
   49.0200005      -3.66403656E-05
   49.2000008      -3.62574501E-05
   49.3800011      -3.58622601E-05
   49.5600014      -3.54555523E-05
   49.7400017      -3.50381051E-05
   49.9199982      -3.46107190E-05
   50.0999985      -3.41741870E-05
   50.2799988      -3.37292877E-05
   50.4599991      -3.32767740E-05
   50.6399994      -3.28173737E-05
   50.8199997      -3.23517743E-05
   51.0000000      -3.18806269E-05
   51.1800003      -3.14045210E-05
   51.3600006      -3.09239695E-05
   51.5400009      -3.04394143E-05
   51.7200012      -2.99511921E-05
   51.9000015      -2.94595266E-05
   52.0800018      -2.89645559E-05
   52.2599983      -2.84663092E-05
   52.4399986      -2.79647484E-05
   52.6199989      -2.74597551E-05
   52.7999992      -2.69511802E-05
   52.9799995      -2.64388345E-05
   53.1599998      -2.59225180E-05
   53.3400002      -2.54020306E-05
   53.5200005      -2.48771721E-05
   53.7000008      -2.43477698E-05
   53.8800011      -2.38136581E-05
   54.0600014      -2.32746897E-05
   54.2400017      -2.27307410E-05
   54.4199982      -2.21816936E-05
   54.5999985      -2.16274548E-05
   54.7799988      -2.10679609E-05
   54.9599991      -2.05031829E-05
   55.1399994      -1.99331498E-05
   55.3199997      -1.93579635E-05
   55.5000000      -1.87777969E-05
   55.6800003      -1.81928954E-05
   55.8600006      -1.76035737E-05
   56.0400009      -1.70101794E-05
   56.2200012      -1.64130761E-05
   56.4000015      -1.58126022E-05
   56.5800018      -1.52090597E-05
   56.7599983      -1.46026987E-05
   56.9399986      -1.39937138E-05
   57.1199989      -1.33822550E-05
   57.2999992      -1.27684425E-05
   57.4799995      -1.21523899E-05
   57.6599998      -1.15342327E-05
   57.8400002      -1.09141420E-05
   58.0200005      -1.02923477E-05
   58.2000008      -9.66915741E-06
   58.3800011      -9.04495300E-06
   58.5600014      -8.42018926E-06
   58.7400017      -7.79538641E-06
   58.9199982      -7.17110743E-06
   59.0999985      -6.54793757E-06
   59.2799988      -5.92646256E-06
   59.4599991      -5.30725083E-06
   59.6399994      -4.69086172E-06
   59.8199997      -4.07783455E-06
   60.0000000      -3.46870229E-06
   60.1800003      -2.86400200E-06
   60.3600006      -2.26429893E-06
   60.5400009      -1.67018220E-06
   60.7200012      -1.08228107E-06
   60.9000015      -5.01244472E-07
   61.0800018       7.22530800E-08
   61.2599983       6.37535948E-07
   61.4399986       1.19395622E-06
   61.6199989       1.74091963E-06
   61.7999992       2.27791179E-06
   61.9799995       2.80454356E-06
   62.1599998       3.32057698E-06
   62.3400002       3.82593771E-06
   62.5200005       4.32074148E-06
   62.7000008       4.80525796E-06
   62.8800011       5.27989187E-06
   63.0600014       5.74512205E-06
   63.2400017       6.20146147E-06
   63.4199982       6.64939989E-06
   63.5999985       7.08936113E-06
   63.7799988       7.52168899E-06
   63.9599991       7.94664447E-06
   64.1399994       8.36443633E-06
   64.3199997       8.77524690E-06
   64.5000000       9.17927264E-06
   64.6800003       9.57674638E-06
   64.8600006       9.96797280E-06
   65.0400009       1.03533212E-05
   65.2200012       1.07331925E-05
   65.4000015       1.11079780E-05
   65.5800018       1.14780269E-05
   65.7600021       1.18435646E-05
   65.9400024       1.22046531E-05
   66.1200027       1.25611532E-05
   66.3000031       1.29127138E-05
   66.4800034       1.32587884E-05
   66.6600037       1.35986893E-05
   66.8399963       1.39316462E-05
   67.0199966       1.42568852E-05
   67.1999969       1.45737040E-05
   67.3799973       1.48815388E-05
   67.5599976       1.51799950E-05
   67.7399979       1.54688641E-05
   67.9199982       1.57481154E-05
   68.0999985       1.60178643E-05
   68.2799988       1.62783344E-05
   68.4599991       1.65298170E-05
   68.6399994       1.67726430E-05
   68.8199997       1.70071562E-05
   69.0000000       1.72336968E-05
   69.1800003       1.74525994E-05
   69.3600006       1.76642025E-05
   69.5400009       1.78688497E-05
   69.7200012       1.80669122E-05
   69.9000015       1.82587919E-05
   70.0800018       1.84449327E-05
   70.2600021       1.86258203E-05
   70.4400024       1.88019658E-05
   70.6200027       1.89738712E-05
   70.8000031       1.91420058E-05
   70.9800034       1.93067372E-05
   71.1600037       1.94682780E-05
   71.3399963       1.96266374E-05
   71.5199966       1.97815771E-05
   71.6999969       1.99325932E-05
   71.8799973       2.00789073E-05
   72.0599976       2.02195006E-05
   72.2399979       2.03531545E-05
   72.4199982       2.04785156E-05
   72.5999985       2.05941724E-05
   72.7799988       2.06987115E-05
   72.9599991       2.07907833E-05
   73.1399994       2.08691545E-05
   73.3199997       2.09327354E-05
   73.5000000       2.09805930E-05
   73.6800003       2.10119542E-05
   73.8600006       2.10262042E-05
   74.0400009       2.10228791E-05
   74.2200012       2.10016551E-05
   74.4000015       2.09623613E-05
   74.5800018       2.09049904E-05
   74.7600021       2.08297297E-05
   74.9400024       2.07369903E-05
   75.1200027       2.06274199E-05
   75.3000031       2.05019551E-05
   75.4800034       2.03617947E-05
   75.6600037       2.02084011E-05
   75.8399963       2.00434715E-05
   76.0199966       1.98688849E-05
   76.1999969       1.96866513E-05
   76.3799973       1.94988461E-05
   76.5599976       1.93075648E-05
   76.7399979       1.91148647E-05
   76.9199982       1.89227358E-05
   77.0999985       1.87330679E-05
   77.2799988       1.85476256E-05
   77.4599991       1.83680349E-05
   77.6399994       1.81957639E-05
   77.8199997       1.80320967E-05
   78.0000000       1.78781193E-05
   78.1800003       1.77346919E-05
   78.3600006       1.76024314E-05
   78.5400009       1.74816796E-05
   78.7200012       1.73724966E-05
   78.9000015       1.72746368E-05
   79.0800018       1.71875527E-05
   79.2600021       1.71103948E-05
   79.4400024       1.70420390E-05
   79.6200027       1.69810992E-05
   79.8000031       1.69259765E-05
   79.9800034       1.68749157E-05
   80.1600037       1.68260522E-05
   80.3399963       1.67774815E-05
   80.5199966       1.67273101E-05
   80.6999969       1.66737118E-05
   80.8799973       1.66149675E-05
   81.0599976       1.65495076E-05
   81.2399979       1.64759294E-05
   81.4199982       1.63930163E-05
   81.5999985       1.62997549E-05
   81.7799988       1.61953249E-05
   81.9599991       1.60791024E-05
   82.1399994       1.59506326E-05
   82.3199997       1.58096118E-05
   82.5000000       1.56558544E-05
   82.6800003       1.54892496E-05
   82.8600006       1.53097426E-05
   83.0400009       1.51172926E-05
   83.2200012       1.49118723E-05
   83.4000015       1.46934581E-05
   83.5800018       1.44620426E-05
   83.7600021       1.42176696E-05
   83.9400024       1.39604517E-05
   84.1200027       1.36906019E-05
   84.3000031       1.34084557E-05
   84.4800034       1.31144716E-05
   84.6600037       1.28092252E-05
   84.8399963       1.24933786E-05
   85.0199966       1.21676494E-05
   85.1999969       1.18327644E-05
   85.3799973       1.14894146E-05
   85.5599976       1.11382406E-05
   85.7399979       1.07798169E-05
   85.9199982       1.04146702E-05
   86.0999985       1.00433199E-05
   86.2799988       9.66632888E-06
   86.4599991       9.28436930E-06
   86.6399994       8.89826970E-06
   86.8199997       8.50905508E-06
   87.0000000       8.11795144E-06
   87.1800003       7.72637213E-06
   87.3600006       7.33587194E-06
   87.5400009       6.94808750E-06
   87.7200012       6.56466727E-06
   87.9000015       6.18721151E-06
   88.0800018       5.81722861E-06
   88.2600021       5.45611056E-06
   88.4400024       5.10513792E-06
   88.6200027       4.76549576E-06
   88.8000031       4.43831050E-06
   88.9800034       4.12467762E-06
   89.1600037       3.82569306E-06
   89.3399963       3.54245913E-06
   89.5199966       3.27607313E-06
   89.6999969       3.02759645E-06
   89.8799973       2.79800383E-06
   90.0599976       2.58812042E-06
   90.2399979       2.39856354E-06
   90.4199982       2.22968674E-06
   90.5999985       2.08154597E-06
   90.7799988       1.95388202E-06
   90.9599991       1.84613350E-06
   91.1399994       1.75746175E-06
   91.3199997       1.68680106E-06
   91.5000000       1.63290963E-06
   91.6800003       1.59442641E-06
   91.8600006       1.56992974E-06
   92.0400009       1.55798057E-06
   92.2200012       1.55716532E-06
   92.4000015       1.56612055E-06
   92.5800018       1.58355044E-06
   92.7600021       1.60822958E-06
   92.9400024       1.63899563E-06
   93.1200027       1.67474388E-06
   93.3000031       1.71441172E-06
   93.4800034       1.75697153E-06
   93.6600037       1.80142843E-06
   93.8399963       1.84683131E-06
   94.0199966       1.89229445E-06
   94.1999969       1.93703249E-06
   94.3799973       1.98040993E-06
   94.5599976       2.02198430E-06
   94.7399979       2.06155619E-06
   94.9199982       2.09920017E-06
   95.0999985       2.13527551E-06
   95.2799988       2.17041361E-06
   95.4599991       2.20547145E-06
   95.6399994       2.24146561E-06
   95.8199997       2.27947908E-06
   96.0000000       2.32056618E-06
   96.1800003       2.36566689E-06
   96.3600006       2.41553812E-06
   96.5400009       2.47071853E-06
   96.7200012       2.53153917E-06
   96.9000015       2.59816466E-06
   97.0800018       2.67066139E-06
   97.2600021       2.74907757E-06
   97.4400024       2.83350437E-06
   97.6200027       2.92411983E-06
   97.8000031       3.02118065E-06
   97.9800034       3.12497696E-06
   98.1600037       3.23574773E-06
   98.3399963       3.35357504E-06
   98.5199966       3.47827381E-06
   98.6999969       3.60930972E-06
   98.8799973       3.74574688E-06
   99.0599976       3.88624903E-06
   99.2399979       4.02912792E-06
   99.4199982       4.17244246E-06
   99.5999985       4.31412400E-06
   99.7799988       4.45210026E-06
   99.9599991       4.58442582E-06
   100.139999       4.70937039E-06
   100.320000       4.82547284E-06
   100.500000       4.93155221E-06
   100.680000       5.02668581E-06
   100.860001       5.11016196E-06
   101.040001       5.18142497E-06
   101.220001       5.24003099E-06
   101.400002       5.28562850E-06
   101.580002       5.31796786E-06
   101.760002       5.33693901E-06
   101.940002       5.34262426E-06
   102.120003       5.33535967E-06
   102.300003       5.31578553E-06
   102.480003       5.28486680E-06
   102.660004       5.24389270E-06
   102.839996       5.19443802E-06
   103.019997       5.13830355E-06
   103.199997       5.07744653E-06
   103.379997       5.01390423E-06
   103.559998       4.94972710E-06
   103.739998       4.88692785E-06
   103.919998       4.82744554E-06
   104.099998       4.77312733E-06
   104.279999       4.72571810E-06
   104.459999       4.68686221E-06
   104.639999       4.65810126E-06
   104.820000       4.64087407E-06
   105.000000       4.63651349E-06
   105.180000       4.64624463E-06
   105.360001       4.67117843E-06
   105.540001       4.71230805E-06
   105.720001       4.77051071E-06
   105.900002       4.84654447E-06
   106.080002       4.94104188E-06
   106.260002       5.05450953E-06
   106.440002       5.18730849E-06
   106.620003       5.33964385E-06
   106.800003       5.51154153E-06
   106.980003       5.70282100E-06
   107.160004       5.91307844E-06
   107.339996       6.14167448E-06
   107.519997       6.38774100E-06
   107.699997       6.65020571E-06
   107.879997       6.92783851E-06
   108.059998       7.21930837E-06
   108.239998       7.52326378E-06
   108.419998       7.83838641E-06
   108.599998       8.16344345E-06
   108.779999       8.49731168E-06
   108.959999       8.83896428E-06
   109.139999       9.18745627E-06
   109.320000       9.54186817E-06
   109.500000       9.90126955E-06
   109.680000       1.02646900E-05
   109.860001       1.06311072E-05
   110.040001       1.09994762E-05
   110.220001       1.13687893E-05
   110.400002       1.17381505E-05
   110.580002       1.21068761E-05
   110.760002       1.24745729E-05
   110.940002       1.28412084E-05
   111.120003       1.32071391E-05
   111.300003       1.35731025E-05
   111.480003       1.39401691E-05
   111.660004       1.43096586E-05
   111.839996       1.46830380E-05
   112.019997       1.50618134E-05
   112.199997       1.54474346E-05
   112.379997       1.58412295E-05
   112.559998       1.62443594E-05
   112.739998       1.66578193E-05
   112.919998       1.70824551E-05
   113.099998       1.75189998E-05
   113.279999       1.79681247E-05
   113.459999       1.84304572E-05
   113.639999       1.89066086E-05
   113.820000       1.93971591E-05
   114.000000       1.99026326E-05
   114.180000       2.04234493E-05
   114.360001       2.09598857E-05
   114.540001       2.15120272E-05
   114.720001       2.20797483E-05
   114.900002       2.26626980E-05
   115.080002       2.32603015E-05
   115.260002       2.38718003E-05
   115.440002       2.44962775E-05
   115.620003       2.51326965E-05
   115.800003       2.57799420E-05
   115.980003       2.64368464E-05
   116.160004       2.71022127E-05
   116.339996       2.77748168E-05
   116.519997       2.84534290E-05
   116.699997       2.91368069E-05
   116.879997       2.98237010E-05
   117.059998       3.05128906E-05
   117.239998       3.12031807E-05
   117.419998       3.18934326E-05
   117.599998       3.25825931E-05
   117.779999       3.32696982E-05
   117.959999       3.39538965E-05
   118.139999       3.46344350E-05
   118.320000       3.53106734E-05
   118.500000       3.59820588E-05
   118.680000       3.66481545E-05
   118.860001       3.73086223E-05
   119.040001       3.79632693E-05
   119.220001       3.86120591E-05
   119.400002       3.92551483E-05
   119.580002       3.98928896E-05