  -34.5000000         0.00000000    
  -34.3199997         0.00000000    
  -34.1399994         0.00000000    
  -33.9599991         7.99187711E-26
  -33.7799988         3.06399299E-20
  -33.5999985         3.10332756E-19
  -33.4199982         1.60802887E-18
  -33.2400017         5.64535548E-18
  -33.0600014         1.49161592E-17
  -32.8800011         3.10752433E-17
  -32.7000008         5.16101575E-17
  -32.5200005         6.57224577E-17
  -32.3400002         5.19209458E-17
  -32.1599998        -1.80103904E-17
  -31.9799995        -1.63413024E-16
  -31.7999992        -3.68973693E-16
  -31.6200008        -5.63667657E-16
  -31.4400005        -6.23655960E-16
  -31.2600002        -4.01161951E-16
  -31.0799999         2.35372245E-16
  -30.8999996         1.34574085E-15
  -30.7199993         2.81479912E-15
  -30.5400009         4.22168929E-15
  -30.3600006         4.84204987E-15
  -30.1800003         3.98003884E-15
  -30.0000000         1.53708295E-15
  -29.8199997        -1.76161423E-15
  -29.6399994        -5.16505953E-15
  -29.4599991        -9.61964053E-15
  -29.2800007        -1.89730349E-14
  -29.1000004        -3.85458267E-14
  -28.9200001        -7.01685414E-14
  -28.7399998        -1.05707774E-13
  -28.5599995        -1.23800479E-13
  -28.3799992        -9.44520883E-14
  -28.2000008         7.65763439E-15
  -28.0200005         1.86036516E-13
  -27.8400002         4.10138720E-13
  -27.6599998         6.15760860E-13
  -27.4799995         7.20280064E-13
  -27.2999992         6.48327258E-13
  -27.1200008         3.59560201E-13
  -26.9400005        -1.30223577E-13
  -26.7600002        -7.42728741E-13
  -26.5799999        -1.35389378E-12
  -26.3999996        -1.84067128E-12
  -26.2199993        -2.15529027E-12
  -26.0400009        -2.40320220E-12
  -25.8600006        -2.87605248E-12
  -25.6800003        -3.98322174E-12
  -25.5000000        -6.05626877E-12
  -25.3199997        -9.07215796E-12
  -25.1399994        -1.24233471E-11
  -24.9599991        -1.49008115E-11
  -24.7800007        -1.50020343E-11
  -24.6000004        -1.15270640E-11
  -24.4200001        -4.24272119E-12
  -24.2399998         5.71783853E-12
  -24.0599995         1.60048069E-11
  -23.8799992         2.38102923E-11
  -23.7000008         2.69823053E-11
  -23.5200005         2.50010550E-11
  -23.3400002         1.93096598E-11
  -23.1599998         1.27512818E-11
  -22.9799995         8.30114449E-12
  -22.7999992         7.68205898E-12
  -22.6200008         1.05921756E-11
  -22.4400005         1.50398860E-11
  -22.2600002         1.87444296E-11
  -22.0799999         2.09630022E-11
  -21.8999996         2.37508069E-11
  -21.7199993         3.17701421E-11
  -21.5400009         5.03547308E-11
  -21.3600006         8.23834057E-11
  -21.1800003         1.25243829E-10
  -21.0000000         1.69394207E-10
  -20.8199997         1.99567335E-10
  -20.6399994         1.98620967E-10
  -20.4599991         1.52832719E-10
  -20.2800007         5.66311373E-11
  -20.1000004        -8.51998125E-11
  -19.9200001        -2.58793376E-10
  -19.7399998        -4.45298937E-10
  -19.5599995        -6.25690777E-10
  -19.3799992        -7.83639043E-10
  -19.2000008        -9.04624042E-10
  -19.0200005        -9.71462244E-10
  -18.8400002        -9.58701230E-10
  -18.6599998        -8.29780189E-10
  -18.4799995        -5.40537115E-10
  -18.2999992        -5.04415919E-11
  -18.1200008         6.60405008E-10
  -17.9400005         1.57349300E-09
  -17.7600002         2.61967670E-09
  -17.5799999         3.67772546E-09
  -17.3999996         4.58568294E-09
  -17.2199993         5.16307308E-09
  -17.0400009         5.23878763E-09
  -16.8600006         4.67840211E-09
  -16.6800003         3.40581408E-09
  -16.5000000         1.41681666E-09
  -16.3199997        -1.21507171E-09
  -16.1399994        -4.33878000E-09
  -15.9600000        -7.73059128E-09
  -15.7799997        -1.11043628E-08
  -15.6000004        -1.41295029E-08
  -15.4200001        -1.64594613E-08
  -15.2399998        -1.77714057E-08
  -15.0600004        -1.78135338E-08
  -14.8800001        -1.64516258E-08
  -14.6999998        -1.37034002E-08
  -14.5200005        -9.74958247E-09
  -14.3400002        -4.91539565E-09
  -14.1599998         3.76111670E-10
  -13.9799995         5.66914560E-09
  -13.8000002         1.05433964E-08
  -13.6199999         1.46695376E-08
  -13.4399996         1.78408701E-08
  -13.2600002         1.99781436E-08
  -13.0799999         2.11128413E-08
  -12.8999996         2.13591882E-08
  -12.7200003         2.08850413E-08
  -12.5400000         1.98873575E-08
  -12.3599997         1.85719511E-08
  -12.1800003         1.71331234E-08
  -12.0000000         1.57290412E-08
  -11.8199997         1.44534171E-08
  -11.6400003         1.33104150E-08
  -11.4600000         1.22039090E-08
  -11.2799997         1.09512195E-08
  -11.1000004         9.32419297E-09
  -10.9200001         7.10994685E-09
  -10.7399998         4.17402468E-09
  -10.5600004         5.05203990E-10
  -10.3800001        -3.77401754E-09
  -10.1999998        -8.43531911E-09
  -10.0200005        -1.32005242E-08
  -9.84000015        -1.78046573E-08
  -9.65999985        -2.20427481E-08
  -9.47999954        -2.57844786E-08
  -9.30000019        -2.89547586E-08
  -9.11999989        -3.14929522E-08
  -8.93999958        -3.33123964E-08
  -8.76000023        -3.42809656E-08
  -8.57999992        -3.42332598E-08
  -8.39999962        -3.30099397E-08
  -8.22000027        -3.05069747E-08
  -8.03999996        -2.67125913E-08
  -7.86000013        -2.17155627E-08
  -7.67999983        -1.56818825E-08
  -7.50000000        -8.81230378E-09
  -7.32000017        -1.30253763E-09
  -7.13999987         6.67295108E-09
  -6.96000004         1.49443000E-08
  -6.78000021         2.33042439E-08
  -6.59999990         3.14625446E-08
  -6.42000008         3.90232486E-08
  -6.23999977         4.55035618E-08
  -6.05999994         5.03962596E-08
  -5.88000011         5.32591216E-08
  -5.69999981         5.38026974E-08
  -5.51999998         5.19477332E-08
  -5.34000015         4.78348738E-08
  -5.15999985         4.17871817E-08
  -4.98000002         3.42420101E-08
  -4.80000019         2.56765382E-08
  -4.61999989         1.65482295E-08
  -4.44000006         7.25997706E-09
  -4.26000023        -1.85353755E-09
  -4.07999992        -1.05306777E-08
  -3.90000010        -1.85912832E-08
  -3.72000003        -2.59532840E-08
  -3.53999996        -3.26503375E-08
  -3.35999990        -3.88348553E-08
  -3.18000007        -4.47500916E-08
  -3.00000000        -5.06644611E-08
  -2.81999993        -5.67765817E-08
  -2.64000010        -6.31153299E-08
  -2.46000004        -6.94672693E-08
  -2.27999997        -7.53595373E-08
  -2.09999990        -8.01111000E-08
  -1.91999996        -8.29429752E-08
  -1.74000001        -8.31190050E-08
  -1.55999994        -8.00786850E-08
  -1.38000000        -7.35278931E-08
  -1.20000005        -6.34686543E-08
  -1.01999998        -5.01692767E-08
 -0.839999974        -3.40933397E-08
 -0.660000026        -1.58138036E-08
 -0.479999989         4.06421341E-09
 -0.300000012         2.49583163E-08
 -0.119999997         4.63391920E-08
   5.99999987E-02     6.77421710E-08
  0.239999995         8.87679406E-08
  0.419999987         1.09077263E-07
  0.600000024         1.28380705E-07
  0.779999971         1.46420959E-07
  0.959999979         1.62946932E-07
   1.13999999         1.77681429E-07
   1.32000005         1.90289725E-07
   1.50000000         2.00358528E-07
   1.67999995         2.07394621E-07
   1.86000001         2.10848114E-07
   2.03999996         2.10158348E-07
   2.22000003         2.04813020E-07
   2.40000010         1.94406354E-07
   2.57999992         1.78681901E-07
   2.75999999         1.57550531E-07
   2.94000006         1.31083098E-07
   3.11999989         9.94863925E-08
   3.29999995         6.30772732E-08
   3.48000002         2.22690364E-08
   3.66000009        -2.24223538E-08
   3.83999991        -7.03550285E-08
   4.01999998        -1.20733489E-07
   4.19999981        -1.72593772E-07
   4.38000011        -2.24816503E-07
   4.55999994        -2.76174205E-07
   4.73999977        -3.25408621E-07
   4.92000008        -3.71322301E-07
   5.09999990        -4.12863415E-07
   5.28000021        -4.49182323E-07
   5.46000004        -4.79646019E-07
   5.63999987        -5.03806405E-07
   5.82000017        -5.21333106E-07
   6.00000000        -5.31932301E-07
   6.17999983        -5.35276968E-07
   6.36000013        -5.30973409E-07
   6.53999996        -5.18574211E-07
   6.71999979        -4.97633494E-07
   6.90000010        -4.67785867E-07
   7.07999992        -4.28822119E-07
   7.26000023        -3.80741113E-07
   7.44000006        -3.23767210E-07
   7.61999989        -2.58339696E-07
   7.80000019        -1.85088368E-07
   7.98000002        -1.04811818E-07
   8.15999985        -1.84653217E-08
   8.34000015         7.28455092E-08
   8.52000046         1.67877886E-07
   8.69999981         2.65282921E-07
   8.88000011         3.63656312E-07
   9.06000042         4.61596727E-07
   9.23999977         5.57750354E-07
   9.42000008         6.50820709E-07
   9.60000038         7.39532084E-07
   9.77999973         8.22558150E-07
   9.96000004         8.98441954E-07
   10.1400003         9.65546292E-07
   10.3199997         1.02206752E-06
   10.5000000         1.06612708E-06
   10.6800003         1.09592816E-06
   10.8599997         1.10993813E-06
   11.0400000         1.10704707E-06
   11.2200003         1.08665677E-06
   11.3999996         1.04868013E-06
   11.5799999         9.93459253E-07
   11.7600002         9.21643675E-07
   11.9399996         8.34072068E-07
   12.1199999         7.31695025E-07
   12.3000002         6.15545275E-07
   12.4799995         4.86734507E-07
   12.6599998         3.46432216E-07
   12.8400002         1.95794016E-07
   13.0200005         3.58238275E-08
   13.1999998        -1.32805070E-07
   13.3800001        -3.09920949E-07
   13.5600004        -4.95957863E-07
   13.7399998        -6.91948856E-07
   13.9200001        -8.99400845E-07
   14.1000004        -1.12007660E-06
   14.2799997        -1.35574237E-06
   14.4600000        -1.60793968E-06
   14.6400003        -1.87783053E-06
   14.8199997        -2.16613284E-06
   15.0000000        -2.47314006E-06
   15.1800003        -2.79879282E-06
   15.3599997        -3.14276440E-06
   15.5400000        -3.50453911E-06
   15.7200003        -3.88346689E-06
   15.8999996        -4.27879695E-06
   16.0799999        -4.68970484E-06
   16.2600002        -5.11530607E-06
   16.4400005        -5.55466113E-06
   16.6200008        -6.00674366E-06
   16.7999992        -6.47036404E-06
   16.9799995        -6.94404298E-06
   17.1599998        -7.42585189E-06
   17.3400002        -7.91326420E-06
   17.5200005        -8.40306438E-06
   17.7000008        -8.89136936E-06
   17.8799992        -9.37375444E-06
   18.0599995        -9.84550388E-06
   18.2399998        -1.03019047E-05
   18.4200001        -1.07385586E-05
   18.6000004        -1.11516383E-05
   18.7800007        -1.15380644E-05
   18.9599991        -1.18956041E-05
   19.1399994        -1.22228994E-05
   19.3199997        -1.25194611E-05
   19.5000000        -1.27856629E-05
   19.6800003        -1.30227163E-05
   19.8600006        -1.32326531E-05
   20.0400009        -1.34182847E-05
   20.2199993        -1.35831233E-05
   20.3999996        -1.37312418E-05
   20.5799999        -1.38671030E-05
   20.7600002        -1.39953636E-05
   20.9400005        -1.41206719E-05
   21.1200008        -1.42475292E-05
   21.2999992        -1.43801899E-05
   21.4799995        -1.45226195E-05
   21.6599998        -1.46784796E-05
   21.8400002        -1.48511162E-05
   22.0200005        -1.50435108E-05
   22.2000008        -1.52581943E-05
   22.3799992        -1.54971331E-05
   22.5599995        -1.57616032E-05
   22.7399998        -1.60521049E-05
   22.9200001        -1.63683126E-05
   23.1000004        -1.67090984E-05
   23.2800007        -1.70726053E-05
   23.4599991        -1.74563684E-05
   23.6399994        -1.78574537E-05
   23.8199997        -1.82726071E-05
   24.0000000        -1.86984234E-05
   24.1800003        -1.91314812E-05
   24.3600006        -1.95685043E-05
   24.5400009        -2.00065024E-05
   24.7199993        -2.04429089E-05
   24.8999996        -2.08756737E-05
   25.0799999        -2.13033400E-05
   25.2600002        -2.17250526E-05
   25.4400005        -2.21405498E-05
   25.6200008        -2.25501208E-05
   25.7999992        -2.29545494E-05
   25.9799995        -2.33551145E-05
   26.1599998        -2.37535878E-05
   26.3400002        -2.41522630E-05
   26.5200005        -2.45539504E-05
   26.7000008        -2.49619006E-05
   26.8799992        -2.53796134E-05
   27.0599995        -2.58105483E-05
   27.2399998        -2.62577232E-05
   27.4200001        -2.67233427E-05
   27.6000004        -2.72084508E-05
   27.7800007        -2.77127710E-05
   27.9599991        -2.82346737E-05
   28.1399994        -2.87713156E-05
   28.3199997        -2.93188805E-05
   28.5000000        -2.98728410E-05
   28.6800003        -3.04281930E-05
   28.8600006        -3.09796415E-05
   29.0400009        -3.15216930E-05
   29.2199993        -3.20487816E-05
   29.3999996        -3.25553228E-05
   29.5799999        -3.30358635E-05
   29.7600002        -3.34852521E-05
   29.9400005        -3.38988139E-05
   30.1200008        -3.42725216E-05
   30.2999992        -3.46031156E-05
   30.4799995        -3.48881404E-05
   30.6599998        -3.51259332E-05
   30.8400002        -3.53156174E-05
   31.0200005        -3.54571057E-05
   31.2000008        -3.55511947E-05
   31.3799992        -3.55996890E-05
   31.5599995        -3.56055243E-05
   31.7399998        -3.55728735E-05
   31.9200001        -3.55071206E-05
   32.0999985        -3.54146796E-05
   32.2799988        -3.53027208E-05
   32.4599991        -3.51787603E-05
   32.6399994        -3.50502778E-05
   32.8199997        -3.49243383E-05
   33.0000000        -3.48073190E-05
   33.1800003        -3.47047244E-05
   33.3600006        -3.46210909E-05
   33.5400009        -3.45599146E-05
   33.7200012        -3.45236476E-05
   33.9000015        -3.45136541E-05
   34.0800018        -3.45301814E-05
   34.2599983        -3.45723274E-05
   34.4399986        -3.46380657E-05
   34.6199989        -3.47243513E-05
   34.7999992        -3.48272952E-05
   34.9799995        -3.49424918E-05
   35.1599998        -3.50653718E-05
   35.3400002        -3.51916278E-05
   35.5200005        -3.53176183E-05
   35.7000008        -3.54406548E-05
   35.8800011        -3.55592274E-05
   36.0600014        -3.56730307E-05
   36.2400017        -3.57828903E-05
   36.4199982        -3.58905236E-05
   36.5999985        -3.59982223E-05
   36.7799988        -3.61084676E-05
   36.9599991        -3.62235332E-05
   37.1399994        -3.63451618E-05
   37.3199997        -3.64742846E-05
   37.5000000        -3.66108870E-05
   37.6800003        -3.67539542E-05
   37.8600006        -3.69015397E-05
   38.0400009        -3.70508460E-05
   38.2200012        -3.71983588E-05
   38.4000015        -3.73399416E-05
   38.5800018        -3.74708652E-05
   38.7599983        -3.75858071E-05
   38.9399986        -3.76787939E-05
   39.1199989        -3.77431679E-05
   39.2999992        -3.77715951E-05
   39.4799995        -3.77562028E-05
   39.6599998        -3.76888784E-05
   39.8400002        -3.75617055E-05
   40.0200005        -3.73674520E-05
   40.2000008        -3.71001297E-05
   40.3800011        -3.67554057E-05
   40.5600014        -3.63309118E-05
   40.7400017        -3.58263460E-05
   40.9199982        -3.52434363E-05
   41.0999985        -3.45857916E-05
   41.2799988        -3.38587124E-05
   41.4599991        -3.30689400E-05
   41.6399994        -3.22244414E-05
   41.8199997        -3.13341079E-05
   42.0000000        -3.04074747E-05
   42.1800003        -2.94543224E-05
   42.3600006        -2.84843136E-05
   42.5400009        -2.75066323E-05
   42.7200012        -2.65297058E-05
   42.9000015        -2.55610648E-05
   43.0800018        -2.46073196E-05
   43.2599983        -2.36742690E-05
   43.4399986        -2.27670389E-05
   43.6199989        -2.18902314E-05
   43.7999992        -2.10479902E-05
   43.9799995        -2.02440206E-05
   44.1599998        -1.94815220E-05
   44.3400002        -1.87631322E-05
   44.5200005        -1.80908974E-05
   44.7000008        -1.74663001E-05
   44.8800011        -1.68903443E-05
   45.0600014        -1.63636305E-05
   45.2400017        -1.58864277E-05
   45.4199982        -1.54586596E-05
   45.5999985        -1.50798851E-05
   45.7799988        -1.47492474E-05
   45.9599991        -1.44655278E-05
   46.1399994        -1.42272920E-05
   46.3199997        -1.40331549E-05
   46.5000000        -1.38821088E-05
   46.6800003        -1.37738252E-05
   46.8600006        -1.37088382E-05
   47.0400009        -1.36885519E-05
   47.2200012        -1.37150391E-05
   47.4000015        -1.37906973E-05
   47.5800018        -1.39178283E-05
   47.7599983        -1.40982274E-05
   47.9399986        -1.43328834E-05
   48.1199989        -1.46218053E-05
   48.2999992        -1.49639882E-05
   48.4799995        -1.53574583E-05
   48.6599998        -1.57993891E-05
   48.8400002        -1.62862034E-05
   49.0200005        -1.68136849E-05
   49.2000008        -1.73770914E-05
   49.3800011        -1.79712897E-05
   49.5600014        -1.85909194E-05
   49.7400017        -1.92305852E-05
   49.9199982        -1.98850321E-05
   50.0999985        -2.05492379E-05
   50.2799988        -2.12184204E-05
   50.4599991        -2.18878904E-05
   50.6399994        -2.25528202E-05
   50.8199997        -2.32079765E-05
   51.0000000        -2.38475059E-05
   51.1800003        -2.44648272E-05
   51.3600006        -2.50527337E-05
   51.5400009        -2.56036583E-05
   51.7200012        -2.61101086E-05
   51.9000015        -2.65651925E-05
   52.0800018        -2.69631400E-05
   52.2599983        -2.72997186E-05
   52.4399986        -2.75725306E-05
   52.6199989        -2.77810686E-05
   52.7999992        -2.79266133E-05
   52.9799995        -2.80119439E-05
   53.1599998        -2.80409477E-05
   53.3400002        -2.80181612E-05
   53.5200005        -2.79483265E-05
   53.7000008        -2.78359548E-05
   53.8800011        -2.76849660E-05
   54.0600014        -2.74984013E-05
   54.2400017        -2.72782199E-05
   54.4199982        -2.70252076E-05
   54.5999985        -2.67389751E-05
   54.7799988        -2.64180926E-05
   54.9599991        -2.60602865E-05
   55.1399994        -2.56627027E-05
   55.3199997        -2.52221689E-05
   55.5000000        -2.47354328E-05
   55.6800003        -2.41993203E-05
   55.8600006        -2.36108772E-05
   56.0400009        -2.29674588E-05
   56.2200012        -2.22668605E-05
   56.4000015        -2.15075033E-05
   56.5800018        -2.06886925E-05
   56.7599983        -1.98108974E-05
   56.9399986        -1.88760041E-05
   57.1199989        -1.78874361E-05
   57.2999992        -1.68500828E-05
   57.4799995        -1.57700106E-05
   57.6599998        -1.46539951E-05
   57.8400002        -1.35089740E-05
   58.0200005        -1.23415348E-05
   58.2000008        -1.11575218E-05
   58.3800011        -9.96183917E-06
   58.5600014        -8.75841124E-06
   58.7400017        -7.55027122E-06
   58.9199982        -6.33967829E-06
   59.0999985        -5.12823499E-06
   59.2799988        -3.91695767E-06
   59.4599991        -2.70634473E-06
   59.6399994        -1.49647587E-06
   59.8199997        -2.87142370E-07
   60.0000000         9.21971719E-07
   60.1800003         2.13110525E-06
   60.3600006         3.34027732E-06
   60.5400009         4.54923020E-06
   60.7200012         5.75747799E-06
   60.9000015         6.96438156E-06
   61.0800018         8.16921420E-06
   61.2599983         9.37113691E-06
   61.4399986         1.05690597E-05
   61.6199989         1.17614227E-05
   61.7999992         1.29459786E-05
   61.9799995         1.41196970E-05
   62.1599998         1.52788398E-05
   62.3400002         1.64192770E-05
   62.5200005         1.75368859E-05
   62.7000008         1.86280067E-05
   62.8800011         1.96897254E-05
   63.0600014         2.07199319E-05
   63.2400017         2.17171728E-05
   63.4199982         2.26803240E-05
   63.5999985         2.36082669E-05
   63.7799988         2.44996809E-05
   63.9599991         2.53530125E-05
   64.1399994         2.61666428E-05
   64.3199997         2.69391421E-05
   64.5000000         2.76695009E-05
   64.6800003         2.83572735E-05
   64.8600006         2.90025491E-05
   65.0400009         2.96058188E-05
   65.2200012         3.01677810E-05
   65.4000015         3.06892071E-05
   65.5800018         3.11708500E-05
   65.7600021         3.16134610E-05
   65.9400024         3.20178333E-05
   66.1200027         3.23848144E-05
   66.3000031         3.27152520E-05
   66.4800034         3.30098774E-05
   66.6600037         3.32691961E-05
   66.8399963         3.34934775E-05
   67.0199966         3.36828889E-05
   67.1999969         3.38377940E-05
   67.3799973         3.39591461E-05
   67.5599976         3.40488114E-05
   67.7399979         3.41097511E-05
   67.9199982         3.41458690E-05
   68.0999985         3.41616178E-05
   68.2799988         3.41613886E-05
   68.4599991         3.41488667E-05
   68.6399994         3.41265186E-05
   68.8199997         3.40953738E-05
   69.0000000         3.40550869E-05
   69.1800003         3.40042970E-05
   69.3600006         3.39411490E-05
   69.5400009         3.38638747E-05
   69.7200012         3.37712336E-05
   69.9000015         3.36628291E-05
   70.0800018         3.35392033E-05
   70.2600021         3.34017532E-05
   70.4400024         3.32525415E-05
   70.6200027         3.30939729E-05
   70.8000031         3.29285467E-05
   70.9800034         3.27585803E-05
   71.1600037         3.25860346E-05
   71.3399963         3.24124085E-05
   71.5199966         3.22387423E-05
   71.6999969         3.20656472E-05
   71.8799973         3.18934362E-05
   72.0599976         3.17222875E-05
   72.2399979         3.15523685E-05
   72.4199982         3.13839846E-05
   72.5999985         3.12176307E-05
   72.7799988         3.10540127E-05
   72.9599991         3.08940362E-05
   73.1399994         3.07387163E-05
   73.3199997         3.05890826E-05
   73.5000000         3.04460591E-05
   73.6800003         3.03102825E-05
   73.8600006         3.01819255E-05
   74.0400009         3.00605316E-05
   74.2200012         2.99449166E-05
   74.4000015         2.98332125E-05
   74.5800018         2.97230963E-05
   74.7600021         2.96121507E-05
   74.9400024         2.94983511E-05
   75.1200027         2.93805224E-05
   75.3000031         2.92586719E-05
   75.4800034         2.91341003E-05
   75.6600037         2.90092212E-05
   75.8399963         2.88871925E-05
   76.0199966         2.87713738E-05
   76.1999969         2.86647428E-05
   76.3799973         2.85693623E-05
   76.5599976         2.84859962E-05
   76.7399979         2.84138405E-05
   76.9199982         2.83504269E-05
   77.0999985         2.82916862E-05
   77.2799988         2.82321234E-05
   77.4599991         2.81651101E-05
   77.6399994         2.80833247E-05
   77.8199997         2.79792530E-05
   78.0000000         2.78457501E-05
   78.1800003         2.76765804E-05
   78.3600006         2.74668473E-05
   78.5400009         2.72132111E-05
   78.7200012         2.69139036E-05
   78.9000015         2.65685194E-05
   79.0800018         2.61776695E-05
   79.2600021         2.57426418E-05
   79.4400024         2.52651189E-05
   79.6200027         2.47470434E-05
   79.8000031         2.41906273E-05
   79.9800034         2.35984244E-05
   80.1600037         2.29734542E-05
   80.3399963         2.23192710E-05
   80.5199966         2.16399985E-05
   80.6999969         2.09403370E-05
   80.8799973         2.02255615E-05
   81.0599976         1.95015236E-05
   81.2399979         1.87746009E-05
   81.4199982         1.80515544E-05
   81.5999985         1.73392382E-05
   81.7799988         1.66441259E-05
   81.9599991         1.59717110E-05
   82.1399994         1.53258843E-05
   82.3199997         1.47084456E-05
   82.5000000         1.41188593E-05
   82.6800003         1.35544033E-05
   82.8600006         1.30106291E-05
   83.0400009         1.24821090E-05
   83.2200012         1.19632514E-05
   83.4000015         1.14490476E-05
   83.5800018         1.09355815E-05
   83.7600021         1.04202672E-05
   83.9400024         9.90183798E-06
   84.1200027         9.38019548E-06
   84.3000031         8.85622831E-06
   84.4800034         8.33166632E-06
   84.6600037         7.80899700E-06
   84.8399963         7.29139310E-06
   85.0199966         6.78259266E-06
   85.1999969         6.28667067E-06
   85.3799973         5.80773258E-06
   85.5599976         5.34956962E-06
   85.7399979         4.91536002E-06
   85.9199982         4.50750349E-06
   86.0999985         4.12759073E-06
   86.2799988         3.77649781E-06
   86.4599991         3.45452077E-06
   86.6399994         3.16147657E-06
   86.8199997         2.89672221E-06
   87.0000000         2.65908261E-06
   87.1800003         2.44673811E-06
   87.3600006         2.25713711E-06
   87.5400009         2.08700681E-06
   87.7200012         1.93249889E-06
   87.9000015         1.78946516E-06
   88.0800018         1.65380015E-06
   88.2600021         1.52177813E-06
   88.4400024         1.39029521E-06
   88.6200027         1.25697284E-06
   88.8000031         1.12010571E-06
   88.9800034         9.78506705E-07
   89.1600037         8.31281397E-07
   89.3399963         6.77608284E-07
   89.5199966         5.16545924E-07
   89.6999969         3.46887845E-07
   89.8799973         1.67070141E-07
   90.0599976        -2.48649084E-08
   90.2399979        -2.31208588E-07
   90.4199982        -4.54426839E-07
   90.5999985        -6.96877748E-07
   90.7799988        -9.60436523E-07
   90.9599991        -1.24610551E-06
   91.1399994        -1.55369150E-06
   91.3199997        -1.88165848E-06
   91.5000000        -2.22721951E-06
   91.6800003        -2.58667546E-06
   91.8600006        -2.95595100E-06
   92.0400009        -3.33121284E-06
   92.2200012        -3.70943644E-06
   92.4000015        -4.08877713E-06
   92.5800018        -4.46863578E-06
   92.7600021        -4.84939574E-06
   92.9400024        -5.23186236E-06
   93.1200027        -5.61654451E-06
   93.3000031        -6.00295880E-06
   93.4800034        -6.38914071E-06
   93.6600037        -6.77152457E-06
   93.8399963        -7.14522594E-06
   94.0199966        -7.50470144E-06
   94.1999969        -7.84463282E-06
   94.3799973        -8.16082866E-06
   94.5599976        -8.45094928E-06
   94.7399979        -8.71488828E-06
   94.9199982        -8.95474841E-06
   95.0999985        -9.17443867E-06
   95.2799988        -9.37904224E-06
   95.4599991        -9.57410612E-06
   95.6399994        -9.76505089E-06
   95.8199997        -9.95681239E-06
   96.0000000        -1.01537598E-05
   96.1800003        -1.03598368E-05
   96.3600006        -1.05788140E-05
   96.5400009        -1.08145359E-05
   96.7200012        -1.10710725E-05
   96.9000015        -1.13527349E-05
   97.0800018        -1.16639749E-05
   97.2600021        -1.20091972E-05
   97.4400024        -1.23925329E-05
   97.6200027        -1.28175707E-05
   97.8000031        -1.32870509E-05
   97.9800034        -1.38025180E-05
   98.1600037        -1.43639645E-05
   98.3399963        -1.49695161E-05
   98.5199966        -1.56152655E-05
   98.6999969        -1.62952947E-05
   98.8799973        -1.70019466E-05
   99.0599976        -1.77262882E-05
   99.2399979        -1.84586552E-05
   99.4199982        -1.91891795E-05
   99.5999985        -1.99081569E-05
   99.7799988        -2.06062196E-05
   99.9599991        -2.12743253E-05
   100.139999        -2.19036392E-05
   100.320000        -2.24854357E-05
   100.500000        -2.30111018E-05
   100.680000        -2.34722702E-05
   100.860001        -2.38610719E-05
   101.040001        -2.41703929E-05
   101.220001        -2.43940704E-05
   101.400002        -2.45269530E-05
   101.580002        -2.45649062E-05
   101.760002        -2.45047922E-05
   101.940002        -2.43446138E-05
   102.120003        -2.40838381E-05
   102.300003        -2.37239274E-05
   102.480003        -2.32689272E-05
   102.660004        -2.27258752E-05
   102.839996        -2.21049013E-05
   103.019997        -2.14188203E-05
   103.199997        -2.06823152E-05
   103.379997        -1.99108235E-05
   103.559998        -1.91193685E-05
   103.739998        -1.83215980E-05
   103.919998        -1.75291661E-05
   104.099998        -1.67514991E-05
   104.279999        -1.59958581E-05
   104.459999        -1.52675748E-05
   104.639999        -1.45702752E-05
   104.820000        -1.39060512E-05
   105.000000        -1.32755204E-05
   105.180000        -1.26778687E-05
   105.360001        -1.21109233E-05
   105.540001        -1.15713201E-05
   105.720001        -1.10547362E-05
   105.900002        -1.05561403E-05
   106.080002        -1.00699317E-05
   106.260002        -9.58993769E-06
   106.440002        -9.10927520E-06
   106.620003        -8.62017168E-06
   106.800003        -8.11388782E-06
   106.980003        -7.58090346E-06
   107.160004        -7.01138788E-06
   107.339996        -6.39596101E-06
   107.519997        -5.72654653E-06
   107.699997        -4.99716089E-06
   107.879997        -4.20444303E-06
   108.059998        -3.34782703E-06
   108.239998        -2.42935266E-06
   108.419998        -1.45318450E-06
   108.599998        -4.24963019E-07
   108.779999         6.48922935E-07
   108.959999         1.76204082E-06
   109.139999         2.90858065E-06
   109.320000         4.08395454E-06
   109.500000         5.28529608E-06
   109.680000         6.51183245E-06
   109.860001         7.76503839E-06
   110.040001         9.04849549E-06
   110.220001         1.03674411E-05
   110.400002         1.17279978E-05
   110.580002         1.31362194E-05
   110.760002         1.45970889E-05
   110.940002         1.61137141E-05
   111.120003         1.76868543E-05