  -34.5000000       0.00000000    
  -34.3199997       0.00000000    
  -34.1399994       0.00000000    
  -33.9599991      -3.97579664E-24
  -33.7799988      -2.67793002E-20
  -33.5999985      -3.79018525E-19
  -33.4199982      -1.56749868E-18
  -33.2400017      -9.33766660E-19
  -33.0600014       5.81989390E-18
  -32.8800011       6.75409638E-18
  -32.7000008      -1.64586095E-17
  -32.5200005      -1.48152514E-17
  -32.3400002       9.65669374E-17
  -32.1599998       1.37823682E-16
  -31.9799995      -4.25291140E-16
  -31.7999992      -1.55275751E-15
  -31.6200008      -1.33842027E-15
  -31.4400005       2.98149626E-15
  -31.2600002       1.04093903E-14
  -31.0799999       1.22355925E-14
  -30.8999996      -3.35165686E-15
  -30.7199993      -3.63530312E-14
  -30.5400009      -6.20341045E-14
  -30.3600006      -3.94919760E-14
  -30.1800003       5.25570798E-14
  -30.0000000       1.76127125E-13
  -29.8199997       2.31148949E-13
  -29.6399994       1.11923674E-13
  -29.4599991      -2.01778332E-13
  -29.2800007      -5.82719365E-13
  -29.1000004      -7.82375954E-13
  -28.9200001      -5.52614053E-13
  -28.7399998       1.94573104E-13
  -28.5599995       1.27866467E-12
  -28.3799992       2.26060555E-12
  -28.2000008       2.57998289E-12
  -28.0200005       1.77328855E-12
  -27.8400002      -2.98752261E-13
  -27.6599998      -3.28772209E-12
  -27.4799995      -6.32417252E-12
  -27.2999992      -8.16941653E-12
  -27.1200008      -7.57188062E-12
  -26.9400005      -3.76869846E-12
  -26.7600002       3.03071023E-12
  -26.5799999       1.14084887E-11
  -26.3999996       1.89395531E-11
  -26.2199993       2.28585900E-11
  -26.0400009       2.09998754E-11
  -25.8600006       1.26498239E-11
  -25.6800003      -1.05802433E-12
  -25.5000000      -1.74027893E-11
  -25.3199997      -3.29061361E-11
  -25.1399994      -4.43942660E-11
  -24.9599991      -4.98519073E-11
  -24.7800007      -4.87239832E-11
  -24.6000004      -4.15700183E-11
  -24.4200001      -2.92731707E-11
  -24.2399998      -1.22256094E-11
  -24.0599995       1.00424287E-11
  -23.8799992       3.84871544E-11
  -23.7000008       7.34567962E-11
  -23.5200005       1.13271920E-10
  -23.3400002       1.53105542E-10
  -23.1599998       1.84751645E-10
  -22.9799995       1.97551892E-10
  -22.7999992       1.80277612E-10
  -22.6200008       1.23355229E-10
  -22.4400005       2.06843102E-11
  -22.2600002      -1.29490571E-10
  -22.0799999      -3.24730687E-10
  -21.8999996      -5.59168767E-10
  -21.7199993      -8.24211588E-10
  -21.5400009      -1.10858223E-09
  -21.3600006      -1.39750056E-09
  -21.1800003      -1.67135406E-09
  -21.0000000      -1.90468330E-09
  -20.8199997      -2.06648187E-09
  -20.6399994      -2.12256301E-09
  -20.4599991      -2.04009187E-09
  -20.2800007      -1.79354431E-09
  -20.1000004      -1.37063350E-09
  -19.9200001      -7.76524400E-10
  -19.7399998      -3.50625882E-11
  -19.5599995       8.13313028E-10
  -19.3799992       1.71620551E-09
  -19.2000008       2.61491717E-09
  -19.0200005       3.44951667E-09
  -18.8400002       4.16230383E-09
  -18.6599998       4.69963179E-09
  -18.4799995       5.01291808E-09
  -18.2999992       5.06000308E-09
  -18.1200008       4.80772488E-09
  -17.9400005       4.23571445E-09
  -17.7600002       3.34051564E-09
  -17.5799999       2.13852824E-09
  -17.3999996       6.66408262E-10
  -17.2199993      -1.02163666E-09
  -17.0400009      -2.85904278E-09
  -16.8600006      -4.77300288E-09
  -16.6800003      -6.68963773E-09
  -16.5000000      -8.53693471E-09
  -16.3199997      -1.02452704E-08
  -16.1399994      -1.17464634E-08
  -15.9600000      -1.29728468E-08
  -15.7799997      -1.38577354E-08
  -15.6000004      -1.43379459E-08
  -15.4200001      -1.43581955E-08
  -15.2399998      -1.38765683E-08
  -15.0600004      -1.28699025E-08
  -14.8800001      -1.13379830E-08
  -14.6999998      -9.30564603E-09
  -14.5200005      -6.82243506E-09
  -14.3400002      -3.95999855E-09
  -14.1599998      -8.07920009E-10
  -13.9799995       2.53119481E-09
  -13.8000002       5.94681548E-09
  -13.6199999       9.32566557E-09
  -13.4399996       1.25572210E-08
  -13.2600002       1.55396798E-08
  -13.0799999       1.81859630E-08
  -12.8999996       2.04286632E-08
  -12.7200003       2.22225243E-08
  -12.5400000       2.35435778E-08
  -12.3599997       2.43850806E-08
  -12.1800003       2.47517207E-08
  -12.0000000       2.46541596E-08
  -11.8199997       2.41057698E-08
  -11.6400003       2.31223360E-08
  -11.4600000       2.17241940E-08
  -11.2799997       1.99391934E-08
  -11.1000004       1.78046644E-08
  -10.9200001       1.53671564E-08
  -10.7399998       1.26796893E-08
  -10.5600004       9.79749259E-09
  -10.3800001       6.77358791E-09
  -10.1999998       3.65554387E-09
  -10.0200005       4.83970808E-10
  -9.84000015      -2.70745937E-09
  -9.65999985      -5.89118310E-09
  -9.47999954      -9.04484665E-09
  -9.30000019      -1.21506085E-08
  -9.11999989      -1.51944768E-08
  -8.93999958      -1.81651458E-08
  -8.76000023      -2.10519673E-08
  -8.57999992      -2.38419631E-08
  -8.39999962      -2.65164655E-08
  -8.22000027      -2.90481061E-08
  -8.03999996      -3.13989901E-08
  -7.86000013      -3.35207382E-08
  -7.67999983      -3.53565852E-08
  -7.50000000      -3.68453996E-08
  -7.32000017      -3.79268315E-08
  -7.13999987      -3.85466628E-08
  -6.96000004      -3.86610033E-08
  -6.78000021      -3.82385466E-08
  -6.59999990      -3.72605697E-08
  -6.42000008      -3.57191965E-08
  -6.23999977      -3.36151125E-08
  -6.05999994      -3.09557251E-08
  -5.88000011      -2.77545791E-08
  -5.69999981      -2.40321025E-08
  -5.51999998      -1.98172856E-08
  -5.34000015      -1.51496664E-08
  -5.15999985      -1.00811084E-08
  -4.98000002      -4.67702854E-09
  -4.80000019       9.83037096E-10
  -4.61999989       6.80547707E-09
  -4.44000006       1.26834641E-08
  -4.26000023       1.84986177E-08
  -4.07999992       2.41239118E-08
  -3.90000010       2.94280902E-08
  -3.72000003       3.42816975E-08
  -3.53999996       3.85646324E-08
  -3.35999990       4.21743778E-08
  -3.18000007       4.50336550E-08
  -3.00000000       4.70958206E-08
  -2.81999993       4.83469087E-08
  -2.64000010       4.88035816E-08
  -2.46000004       4.85073102E-08
  -2.27999997       4.75156234E-08
  -2.09999990       4.58917455E-08
  -1.91999996       4.36945200E-08
  -1.74000001       4.09700860E-08
  -1.55999994       3.77475402E-08
  -1.38000000       3.40394735E-08
  -1.20000005       2.98469196E-08
  -1.01999998       2.51673757E-08
 -0.839999974       2.00023500E-08
 -0.660000026       1.43623211E-08
 -0.479999989       8.26768343E-09
 -0.300000012       1.74612036E-09
 -0.119999997      -5.17056442E-09
   5.99999987E-02  -1.24481829E-08
  0.239999995      -2.00486294E-08
  0.419999987      -2.79261592E-08
  0.600000024      -3.60234971E-08
  0.779999971      -4.42697932E-08
  0.959999979      -5.25820631E-08
   1.13999999      -6.08697945E-08
   1.32000005      -6.90405528E-08
   1.50000000      -7.70049695E-08
   1.67999995      -8.46789447E-08
   1.86000001      -9.19827485E-08
   2.03999996      -9.88375817E-08
   2.22000003      -1.05160645E-07
   2.40000010      -1.10859752E-07
   2.57999992      -1.15830481E-07
   2.75999999      -1.19956695E-07
   2.94000006      -1.23116621E-07
   3.11999989      -1.25192827E-07
   3.29999995      -1.26086348E-07
   3.48000002      -1.25729784E-07
   3.66000009      -1.24096829E-07
   3.83999991      -1.21206071E-07
   4.01999998      -1.17117224E-07
   4.19999981      -1.11921644E-07
   4.38000011      -1.05730422E-07
   4.55999994      -9.86620563E-08
   4.73999977      -9.08312572E-08
   4.92000008      -8.23416642E-08
   5.09999990      -7.32796295E-08
   5.28000021      -6.37117310E-08
   5.46000004      -5.36840510E-08
   5.63999987      -4.32242508E-08
   5.82000017      -3.23469820E-08
   6.00000000      -2.10620161E-08
   6.17999983      -9.38573308E-09
   6.36000013       2.64664579E-09
   6.53999996       1.49691353E-08
   6.71999979       2.74765704E-08
   6.90000010       4.00238171E-08
   7.07999992       5.24348067E-08
   7.26000023       6.45223537E-08
   7.44000006       7.61145742E-08
   7.61999989       8.70818582E-08
   7.80000019       9.73556098E-08
   7.98000002       1.06931317E-07
   8.15999985       1.15854554E-07
   8.34000015       1.24194003E-07
   8.52000046       1.32008680E-07
   8.69999981       1.39321912E-07
   8.88000011       1.46105393E-07
   9.06000042       1.52279910E-07
   9.23999977       1.57725339E-07
   9.42000008       1.62297312E-07
   9.60000038       1.65842536E-07
   9.77999973       1.68210704E-07
   9.96000004       1.69260744E-07
   10.1400003       1.68864162E-07
   10.3199997       1.66907370E-07
   10.5000000       1.63294558E-07
   10.6800003       1.57950211E-07
   10.8599997       1.50821478E-07
   11.0400000       1.41876342E-07
   11.2200003       1.31099341E-07
   11.3999996       1.18481779E-07
   11.5799999       1.04012543E-07
   11.7600002       8.76730937E-08
   11.9399996       6.94421658E-08
   12.1199999       4.93131154E-08
   12.3000002       2.73190359E-08
   12.4799995       3.55706375E-09
   12.6599998      -2.17986944E-08
   12.8400002      -4.85024501E-08
   13.0200005      -7.62628787E-08
   13.1999998      -1.04779978E-07
   13.3800001      -1.33783132E-07
   13.5600004      -1.63054324E-07
   13.7399998      -1.92434683E-07
   13.9200001      -2.21812996E-07
   14.1000004      -2.51109327E-07
   14.2799997      -2.80258888E-07
   14.4600000      -3.09203983E-07
   14.6400003      -3.37892374E-07
   14.8199997      -3.66277533E-07
   15.0000000      -3.94314895E-07
   15.1800003      -4.21952194E-07
   15.3599997      -4.49110502E-07
   15.5400000      -4.75668230E-07
   15.7200003      -5.01446721E-07
   15.8999996      -5.26207884E-07
   16.0799999      -5.49659148E-07
   16.2600002      -5.71470991E-07
   16.4400005      -5.91294281E-07
   16.6200008      -6.08780681E-07
   16.7999992      -6.23597145E-07
   16.9799995      -6.35433594E-07
   17.1599998      -6.44010640E-07
   17.3400002      -6.49085905E-07
   17.5200005      -6.50467939E-07
   17.7000008      -6.48033904E-07
   17.8799992      -6.41750717E-07
   18.0599995      -6.31688806E-07
   18.2399998      -6.18019840E-07
   18.4200001      -6.01000522E-07
   18.6000004      -5.80934000E-07
   18.7800007      -5.58128647E-07
   18.9599991      -5.32869763E-07
   19.1399994      -5.05402625E-07
   19.3199997      -4.75939771E-07
   19.5000000      -4.44681802E-07
   19.6800003      -4.11839977E-07
   19.8600006      -3.77649968E-07
   20.0400009      -3.42368651E-07
   20.2199993      -3.06252872E-07
   20.3999996      -2.69529124E-07
   20.5799999      -2.32357706E-07
   20.7600002      -1.94808109E-07
   20.9400005      -1.56849865E-07
   21.1200008      -1.18359665E-07
   21.2999992      -7.91506025E-08
   21.4799995      -3.90105193E-08
   21.6599998       2.24712982E-09
   21.8400002       4.47321646E-08
   22.0200005       8.84306459E-08
   22.2000008       1.33170090E-07
   22.3799992       1.78603514E-07
   22.5599995       2.24207199E-07
   22.7399998       2.69296947E-07
   22.9200001       3.13061292E-07
   23.1000004       3.54605561E-07
   23.2800007       3.92995332E-07
   23.4599991       4.27301046E-07
   23.6399994       4.56628044E-07
   23.8199997       4.80134361E-07
   24.0000000       4.97034250E-07
   24.1800003       5.06592869E-07
   24.3600006       5.08114567E-07
   24.5400009       5.00937460E-07
   24.7199993       4.84428767E-07
   24.8999996       4.57994076E-07
   25.0799999       4.21090334E-07
   25.2600002       3.73247786E-07
   25.4400005       3.14098429E-07
   25.6200008       2.43407555E-07
   25.7999992       1.61099535E-07
   25.9799995       6.72895837E-08
   26.1599998      -3.77148339E-08
   26.3400002      -1.53415073E-07
   26.5200005      -2.79157518E-07
   26.7000008      -4.14184740E-07
   26.8799992      -5.57695955E-07
   27.0599995      -7.08909795E-07
   27.2399998      -8.67112590E-07
   27.4200001      -1.03168372E-06
   27.6000004      -1.20209347E-06
   27.7800007      -1.37787742E-06
   27.9599991      -1.55859379E-06
   28.1399994      -1.74376942E-06
   28.3199997      -1.93286087E-06
   28.5000000      -2.12522173E-06
   28.6800003      -2.32009052E-06
   28.8600006      -2.51660845E-06
   29.0400009      -2.71383692E-06
   29.2199993      -2.91079141E-06
   29.3999996      -3.10646487E-06
   29.5799999      -3.29985141E-06
   29.7600002      -3.48995809E-06
   29.9400005      -3.67581583E-06
   30.1200008      -3.85648855E-06
   30.2999992      -4.03107560E-06
   30.4799995      -4.19871367E-06
   30.6599998      -4.35857510E-06
   30.8400002      -4.50986181E-06
   31.0200005      -4.65179482E-06
   31.2000008      -4.78361244E-06
   31.3799992      -4.90456887E-06
   31.5599995      -5.01393333E-06
   31.7399998      -5.11100370E-06
   31.9200001      -5.19511241E-06
   32.0999985      -5.26563645E-06
   32.2799988      -5.32200056E-06
   32.4599991      -5.36368043E-06
   32.6399994      -5.39020084E-06
   32.8199997      -5.40113160E-06
   33.0000000      -5.39608891E-06
   33.1800003      -5.37473989E-06
   33.3600006      -5.33681259E-06
   33.5400009      -5.28211194E-06
   33.7200012      -5.21052289E-06
   33.9000015      -5.12200859E-06
   34.0800018      -5.01658906E-06
   34.2599983      -4.89431523E-06
   34.4399986      -4.75524439E-06
   34.6199989      -4.59943112E-06
   34.7999992      -4.42695045E-06
   34.9799995      -4.23794063E-06
   35.1599998      -4.03267404E-06
   35.3400002      -3.81161817E-06
   35.5200005      -3.57548674E-06
   35.7000008      -3.32525360E-06
   35.8800011      -3.06212996E-06
   36.0600014      -2.78751463E-06
   36.2400017      -2.50292123E-06
   36.4199982      -2.20990796E-06
   36.5999985      -1.91001595E-06
   36.7799988      -1.60472769E-06
   36.9599991      -1.29544298E-06
   37.1399994      -9.83470841E-07
   37.3199997      -6.70024860E-07
   37.5000000      -3.56223723E-07
   37.6800003      -4.30926193E-08
   37.8600006       2.68433752E-07
   38.0400009       5.77497019E-07
   38.2200012       8.83301539E-07
   38.4000015       1.18508171E-06
   38.5800018       1.48209119E-06
   38.7599983       1.77359880E-06
   38.9399986       2.05890569E-06
   39.1199989       2.33738956E-06
   39.2999992       2.60855154E-06
   39.4799995       2.87205285E-06
   39.6599998       3.12773000E-06
   39.8400002       3.37556571E-06
   40.0200005       3.61564094E-06
   40.2000008       3.84805890E-06
   40.3800011       4.07288053E-06
   40.5600014       4.29006332E-06
   40.7400017       4.49944628E-06
   40.9199982       4.70074292E-06
   41.0999985       4.89356262E-06
   41.2799988       5.07744107E-06
   41.4599991       5.25186761E-06
   41.6399994       5.41630925E-06
   41.8199997       5.57022531E-06
   42.0000000       5.71308192E-06
   42.1800003       5.84436884E-06
   42.3600006       5.96360360E-06
   42.5400009       6.07034099E-06
   42.7200012       6.16416537E-06
   42.9000015       6.24467839E-06
   43.0800018       6.31146804E-06
   43.2599983       6.36408322E-06
   43.4399986       6.40200051E-06
   43.6199989       6.42461691E-06
   43.7999992       6.43126032E-06
   43.9799995       6.42122586E-06
   44.1599998       6.39382779E-06
   44.3400002       6.34846037E-06
   44.5200005       6.28465159E-06
   44.7000008       6.20210858E-06
   44.8800011       6.10073721E-06
   45.0600014       5.98066163E-06
   45.2400017       5.84222062E-06
   45.4199982       5.68596124E-06
   45.5999985       5.51262792E-06
   45.7799988       5.32313288E-06
   45.9599991       5.11851749E-06
   46.1399994       4.89988906E-06
   46.3199997       4.66836173E-06
   46.5000000       4.42498185E-06
   46.6800003       4.17066849E-06
   46.8600006       3.90617060E-06
   47.0400009       3.63204208E-06
   47.2200012       3.34863444E-06
   47.4000015       3.05611206E-06
   47.5800018       2.75448429E-06
   47.7599983       2.44363355E-06
   47.9399986       2.12335317E-06
   48.1199989       1.79337496E-06
   48.2999992       1.45337629E-06
   48.4799995       1.10299413E-06
   48.6599998       7.41829581E-07
   48.8400002       3.69448287E-07
   49.0200005      -1.46028958E-08
   49.2000008      -4.10774959E-07
   49.3800011      -8.19483603E-07
   49.5600014      -1.24107362E-06
   49.7400017      -1.67576763E-06
   49.9199982      -2.12362124E-06
   50.0999985      -2.58447972E-06
   50.2799988      -3.05793878E-06
   50.4599991      -3.54332951E-06
   50.6399994      -4.03972081E-06
   50.8199997      -4.54594829E-06
   51.0000000      -5.06067681E-06
   51.1800003      -5.58248212E-06
   51.3600006      -6.10994084E-06
   51.5400009      -6.64173422E-06
   51.7200012      -7.17674266E-06
   51.9000015      -7.71412761E-06
   52.0800018      -8.25340067E-06
   52.2599983      -8.79445724E-06
   52.4399986      -9.33759202E-06
   52.6199989      -9.88346892E-06
   52.7999992      -1.04330675E-05
   52.9799995      -1.09876046E-05
   53.1599998      -1.15484381E-05
   53.3400002      -1.21169860E-05
   53.5200005      -1.26946479E-05
   53.7000008      -1.32827381E-05
   53.8800011      -1.38824407E-05
   54.0600014      -1.44947808E-05
   54.2400017      -1.51205859E-05
   54.4199982      -1.57604663E-05
   54.5999985      -1.64147914E-05
   54.7799988      -1.70836647E-05
   54.9599991      -1.77669099E-05
   55.1399994      -1.84640649E-05
   55.3199997      -1.91743893E-05
   55.5000000      -1.98968810E-05
   55.6800003      -2.06303012E-05
   55.8600006      -2.13732019E-05
   56.0400009      -2.21239570E-05
   56.2200012      -2.28807949E-05
   56.4000015      -2.36418400E-05
   56.5800018      -2.44051516E-05
   56.7599983      -2.51687761E-05
   56.9399986      -2.59308345E-05
   57.1199989      -2.66896113E-05
   57.2999992      -2.74436170E-05
   57.4799995      -2.81916800E-05
   57.6599998      -2.89329582E-05
   57.8400002      -2.96669277E-05
   58.0200005      -3.03933448E-05
   58.2000008      -3.11121657E-05
   58.3800011      -3.18234670E-05
   58.5600014      -3.25274195E-05
   58.7400017      -3.32242344E-05
   58.9199982      -3.39141370E-05
   59.0999985      -3.45973640E-05
   59.2799988      -3.52741408E-05
   59.4599991      -3.59446458E-05
   59.6399994      -3.66089880E-05
   59.8199997      -3.72671784E-05
   60.0000000      -3.79191260E-05
   60.1800003      -3.85646490E-05
   60.3600006      -3.92035145E-05
   60.5400009      -3.98354823E-05
   60.7200012      -4.04603197E-05
   60.9000015      -4.10778630E-05
   61.0800018      -4.16879629E-05
   61.2599983      -4.22904668E-05
   61.4399986      -4.28851890E-05
   61.6199989      -4.34718422E-05
   61.7999992      -4.40500444E-05
   61.9799995      -4.46192935E-05
   62.1599998      -4.51790147E-05
   62.3400002      -4.57285751E-05
   62.5200005      -4.62673270E-05
   62.7000008      -4.67946047E-05
   62.8800011      -4.73097316E-05
   63.0600014      -4.78120055E-05
   63.2400017      -4.83007243E-05
   63.4199982      -4.87751713E-05
   63.5999985      -4.92346626E-05
   63.7799988      -4.96785651E-05
   63.9599991      -5.01063259E-05
   64.1399994      -5.05174648E-05
   64.3199997      -5.09115634E-05
   64.5000000      -5.12882398E-05
   64.6800003      -5.16471009E-05
   64.8600006      -5.19877576E-05
   65.0400009      -5.23098133E-05
   65.2200012      -5.26128788E-05
   65.4000015      -5.28966157E-05
   65.5800018      -5.31607984E-05
   65.7600021      -5.34053215E-05
   65.9400024      -5.36302323E-05
   66.1200027      -5.38357490E-05
   66.3000031      -5.40222754E-05
   66.4800034      -5.41904046E-05
   66.6600037      -5.43409878E-05
   66.8399963      -5.44751165E-05
   67.0199966      -5.45941330E-05
   67.1999969      -5.46996052E-05
   67.3799973      -5.47932395E-05
   67.5599976      -5.48767493E-05
   67.7399979      -5.49517281E-05
   67.9199982      -5.50195509E-05
   68.0999985      -5.50812729E-05
   68.2799988      -5.51376324E-05
   68.4599991      -5.51890807E-05
   68.6399994      -5.52358651E-05
   68.8199997      -5.52781166E-05
   69.0000000      -5.53159152E-05
   69.1800003      -5.53493264E-05
   69.3600006      -5.53784012E-05
   69.5400009      -5.54031358E-05
   69.7200012      -5.54233920E-05
   69.9000015      -5.54388062E-05
   70.0800018      -5.54487633E-05
   70.2600021      -5.54523176E-05
   70.4400024      -5.54482031E-05
   70.6200027      -5.54348662E-05
   70.8000031      -5.54105609E-05
   70.9800034      -5.53734353E-05
   71.1600037      -5.53217069E-05
   71.3399963      -5.52538004E-05
   71.5199966      -5.51684825E-05
   71.6999969      -5.50650147E-05
   71.8799973      -5.49431606E-05
   72.0599976      -5.48032331E-05
   72.2399979      -5.46460033E-05
   72.4199982      -5.44726136E-05
   72.5999985      -5.42844355E-05
   72.7799988      -5.40828878E-05
   72.9599991      -5.38693057E-05
   73.1399994      -5.36448642E-05
   73.3199997      -5.34104875E-05
   73.5000000      -5.31668738E-05
   73.6800003      -5.29145000E-05
   73.8600006      -5.26537151E-05
   74.0400009      -5.23847848E-05
   74.2200012      -5.21079273E-05
   74.4000015      -5.18233755E-05
   74.5800018      -5.15313259E-05
   74.7600021      -5.12319057E-05
   74.9400024      -5.09250822E-05
   75.1200027      -5.06105425E-05
   75.3000031      -5.02876464E-05
   75.4800034      -4.99553571E-05
   75.6600037      -4.96122884E-05
   75.8399963      -4.92567742E-05
   76.0199966      -4.88870246E-05
   76.1999969      -4.85012897E-05
   76.3799973      -4.80980489E-05
   76.5599976      -4.76761634E-05
   76.7399979      -4.72349966E-05
   76.9199982      -4.67744612E-05
   77.0999985      -4.62950375E-05
   77.2799988      -4.57977039E-05
   77.4599991      -4.52838540E-05
   77.6399994      -4.47551975E-05
   77.8199997      -4.42136188E-05
   78.0000000      -4.36611081E-05
   78.1800003      -4.30996515E-05
   78.3600006      -4.25311591E-05
   78.5400009      -4.19574098E-05
   78.7200012      -4.13800262E-05
   78.9000015      -4.08004489E-05
   79.0800018      -4.02199003E-05
   79.2600021      -3.96393880E-05
   79.4400024      -3.90596688E-05
   79.6200027      -3.84812010E-05
   79.8000031      -3.79040903E-05
   79.9800034      -3.73280636E-05
   80.1600037      -3.67524262E-05
   80.3399963      -3.61760649E-05
   80.5199966      -3.55974589E-05
   80.6999969      -3.50147857E-05
   80.8799973      -3.44260006E-05
   81.0599976      -3.38289829E-05
   81.2399979      -3.32216659E-05
   81.4199982      -3.26021873E-05
   81.5999985      -3.19690043E-05
   81.7799988      -3.13210076E-05
   81.9599991      -3.06576039E-05
   82.1399994      -2.99787407E-05
   82.3199997      -2.92849199E-05
   82.5000000      -2.85771857E-05
   82.6800003      -2.78570187E-05
   82.8600006      -2.71262634E-05
   83.0400009      -2.63869933E-05
   83.2200012      -2.56413950E-05
   83.4000015      -2.48916294E-05
   83.5800018      -2.41397374E-05
   83.7600021      -2.33876053E-05
   83.9400024      -2.26369229E-05
   84.1200027      -2.18892146E-05
   84.3000031      -2.11458646E-05
   84.4800034      -2.04081480E-05
   84.6600037      -1.96772617E-05
   84.8399963      -1.89543152E-05
   85.0199966      -1.82403401E-05
   85.1999969      -1.75362493E-05
   85.3799973      -1.68428323E-05
   85.5599976      -1.61607550E-05
   85.7399979      -1.54905501E-05
   85.9199982      -1.48326371E-05
   86.0999985      -1.41873261E-05
   86.2799988      -1.35548380E-05
   86.4599991      -1.29353211E-05
   86.6399994      -1.23288719E-05
   86.8199997      -1.17355739E-05
   87.0000000      -1.11555255E-05
   87.1800003      -1.05888721E-05
   87.3600006      -1.00358429E-05
   87.5400009      -9.49673540E-06
   87.7200012      -8.97188602E-06
   87.9000015      -8.46160856E-06
   88.0800018      -7.96610402E-06
   88.2600021      -7.48536195E-06
   88.4400024      -7.01908721E-06
   88.6200027      -6.56666452E-06
   88.8000031      -6.12717076E-06
   88.9800034      -5.69945450E-06
   89.1600037      -5.28224791E-06
   89.3399963      -4.87428588E-06
   89.5199966      -4.47440925E-06
   89.6999969      -4.08164260E-06
   89.8799973      -3.69522172E-06
   90.0599976      -3.31461069E-06
   90.2399979      -2.93948256E-06
   90.4199982      -2.56971384E-06
   90.5999985      -2.20537436E-06
   90.7799988      -1.84671137E-06
   90.9599991      -1.49416041E-06
   91.1399994      -1.14832790E-06
   91.3199997      -8.10012466E-07
   91.5000000      -4.80209451E-07
   91.6800003      -1.60125424E-07
   91.8600006       1.48807658E-07
   92.0400009       4.44952718E-07
   92.2200012       7.26501867E-07
   92.4000015       9.91560228E-07
   92.5800018       1.23825316E-06
   92.7600021       1.46485843E-06
   92.9400024       1.66993777E-06
   93.1200027       1.85243698E-06
   93.3000031       2.01176726E-06
   93.4800034       2.14781289E-06
   93.6600037       2.26091697E-06
   93.8399963       2.35181710E-06
   94.0199966       2.42158990E-06
   94.1999969       2.47160278E-06
   94.3799973       2.50349717E-06
   94.5599976       2.51920665E-06
   94.7399979       2.52097743E-06
   94.9199982       2.51138658E-06
   95.0999985       2.49333493E-06
   95.2799988       2.46998025E-06
   95.4599991       2.44464059E-06
   95.6399994       2.42065585E-06
   95.8199997       2.40124086E-06
   96.0000000       2.38932898E-06
   96.1800003       2.38742314E-06
   96.3600006       2.39747487E-06
   96.5400009       2.42080478E-06
   96.7200012       2.45804404E-06
   96.9000015       2.50914104E-06
   97.0800018       2.57339593E-06
   97.2600021       2.64954383E-06
   97.4400024       2.73584419E-06
   97.6200027       2.83019131E-06
   97.8000031       2.93020821E-06
   97.9800034       3.03332672E-06
   98.1600037       3.13687019E-06
   98.3399963       3.23810377E-06
   98.5199966       3.33430671E-06
   98.6999969       3.42282851E-06
   98.8799973       3.50117330E-06
   99.0599976       3.56709211E-06
   99.2399979       3.61868706E-06
   99.4199982       3.65450910E-06
   99.5999985       3.67363191E-06
   99.7799988       3.67571874E-06
   99.9599991       3.66102745E-06
   100.139999       3.63038021E-06
   100.320000       3.58511625E-06
   100.500000       3.52698953E-06
   100.680000       3.45806302E-06
   100.860001       3.38057998E-06
   101.040001       3.29682052E-06
   101.220001       3.20895492E-06
   101.400002       3.11891381E-06
   101.580002       3.02827493E-06
   101.760002       2.93818493E-06
   101.940002       2.84932275E-06
   102.120003       2.76189621E-06
   102.300003       2.67564951E-06
   102.480003       2.58989371E-06
   102.660004       2.50354469E-06
   102.839996       2.41516750E-06
   103.019997       2.32306434E-06
   103.199997       2.22536664E-06
   103.379997       2.12014197E-06
   103.559998       2.00550562E-06
   103.739998       1.87971284E-06
   103.919998       1.74122238E-06
   104.099998       1.58873729E-06
   104.279999       1.42122371E-06
   104.459999       1.23791301E-06
   104.639999       1.03830382E-06
   104.820000       8.22159109E-07
   105.000000       5.89520937E-07
   105.180000       3.40726388E-07
   105.360001       7.64471793E-08
   105.540001      -2.02289726E-07
   105.720001      -4.94085157E-07
   105.900002      -7.97202915E-07
   106.080002      -1.10962469E-06
   106.260002      -1.42916826E-06
   106.440002      -1.75362311E-06
   106.620003      -2.08090910E-06
   106.800003      -2.40922554E-06
   106.980003      -2.73719024E-06
   107.160004      -3.06395350E-06
   107.339996      -3.38926884E-06
   107.519997      -3.71351121E-06
   107.699997      -4.03763306E-06
   107.879997      -4.36304254E-06
   108.059998      -4.69142879E-06
   108.239998      -5.02458352E-06
   108.419998      -5.36418565E-06
   108.599998      -5.71166765E-06
   108.779999      -6.06811818E-06
   108.959999      -6.43424846E-06
   109.139999      -6.81041320E-06
   109.320000      -7.19666650E-06
   109.500000      -7.59282784E-06
   109.680000      -7.99855388E-06
   109.860001      -8.41338442E-06
   110.040001      -8.83679604E-06
   110.220001      -9.26821667E-06
   110.400002      -9.70702513E-06
   110.580002      -1.01525584E-05
   110.760002      -1.06040952E-05
   110.940002      -1.10608662E-05
   111.120003      -1.15220828E-05
   111.300003      -1.19869601E-05
   111.480003      -1.24547878E-05
   111.660004      -1.29249647E-05
   111.839996      -1.33970652E-05
   112.019997      -1.38708810E-05
   112.199997      -1.43464604E-05
   112.379997      -1.48241324E-05
   112.559998      -1.53044821E-05
   112.739998      -1.57883187E-05
   112.919998      -1.62765809E-05
   113.099998      -1.67702437E-05
   113.279999      -1.72702239E-05
   113.459999      -1.77772636E-05
   113.639999      -1.82918702E-05
   113.820000      -1.88142567E-05
   114.000000      -1.93442993E-05
   114.180000      -1.98815251E-05
   114.360001      -2.04251028E-05
   114.540001      -2.09738573E-05
   114.720001      -2.15262990E-05
   114.900002      -2.20806887E-05
   115.080002      -2.26350967E-05
   115.260002      -2.31875238E-05
   115.440002      -2.37360146E-05
   115.620003      -2.42787719E-05
   115.800003      -2.48142642E-05
   115.980003      -2.53413182E-05
   116.160004      -2.58591481E-05
   116.339996      -2.63673537E-05
   116.519997      -2.68658732E-05
   116.699997      -2.73549085E-05
   116.879997      -2.78348198E-05
   117.059998      -2.83060854E-05
   117.239998      -2.87692146E-05
   117.419998      -2.92247205E-05
   117.599998      -2.96731105E-05
   117.779999      -3.01148539E-05
   117.959999      -3.05503781E-05
   118.139999      -3.09800380E-05
   118.320000      -3.14040699E-05
   118.500000      -3.18225430E-05
   118.680000      -3.22352898E-05
   118.860001      -3.26418522E-05
   119.040001      -3.30414186E-05
   119.220001      -3.34327960E-05
   119.400002      -3.38143727E-05
   119.580002      -3.41841915E-05