  -34.5000000         0.00000000    
  -34.3199997         0.00000000    
  -34.1399994         0.00000000    
  -33.9599991        -8.39178319E-24
  -33.7799988        -6.22297345E-20
  -33.5999985        -4.65094345E-19
  -33.4199982        -1.78123212E-18
  -33.2400017        -2.05192884E-18
  -33.0600014         4.62967860E-18
  -32.8800011         1.29631635E-17
  -32.7000008        -2.36713531E-18
  -32.5200005        -2.61475580E-17
  -32.3400002         5.94812939E-17
  -32.1599998         2.90359003E-16
  -31.9799995         2.22122744E-16
  -31.7999992        -9.40131186E-16
  -31.6200008        -2.99119224E-15
  -31.4400005        -3.15926920E-15
  -31.2600002         2.79520491E-15
  -31.0799999         1.51205867E-14
  -30.8999996         2.38943556E-14
  -30.7199993         1.08183539E-14
  -30.5400009        -3.51155160E-14
  -30.3600006        -9.52877913E-14
  -30.1800003        -1.13915157E-13
  -30.0000000        -2.62176958E-14
  -29.8199997         1.80479167E-13
  -29.6399994         4.10745738E-13
  -29.4599991         4.67033421E-13
  -29.2800007         1.51621364E-13
  -29.1000004        -5.65602469E-13
  -28.9200001        -1.41333061E-12
  -28.7399998        -1.84031089E-12
  -28.5599995        -1.25199742E-12
  -28.3799992         6.05742670E-13
  -28.2000008         3.30992352E-12
  -28.0200005         5.70329374E-12
  -27.8400002         6.25186318E-12
  -27.6599998         3.74582873E-12
  -27.4799995        -1.94298765E-12
  -27.2999992        -9.43506644E-12
  -27.1200008        -1.60447246E-11
  -26.9400005        -1.86412170E-11
  -26.7600002        -1.48830982E-11
  -26.5799999        -4.32625637E-12
  -26.3999996         1.10885251E-11
  -26.2199993         2.74307660E-11
  -26.0400009         3.99605141E-11
  -25.8600006         4.46611637E-11
  -25.6800003         3.95267603E-11
  -25.5000000         2.50892744E-11
  -25.3199997         3.98689285E-12
  -25.1399994        -2.01973091E-11
  -24.9599991        -4.42420857E-11
  -24.7800007        -6.60525454E-11
  -24.6000004        -8.44292622E-11
  -24.4200001        -9.78984185E-11
  -24.2399998        -1.03237981E-10
  -24.0599995        -9.46990264E-11
  -23.8799992        -6.48298151E-11
  -23.7000008        -7.19657363E-12
  -23.5200005         7.96423552E-11
  -23.3400002         1.88382115E-10
  -23.1599998         3.01165093E-10
  -22.9799995         3.90895594E-10
  -22.7999992         4.25651348E-10
  -22.6200008         3.74862030E-10
  -22.4400005         2.15148691E-10
  -22.2600002        -6.61087296E-11
  -22.0799999        -4.70331774E-10
  -21.8999996        -9.89812121E-10
  -21.7199993        -1.61052982E-09
  -21.5400009        -2.31374231E-09
  -21.3600006        -3.07518055E-09
  -21.1800003        -3.86213594E-09
  -21.0000000        -4.63007321E-09
  -20.8199997        -5.32102584E-09
  -20.6399994        -5.86563820E-09
  -20.4599991        -6.18948226E-09
  -20.2800007        -6.22267793E-09
  -20.1000004        -5.91052629E-09
  -19.9200001        -5.22234345E-09
  -19.7399998        -4.15619850E-09
  -19.5599995        -2.73868683E-09
  -19.3799992        -1.02066000E-09
  -19.2000008         9.28757682E-10
  -19.0200005         3.02714431E-09
  -18.8400002         5.18098586E-09
  -18.6599998         7.28527905E-09
  -18.4799995         9.22273813E-09
  -18.2999992         1.08658895E-08
  -18.1200008         1.20846861E-08
  -17.9400005         1.27600535E-08
  -17.7600002         1.28009550E-08
  -17.5799999         1.21605099E-08
  -17.3999996         1.08464295E-08
  -17.2199993         8.92270524E-09
  -17.0400009         6.50227072E-09
  -16.8600006         3.73301168E-09
  -16.6800003         7.80957798E-10
  -16.5000000        -2.18561169E-09
  -16.3199997        -5.00869346E-09
  -16.1399994        -7.54888951E-09
  -15.9600000        -9.68997238E-09
  -15.7799997        -1.13407310E-08
  -15.6000004        -1.24352413E-08
  -15.4200001        -1.29325093E-08
  -15.2399998        -1.28160851E-08
  -15.0600004        -1.20937065E-08
  -14.8800001        -1.07964944E-08
  -14.6999998        -8.97685304E-09
  -14.5200005        -6.70439171E-09
  -14.3400002        -4.06004386E-09
  -14.1599998        -1.12963361E-09
  -13.9799995         2.00104200E-09
  -13.8000002         5.24775778E-09
  -13.6199999         8.52548254E-09
  -13.4399996         1.17435484E-08
  -13.2600002         1.48014641E-08
  -13.0799999         1.75887322E-08
  -12.8999996         1.99906030E-08
  -12.7200003         2.18992078E-08
  -12.5400000         2.32271749E-08
  -12.3599997         2.39197302E-08
  -12.1800003         2.39618938E-08
  -12.0000000         2.33791333E-08
  -11.8199997         2.22318715E-08
  -11.6400003         2.06056097E-08
  -11.4600000         1.85989553E-08
  -11.2799997         1.63114162E-08
  -11.1000004         1.38322278E-08
  -10.9200001         1.12309495E-08
  -10.7399998         8.55048743E-09
  -10.5600004         5.80314818E-09
  -10.3800001         2.97033731E-09
  -10.1999998         6.39170487E-12
  -10.0200005        -3.15310333E-09
  -9.84000015        -6.57853017E-09
  -9.65999985        -1.03295861E-08
  -9.47999954        -1.44366057E-08
  -9.30000019        -1.88830658E-08
  -9.11999989        -2.35937083E-08
  -8.93999958        -2.84325079E-08
  -8.76000023        -3.32129453E-08
  -8.57999992        -3.77196692E-08
  -8.39999962        -4.17370671E-08
  -8.22000027        -4.50777264E-08
  -8.03999996        -4.76036170E-08
  -7.86000013        -4.92351049E-08
  -7.67999983        -4.99469479E-08
  -7.50000000        -4.97541421E-08
  -7.32000017        -4.86930567E-08
  -7.13999987        -4.68031267E-08
  -6.96000004        -4.41130155E-08
  -6.78000021        -4.06326350E-08
  -6.59999990        -3.63506842E-08
  -6.42000008        -3.12364890E-08
  -6.23999977        -2.52451127E-08
  -6.05999994        -1.83257072E-08
  -5.88000011        -1.04333742E-08
  -5.69999981        -1.54494550E-09
  -5.51999998         8.32223179E-09
  -5.34000015         1.90912743E-08
  -5.15999985         3.06106074E-08
  -4.98000002         4.26477840E-08
  -4.80000019         5.48962653E-08
  -4.61999989         6.69967690E-08
  -4.44000006         7.85711336E-08
  -4.26000023         8.92626062E-08
  -4.07999992         9.87740805E-08
  -3.90000010         1.06895598E-07
  -3.72000003         1.13514787E-07
  -3.53999996         1.18608831E-07
  -3.35999990         1.22221422E-07
  -3.18000007         1.24432560E-07
  -3.00000000         1.25329919E-07
  -2.81999993         1.24988503E-07
  -2.64000010         1.23461490E-07
  -2.46000004         1.20780044E-07
  -2.27999997         1.16957033E-07
  -2.09999990         1.11990886E-07
  -1.91999996         1.05867123E-07
  -1.74000001         9.85602924E-08
  -1.55999994         9.00399684E-08
  -1.38000000         8.02840958E-08
  -1.20000005         6.92986788E-08
  -1.01999998         5.71377328E-08
 -0.839999974         4.39152075E-08
 -0.660000026         2.98008906E-08
 -0.479999989         1.49977630E-08
 -0.300000012        -2.93971264E-10
 -0.119999997        -1.59154894E-08
   5.99999987E-02    -3.17775033E-08
  0.239999995        -4.78671609E-08
  0.419999987        -6.42312301E-08
  0.600000024        -8.09399481E-08
  0.779999971        -9.80431665E-08
  0.959999979        -1.15531833E-07
   1.13999999        -1.33315382E-07
   1.32000005        -1.51219510E-07
   1.50000000        -1.69000955E-07
   1.67999995        -1.86372418E-07
   1.86000001        -2.03028009E-07
   2.03999996        -2.18662933E-07
   2.22000003        -2.32986281E-07
   2.40000010        -2.45729240E-07
   2.57999992        -2.56654005E-07
   2.75999999        -2.65566740E-07
   2.94000006        -2.72333807E-07
   3.11999989        -2.76896401E-07
   3.29999995        -2.79276549E-07
   3.48000002        -2.79569690E-07
   3.66000009        -2.77921487E-07
   3.83999991        -2.74494539E-07
   4.01999998        -2.69433912E-07
   4.19999981        -2.62840132E-07
   4.38000011        -2.54757367E-07
   4.55999994        -2.45178683E-07
   4.73999977        -2.34066874E-07
   4.92000008        -2.21381839E-07
   5.09999990        -2.07110361E-07
   5.28000021        -1.91288919E-07
   5.46000004        -1.74015042E-07
   5.63999987        -1.55444582E-07
   5.82000017        -1.35775664E-07
   6.00000000        -1.15223649E-07
   6.17999983        -9.39911970E-08
   6.36000013        -7.22443687E-08
   6.53999996        -5.00969755E-08
   6.71999979        -2.76094152E-08
   6.90000010        -4.79736206E-09
   7.07999992         1.83504607E-08
   7.26000023         4.18528217E-08
   7.44000006         6.57193624E-08
   7.61999989         8.99338346E-08
   7.80000019         1.14440873E-07
   7.98000002         1.39132979E-07
   8.15999985         1.63837782E-07
   8.34000015         1.88310992E-07
   8.52000046         2.12239499E-07
   8.69999981         2.35257687E-07
   8.88000011         2.56978979E-07
   9.06000042         2.77036435E-07
   9.23999977         2.95122646E-07
   9.42000008         3.11018738E-07
   9.60000038         3.24600933E-07
   9.77999973         3.35822165E-07
   9.96000004         3.44670326E-07
   10.1400003         3.51118331E-07
   10.3199997         3.55079948E-07
   10.5000000         3.56390672E-07
   10.6800003         3.54818525E-07
   10.8599997         3.50107172E-07
   11.0400000         3.42030972E-07
   11.2200003         3.30447051E-07
   11.3999996         3.15324854E-07
   11.5799999         2.96745753E-07
   11.7600002         2.74881245E-07
   11.9399996         2.49962767E-07
   12.1199999         2.22256901E-07
   12.3000002         1.92053633E-07
   12.4799995         1.59665944E-07
   12.6599998         1.25421991E-07
   12.8400002         8.96458303E-08
   13.0200005         5.26197823E-08
   13.1999998         1.45399630E-08
   13.3800001        -2.45178366E-08
   13.5600004        -6.46001865E-08
   13.7399998        -1.05838282E-07
   13.9200001        -1.48376643E-07
   14.1000004        -1.92287501E-07
   14.2799997        -2.37497446E-07
   14.4600000        -2.83751376E-07
   14.6400003        -3.30622413E-07
   14.8199997        -3.77562657E-07
   15.0000000        -4.23976161E-07
   15.1800003        -4.69286960E-07
   15.3599997        -5.12985707E-07
   15.5400000        -5.54641474E-07
   15.7200003        -5.93885431E-07
   15.8999996        -6.30381521E-07
   16.0799999        -6.63798801E-07
   16.2600002        -6.93800473E-07
   16.4400005        -7.20047694E-07
   16.6200008        -7.42212762E-07
   16.7999992        -7.59989007E-07
   16.9799995        -7.73092665E-07
   17.1599998        -7.81251117E-07
   17.3400002        -7.84195265E-07
   17.5200005        -7.81666643E-07
   17.7000008        -7.73444583E-07
   17.8799992        -7.59399484E-07
   18.0599995        -7.39553286E-07
   18.2399998        -7.14129840E-07
   18.4200001        -6.83573433E-07
   18.6000004        -6.48522473E-07
   18.7800007        -6.09745086E-07
   18.9599991        -5.68046062E-07
   19.1399994        -5.24171810E-07
   19.3199997        -4.78734307E-07
   19.5000000        -4.32170225E-07
   19.6800003        -3.84734847E-07
   19.8600006        -3.36525176E-07
   20.0400009        -2.87521175E-07
   20.2199993        -2.37628711E-07
   20.3999996        -1.86716122E-07
   20.5799999        -1.34648062E-07
   20.7600002        -8.13083076E-08
   20.9400005        -2.66222955E-08
   21.1200008         2.94285094E-08
   21.2999992         8.67965610E-08
   21.4799995         1.45364851E-07
   21.6599998         2.04953523E-07
   21.8400002         2.65330783E-07
   22.0200005         3.26222505E-07
   22.2000008         3.87315424E-07
   22.3799992         4.48255349E-07
   22.5599995         5.08632411E-07
   22.7399998         5.67955340E-07
   22.9200001         6.25622306E-07
   23.1000004         6.80877008E-07
   23.2800007         7.32772435E-07
   23.4599991         7.80140226E-07
   23.6399994         8.21585786E-07
   23.8199997         8.55519374E-07
   24.0000000         8.80221705E-07
   24.1800003         8.93951267E-07
   24.3600006         8.95063977E-07
   24.5400009         8.82130792E-07
   24.7199993         8.54028997E-07
   24.8999996         8.10001382E-07
   25.0799999         7.49665048E-07
   25.2600002         6.72989074E-07
   25.4400005         5.80251879E-07
   25.6200008         4.71985373E-07
   25.7999992         3.48926960E-07
   25.9799995         2.11970303E-07
   26.1599998         6.21244567E-08
   26.3400002        -9.95336791E-08
   26.5200005        -2.71911375E-07
   26.7000008        -4.53955892E-07
   26.8799992        -6.44704812E-07
   27.0599995        -8.43310318E-07
   27.2399998        -1.04903404E-06
   27.4200001        -1.26121029E-06
   27.6000004        -1.47918001E-06
   27.7800007        -1.70223370E-06
   27.9599991        -1.92956668E-06
   28.1399994        -2.16028252E-06
   28.3199997        -2.39342330E-06
   28.5000000        -2.62802655E-06
   28.6800003        -2.86316799E-06
   28.8600006        -3.09798270E-06
   29.0400009        -3.33164439E-06
   29.2199993        -3.56332725E-06
   29.3999996        -3.79215521E-06
   29.5799999        -4.01717307E-06
   29.7600002        -4.23733945E-06
   29.9400005        -4.45154546E-06
   30.1200008        -4.65864605E-06
   30.2999992        -4.85747569E-06
   30.4799995        -5.04685886E-06
   30.6599998        -5.22559822E-06
   30.8400002        -5.39247321E-06
   31.0200005        -5.54625194E-06
   31.2000008        -5.68573023E-06
   31.3799992        -5.80979713E-06
   31.5599995        -5.91750495E-06
   31.7399998        -6.00811700E-06
   31.9200001        -6.08112168E-06
   32.0999985        -6.13620114E-06
   32.2799988        -6.17314981E-06
   32.4599991        -6.19178036E-06
   32.6399994        -6.19183766E-06
   32.8199997        -6.17294518E-06
   33.0000000        -6.13460497E-06
   33.1800003        -6.07624679E-06
   33.3600006        -5.99729856E-06
   33.5400009        -5.89727006E-06
   33.7200012        -5.77581613E-06
   33.9000015        -5.63277808E-06
   34.0800018        -5.46819456E-06
   34.2599983        -5.28230430E-06
   34.4399986        -5.07553841E-06
   34.6199989        -4.84852990E-06
   34.7999992        -4.60210276E-06
   34.9799995        -4.33727791E-06
   35.1599998        -4.05523997E-06
   35.3400002        -3.75731838E-06
   35.5200005        -3.44494288E-06
   35.7000008        -3.11960957E-06
   35.8800011        -2.78286097E-06
   36.0600014        -2.43626209E-06
   36.2400017        -2.08139750E-06
   36.4199982        -1.71985266E-06
   36.5999985        -1.35320659E-06
   36.7799988        -9.83015639E-07
   36.9599991        -6.10795212E-07
   37.1399994        -2.38004006E-07
   37.3199997         1.33988223E-07
   37.5000000         5.03923843E-07
   37.6800003         8.70695089E-07
   37.8600006         1.23337270E-06
   38.0400009         1.59122249E-06
   38.2200012         1.94369045E-06
   38.4000015         2.29036391E-06
   38.5800018         2.63091147E-06
   38.7599983         2.96502276E-06
   38.9399986         3.29235922E-06
   39.1199989         3.61252228E-06
   39.2999992         3.92506081E-06
   39.4799995         4.22948051E-06
   39.6599998         4.52526365E-06
   39.8400002         4.81188818E-06
   40.0200005         5.08883159E-06
   40.2000008         5.35554864E-06
   40.3800011         5.61145180E-06
   40.5600014         5.85588623E-06
   40.7400017         6.08812979E-06
   40.9199982         6.30740169E-06
   41.0999985         6.51289747E-06
   41.2799988         6.70382678E-06
   41.4599991         6.87943748E-06
   41.6399994         7.03902379E-06
   41.8199997         7.18190267E-06
   42.0000000         7.30738157E-06
   42.1800003         7.41474150E-06
   42.3600006         7.50323579E-06
   42.5400009         7.57212229E-06
   42.7200012         7.62072068E-06
   42.9000015         7.64846573E-06
   43.0800018         7.65494133E-06
   43.2599983         7.63987373E-06
   43.4399986         7.60311195E-06
   43.6199989         7.54458824E-06
   43.7999992         7.46429259E-06
   43.9799995         7.36229231E-06
   44.1599998         7.23875883E-06
   44.3400002         7.09402821E-06
   44.5200005         6.92863750E-06
   44.7000008         6.74333978E-06
   44.8800011         6.53909046E-06
   45.0600014         6.31700323E-06
   45.2400017         6.07828497E-06
   45.4199982         5.82419580E-06
   45.5999985         5.55600263E-06
   45.7799988         5.27496832E-06
   45.9599991         4.98234931E-06
   46.1399994         4.67939162E-06
   46.3199997         4.36732716E-06
   46.5000000         4.04733464E-06
   46.6800003         3.72048839E-06
   46.8600006         3.38768541E-06
   47.0400009         3.04957848E-06
   47.2200012         2.70653459E-06
   47.4000015         2.35860875E-06
   47.5800018         2.00556133E-06
   47.7599983         1.64687981E-06
   47.9399986         1.28181659E-06
   48.1199989         9.09419555E-07
   48.2999992         5.28565124E-07
   48.4799995         1.38023339E-07
   48.6599998        -2.63471520E-07
   48.8400002        -6.77114656E-07
   49.0200005        -1.10392682E-06
   49.2000008        -1.54465215E-06
   49.3800011        -1.99969077E-06
   49.5600014        -2.46908303E-06
   49.7400017        -2.95249902E-06
   49.9199982        -3.44926775E-06
   50.0999985        -3.95842699E-06
   50.2799988        -4.47876118E-06
   50.4599991        -5.00885380E-06
   50.6399994        -5.54712597E-06
   50.8199997        -6.09188055E-06
   51.0000000        -6.64134313E-06
   51.1800003        -7.19369200E-06
   51.3600006        -7.74709588E-06
   51.5400009        -8.29977489E-06
   51.7200012        -8.85006739E-06
   51.9000015        -9.39651636E-06
   52.0800018        -9.93796584E-06
   52.2599983        -1.04736346E-05
   52.4399986        -1.10031997E-05
   52.6199989        -1.15268167E-05
   52.7999992        -1.20451459E-05
   52.9799995        -1.25593160E-05
   53.1599998        -1.30708659E-05
   53.3400002        -1.35816535E-05
   53.5200005        -1.40937364E-05
   53.7000008        -1.46092434E-05
   53.8800011        -1.51302474E-05
   54.0600014        -1.56586520E-05
   54.2400017        -1.61960852E-05
   54.4199982        -1.67438211E-05
   54.5999985        -1.73027238E-05
   54.7799988        -1.78731989E-05
   54.9599991        -1.84551973E-05
   55.1399994        -1.90482497E-05
   55.3199997        -1.96515430E-05
   55.5000000        -2.02640495E-05
   55.6800003        -2.08846031E-05
   55.8600006        -2.15120217E-05
   56.0400009        -2.21451610E-05
   56.2200012        -2.27829260E-05
   56.4000015        -2.34242943E-05
   56.5800018        -2.40683057E-05
   56.7599983        -2.47140797E-05
   56.9399986        -2.53608578E-05
   57.1199989        -2.60080305E-05
   57.2999992        -2.66551633E-05
   57.4799995        -2.73020250E-05
   57.6599998        -2.79485557E-05
   57.8400002        -2.85948408E-05
   58.0200005        -2.92410768E-05
   58.2000008        -2.98875275E-05
   58.3800011        -3.05344947E-05
   58.5600014        -3.11823242E-05
   58.7400017        -3.18313760E-05
   58.9199982        -3.24820212E-05
   59.0999985        -3.31346309E-05
   59.2799988        -3.37895253E-05
   59.4599991        -3.44469227E-05
   59.6399994        -3.51068848E-05
   59.8199997        -3.57692807E-05
   60.0000000        -3.64337684E-05
   60.1800003        -3.70998350E-05
   60.3600006        -3.77668111E-05
   60.5400009        -3.84339110E-05
   60.7200012        -3.91002832E-05
   60.9000015        -3.97649783E-05
   61.0800018        -4.04269704E-05
   61.2599983        -4.10851499E-05
   61.4399986        -4.17383562E-05
   61.6199989        -4.23853962E-05
   61.7999992        -4.30251130E-05
   61.9799995        -4.36564369E-05
   62.1599998        -4.42783785E-05
   62.3400002        -4.48900391E-05
   62.5200005        -4.54905676E-05
   62.7000008        -4.60791380E-05
   62.8800011        -4.66549172E-05
   63.0600014        -4.72170395E-05
   63.2400017        -4.77646536E-05
   63.4199982        -4.82969044E-05
   63.5999985        -4.88129881E-05
   63.7799988        -4.93121952E-05
   63.9599991        -4.97939145E-05
   64.1399994        -5.02576549E-05
   64.3199997        -5.07030672E-05
   64.5000000        -5.11299040E-05
   64.6800003        -5.15380161E-05
   64.8600006        -5.19273017E-05
   65.0400009        -5.22977025E-05
   65.2200012        -5.26491604E-05
   65.4000015        -5.29815770E-05
   65.5800018        -5.32948179E-05
   65.7600021        -5.35887048E-05
   65.9400024        -5.38630047E-05
   66.1200027        -5.41174923E-05
   66.3000031        -5.43519927E-05
   66.4800034        -5.45664516E-05
   66.6600037        -5.47610034E-05
   66.8399963        -5.49360047E-05
   67.0199966        -5.50920340E-05
   67.1999969        -5.52298879E-05
   67.3799973        -5.53504979E-05
   67.5599976        -5.54549188E-05
   67.7399979        -5.55441984E-05
   67.9199982        -5.56193409E-05
   68.0999985        -5.56812156E-05
   68.2799988        -5.57304920E-05
   68.4599991        -5.57675885E-05
   68.6399994        -5.57926578E-05
   68.8199997        -5.58056090E-05
   69.0000000        -5.58061693E-05
   69.1800003        -5.57939602E-05
   69.3600006        -5.57685598E-05
   69.5400009        -5.57295389E-05
   69.7200012        -5.56765008E-05
   69.9000015        -5.56090636E-05
   70.0800018        -5.55268925E-05
   70.2600021        -5.54296385E-05
   70.4400024        -5.53169812E-05
   70.6200027        -5.51886005E-05
   70.8000031        -5.50442273E-05
   70.9800034        -5.48836833E-05
   71.1600037        -5.47069212E-05
   71.3399963        -5.45140610E-05
   71.5199966        -5.43054084E-05
   71.6999969        -5.40814908E-05
   71.8799973        -5.38430359E-05
   72.0599976        -5.35909894E-05
   72.2399979        -5.33265338E-05
   72.4199982        -5.30510479E-05
   72.5999985        -5.27661214E-05
   72.7799988        -5.24734642E-05
   72.9599991        -5.21748298E-05
   73.1399994        -5.18718953E-05
   73.3199997        -5.15661523E-05
   73.5000000        -5.12588012E-05
   73.6800003        -5.09506863E-05
   73.8600006        -5.06423021E-05
   74.0400009        -5.03337978E-05
   74.2200012        -5.00250171E-05
   74.4000015        -4.97155270E-05
   74.5800018        -4.94046399E-05
   74.7600021        -4.90914390E-05
   74.9400024        -4.87747893E-05
   75.1200027        -4.84533448E-05
   75.3000031        -4.81256247E-05
   75.4800034        -4.77900321E-05
   75.6600037        -4.74449480E-05
   75.8399963        -4.70887935E-05
   76.0199966        -4.67201280E-05
   76.1999969        -4.63376782E-05
   76.3799973        -4.59404546E-05
   76.5599976        -4.55277404E-05
   76.7399979        -4.50991793E-05
   76.9199982        -4.46548111E-05
   77.0999985        -4.41951015E-05
   77.2799988        -4.37209819E-05
   77.4599991        -4.32338566E-05
   77.6399994        -4.27355772E-05
   77.8199997        -4.22283701E-05
   78.0000000        -4.17147567E-05
   78.1800003        -4.11974361E-05
   78.3600006        -4.06792024E-05
   78.5400009        -4.01628276E-05
   78.7200012        -3.96510004E-05
   78.9000015        -3.91462236E-05
   79.0800018        -3.86507381E-05
   79.2600021        -3.81663885E-05
   79.4400024        -3.76945281E-05
   79.6200027        -3.72358991E-05
   79.8000031        -3.67905413E-05
   79.9800034        -3.63577601E-05
   80.1600037        -3.59361147E-05
   80.3399963        -3.55234806E-05
   80.5199966        -3.51171184E-05
   80.6999969        -3.47138084E-05
   80.8799973        -3.43100037E-05
   81.0599976        -3.39020116E-05
   81.2399979        -3.34861616E-05
   81.4199982        -3.30589974E-05
   81.5999985        -3.26174159E-05
   81.7799988        -3.21588013E-05
   81.9599991        -3.16811020E-05
   82.1399994        -3.11828553E-05
   82.3199997        -3.06632246E-05
   82.5000000        -3.01219388E-05
   82.6800003        -2.95592727E-05
   82.8600006        -2.89759755E-05
   83.0400009        -2.83732170E-05
   83.2200012        -2.77525141E-05
   83.4000015        -2.71156750E-05
   83.5800018        -2.64647460E-05
   83.7600021        -2.58019390E-05
   83.9400024        -2.51295642E-05
   84.1200027        -2.44499570E-05
   84.3000031        -2.37654058E-05
   84.4800034        -2.30780952E-05
   84.6600037        -2.23900570E-05
   84.8399963        -2.17031466E-05
   85.0199966        -2.10190046E-05
   85.1999969        -2.03390427E-05
   85.3799973        -1.96644050E-05
   85.5599976        -1.89959301E-05
   85.7399979        -1.83341435E-05
   85.9199982        -1.76792601E-05
   86.0999985        -1.70312142E-05
   86.2799988        -1.63897039E-05
   86.4599991        -1.57542709E-05
   86.6399994        -1.51243721E-05
   86.8199997        -1.44994301E-05
   87.0000000        -1.38789301E-05
   87.1800003        -1.32624646E-05
   87.3600006        -1.26497962E-05
   87.5400009        -1.20409049E-05
   87.7200012        -1.14359991E-05
   87.9000015        -1.08355107E-05
   88.0800018        -1.02400472E-05
   88.2600021        -9.65032450E-06
   88.4400024        -9.06707737E-06
   88.6200027        -8.49097796E-06
   88.8000031        -7.92256469E-06
   88.9800034        -7.36219226E-06
   89.1600037        -6.81003894E-06
   89.3399963        -6.26613701E-06
   89.5199966        -5.73043599E-06
   89.6999969        -5.20288950E-06
   89.8799973        -4.68352027E-06
   90.0599976        -4.17248475E-06
   90.2399979        -3.67008010E-06
   90.4199982        -3.17674881E-06
   90.5999985        -2.69304019E-06
   90.7799988        -2.21958203E-06
   90.9599991        -1.75702655E-06
   91.1399994        -1.30602336E-06
   91.3199997        -8.67174322E-07
   91.5000000        -4.41019495E-07
   91.6800003        -2.80192705E-08
   91.8600006         3.71426353E-07
   92.0400009         7.56943621E-07
   92.2200012         1.12812165E-06
   92.4000015         1.48445861E-06
   92.5800018         1.82531301E-06
   92.7600021         2.14988017E-06
   92.9400024         2.45720344E-06
   93.1200027         2.74620174E-06
   93.3000031         3.01572936E-06
   93.4800034         3.26464829E-06
   93.6600037         3.49191600E-06
   93.8399963         3.69668965E-06
   94.0199966         3.87842056E-06
   94.1999969         4.03695003E-06
   94.3799973         4.17256842E-06
   94.5599976         4.28603971E-06
   94.7399979         4.37859671E-06
   94.9199982         4.45189198E-06
   95.0999985         4.50792731E-06
   95.2799988         4.54894644E-06
   95.4599991         4.57730857E-06
   95.6399994         4.59534795E-06
   95.8199997         4.60522187E-06
   96.0000000         4.60878891E-06
   96.1800003         4.60751517E-06
   96.3600006         4.60244746E-06
   96.5400009         4.59421744E-06
   96.7200012         4.58310751E-06
   96.9000015         4.56912267E-06
   97.0800018         4.55208510E-06
   97.2600021         4.53172061E-06
   97.4400024         4.50772768E-06
   97.6200027         4.47982939E-06
   97.8000031         4.44777561E-06
   97.9800034         4.41131033E-06
   98.1600037         4.37010885E-06
   98.3399963         4.32369598E-06
   98.5199966         4.27141185E-06
   98.6999969         4.21239929E-06
   98.8799973         4.14567103E-06
   99.0599976         4.07021525E-06
   99.2399979         3.98514339E-06
   99.4199982         3.88982335E-06
   99.5999985         3.78402797E-06
   99.7799988         3.66802738E-06
   99.9599991         3.54265421E-06
   100.139999         3.40930251E-06
   100.320000         3.26987902E-06
   100.500000         3.12666066E-06
   100.680000         2.98210784E-06
   100.860001         2.83861709E-06
   101.040001         2.69826114E-06
   101.220001         2.56256544E-06
   101.400002         2.43235263E-06
   101.580002         2.30765886E-06
   101.760002         2.18776927E-06
   101.940002         2.07131552E-06
   102.120003         1.95647135E-06
   102.300003         1.84114447E-06
   102.480003         1.72316720E-06
   102.660004         1.60043942E-06
   102.839996         1.47100752E-06
   103.019997         1.33308606E-06
   103.199997         1.18502840E-06
   103.379997         1.02528577E-06
   103.559998         8.52355925E-07
   103.739998         6.64758772E-07
   103.919998         4.61014338E-07
   104.099998         2.39672346E-07
   104.279999        -6.41239062E-10
   104.459999        -2.61120903E-07
   104.639999        -5.42651549E-07
   104.820000        -8.45629529E-07
   105.000000        -1.16978538E-06
   105.180000        -1.51404367E-06
   105.360001        -1.87644707E-06
   105.540001        -2.25420126E-06
   105.720001        -2.64382652E-06
   105.900002        -3.04138007E-06
   106.080002        -3.44275645E-06
   106.260002        -3.84397117E-06
   106.440002        -4.24142445E-06
   106.620003        -4.63210017E-06
   106.800003        -5.01369823E-06
   106.980003        -5.38469430E-06
   107.160004        -5.74431715E-06
   107.339996        -6.09247991E-06
   107.519997        -6.42965915E-06
   107.699997        -6.75673937E-06
   107.879997        -7.07484833E-06
   108.059998        -7.38519702E-06
   108.239998        -7.68898008E-06
   108.419998        -7.98731344E-06
   108.599998        -8.28125849E-06
   108.779999        -8.57187206E-06
   108.959999        -8.86030284E-06
   109.139999        -9.14787961E-06
   109.320000        -9.43613850E-06
   109.500000        -9.72680664E-06
   109.680000        -1.00217030E-05
   109.860001        -1.03226002E-05
   110.040001        -1.06310836E-05
   110.220001        -1.09484226E-05
   110.400002        -1.12754960E-05
   110.580002        -1.16127540E-05
   110.760002        -1.19602237E-05
   110.940002        -1.23175614E-05
   111.120003        -1.26840978E-05