  -34.5000000         0.00000000    
  -34.3199997         0.00000000    
  -34.1399994         0.00000000    
  -33.9599991        -2.20251409E-27
  -33.7799988         4.35267131E-23
  -33.5999985         2.88387504E-22
  -33.4199982         9.81634075E-22
  -33.2400017         2.23177207E-21
  -33.0600014         3.67741034E-21
  -32.8800011         4.38426243E-21
  -32.7000008         3.28003285E-21
  -32.5200005         2.12164898E-23
  -32.3400002        -4.41259821E-21
  -32.1599998        -8.33684643E-21
  -31.9799995        -1.14929072E-20
  -31.7999992        -1.75583124E-20
  -31.6200008        -3.44672009E-20
  -31.4400005        -6.95593755E-20
  -31.2600002        -1.18146905E-19
  -31.0799999        -1.48514773E-19
  -30.8999996        -9.31290857E-20
  -30.7199993         1.39394086E-19
  -30.5400009         6.21409561E-19
  -30.3600006         1.33902953E-18
  -30.1800003         2.12839279E-18
  -30.0000000         2.65348043E-18
  -29.8199997         2.45233988E-18
  -29.6399994         1.05058576E-18
  -29.4599991        -1.88682338E-18
  -29.2800007        -6.40397275E-18
  -29.1000004        -1.21238034E-17
  -28.9200001        -1.81290362E-17
  -28.7399998        -2.28367610E-17
  -28.5599995        -2.39149512E-17
  -28.3799992        -1.84310184E-17
  -28.2000008        -3.53914560E-18
  -28.0200005         2.20841358E-17
  -27.8400002         5.62870069E-17
  -27.6599998         9.18567460E-17
  -27.4799995         1.16611291E-16
  -27.2999992         1.16149300E-16
  -27.1200008         7.89953647E-17
  -26.9400005         2.22387363E-18
  -26.7600002        -1.05364394E-16
  -26.5799999        -2.24858713E-16
  -26.3999996        -3.33716767E-16
  -26.2199993        -4.14259383E-16
  -26.0400009        -4.59511880E-16
  -25.8600006        -4.72395410E-16
  -25.6800003        -4.57485936E-16
  -25.5000000        -4.08875641E-16
  -25.3199997        -3.00862318E-16
  -25.1399994        -8.83672416E-17
  -24.9599991         2.79318511E-16
  -24.7800007         8.33518537E-16
  -24.6000004         1.55788460E-15
  -24.4200001         2.36855548E-15
  -24.2399998         3.11395442E-15
  -24.0599995         3.60008611E-15
  -23.8799992         3.63757367E-15
  -23.7000008         3.09623619E-15
  -23.5200005         1.94603681E-15
  -23.3400002         2.64568809E-16
  -23.1599998        -1.79713456E-15
  -22.9799995        -4.07961561E-15
  -22.7999992        -6.48159606E-15
  -22.6200008        -8.99131996E-15
  -22.4400005        -1.16563338E-14
  -22.2600002        -1.44930031E-14
  -22.0799999        -1.73713040E-14
  -21.8999996        -1.99337989E-14
  -21.7199993        -2.16057251E-14
  -21.5400009        -2.17207844E-14
  -21.3600006        -1.97354103E-14
  -21.1800003        -1.54555019E-14
  -21.0000000        -9.17923167E-15
  -20.8199997        -1.68143145E-15
  -20.6399994         5.97429829E-15
  -20.4599991         1.27354419E-14
  -20.2800007         1.78571757E-14
  -20.1000004         2.10747913E-14
  -19.9200001         2.25809683E-14
  -19.7399998         2.28257880E-14
  -19.5599995         2.22452790E-14
  -19.3799992         2.10669190E-14
  -19.2000008         1.93136793E-14
  -19.0200005         1.70325823E-14
  -18.8400002         1.46542002E-14
  -18.6599998         1.32978083E-14
  -18.4799995         1.48258786E-14
  -18.2999992         2.15398361E-14
  -18.1200008         3.55584567E-14
  -17.9400005         5.80757231E-14
  -17.7600002         8.87688631E-14
  -17.5799999         1.25591594E-13
  -17.3999996         1.65034991E-13
  -17.2199993         2.02748923E-13
  -17.0400009         2.34273267E-13
  -16.8600006         2.55601584E-13
  -16.6800003         2.63415510E-13
  -16.5000000         2.55017876E-13
  -16.3199997         2.28170239E-13
  -16.1399994         1.81097880E-13
  -15.9600000         1.12827147E-13
  -15.7799997         2.38017563E-14
  -15.6000004        -8.35026560E-14
  -15.4200001        -2.04349585E-13
  -15.2399998        -3.32195670E-13
  -15.0600004        -4.59841637E-13
  -14.8800001        -5.80958621E-13
  -14.6999998        -6.91419632E-13
  -14.5200005        -7.89861557E-13
  -14.3400002        -8.77165799E-13
  -14.1599998        -9.54981428E-13
  -13.9799995        -1.02384193E-12
  -13.8000002        -1.08162611E-12
  -13.6199999        -1.12299319E-12
  -13.4399996        -1.14001267E-12
  -13.2600002        -1.12369359E-12
  -13.0799999        -1.06573669E-12
  -12.8999996        -9.59776529E-13
  -12.7200003        -8.01687113E-13
  -12.5400000        -5.89045251E-13
  -12.3599997        -3.20339729E-13
  -12.1800003         5.29371536E-15
  -12.0000000         3.87246767E-13
  -11.8199997         8.21519719E-13
  -11.6400003         1.29835357E-12
  -11.4600000         1.80047980E-12
  -11.2799997         2.30301151E-12
  -11.1000004         2.77546887E-12
  -10.9200001         3.18562082E-12
  -10.7399998         3.50406466E-12
  -10.5600004         3.70813146E-12
  -10.3800001         3.78395535E-12
  -10.1999998         3.72627580E-12
  -10.0200005         3.53647320E-12
  -9.84000015         3.22000564E-12
  -9.65999985         2.78456772E-12
  -9.47999954         2.23978149E-12
  -9.30000019         1.59839655E-12
  -9.11999989         8.78108458E-13
  -8.93999958         1.02702609E-13
  -8.76000023        -6.98542732E-13
  -8.57999992        -1.49350020E-12
  -8.39999962        -2.25124368E-12
  -8.22000027        -2.94616545E-12
  -8.03999996        -3.56072919E-12
  -7.86000013        -4.08595857E-12
  -7.67999983        -4.51970232E-12
  -7.50000000        -4.86358826E-12
  -7.32000017        -5.12003677E-12
  -7.13999987        -5.29049591E-12
  -6.96000004        -5.37535207E-12
  -6.78000021        -5.37505890E-12
  -6.59999990        -5.29142875E-12
  -6.42000008        -5.12795795E-12
  -6.23999977        -4.88861599E-12
  -6.05999994        -4.57541036E-12
  -5.88000011        -4.18581923E-12
  -5.69999981        -3.71151243E-12
  -5.51999998        -3.13939391E-12
  -5.34000015        -2.45511142E-12
  -5.15999985        -1.64813877E-12
  -4.98000002        -7.16806280E-13
  -4.80000019         3.28417984E-13
  -4.61999989         1.46446809E-12
  -4.44000006         2.65806236E-12
  -4.26000023         3.86993562E-12
  -4.07999992         5.05938520E-12
  -3.90000010         6.18773782E-12
  -3.72000003         7.22006526E-12
  -3.53999996         8.12537537E-12
  -3.35999990         8.87621834E-12
  -3.18000007         9.44868402E-12
  -3.00000000         9.82342332E-12
  -2.81999993         9.98744056E-12
  -2.64000010         9.93586376E-12
  -2.46000004         9.67260386E-12
  -2.27999997         9.20923407E-12
  -2.09999990         8.56213104E-12
  -1.91999996         7.74874349E-12
  -1.74000001         6.78425328E-12
  -1.55999994         5.67987758E-12
  -1.38000000         4.44341135E-12
  -1.20000005         3.08184099E-12
  -1.01999998         1.60509366E-12
 -0.839999974         2.96351011E-14
 -0.660000026        -1.61920434E-12
 -0.479999989        -3.30683527E-12
 -0.300000012        -4.99088097E-12
 -0.119999997        -6.62398608E-12
   5.99999987E-02    -8.15708352E-12
  0.239999995        -9.54247271E-12
  0.419999987        -1.07363554E-11
  0.600000024        -1.17008573E-11
  0.779999971        -1.24058428E-11
  0.959999979        -1.28307235E-11
   1.13999999        -1.29661976E-11
   1.32000005        -1.28155524E-11
   1.50000000        -1.23948751E-11
   1.67999995        -1.17317319E-11
   1.86000001        -1.08621150E-11
   2.03999996        -9.82613210E-12
   2.22000003        -8.66320037E-12
   2.40000010        -7.40782956E-12
   2.57999992        -6.08683806E-12
   2.75999999        -4.71847561E-12
   2.94000006        -3.31341898E-12
   3.11999989        -1.87710503E-12
   3.29999995        -4.12690037E-13
   3.48000002         1.07622613E-12
   3.66000009         2.58367785E-12
   3.83999991         4.10054369E-12
   4.01999998         5.61479726E-12
   4.19999981         7.11234847E-12
   4.38000011         8.57790054E-12
   4.55999994         9.99524855E-12
   4.73999977         1.13467256E-11
   4.92000008         1.26120095E-11
   5.09999990         1.37668757E-11
   5.28000021         1.47826525E-11
   5.46000004         1.56269893E-11
   5.63999987         1.62660458E-11
   5.82000017         1.66675840E-11
   6.00000000         1.68040130E-11
   6.17999983         1.66544990E-11
   6.36000013         1.62053513E-11
   6.53999996         1.54490622E-11
   6.71999979         1.43825889E-11
   6.90000010         1.30062471E-11
   7.07999992         1.13240476E-11
   7.26000023         9.34593635E-12
   7.44000006         7.09121520E-12
   7.61999989         4.59180437E-12
   7.80000019         1.89363325E-12
   7.98000002        -9.45019128E-13
   8.15999985        -3.85841055E-12
   8.34000015        -6.78025691E-12
   8.52000046        -9.65063793E-12
   8.69999981        -1.24205039E-11
   8.88000011        -1.50521887E-11
   9.06000042        -1.75157649E-11
   9.23999977        -1.97826720E-11
   9.42000008        -2.18191142E-11
   9.60000038        -2.35818483E-11
   9.77999973        -2.50180588E-11
   9.96000004        -2.60693446E-11
   10.1400003        -2.66782811E-11
   10.3199997        -2.67953281E-11
   10.5000000        -2.63836973E-11
   10.6800003        -2.54211877E-11
   10.8599997        -2.38990269E-11
   11.0400000        -2.18192877E-11
   11.2200003        -1.91921201E-11
   11.3999996        -1.60341636E-11
   11.5799999        -1.23677717E-11
   11.7600002        -8.22043995E-12
   11.9399996        -3.62303069E-12
   12.1199999         1.39373582E-12
   12.3000002         6.80400354E-12
   12.4799995         1.25915675E-11
   12.6599998         1.87520988E-11
   12.8400002         2.52918381E-11
   13.0200005         3.22219924E-11
   13.1999998         3.95505191E-11
   13.3800001         4.72734352E-11
   13.5600004         5.53690219E-11
   13.7399998         6.37961767E-11
   13.9200001         7.24980839E-11
   14.1000004         8.14085466E-11
   14.2799997         9.04590292E-11
   14.4600000         9.95832583E-11
   14.6400003         1.08718014E-10
   14.8199997         1.17800297E-10
   15.0000000         1.26762892E-10
   15.1800003         1.35530781E-10
   15.3599997         1.44020199E-10
   15.5400000         1.52140758E-10
   15.7200003         1.59799826E-10
   15.8999996         1.66906433E-10
   16.0799999         1.73373427E-10
   16.2600002         1.79116721E-10
   16.4400005         1.84052898E-10
   16.6200008         1.88097413E-10
   16.7999992         1.91165514E-10
   16.9799995         1.93177627E-10
   17.1599998         1.94068484E-10
   17.3400002         1.93798075E-10
   17.5200005         1.92360738E-10
   17.7000008         1.89789795E-10
   17.8799992         1.86155161E-10
   18.0599995         1.81555090E-10
   18.2399998         1.76103881E-10
   18.4200001         1.69919689E-10
   18.6000004         1.63115355E-10
   18.7800007         1.55794766E-10
   18.9599991         1.48054888E-10
   19.1399994         1.39991380E-10
   19.3199997         1.31705244E-10
   19.5000000         1.23307795E-10
   19.6800003         1.14922370E-10
   19.8600006         1.06682704E-10
   20.0400009         9.87293095E-11
   20.2199993         9.12054321E-11
   20.3999996         8.42533820E-11
   20.5799999         7.80120551E-11
   20.7600002         7.26145533E-11
   20.9400005         6.81840903E-11
   21.1200008         6.48286216E-11
   21.2999992         6.26330585E-11
   21.4799995         6.16509066E-11
   21.6599998         6.18969181E-11
   21.8400002         6.33434347E-11
   22.0200005         6.59216015E-11
   22.2000008         6.95274463E-11
   22.3799992         7.40327244E-11
   22.5599995         7.92972979E-11
   22.7399998         8.51808624E-11
   22.9200001         9.15520437E-11
   23.1000004         9.82926796E-11
   23.2800007         1.05298506E-10
   23.4599991         1.12477284E-10
   23.6399994         1.19745741E-10
   23.8199997         1.27027444E-10
   24.0000000         1.34253303E-10
   24.1800003         1.41363449E-10
   24.3600006         1.48310517E-10
   24.5400009         1.55064198E-10
   24.7199993         1.61614097E-10
   24.8999996         1.67972997E-10
   25.0799999         1.74178422E-10
   25.2600002         1.80293433E-10
   25.4400005         1.86405613E-10
   25.6200008         1.92623736E-10
   25.7999992         1.99070302E-10
   25.9799995         2.05871598E-10
   26.1599998         2.13143461E-10
   26.3400002         2.20975793E-10
   26.5200005         2.29418318E-10
   26.7000008         2.38470299E-10
   26.8799992         2.48075283E-10
   27.0599995         2.58123967E-10
   27.2399998         2.68461087E-10
   27.4200001         2.78896156E-10
   27.6000004         2.89214014E-10
   27.7800007         2.99182429E-10
   27.9599991         3.08556292E-10
   28.1399994         3.17078502E-10
   28.3199997         3.24480914E-10
   28.5000000         3.30487693E-10
   28.6800003         3.34823419E-10
   28.8600006         3.37226691E-10
   29.0400009         3.37467332E-10
   29.2199993         3.35363459E-10
   29.3999996         3.30795863E-10
   29.5799999         3.23715110E-10
   29.7600002         3.14143128E-10
   29.9400005         3.02168013E-10
   30.1200008         2.87935426E-10
   30.2999992         2.71639544E-10
   30.4799995         2.53513821E-10
   30.6599998         2.33822961E-10
   30.8400002         2.12854304E-10
   31.0200005         1.90907790E-10
   31.2000008         1.68283776E-10
   31.3799992         1.45268964E-10
   31.5599995         1.22122173E-10
   31.7399998         9.90626400E-11
   31.9200001         7.62633706E-11
   32.0999985         5.38506080E-11
   32.2799988         3.19092912E-11
   32.4599991         1.04921228E-11
   32.6399994        -1.03692098E-11
   32.8199997        -3.06560159E-11
   33.0000000        -5.03570692E-11
   33.1800003        -6.94674041E-11
   33.3600006        -8.79902956E-11
   33.5400009        -1.05939472E-10
   33.7200012        -1.23340685E-10
   33.9000015        -1.40231063E-10
   34.0800018        -1.56656910E-10
   34.2599983        -1.72668907E-10
   34.4399986        -1.88318472E-10
   34.6199989        -2.03651512E-10
   34.7999992        -2.18703097E-10
   34.9799995        -2.33490338E-10
   35.1599998        -2.48003867E-10
   35.3400002        -2.62199429E-10
   35.5200005        -2.75989620E-10
   35.7000008        -2.89240187E-10
   35.8800011        -3.01770914E-10
   36.0600014        -3.13363890E-10
   36.2400017        -3.23777838E-10
   36.4199982        -3.32767591E-10
   36.5999985        -3.40104445E-10
   36.7799988        -3.45594636E-10
   36.9599991        -3.49092449E-10
   37.1399994        -3.50506124E-10
   37.3199997        -3.49797635E-10
   37.5000000        -3.46977003E-10
   37.6800003        -3.42095241E-10
   37.8600006        -3.35237865E-10
   38.0400009        -3.26521449E-10
   38.2200012        -3.16092708E-10
   38.4000015        -3.04128028E-10
   38.5800018        -2.90832941E-10
   38.7599983        -2.76437734E-10
   38.9399986        -2.61189487E-10
   39.1199989        -2.45341858E-10
   39.2999992        -2.29143204E-10
   39.4799995        -2.12825688E-10
   39.6599998        -1.96597197E-10
   39.8400002        -1.80636200E-10
   40.0200005        -1.65088554E-10
   40.2000008        -1.50066556E-10
   40.3800011        -1.35648021E-10
   40.5600014        -1.21876106E-10
   40.7400017        -1.08760577E-10
   40.9199982        -9.62806848E-11
   41.0999985        -8.43920350E-11
   41.2799988        -7.30364519E-11
   41.4599991        -6.21543997E-11
   41.6399994        -5.16977190E-11
   41.8199997        -4.16399415E-11
   42.0000000        -3.19819657E-11
   42.1800003        -2.27525186E-11
   42.3600006        -1.40031667E-11
   42.5400009        -5.80207453E-12
   42.7200012         1.77340770E-12
   42.9000015         8.64035146E-12
   43.0800018         1.47111507E-11
   43.2599983         1.98917913E-11
   43.4399986         2.40795300E-11
   43.6199989         2.71631814E-11
   43.7999992         2.90260940E-11
   43.9799995         2.95526242E-11
   44.1599998         2.86366417E-11
   44.3400002         2.61898402E-11
   44.5200005         2.21485608E-11
   44.7000008         1.64792919E-11
   44.8800011         9.18274224E-12
   45.0600014         2.99542780E-13
   45.2400017        -1.00836249E-11
   45.4199982        -2.18267990E-11
   45.5999985        -3.47307808E-11
   45.7799988        -4.85363902E-11
   45.9599991        -6.29310701E-11
   46.1399994        -7.75647394E-11
   46.3199997        -9.20739596E-11
   46.5000000        -1.06110135E-10
   46.6800003        -1.19366766E-10
   46.8600006        -1.31600023E-10
   47.0400009        -1.42638179E-10
   47.2200012        -1.52379540E-10
   47.4000015        -1.60780708E-10
   47.5800018        -1.67839853E-10
   47.7599983        -1.73580164E-10
   47.9399986        -1.78037279E-10
   48.1199989        -1.81253415E-10
   48.2999992        -1.83274979E-10
   48.4799995        -1.84154136E-10
   48.6599998        -1.83948093E-10
   48.8400002        -1.82716078E-10
   49.0200005        -1.80514326E-10
   49.2000008        -1.77387993E-10
   49.3800011        -1.73365780E-10
   49.5600014        -1.68457567E-10
   49.7400017        -1.62655903E-10
   49.9199982        -1.55940719E-10
   50.0999985        -1.48283788E-10
   50.2799988        -1.39650624E-10
   50.4599991        -1.29996749E-10
   50.6399994        -1.19259005E-10
   50.8199997        -1.07341823E-10
   51.0000000        -9.41064171E-11
   51.1800003        -7.93625721E-11
   51.3600006        -6.28719854E-11
   51.5400009        -4.43605708E-11
   51.7200012        -2.35425048E-11
   51.9000015        -1.47090388E-13
   52.0800018         2.60526063E-11
   52.2599983         5.52171191E-11
   52.4399986         8.74278913E-11
   52.6199989         1.22685181E-10
   52.7999992         1.60914074E-10
   52.9799995         2.01976755E-10
   53.1599998         2.45686249E-10
   53.3400002         2.91818653E-10
   53.5200005         3.40120182E-10
   53.7000008         3.90312782E-10
   53.8800011         4.42094056E-10
   54.0600014         4.95137209E-10
   54.2400017         5.49088164E-10
   54.4199982         6.03565087E-10
   54.5999985         6.58155863E-10
   54.7799988         7.12417403E-10
   54.9599991         7.65878083E-10
   55.1399994         8.18044299E-10
   55.3199997         8.68411898E-10
   55.5000000         9.16486609E-10
   55.6800003         9.61808300E-10
   55.8600006         1.00397712E-09
   56.0400009         1.04267617E-09
   56.2200012         1.07768450E-09
   56.4000015         1.10888032E-09
   56.5800018         1.13623055E-09
   56.7599983         1.15977516E-09
   56.9399986         1.17960641E-09
   57.1199989         1.19585597E-09
   57.2999992         1.20868582E-09
   57.4799995         1.21828903E-09
   57.6599998         1.22489208E-09
   57.8400002         1.22875921E-09
   58.0200005         1.23018751E-09
   58.2000008         1.22949606E-09
   58.3800011         1.22700961E-09
   58.5600014         1.22303812E-09
   58.7400017         1.21785959E-09
   58.9199982         1.21171129E-09
   59.0999985         1.20478594E-09
   59.2799988         1.19723242E-09
   59.4599991         1.18915811E-09
   59.6399994         1.18062671E-09
   59.8199997         1.17165300E-09
   60.0000000         1.16219279E-09
   60.1800003         1.15213916E-09
   60.3600006         1.14132503E-09
   60.5400009         1.12953613E-09
   60.7200012         1.11653442E-09
   60.9000015         1.10208798E-09
   61.0800018         1.08599385E-09
   61.2599983         1.06809739E-09
   61.4399986         1.04829678E-09
   61.6199989         1.02653896E-09
   61.7999992         1.00281006E-09
   61.9799995         9.77128045E-10
   62.1599998         9.49539114E-10
   62.3400002         9.20123255E-10
   62.5200005         8.89000817E-10
   62.7000008         8.56338611E-10
   62.8800011         8.22349133E-10
   63.0600014         7.87281795E-10
   63.2400017         7.51406271E-10
   63.4199982         7.14997783E-10
   63.5999985         6.78322287E-10
   63.7799988         6.41633635E-10
   63.9599991         6.05174744E-10
   64.1399994         5.69185088E-10
   64.3199997         5.33905420E-10
   64.5000000         4.99572828E-10
   64.6800003         4.66407968E-10
   64.8600006         4.34593111E-10
   65.0400009         4.04249911E-10
   65.2200012         3.75423304E-10
   65.4000015         3.48079121E-10
   65.5800018         3.22114391E-10
   65.7600021         2.97382979E-10
   65.9400024         2.73723461E-10
   66.1200027         2.50986398E-10
   66.3000031         2.29052805E-10
   66.4800034         2.07840023E-10
   66.6600037         1.87298232E-10
   66.8399963         1.67398803E-10
   67.0199966         1.48120557E-10
   67.1999969         1.29438654E-10
   67.3799973         1.11316595E-10
   67.5599976         9.37031008E-11
   67.7399979         7.65324470E-11
   67.9199982         5.97278338E-11
   68.0999985         4.32052866E-11
   68.2799988         2.68793338E-11
   68.4599991         1.06700551E-11
   68.6399994        -5.48947693E-12
   68.8199997        -2.16464451E-11
   69.0000000        -3.78218186E-11
   69.1800003        -5.40065180E-11
   69.3600006        -7.01610436E-11
   69.5400009        -8.62175956E-11
   69.7200012        -1.02084174E-10
   69.9000015        -1.17649279E-10
   70.0800018        -1.32786754E-10
   70.2600021        -1.47360277E-10
   70.4400024        -1.61226810E-10
   70.6200027        -1.74242218E-10
   70.8000031        -1.86266336E-10
   70.9800034        -1.97170141E-10
   71.1600037        -2.06841974E-10
   71.3399963        -2.15194695E-10
   71.5199966        -2.22168242E-10
   71.6999969        -2.27731764E-10
   71.8799973        -2.31883457E-10
   72.0599976        -2.34647496E-10
   72.2399979        -2.36071579E-10
   72.4199982        -2.36222625E-10
   72.5999985        -2.35182457E-10
   72.7799988        -2.33043307E-10
   72.9599991        -2.29905206E-10
   73.1399994        -2.25874278E-10
   73.3199997        -2.21065583E-10
   73.5000000        -2.15607546E-10
   73.6800003        -2.09650783E-10
   73.8600006        -2.03372333E-10
   74.0400009        -1.96976463E-10
   74.2200012        -1.90686231E-10
   74.4000015        -1.84726567E-10
   74.5800018        -1.79300019E-10
   74.7600021        -1.74560824E-10
   74.9400024        -1.70595454E-10
   75.1200027        -1.67412292E-10
   75.3000031        -1.64945280E-10
   75.4800034        -1.63069599E-10
   75.6600037        -1.61624436E-10
   75.8399963        -1.60436261E-10
   76.0199966        -1.59336905E-10
   76.1999969        -1.58173141E-10
   76.3799973        -1.56810245E-10
   76.5599976        -1.55130464E-10
   76.7399979        -1.53037208E-10
   76.9199982        -1.50460949E-10
   77.0999985        -1.47373044E-10
   77.2799988        -1.43798376E-10
   77.4599991        -1.39823458E-10
   77.6399994        -1.35593495E-10
   77.8199997        -1.31295669E-10
   78.0000000        -1.27134026E-10
   78.1800003        -1.23300467E-10
   78.3600006        -1.19952534E-10
   78.5400009        -1.17203539E-10
   78.7200012        -1.15125166E-10
   78.9000015        -1.13762014E-10
   79.0800018        -1.13149282E-10
   79.2600021        -1.13326043E-10
   79.4400024        -1.14339191E-10
   79.6200027        -1.16235813E-10
   79.8000031        -1.19049326E-10
   79.9800034        -1.22782770E-10
   80.1600037        -1.27396843E-10
   80.3399963        -1.32805961E-10
   80.5199966        -1.38881948E-10
   80.6999969        -1.45462559E-10
   80.8799973        -1.52360929E-10
   81.0599976        -1.59371419E-10
   81.2399979        -1.66273897E-10
   81.4199982        -1.72836342E-10
   81.5999985        -1.78820916E-10
   81.7799988        -1.83996096E-10
   81.9599991        -1.88155158E-10
   82.1399994        -1.91136731E-10
   82.3199997        -1.92843061E-10
   82.5000000        -1.93249514E-10
   82.6800003        -1.92402372E-10
   82.8600006        -1.90405219E-10
   83.0400009        -1.87399651E-10
   83.2200012        -1.83544790E-10
   83.4000015        -1.79002910E-10
   83.5800018        -1.73931744E-10
   83.7600021        -1.68483505E-10
   83.9400024        -1.62807726E-10
   84.1200027        -1.57051608E-10
   84.3000031        -1.51358356E-10
   84.4800034        -1.45861656E-10
   84.6600037        -1.40681189E-10
   84.8399963        -1.35921885E-10
   85.0199966        -1.31678668E-10
   85.1999969        -1.28048100E-10
   85.3799973        -1.25140356E-10
   85.5599976        -1.23088081E-10
   85.7399979        -1.22045582E-10
   85.9199982        -1.22174174E-10
   86.0999985        -1.23617547E-10
   86.2799988        -1.26469946E-10
   86.4599991        -1.30747579E-10
   86.6399994        -1.36370942E-10
   86.8199997        -1.43163384E-10
   87.0000000        -1.50867638E-10
   87.1800003        -1.59176755E-10
   87.3600006        -1.67771352E-10
   87.5400009        -1.76356388E-10
   87.7200012        -1.84690319E-10
   87.9000015        -1.92602254E-10
   88.0800018        -1.99997408E-10
   88.2600021        -2.06852535E-10
   88.4400024        -2.13204038E-10
   88.6200027        -2.19132157E-10
   88.8000031        -2.24744681E-10
   88.9800034        -2.30161723E-10
   89.1600037        -2.35500702E-10
   89.3399963        -2.40866327E-10
   89.5199966        -2.46340837E-10
   89.6999969        -2.51977161E-10
   89.8799973        -2.57794425E-10
   90.0599976        -2.63775640E-10
   90.2399979        -2.69867434E-10
   90.4199982        -2.75984374E-10
   90.5999985        -2.82015189E-10
   90.7799988        -2.87833035E-10
   90.9599991        -2.93307101E-10
   91.1399994        -2.98312763E-10
   91.3199997        -3.02739167E-10
   91.5000000        -3.06491277E-10
   91.6800003        -3.09486381E-10
   91.8600006        -3.11646098E-10
   92.0400009        -3.12886994E-10
   92.2200012        -3.13111648E-10
   92.4000015        -3.12204734E-10
   92.5800018        -3.10034276E-10
   92.7600021        -3.06458914E-10
   92.9400024        -3.01337538E-10
   93.1200027        -2.94542141E-10
   93.3000031        -2.85968943E-10
   93.4800034        -2.75548862E-10
   93.6600037        -2.63256389E-10
   93.8399963        -2.49117893E-10
   94.0199966        -2.33220665E-10
   94.1999969        -2.15719151E-10
   94.3799973        -1.96835603E-10
   94.5599976        -1.76851866E-10
   94.7399979        -1.56088767E-10
   94.9199982        -1.34876527E-10
   95.0999985        -1.13519319E-10
   95.2799988        -9.22635995E-11
   95.4599991        -7.12775602E-11
   95.6399994        -5.06468097E-11
   95.8199997        -3.03866862E-11
   96.0000000        -1.04629942E-11
   96.1800003         9.18470942E-12
   96.3600006         2.86256765E-11
   96.5400009         4.79311521E-11
   96.7200012         6.71768960E-11
   96.9000015         8.64466623E-11
   97.0800018         1.05833287E-10
   97.2600021         1.25429847E-10
   97.4400024         1.45313678E-10
   97.6200027         1.65525871E-10
   97.8000031         1.86057711E-10
   97.9800034         2.06849191E-10
   98.1600037         2.27802693E-10
   98.3399963         2.48808224E-10
   98.5199966         2.69770956E-10
   98.6999969         2.90629382E-10
   98.8799973         3.11357884E-10
   99.0599976         3.31950745E-10
   99.2399979         3.52396556E-10
   99.4199982         3.72651326E-10
   99.5999985         3.92624766E-10
   99.7799988         4.12181123E-10
   99.9599991         4.31158387E-10
   100.139999         4.49391413E-10
   100.320000         4.66733652E-10
   100.500000         4.83064866E-10
   100.680000         4.98284469E-10
   100.860001         5.12296094E-10
   101.040001         5.24991384E-10
   101.220001         5.36245159E-10
   101.400002         5.45923584E-10
   101.580002         5.53904200E-10
   101.760002         5.60100633E-10
   101.940002         5.64478853E-10
   102.120003         5.67060898E-10
   102.300003         5.67912883E-10
   102.480003         5.67126346E-10
   102.660004         5.64798208E-10
   102.839996         5.61022506E-10
   103.019997         5.55894220E-10
   103.199997         5.49522927E-10
   103.379997         5.42047074E-10
   103.559998         5.33634692E-10
   103.739998         5.24471466E-10
   103.919998         5.14726761E-10
   104.099998         5.04515096E-10
   104.279999         4.93861285E-10
   104.459999         4.82683171E-10
   104.639999         4.70799955E-10
   104.820000         4.57962723E-10
   105.000000         4.43900861E-10
   105.180000         4.28368369E-10
   105.360001         4.11180479E-10
   105.540001         3.92232774E-10
   105.720001         3.71505715E-10
   105.900002         3.49056645E-10
   106.080002         3.25009630E-10
   106.260002         2.99545416E-10
   106.440002         2.72894568E-10
   106.620003         2.45329007E-10
   106.800003         2.17148410E-10
   106.980003         1.88662461E-10
   107.160004         1.60164410E-10
   107.339996         1.31908998E-10
   107.519997         1.04095205E-10
   107.699997         7.68632658E-11
   107.879997         5.03058914E-11
   108.059998         2.44904392E-11
   108.239998        -5.13965444E-13
   108.419998        -2.46146784E-11
   108.599998        -4.76872083E-11
   108.779999        -6.95804386E-11
   108.959999        -9.01369465E-11
   109.139999        -1.09221951E-10
   109.320000        -1.26751248E-10
   109.500000        -1.42713535E-10
   109.680000        -1.57179589E-10
   109.860001        -1.70298303E-10
   110.040001        -1.82280968E-10
   110.220001        -1.93376454E-10
   110.400002        -2.03841707E-10
   110.580002        -2.13912901E-10
   110.760002        -2.23779814E-10
   110.940002        -2.33564917E-10
   111.120003        -2.43314091E-10