  -34.5000000       0.00000000    
  -34.3199997       0.00000000    
  -34.1399994       0.00000000    
  -33.9599991       9.72870030E-28
  -33.7799988      -1.36777342E-23
  -33.5999985      -7.91463831E-23
  -33.4199982      -2.28046359E-22
  -33.2400017      -4.04397969E-22
  -33.0600014      -3.89997685E-22
  -32.8800011       9.35134839E-23
  -32.7000008       9.86662186E-22
  -32.5200005       1.71457719E-21
  -32.3400002       2.15378990E-21
  -32.1599998       3.96618361E-21
  -31.9799995       9.30730701E-21
  -31.7999992       1.64613223E-20
  -31.6200008       1.74583108E-20
  -31.4400005      -6.51028477E-23
  -31.2600002      -5.41847536E-20
  -31.0799999      -1.73231822E-19
  -30.8999996      -3.75736221E-19
  -30.7199993      -6.02571918E-19
  -30.5400009      -6.53042550E-19
  -30.3600006      -2.37806542E-19
  -30.1800003       8.23228292E-19
  -30.0000000       2.41166720E-18
  -29.8199997       4.12145759E-18
  -29.6399994       5.46664063E-18
  -29.4599991       6.10966933E-18
  -29.2800007       5.98197787E-18
  -29.1000004       5.19085241E-18
  -28.9200001       3.39595423E-18
  -28.7399998      -1.49949358E-18
  -28.5599995      -1.41882899E-17
  -28.3799992      -3.96813231E-17
  -28.2000008      -7.64319320E-17
  -28.0200005      -1.08461795E-16
  -27.8400002      -1.05143728E-16
  -27.6599998      -3.53500598E-17
  -27.4799995       1.08462721E-16
  -27.2999992       2.93138754E-16
  -27.1200008       4.52670236E-16
  -26.9400005       5.23612157E-16
  -26.7600002       4.88643408E-16
  -26.5799999       3.98025255E-16
  -26.3999996       3.49393838E-16
  -26.2199993       4.31871368E-16
  -26.0400009       6.63069779E-16
  -25.8600006       9.52877231E-16
  -25.6800003       1.11534059E-15
  -25.5000000       9.29672446E-16
  -25.3199997       2.33683314E-16
  -25.1399994      -9.79484442E-16
  -24.9599991      -2.49917643E-15
  -24.7800007      -3.90925949E-15
  -24.6000004      -4.69851675E-15
  -24.4200001      -4.45386229E-15
  -24.2399998      -3.06825382E-15
  -24.0599995      -8.60716553E-16
  -23.8799992       1.47825630E-15
  -23.7000008       3.13043176E-15
  -23.5200005       3.49973283E-15
  -23.3400002       2.51642435E-15
  -23.1599998       7.46179805E-16
  -22.9799995      -7.66845556E-16
  -22.7999992      -8.75551223E-16
  -22.6200008       1.22429761E-15
  -22.4400005       5.66261473E-15
  -22.2600002       1.18159834E-14
  -22.0799999       1.85096333E-14
  -21.8999996       2.44028667E-14
  -21.7199993       2.83762000E-14
  -21.5400009       2.97441210E-14
  -21.3600006       2.82221925E-14
  -21.1800003       2.37366262E-14
  -21.0000000       1.62858262E-14
  -20.8199997       6.05500189E-15
  -20.6399994      -6.17967922E-15
  -20.4599991      -1.85688138E-14
  -20.2800007      -2.80231923E-14
  -20.1000004      -3.07363693E-14
  -19.9200001      -2.35090827E-14
  -19.7399998      -5.58143848E-15
  -19.5599995       1.96863993E-14
  -19.3799992       4.40836231E-14
  -19.2000008       5.53916586E-14
  -19.0200005       3.99669921E-14
  -18.8400002      -1.33563560E-14
  -18.6599998      -1.08987262E-13
  -18.4799995      -2.41142203E-13
  -18.2999992      -3.92395589E-13
  -18.1200008      -5.34921662E-13
  -17.9400005      -6.34458415E-13
  -17.7600002      -6.56331380E-13
  -17.5799999      -5.72380142E-13
  -17.3999996      -3.67472464E-13
  -17.2199993      -4.44414911E-14
  -17.0400009       3.73407414E-13
  -16.8600006       8.42756800E-13
  -16.6800003       1.30399532E-12
  -16.5000000       1.68821576E-12
  -16.3199997       1.92708523E-12
  -16.1399994       1.96450538E-12
  -15.9600000       1.76817968E-12
  -15.7799997       1.33857866E-12
  -15.6000004       7.12751418E-13
  -15.4200001      -3.87919575E-14
  -15.2399998      -8.22369299E-13
  -15.0600004      -1.53691697E-12
  -14.8800001      -2.09196744E-12
  -14.6999998      -2.42366609E-12
  -14.5200005      -2.50504825E-12
  -14.3400002      -2.34829821E-12
  -14.1599998      -1.99891948E-12
  -13.9799995      -1.52392595E-12
  -13.8000002      -9.97570624E-13
  -13.6199999      -4.88264648E-13
  -13.4399996      -4.92924894E-14
  -13.2600002       2.85884706E-13
  -13.0799999       5.04578421E-13
  -12.8999996       6.13761104E-13
  -12.7200003       6.38259736E-13
  -12.5400000       6.18498959E-13
  -12.3599997       6.06835925E-13
  -12.1800003       6.61100027E-13
  -12.0000000       8.34625771E-13
  -11.8199997       1.16371789E-12
  -11.6400003       1.65526544E-12
  -11.4600000       2.27825723E-12
  -11.2799997       2.96259480E-12
  -11.1000004       3.60684963E-12
  -10.9200001       4.09400855E-12
  -10.7399998       4.31180525E-12
  -10.5600004       4.17285564E-12
  -10.3800001       3.63004722E-12
  -10.1999998       2.68433171E-12
  -10.0200005       1.38445115E-12
  -9.84000015      -1.79740920E-13
  -9.65999985      -1.88784166E-12
  -9.47999954      -3.60115063E-12
  -9.30000019      -5.17569191E-12
  -9.11999989      -6.47610134E-12
  -8.93999958      -7.39062891E-12
  -8.76000023      -7.84638587E-12
  -8.57999992      -7.82230791E-12
  -8.39999962      -7.35598735E-12
  -8.22000027      -6.54065821E-12
  -8.03999996      -5.51058418E-12
  -7.86000013      -4.41634142E-12
  -7.67999983      -3.39504098E-12
  -7.50000000      -2.54279475E-12
  -7.32000017      -1.89667401E-12
  -7.13999987      -1.43090715E-12
  -6.96000004      -1.06783647E-12
  -6.78000021      -6.99797859E-13
  -6.59999990      -2.15272150E-13
  -6.42000008       4.77654429E-13
  -6.23999977       1.43537211E-12
  -6.05999994       2.67180614E-12
  -5.88000011       4.15880264E-12
  -5.69999981       5.83062418E-12
  -5.51999998       7.58978297E-12
  -5.34000015       9.31326804E-12
  -5.15999985       1.08601557E-11
  -4.98000002       1.20824626E-11
  -4.80000019       1.28403945E-11
  -4.61999989       1.30210565E-11
  -4.44000006       1.25572721E-11
  -4.26000023       1.14417928E-11
  -4.07999992       9.73246397E-12
  -3.90000010       7.54621279E-12
  -3.72000003       5.04287757E-12
  -3.53999996       2.40300575E-12
  -3.35999990      -1.94923274E-13
  -3.18000007      -2.59302215E-12
  -3.00000000      -4.66590221E-12
  -2.81999993      -6.32651310E-12
  -2.64000010      -7.52847958E-12
  -2.46000004      -8.26769556E-12
  -2.27999997      -8.58412820E-12
  -2.09999990      -8.56234181E-12
  -1.91999996      -8.32729805E-12
  -1.74000001      -8.03192148E-12
  -1.55999994      -7.83520384E-12
  -1.38000000      -7.87317520E-12
  -1.20000005      -8.22862785E-12
  -1.01999998      -8.90755438E-12
 -0.839999974      -9.82933093E-12
 -0.660000026      -1.08347350E-11
 -0.479999989      -1.17110740E-11
 -0.300000012      -1.22294423E-11
 -0.119999997      -1.21861375E-11
   5.99999987E-02  -1.14398950E-11
  0.239999995      -9.93800181E-12
  0.419999987      -7.72741419E-12
  0.600000024      -4.95000091E-12
  0.779999971      -1.82350749E-12
  0.959999979       1.38857773E-12
   1.13999999       4.41421595E-12
   1.32000005       7.01237679E-12
   1.50000000       9.00940520E-12
   1.67999995       1.03262069E-11
   1.86000001       1.09903640E-11
   2.03999996       1.11290447E-11
   2.22000003       1.09420806E-11
   2.40000010       1.06591125E-11
   2.57999992       1.04893004E-11
   2.75999999       1.05748440E-11
   2.94000006       1.09594452E-11
   3.11999989       1.15795368E-11
   3.29999995       1.22805559E-11
   3.48000002       1.28541188E-11
   3.66000009       1.30869248E-11
   3.83999991       1.28095945E-11
   4.01999998       1.19343606E-11
   4.19999981       1.04737633E-11
   4.38000011       8.53761679E-12
   4.55999994       6.31048686E-12
   4.73999977       4.01605355E-12
   4.92000008       1.87659935E-12
   5.09999990       7.58200536E-14
   5.28000021      -1.26895727E-12
   5.46000004      -2.12159500E-12
   5.63999987      -2.52857479E-12
   5.82000017      -2.60833716E-12
   6.00000000      -2.53102812E-12
   6.17999983      -2.49159916E-12
   6.36000013      -2.67922598E-12
   6.53999996      -3.24648056E-12
   6.71999979      -4.28236049E-12
   6.90000010      -5.79366373E-12
   7.07999992      -7.69902284E-12
   7.26000023      -9.83840006E-12
   7.44000006      -1.19980753E-11
   7.61999989      -1.39479565E-11
   7.80000019      -1.54844922E-11
   7.98000002      -1.64709756E-11
   8.15999985      -1.68661769E-11
   8.34000015      -1.67343951E-11
   8.52000046      -1.62335423E-11
   8.69999981      -1.55825561E-11
   8.88000011      -1.50144376E-11
   9.06000042      -1.47250840E-11
   9.23999977      -1.48293912E-11
   9.42000008      -1.53346068E-11
   9.60000038      -1.61364221E-11
   9.77999973      -1.70374496E-11
   9.96000004      -1.77823468E-11
   10.1400003      -1.81002591E-11
   10.3199997      -1.77453920E-11
   10.5000000      -1.65287003E-11
   10.6800003      -1.43384176E-11
   10.8599997      -1.11496940E-11
   11.0400000      -7.02607720E-12
   11.2200003      -2.11443103E-12
   11.3999996       3.36623784E-12
   11.5799999       9.14346984E-12
   11.7600002       1.49183166E-11
   11.9399996       2.03996698E-11
   12.1199999       2.53419750E-11
   12.3000002       2.95796374E-11
   12.4799995       3.30500731E-11
   12.6599998       3.57995300E-11
   12.8400002       3.79685415E-11
   13.0200005       3.97597823E-11
   13.1999998       4.13950020E-11
   13.3800001       4.30716018E-11
   13.5600004       4.49289182E-11
   13.7399998       4.70321074E-11
   13.9200001       4.93758125E-11
   14.1000004       5.19043558E-11
   14.2799997       5.45415657E-11
   14.4600000       5.72207524E-11
   14.6400003       5.99076899E-11
   14.8199997       6.26115826E-11
   15.0000000       6.53830115E-11
   15.1800003       6.83001780E-11
   15.3599997       7.14460088E-11
   15.5400000       7.48803450E-11
   15.7200003       7.86117421E-11
   15.8999996       8.25750371E-11
   16.0799999       8.66215918E-11
   16.2600002       9.05276895E-11
   16.4400005       9.40238234E-11
   16.6200008       9.68418748E-11
   16.7999992       9.87709220E-11
   16.9799995       9.97096433E-11
   17.1599998       9.96994431E-11
   17.3400002       9.89291149E-11
   17.5200005       9.77070161E-11
   17.7000008       9.64061886E-11
   17.8799992       9.53964061E-11
   18.0599995       9.49790177E-11
   18.2399998       9.53422757E-11
   18.4200001       9.65438771E-11
   18.6000004       9.85244247E-11
   18.7800007       1.01142331E-10
   18.9599991       1.04218342E-10
   19.1399994       1.07575684E-10
   19.3199997       1.11065997E-10
   19.5000000       1.14580186E-10
   19.6800003       1.18043395E-10
   19.8600006       1.21404789E-10
   20.0400009       1.24625532E-10
   20.2199993       1.27667474E-10
   20.3999996       1.30480737E-10
   20.5799999       1.32987593E-10
   20.7600002       1.35060671E-10
   20.9400005       1.36501144E-10
   21.1200008       1.37025349E-10
   21.2999992       1.36271591E-10
   21.4799995       1.33832501E-10
   21.6599998       1.29312436E-10
   21.8400002       1.22400631E-10
   22.0200005       1.12940345E-10
   22.2000008       1.00974333E-10
   22.3799992       8.67544023E-11
   22.5599995       7.07087583E-11
   22.7399998       5.33765671E-11
   22.9200001       3.53261483E-11
   23.1000004       1.70730860E-11
   23.2800007      -9.79536439E-13
   23.4599991      -1.85740104E-11
   23.6399994      -3.55981494E-11
   23.8199997      -5.20640302E-11
   24.0000000      -6.80734358E-11
   24.1800003      -8.37819883E-11
   24.3600006      -9.93689298E-11
   24.5400009      -1.15013596E-10
   24.7199993      -1.30876809E-10
   24.8999996      -1.47081292E-10
   25.0799999      -1.63692782E-10
   25.2600002      -1.80697818E-10
   25.4400005      -1.97985836E-10
   25.6200008      -2.15337762E-10
   25.7999992      -2.32424163E-10
   25.9799995      -2.48812804E-10
   26.1599998      -2.63988054E-10
   26.3400002      -2.77377482E-10
   26.5200005      -2.88386010E-10
   26.7000008      -2.96438402E-10
   26.8799992      -3.01030784E-10
   27.0599995      -3.01784792E-10
   27.2399998      -2.98503056E-10
   27.4200001      -2.91209168E-10
   27.6000004      -2.80164725E-10
   27.7800007      -2.65851036E-10
   27.9599991      -2.48918580E-10
   28.1399994      -2.30106198E-10
   28.3199997      -2.10149398E-10
   28.5000000      -1.89693081E-10
   28.6800003      -1.69230893E-10
   28.8600006      -1.49082177E-10
   29.0400009      -1.29407873E-10
   29.2199993      -1.10257303E-10
   29.3999996      -9.16315010E-11
   29.5799999      -7.35474598E-11
   29.7600002      -5.60869094E-11
   29.9400005      -3.94205744E-11
   30.1200008      -2.38100650E-11
   30.2999992      -9.58734134E-12
   30.4799995       2.87844206E-12
   30.6599998       1.32189988E-11
   30.8400002       2.11126758E-11
   31.0200005       2.63289807E-11
   31.2000008       2.87753762E-11
   31.3799992       2.85389611E-11
   31.5599995       2.59160159E-11
   31.7399998       2.14212936E-11
   31.9200001       1.57625146E-11
   32.0999985       9.78406679E-12
   32.2799988       4.37204092E-12
   32.4599991       3.43107460E-13
   32.6399994      -1.67006589E-12
   32.8199997      -1.31477999E-12
   33.0000000       1.42445409E-12
   33.1800003       6.21567771E-12
   33.3600006       1.24272250E-11
   33.5400009       1.92144963E-11
   33.7200012       2.56422279E-11
   33.9000015       3.08176019E-11
   34.0800018       3.40089797E-11
   34.2599983       3.47456300E-11
   34.4399986       3.28675941E-11
   34.6199989       2.85355819E-11
   34.7999992       2.21860967E-11
   34.9799995       1.44469567E-11
   35.1599998       6.02478310E-12
   35.3400002      -2.42194567E-12
   35.5200005      -1.03949982E-11
   35.7000008      -1.76418168E-11
   35.8800011      -2.41906564E-11
   36.0600014      -3.03250307E-11
   36.2400017      -3.65107285E-11
   36.4199982      -4.32722608E-11
   36.5999985      -5.10613149E-11
   36.7799988      -6.01278333E-11
   36.9599991      -7.04284547E-11
   37.1399994      -8.15874035E-11
   37.3199997      -9.29145302E-11
   37.5000000      -1.03484561E-10
   37.6800003      -1.12258994E-10
   37.8600006      -1.18235199E-10
   38.0400009      -1.20593424E-10
   38.2200012      -1.18823743E-10
   38.4000015      -1.12807395E-10
   38.5800018      -1.02843074E-10
   38.7599983      -8.96090424E-11
   38.9399986      -7.40729977E-11
   39.1199989      -5.73585068E-11
   39.2999992      -4.05929214E-11
   39.4799995      -2.47609312E-11
   39.6599998      -1.05854154E-11
   39.8400002       1.54425680E-12
   40.0200005       1.15920077E-11
   40.2000008       1.98407749E-11
   40.3800011       2.68184433E-11
   40.5600014       3.31911894E-11
   40.7400017       3.96556642E-11
   40.9199982       4.68349665E-11
   41.0999985       5.52009480E-11
   41.2799988       6.50206416E-11
   41.4599991       7.63356045E-11
   41.6399994       8.89744459E-11
   41.8199997       1.02587709E-10
   42.0000000       1.16706325E-10
   42.1800003       1.30814720E-10
   42.3600006       1.44427859E-10
   42.5400009       1.57163532E-10
   42.7200012       1.68799141E-10
   42.9000015       1.79308998E-10
   43.0800018       1.88876068E-10
   43.2599983       1.97872579E-10
   43.4399986       2.06820824E-10
   43.6199989       2.16330870E-10
   43.7999992       2.27019306E-10
   43.9799995       2.39424813E-10
   44.1599998       2.53920746E-10
   44.3400002       2.70642675E-10
   44.5200005       2.89435809E-10
   44.7000008       3.09837406E-10
   44.8800011       3.31093736E-10
   45.0600014       3.52214063E-10
   45.2400017       3.72053999E-10
   45.4199982       3.89420468E-10
   45.5999985       4.03187012E-10
   45.7799988       4.12403472E-10
   45.9599991       4.16390034E-10
   46.1399994       4.14797835E-10
   46.3199997       4.07632511E-10
   46.5000000       3.95231153E-10
   46.6800003       3.78201775E-10
   46.8600006       3.57330748E-10
   47.0400009       3.33473443E-10
   47.2200012       3.07443182E-10
   47.4000015       2.79916812E-10
   47.5800018       2.51367899E-10
   47.7599983       2.22042010E-10
   47.9399986       1.91974436E-10
   48.1199989       1.61049507E-10
   48.2999992       1.29091779E-10
   48.4799995       9.59659296E-11
   48.6599998       6.16756507E-11
   48.8400002       2.64299260E-11
   49.0200005      -9.33177667E-12
   49.2000008      -4.49609863E-11
   49.3800011      -7.96682859E-11
   49.5600014      -1.12619004E-10
   49.7400017      -1.43044479E-10
   49.9199982      -1.70347569E-10
   50.0999985      -1.94190511E-10
   50.2799988      -2.14547088E-10
   50.4599991      -2.31715647E-10
   50.6399994      -2.46286824E-10
   50.8199997      -2.59073235E-10
   51.0000000      -2.71004386E-10
   51.1800003      -2.83005203E-10
   51.3600006      -2.95872160E-10
   51.5400009      -3.10161757E-10
   51.7200012      -3.26105476E-10
   51.9000015      -3.43563317E-10
   52.0800018      -3.62023606E-10
   52.2599983      -3.80651205E-10
   52.4399986      -3.98385269E-10
   52.6199989      -4.14072526E-10
   52.7999992      -4.26624819E-10
   52.9799995      -4.35174563E-10
   53.1599998      -4.39207726E-10
   53.3400002      -4.38645814E-10
   53.5200005      -4.33867137E-10
   53.7000008      -4.25661478E-10
   53.8800011      -4.15123186E-10
   54.0600014      -4.03501677E-10
   54.2400017      -3.92037763E-10
   54.4199982      -3.81804421E-10
   54.5999985      -3.73588854E-10
   54.7799988      -3.67829434E-10
   54.9599991      -3.64616837E-10
   55.1399994      -3.63751668E-10
   55.3199997      -3.64842184E-10
   55.5000000      -3.67415653E-10
   55.6800003      -3.71024850E-10
   55.8600006      -3.75325493E-10
   56.0400009      -3.80123238E-10
   56.2200012      -3.85390719E-10
   56.4000015      -3.91244537E-10
   56.5800018      -3.97913591E-10
   56.7599983      -4.05684375E-10
   56.9399986      -4.14836471E-10
   57.1199989      -4.25579405E-10
   57.2999992      -4.37992753E-10
   57.4799995      -4.51982479E-10
   57.6599998      -4.67265782E-10
   57.8400002      -4.83377782E-10
   58.0200005      -4.99716990E-10
   58.2000008      -5.15603116E-10
   58.3800011      -5.30352373E-10
   58.5600014      -5.43341760E-10
   58.7400017      -5.54058022E-10
   58.9199982      -5.62116464E-10
   59.0999985      -5.67258573E-10
   59.2799988      -5.69322922E-10
   59.4599991      -5.68215863E-10
   59.6399994      -5.63888380E-10
   59.8199997      -5.56335644E-10
   60.0000000      -5.45609502E-10
   60.1800003      -5.31847399E-10
   60.3600006      -5.15290310E-10
   60.5400009      -4.96285180E-10
   60.7200012      -4.75260054E-10
   60.9000015      -4.52676036E-10
   61.0800018      -4.28972996E-10
   61.2599983      -4.04518308E-10
   61.4399986      -3.79580783E-10
   61.6199989      -3.54330898E-10
   61.7999992      -3.28854971E-10
   61.9799995      -3.03186171E-10
   62.1599998      -2.77328355E-10
   62.3400002      -2.51270615E-10
   62.5200005      -2.24992761E-10
   62.7000008      -1.98463940E-10
   62.8800011      -1.71630946E-10
   63.0600014      -1.44421641E-10
   63.2400017      -1.16747598E-10
   63.4199982      -8.85216345E-11
   63.5999985      -5.96850000E-11
   63.7799988      -3.02402339E-11
   63.9599991      -2.95640221E-13
   64.1399994       2.98945070E-11
   64.3199997       5.98917929E-11
   64.5000000       8.90401988E-11
   64.6800003       1.16465643E-10
   64.8600006       1.41100728E-10
   65.0400009       1.61760882E-10
   65.2200012       1.77258749E-10
   65.4000015       1.86561391E-10
   65.5800018       1.88950813E-10
   65.7600021       1.84168125E-10
   65.9400024       1.72497239E-10
   66.1200027       1.54758525E-10
   66.3000031       1.32223454E-10
   66.4800034       1.06446997E-10
   66.6600037       7.90753574E-11
   66.8399963       5.16544134E-11
   67.0199966       2.54881272E-11
   67.1999969       1.55266880E-12
   67.3799973      -1.95069742E-11
   67.5599976      -3.73374942E-11
   67.7399979      -5.17978056E-11
   67.9199982      -6.28799859E-11
   68.0999985      -7.06335684E-11
   68.2799988      -7.51193066E-11
   68.4599991      -7.63784452E-11
   68.6399994      -7.44309545E-11
   68.8199997      -6.92832874E-11
   69.0000000      -6.09646708E-11
   69.1800003      -4.95758955E-11
   69.3600006      -3.53542681E-11
   69.5400009      -1.87493892E-11
   69.7200012      -4.83206791E-13
   69.9000015       1.84238857E-11
   70.0800018       3.66965520E-11
   70.2600021       5.29214381E-11
   70.4400024       6.57528060E-11
   70.6200027       7.41572706E-11
   70.8000031       7.76681150E-11
   70.9800034       7.65781397E-11
   71.1600037       7.20175863E-11
   71.3399963       6.58818347E-11
   71.5199966       6.06134865E-11
   71.6999969       5.88427154E-11
   71.8799973       6.29768182E-11
   72.0599976       7.47893830E-11
   72.2399979       9.50975895E-11
   72.4199982       1.23588237E-10
   72.5999985       1.58830060E-10
   72.7799988       1.98471420E-10
   72.9599991       2.39594899E-10
   73.1399994       2.79159196E-10
   73.3199997       3.14452936E-10
   73.5000000       3.43481854E-10
   73.6800003       3.65219410E-10
   73.8600006       3.79692416E-10
   74.0400009       3.87881616E-10
   74.2200012       3.91464666E-10
   74.4000015       3.92455402E-10
   74.5800018       3.92787219E-10
   74.7600021       3.93941851E-10
   74.9400024       3.96663424E-10
   75.1200027       4.00819544E-10
   75.3000031       4.05443512E-10
   75.4800034       4.08939854E-10
   75.6600037       4.09429879E-10
   75.8399963       4.05170036E-10
   76.0199966       3.94965033E-10
   76.1999969       3.78501813E-10
   76.3799973       3.56536634E-10
   76.5599976       3.30894145E-10
   76.7399979       3.04268610E-10
   76.9199982       2.79859164E-10
   77.0999985       2.60880428E-10
   77.2799988       2.50045679E-10
   77.4599991       2.49101462E-10
   77.6399994       2.58500915E-10
   77.8199997       2.77271178E-10
   78.0000000       3.03111702E-10
   78.1800003       3.32695455E-10
   78.3600006       3.62146285E-10
   78.5400009       3.87599175E-10
   78.7200012       4.05763062E-10
   78.9000015       4.14388024E-10
   79.0800018       4.12559847E-10
   79.2600021       4.00777106E-10
   79.4400024       3.80790871E-10
   79.6200027       3.55236951E-10
   79.8000031       3.27126326E-10
   79.9800034       2.99285874E-10
   80.1600037       2.73851941E-10
   80.3399963       2.51911825E-10
   80.5199966       2.33359498E-10
   80.6999969       2.16981724E-10
   80.8799973       2.00763461E-10
   81.0599976       1.82344376E-10
   81.2399979       1.59546792E-10
   81.4199982       1.30872993E-10
   81.5999985       9.58866320E-11
   81.7799988       5.54081052E-11
   81.9599991       1.14960489E-11
   82.1399994      -3.27864264E-11
   82.3199997      -7.37832920E-11
   82.5000000      -1.07764596E-10
   82.6800003      -1.31481812E-10
   82.8600006      -1.42668363E-10
   83.0400009      -1.40411016E-10
   83.2200012      -1.25331134E-10
   83.4000015      -9.95372673E-11
   83.5800018      -6.63484337E-11
   83.7600021      -2.98206390E-11
   83.9400024       5.85270677E-12
   84.1200027       3.69686469E-11
   84.3000031       6.08623568E-11
   84.4800034       7.62764851E-11
   84.6600037       8.34872102E-11
   84.8399963       8.41629266E-11
   85.0199966       8.09904643E-11
   85.1999969       7.71415015E-11
   85.3799973       7.56789145E-11
   85.5599976       7.90151070E-11
   85.7399979       8.85145290E-11
   85.9199982       1.04303691E-10
   86.0999985       1.25313190E-10
   86.2799988       1.49526183E-10
   86.4599991       1.74380871E-10
   86.6399994       1.97242112E-10
   86.8199997       2.15862078E-10
   87.0000000       2.28745578E-10
   87.1800003       2.35370889E-10
   87.3600006       2.36233921E-10
   87.5400009       2.32712932E-10
   87.7200012       2.26780719E-10
   87.9000015       2.20612681E-10
   88.0800018       2.16152540E-10
   88.2600021       2.14714357E-10
   88.4400024       2.16694857E-10
   88.6200027       2.21452842E-10
   88.8000031       2.27390134E-10
   88.9800034       2.32230013E-10
   89.1600037       2.33443542E-10
   89.3399963       2.28754182E-10
   89.5199966       2.16620527E-10
   89.6999969       1.96608632E-10
   89.8799973       1.69579573E-10
   90.0599976       1.37653139E-10
   90.2399979       1.03953325E-10
   90.4199982       7.21756682E-11
   90.5999985       4.60513537E-11
   90.7799988       2.88017301E-11
   90.9599991       2.26747284E-11
   91.1399994       2.86453136E-11
   91.3199997       4.63185636E-11
   91.5000000       7.40508002E-11
   91.6800003       1.09254515E-10
   91.8600006       1.48833654E-10
   92.0400009       1.89670904E-10
   92.2200012       2.29085181E-10
   92.4000015       2.65185013E-10
   92.5800018       2.97064040E-10
   92.7600021       3.24811261E-10
   92.9400024       3.49339724E-10
   93.1200027       3.72071707E-10
   93.3000031       3.94541955E-10
   93.4800034       4.17990587E-10
   93.6600037       4.43023507E-10
   93.8399963       4.69400296E-10
   94.0199966       4.95989638E-10
   94.1999969       5.20894994E-10
   94.3799973       5.41737821E-10
   94.5599976       5.56046653E-10
   94.7399979       5.61691582E-10
   94.9199982       5.57290825E-10
   95.0999985       5.42515310E-10
   95.2799988       5.18233845E-10
   95.4599991       4.86464313E-10
   95.6399994       4.50133875E-10
   95.8199997       4.12681167E-10
   96.0000000       3.77568310E-10
   96.1800003       3.47781970E-10
   96.3600006       3.25405813E-10
   96.5400009       3.11337289E-10
   96.7200012       3.05190873E-10
   96.9000015       3.05402453E-10
   97.0800018       3.09517967E-10
   97.2600021       3.14612891E-10
   97.4400024       3.17768367E-10
   97.6200027       3.16522253E-10
   97.8000031       3.09216736E-10
   97.9800034       2.95184988E-10
   98.1600037       2.74753276E-10
   98.3399963       2.49066129E-10
   98.5199966       2.19778473E-10
   98.6999969       1.88678448E-10
   98.8799973       1.57311150E-10
   99.0599976       1.26677294E-10
   99.2399979       9.70586805E-11
   99.4199982       6.80049558E-11
   99.5999985       3.84817248E-11
   99.7799988       7.14908731E-12
   99.9599991      -2.72895265E-11
   100.139999      -6.57501345E-11
   100.320000      -1.08512012E-10
   100.500000      -1.55101709E-10
   100.680000      -2.04336853E-10
   100.860001      -2.54511995E-10
   101.040001      -3.03681746E-10
   101.220001      -3.49976048E-10
   101.400002      -3.91883859E-10
   101.580002      -4.28457464E-10
   101.760002      -4.59407123E-10
   101.940002      -4.85085139E-10
   102.120003      -5.06373998E-10
   102.300003      -5.24512045E-10
   102.480003      -5.40884448E-10
   102.660004      -5.56820257E-10
   102.839996      -5.73413872E-10
   103.019997      -5.91390659E-10
   103.199997      -6.11031392E-10
   103.379997      -6.32160824E-10
   103.559998      -6.54199528E-10
   103.739998      -6.76276035E-10
   103.919998      -6.97387925E-10
   104.099998      -7.16580961E-10
   104.279999      -7.33115735E-10
   104.459999      -7.46581574E-10
   104.639999      -7.56937790E-10
   104.820000      -7.64469654E-10
   105.000000      -7.69682096E-10
   105.180000      -7.73161923E-10
   105.360001      -7.75449538E-10
   105.540001      -7.76953890E-10
   105.720001      -7.77920728E-10
   105.900002      -7.78450915E-10
   106.080002      -7.78553610E-10
   106.260002      -7.78202169E-10
   106.440002      -7.77377718E-10
   106.620003      -7.76096742E-10
   106.800003      -7.74422915E-10
   106.980003      -7.72475139E-10
   107.160004      -7.70447151E-10
   107.339996      -7.68627495E-10
   107.519997      -7.67417407E-10
   107.699997      -7.67321096E-10
   107.879997      -7.68893449E-10
   108.059998      -7.72640230E-10
   108.239998      -7.78879072E-10
   108.419998      -7.87604038E-10
   108.599998      -7.98383526E-10
   108.779999      -8.10339684E-10
   108.959999      -8.22228563E-10
   109.139999      -8.32606040E-10
   109.320000      -8.40047476E-10
   109.500000      -8.43366099E-10
   109.680000      -8.41775205E-10
   109.860001      -8.34966041E-10
   110.040001      -8.23090540E-10
   110.220001      -8.06665901E-10
   110.400002      -7.86433141E-10
   110.580002      -7.63207608E-10
   110.760002      -7.37743699E-10
   110.940002      -7.10640435E-10
   111.120003      -6.82291890E-10
   111.300003      -6.52878085E-10
   111.480003      -6.22396856E-10
   111.660004      -5.90727689E-10
   111.839996      -5.57717428E-10
   112.019997      -5.23276700E-10
   112.199997      -4.87471008E-10
   112.379997      -4.50582877E-10
   112.559998      -4.13140328E-10
   112.739998      -3.75896397E-10
   112.919998      -3.39754114E-10
   113.099998      -3.05657971E-10
   113.279999      -2.74464229E-10
   113.459999      -2.46824006E-10
   113.639999      -2.23107671E-10
   113.820000      -2.03379494E-10
   114.000000      -1.87430876E-10
   114.180000      -1.74855214E-10
   114.360001      -1.65139138E-10
   114.540001      -1.57750507E-10
   114.720001      -1.52201488E-10
   114.900002      -1.48084142E-10
   115.080002      -1.45077297E-10
   115.260002      -1.42927711E-10
   115.440002      -1.41421305E-10
   115.620003      -1.40343001E-10
   115.800003      -1.39431702E-10
   115.980003      -1.38344794E-10
   116.160004      -1.36637868E-10
   116.339996      -1.33769884E-10
   116.519997      -1.29155048E-10
   116.699997      -1.22244104E-10
   116.879997      -1.12647551E-10
   117.059998      -1.00253986E-10
   117.239998      -8.53304649E-11
   117.419998      -6.85675960E-11
   117.599998      -5.10402970E-11
   117.779999      -3.40837220E-11
   117.959999      -1.90945523E-11
   118.139999      -7.29797472E-12
   118.320000       4.74166550E-13
   118.500000       3.94062083E-12
   118.680000       3.43971249E-12
   118.860001      -1.13352741E-13
   119.040001      -5.35060624E-12
   119.220001      -1.06345948E-11
   119.400002      -1.42600211E-11
   119.580002      -1.46351143E-11