  -34.5000000         0.00000000    
  -34.3195000         0.00000000    
  -34.1389999         0.00000000    
  -33.9584999         9.15820285E-21
  -33.7779999         4.66369276E-20
  -33.5974998         1.18525754E-19
  -33.4169998         1.78595765E-19
  -33.2364998         1.07360890E-19
  -33.0559998        -2.50547372E-19
  -32.8754997        -9.77613850E-19
  -32.6949997        -1.93766604E-18
  -32.5144997        -2.66769366E-18
  -32.3339996        -2.38972955E-18
  -32.1534996        -1.93709970E-19
  -31.9729996         4.61555201E-18
  -31.7924995         1.20760577E-17
  -31.6119995         2.11479312E-17
  -31.4314995         2.94573707E-17
  -31.2509995         3.33479750E-17
  -31.0704994         2.83481645E-17
  -30.8899994         1.00870714E-17
  -30.7094994        -2.44263986E-17
  -30.5289993        -7.53880367E-17
  -30.3484993        -1.39001574E-16
  -30.1679993        -2.06927436E-16
  -29.9874992        -2.66770592E-16
  -29.8069992        -3.03833471E-16
  -29.6264992        -3.04061693E-16
  -29.4459991        -2.57737303E-16
  -29.2654991        -1.63125218E-16
  -29.0849991        -2.90548977E-17
  -28.9044991         1.24580746E-16
  -28.7240009         2.69142231E-16
  -28.5435009         3.72500341E-16
  -28.3630009         4.06505855E-16
  -28.1825008         3.55050271E-16
  -28.0020008         2.20504845E-16
  -27.8215008         2.63202551E-17
  -27.6410007        -1.85754603E-16
  -27.4605007        -3.64126229E-16
  -27.2800007        -4.60203218E-16
  -27.0995007        -4.42677497E-16
  -26.9190006        -3.08939412E-16
  -26.7385006        -8.89303002E-17
  -26.5580006         1.61798857E-16
  -26.3775005         3.79434576E-16
  -26.1970005         5.14363828E-16
  -26.0165005         5.49737776E-16
  -25.8360004         5.07220587E-16
  -25.6555004         4.36219453E-16
  -25.4750004         3.91100046E-16
  -25.2945004         4.07632594E-16
  -25.1140003         4.90540867E-16
  -24.9335003         6.17656319E-16
  -24.7530003         7.56532771E-16
  -24.5725002         8.82936186E-16
  -24.3920002         9.91803901E-16
  -24.2115002         1.09855165E-15
  -24.0310001         1.23543705E-15
  -23.8505001         1.44790520E-15
  -23.6700001         1.78878366E-15
  -23.4895000         2.30107617E-15
  -23.3090000         2.98239898E-15
  -23.1285000         3.73875727E-15
  -22.9480000         4.35542097E-15
  -22.7674999         4.52141105E-15
  -22.5869999         3.92916392E-15
  -22.4064999         2.43221022E-15
  -22.2259998         1.98842295E-16
  -22.0454998        -2.22440381E-15
  -21.8649998        -4.00830687E-15
  -21.6844997        -4.30474468E-15
  -21.5039997        -2.60751448E-15
  -21.3234997         9.24728421E-16
  -21.1429996         5.33314136E-15
  -20.9624996         9.01318865E-15
  -20.7819996         1.01617814E-14
  -20.6014996         7.40562939E-15
  -20.4209995         4.08719099E-16
  -20.2404995        -9.77069107E-15
  -20.0599995        -2.07500033E-14
  -19.8794994        -2.93695427E-14
  -19.6989994        -3.26019593E-14
  -19.5184994        -2.85606737E-14
  -19.3379993        -1.72715524E-14
  -19.1574993        -9.17341023E-16
  -18.9769993         1.65782542E-14
  -18.7964993         3.05365847E-14
  -18.6159992         3.67899647E-14
  -18.4354992         3.28390438E-14
  -18.2549992         1.85575330E-14
  -18.0744991        -3.73427477E-15
  -17.8939991        -2.97991104E-14
  -17.7134991        -5.44228223E-14
  -17.5330009        -7.25111770E-14
  -17.3525009        -8.01238280E-14
  -17.1720009        -7.53044545E-14
  -16.9915009        -5.86300146E-14
  -16.8110008        -3.34069422E-14
  -16.6305008        -5.42397378E-15
  -16.4500008         1.78415174E-14
  -16.2695007         2.86045635E-14
  -16.0890007         2.06396671E-14
  -15.9084997        -8.64686469E-15
  -15.7279997        -5.63855772E-14
  -15.5474997        -1.13183632E-13
  -15.3669996        -1.63334759E-13
  -15.1864996        -1.86631065E-13
  -15.0059996        -1.61834034E-13
  -14.8254995        -7.14675037E-14
  -14.6450005         9.28226680E-14
  -14.4645004         3.25509585E-13
  -14.2840004         6.04387363E-13
  -14.1035004         8.90994418E-13
  -13.9230003         1.13497124E-12
  -13.7425003         1.28216654E-12
  -13.5620003         1.28523028E-12
  -13.3815002         1.11451722E-12
  -13.2010002         7.66719153E-13
  -13.0205002         2.68930413E-13
  -12.8400002        -3.23172912E-13
  -12.6595001        -9.32965077E-13
  -12.4790001        -1.47482851E-12
  -12.2985001        -1.86798645E-12
  -12.1180000        -2.04945804E-12
  -11.9375000        -1.98383887E-12
  -11.7570000        -1.66859462E-12
  -11.5764999        -1.13459958E-12
  -11.3959999        -4.42505543E-13
  -11.2154999         3.24147691E-13
  -11.0349998         1.06832295E-12
  -10.8544998         1.69085774E-12
  -10.6739998         2.10336414E-12
  -10.4934998         2.24170595E-12
  -10.3129997         2.07818636E-12
  -10.1324997         1.62960194E-12
  -9.95199966         9.58012424E-13
  -9.77149963         1.61996583E-13
  -9.59099960        -6.41599946E-13
  -9.41049957        -1.34229888E-12
  -9.22999954        -1.86103628E-12
  -9.04950047        -2.16834580E-12
  -8.86900043        -2.28938613E-12
  -8.68850040        -2.29303881E-12
  -8.50800037        -2.26724477E-12
  -8.32750034        -2.28747837E-12
  -8.14700031        -2.38808127E-12
  -7.96649981        -2.54584960E-12
  -7.78599977        -2.68172268E-12
  -7.60550022        -2.68095225E-12
  -7.42500019        -2.42624909E-12
  -7.24450016        -1.83456375E-12
  -7.06400013        -8.87013987E-13
  -6.88350010         3.56227987E-13
  -6.70300007         1.75997801E-12
  -6.52250004         3.13579197E-12
  -6.34200001         4.27612763E-12
  -6.16149998         4.99337160E-12
  -5.98099995         5.15608736E-12
  -5.80049992         4.71628812E-12
  -5.61999989         3.72356920E-12
  -5.43949986         2.32393553E-12
  -5.25899982         7.42946503E-13
  -5.07849979        -7.45660261E-13
  -4.89799976        -1.86276515E-12
  -4.71750021        -2.37271140E-12
  -4.53700018        -2.13034820E-12
  -4.35650015        -1.11690887E-12
  -4.17600012         5.44266292E-13
  -3.99550009         2.59852122E-12
  -3.81500006         4.69801194E-12
  -3.63450003         6.46174564E-12
  -3.45400000         7.54611824E-12
  -3.27349997         7.71130815E-12
  -3.09299994         6.86911552E-12
  -2.91249990         5.10199868E-12
  -2.73200011         2.64944685E-12
  -2.55150008        -1.35114982E-13
  -2.37100005        -2.84784891E-12
  -2.19050002        -5.10636585E-12
  -2.00999999        -6.61682948E-12
  -1.82949996        -7.22502570E-12
  -1.64900005        -6.94269035E-12
  -1.46850002        -5.94422341E-12
  -1.28799999        -4.53302717E-12
  -1.10749996        -3.08172910E-12
 -0.926999986        -1.95549371E-12
 -0.746500015        -1.43249106E-12
 -0.565999985        -1.63818004E-12
 -0.385500014        -2.50957133E-12
 -0.204999998        -3.80084289E-12
  -2.44999994E-02    -5.13304026E-12
  0.156000003        -6.07974391E-12
  0.336499989        -6.27047849E-12
  0.517000020        -5.48716714E-12
  0.697499990        -3.72866104E-12
  0.878000021        -1.22486548E-12
   1.05850005         1.60559955E-12
   1.23899996         4.24599071E-12
   1.41949999         6.19877066E-12
   1.60000002         7.10074230E-12
   1.78050005         6.80741878E-12
   1.96099997         5.42605240E-12
   2.14150000         3.29010387E-12
   2.32200003         8.82862197E-13
   2.50250006        -1.26997620E-12
   2.68300009        -2.71297069E-12
   2.86350012        -3.15334542E-12
   3.04399991        -2.51471175E-12
   3.22449994        -9.43494848E-13
   3.40499997         1.22939582E-12
   3.58550000         3.56073461E-12
   3.76600003         5.58381856E-12
   3.94650006         6.89586365E-12
   4.12699986         7.22746862E-12
   4.30749989         6.48294309E-12
   4.48799992         4.74688041E-12
   4.66849995         2.25923577E-12
   4.84899998        -6.33574085E-13
   5.02950001        -3.54005952E-12
   5.21000004        -6.08618841E-12
   5.39050007        -7.96872030E-12
   5.57100010        -8.99192613E-12
   5.75150013        -9.08366698E-12
   5.93200016        -8.29026431E-12
   6.11250019        -6.75243585E-12
   6.29300022        -4.66817557E-12
   6.47349977        -2.25050078E-12
   6.65399981         3.10499808E-13
   6.83449984         2.87277298E-12
   7.01499987         5.34953028E-12
   7.19549990         7.69821880E-12
   7.37599993         9.89628691E-12
   7.55649996         1.19127156E-11
   7.73699999         1.36849742E-11
   7.91750002         1.51094796E-11
   8.09799957         1.60490458E-11
   8.27849960         1.63554083E-11
   8.45899963         1.59006801E-11
   8.63949966         1.46081532E-11
   8.81999969         1.24733826E-11
   9.00049973         9.56831836E-12
   9.18099976         6.02638989E-12
   9.36149979         2.01261859E-12
   9.54199982        -2.31294671E-12
   9.72249985        -6.82692574E-12
   9.90299988        -1.14593326E-11
   10.0834999        -1.61897769E-11
   10.2639999        -2.10238511E-11
   10.4445000        -2.59563170E-11
   10.6250000        -3.09316392E-11
   10.8055000        -3.58128804E-11
   10.9860001        -4.03674802E-11
   11.1665001        -4.42758538E-11
   11.3470001        -4.71640921E-11
   11.5275002        -4.86576751E-11
   11.7080002        -4.84492689E-11
   11.8885002        -4.63684681E-11
   12.0690002        -4.24373765E-11
   12.2495003        -3.68954069E-11
   12.4300003        -3.01804172E-11
   12.6105003        -2.28620057E-11
   12.7910004        -1.55356544E-11
   12.9715004        -8.69983599E-12
   13.1520004        -2.64487694E-12
   13.3325005         2.61686658E-12
   13.5129995         7.35855994E-12
   13.6934996         1.20793609E-11
   13.8739996         1.73900512E-11
   14.0544996         2.38713545E-11
   14.2349997         3.19402491E-11
   14.4154997         4.17574690E-11
   14.5959997         5.31982930E-11
   14.7764997         6.58926733E-11
   14.9569998         7.93184685E-11
   15.1374998         9.29211499E-11
   15.3179998         1.06223620E-10
   15.4984999         1.18897794E-10
   15.6789999         1.30783634E-10
   15.8594999         1.41856804E-10
   16.0400009         1.52163504E-10
   16.2205009         1.61749558E-10
   16.4009991         1.70605058E-10
   16.5814991         1.78641685E-10
   16.7619991         1.85705076E-10
   16.9424992         1.91614183E-10
   17.1229992         1.96214864E-10
   17.3034992         1.99430250E-10
   17.4839993         2.01297909E-10
   17.6644993         2.01982236E-10
   17.8449993         2.01760955E-10
   18.0254993         2.00984951E-10
   18.2059994         2.00023567E-10
   18.3864994         1.99203348E-10
   18.5669994         1.98758815E-10
   18.7474995         1.98799810E-10
   18.9279995         1.99307598E-10
   19.1084995         2.00150660E-10
   19.2889996         2.01122577E-10
   19.4694996         2.01975936E-10
   19.6499996         2.02452929E-10
   19.8304996         2.02295042E-10
   20.0109997         2.01236250E-10
   20.1914997         1.98980110E-10
   20.3719997         1.95172406E-10
   20.5524998         1.89394611E-10
   20.7329998         1.81181029E-10
   20.9134998         1.70081366E-10
   21.0939999         1.55754937E-10
   21.2744999         1.38079326E-10
   21.4549999         1.17241411E-10
   21.6355000         9.37829467E-11
   21.8160000         6.85673740E-11
   21.9965000         4.26768759E-11
   22.1770000         1.72429848E-11
   22.3575001        -6.73659262E-12
   22.5380001        -2.85591186E-11
   22.7185001        -4.79109807E-11
   22.8990002        -6.48813156E-11
   23.0795002        -7.98854663E-11
   23.2600002        -9.35220165E-11
   23.4405003        -1.06413829E-10
   23.6210003        -1.19060414E-10
   23.8015003        -1.31745406E-10
   23.9820004        -1.44513818E-10
   24.1625004        -1.57210855E-10
   24.3430004        -1.69576270E-10
   24.5235004        -1.81329438E-10
   24.7040005        -1.92237518E-10
   24.8845005        -2.02137126E-10
   25.0650005        -2.10894371E-10
   25.2455006        -2.18350837E-10
   25.4260006        -2.24248176E-10
   25.6065006        -2.28194255E-10
   25.7870007        -2.29678762E-10
   25.9675007        -2.28146793E-10
   26.1480007        -2.23129001E-10
   26.3285007        -2.14384566E-10
   26.5090008        -2.02051653E-10
   26.6895008        -1.86725024E-10
   26.8700008        -1.69477654E-10
   27.0505009        -1.51770665E-10
   27.2310009        -1.35269948E-10
   27.4115009        -1.21599147E-10
   27.5919991        -1.12080865E-10
   27.7724991        -1.07500606E-10
   27.9529991        -1.07986210E-10
   28.1334991        -1.13016312E-10
   28.3139992        -1.21556959E-10
   28.4944992        -1.32314562E-10
   28.6749992        -1.44035478E-10
   28.8554993        -1.55759766E-10
   29.0359993        -1.66989131E-10
   29.2164993        -1.77722198E-10
   29.3969994        -1.88309354E-10
   29.5774994        -1.99234920E-10
   29.7579994        -2.10799281E-10
   29.9384995        -2.22889401E-10
   30.1189995        -2.34823994E-10
   30.2994995        -2.45378801E-10
   30.4799995        -2.52974391E-10
   30.6604996        -2.55973770E-10
   30.8409996        -2.53037702E-10
   31.0214996        -2.43435522E-10
   31.2019997        -2.27254771E-10
   31.3824997        -2.05429687E-10
   31.5629997        -1.79642454E-10
   31.7434998        -1.52058088E-10
   31.9239998        -1.24986937E-10
   32.1044998        -1.00549923E-10
   32.2849998        -8.03790229E-11
   32.4654999        -6.54223342E-11
   32.6459999        -5.58705027E-11
   32.8264999        -5.12340066E-11
   33.0070000        -5.05083059E-11
   33.1875000        -5.24214838E-11
   33.3680000        -5.56979914E-11
   33.5485001        -5.92684166E-11
   33.7290001        -6.24317750E-11
   33.9095001        -6.48843201E-11
   34.0900002        -6.66728964E-11
   34.2705002        -6.80494966E-11
   34.4510002        -6.93105712E-11
   34.6315002        -7.06188927E-11
   34.8120003        -7.18805085E-11
   34.9925003        -7.26990065E-11
   35.1730003        -7.24236018E-11
   35.3535004        -7.02671740E-11
   35.5340004        -6.54615043E-11
   35.7145004        -5.74353447E-11
   35.8950005        -4.59311686E-11
   36.0755005        -3.10705489E-11
   36.2560005        -1.33376140E-11
   36.4365005         6.50273108E-12
   36.6170006         2.75291456E-11
   36.7975006         4.88097583E-11
   36.9780006         6.95227279E-11
   37.1585007         8.90561513E-11
   37.3390007         1.07049467E-10
   37.5195007         1.23375435E-10
   37.7000008         1.38104556E-10
   37.8805008         1.51413479E-10
   38.0610008         1.63491901E-10
   38.2415009         1.74471035E-10
   38.4220009         1.84377152E-10
   38.6025009         1.93110292E-10
   38.7830009         2.00475622E-10
   38.9635010         2.06224579E-10
   39.1440010         2.10107501E-10
   39.3245010         2.11930737E-10
   39.5050011         2.11597517E-10
   39.6855011         2.09127368E-10
   39.8660011         2.04647493E-10
   40.0465012         1.98365546E-10
   40.2270012         1.90542637E-10
   40.4075012         1.81459722E-10
   40.5880013         1.71397535E-10
   40.7685013         1.60661998E-10
   40.9490013         1.49611643E-10
   41.1295013         1.38696055E-10
   41.3100014         1.28492050E-10
   41.4905014         1.19688370E-10
   41.6710014         1.13030245E-10
   41.8515015         1.09216983E-10
   42.0320015         1.08780249E-10
   42.2125015         1.11958984E-10
   42.3930016         1.18618393E-10
   42.5735016         1.28228539E-10
   42.7540016         1.39918632E-10
   42.9345016         1.52597684E-10
   43.1150017         1.65114478E-10
   43.2955017         1.76428386E-10
   43.4760017         1.85733734E-10
   43.6565018         1.92526245E-10
   43.8370018         1.96588745E-10
   44.0175018         1.97917488E-10
   44.1980019         1.96619221E-10
   44.3785019         1.92819691E-10
   44.5589981         1.86616972E-10
   44.7394981         1.78073487E-10
   44.9199982         1.67267603E-10
   45.1004982         1.54352739E-10
   45.2809982         1.39617359E-10
   45.4614983         1.23518196E-10
   45.6419983         1.06681115E-10
   45.8224983         8.98663435E-11
   46.0029984         7.39151101E-11
   46.1834984         5.96731067E-11
   46.3639984         4.79116087E-11
   46.5444984         3.92403506E-11
   46.7249985         3.40306221E-11
   46.9054985         3.23486758E-11
   47.0859985         3.39119566E-11
   47.2664986         3.80814096E-11
   47.4469986         4.38952243E-11
   47.6274986         5.01535098E-11
   47.8079987         5.55509250E-11
   47.9884987         5.88527838E-11
   48.1689987         5.90792554E-11
   48.3494987         5.56773863E-11
   48.5299988         4.86378993E-11
   48.7104988         3.85309284E-11
   48.8909988         2.64429936E-11
   49.0714989         1.38318012E-11
   49.2519989         2.31295386E-12
   49.4324989        -6.59612686E-12
   49.6129990        -1.17161359E-11
   49.7934990        -1.24212411E-11
   49.9739990        -8.77824115E-12
   50.1544991        -1.58738777E-12
   50.3349991         7.69386724E-12
   50.5154991         1.71421176E-11
   50.6959991         2.46490588E-11
   50.8764992         2.82541004E-11
   51.0569992         2.64521564E-11
   51.2374992         1.84076920E-11
   51.4179993         4.03738284E-12
   51.5984993        -1.60736702E-11
   51.7789993        -4.08837200E-11
   51.9594994        -6.91795093E-11
   52.1399994        -9.98735400E-11
   52.3204994        -1.32225050E-10
   52.5009995        -1.65926356E-10
   52.6814995        -2.01037131E-10
   52.8619995        -2.37787789E-10
   53.0424995        -2.76296652E-10
   53.2229996        -3.16289189E-10
   53.4034996        -3.56898289E-10
   53.5839996        -3.96622096E-10
   53.7644997        -4.33436620E-10
   53.9449997        -4.65074951E-10
   54.1254997        -4.89385310E-10
   54.3059998        -5.04702558E-10
   54.4864998        -5.10142817E-10
   54.6669998        -5.05759046E-10
   54.8474998        -4.92542118E-10
   55.0279999        -4.72244133E-10
   55.2084999        -4.47099135E-10
   55.3889999        -4.19471818E-10
   55.5695000        -3.91497862E-10
   55.7500000        -3.64814706E-10
   55.9305000        -3.40395184E-10
   56.1110001        -3.18539195E-10
   56.2915001        -2.99013952E-10
   56.4720001        -2.81290186E-10
   56.6525002        -2.64814642E-10
   56.8330002        -2.49272269E-10
   57.0135002        -2.34761238E-10
   57.1940002        -2.21837215E-10
   57.3745003        -2.11447887E-10
   57.5550003        -2.04740030E-10
   57.7355003        -2.02804010E-10
   57.9160004        -2.06384285E-10
   58.0965004        -2.15630125E-10
   58.2770004        -2.29936847E-10
   58.4575005        -2.47924348E-10
   58.6380005        -2.67577016E-10
   58.8185005        -2.86525415E-10
   58.9990005        -3.02426612E-10
   59.1795006        -3.13379434E-10
   59.3600006        -3.18278875E-10
   59.5405006        -3.17064680E-10
   59.7210007        -3.10789172E-10
   59.9015007        -3.01505376E-10
   60.0820007        -2.91975860E-10
   60.2625008        -2.85240082E-10
   60.4430008        -2.84124113E-10
   60.6235008        -2.90758001E-10
   60.8040009        -3.06211501E-10
   60.9845009        -3.30280053E-10
   61.1650009        -3.61498192E-10
   61.3455009        -3.97354316E-10
   61.5260010        -4.34694336E-10
   61.7065010        -4.70214867E-10
   61.8870010        -5.00950781E-10
   62.0675011        -5.24710997E-10
   62.2480011        -5.40349210E-10
   62.4285011        -5.47837109E-10
   62.6090012        -5.48139978E-10
   62.7895012        -5.42905387E-10
   62.9700012        -5.34062183E-10
   63.1505013        -5.23373733E-10
   63.3310013        -5.12092924E-10
   63.5115013        -5.00773367E-10
   63.6920013        -4.89271679E-10
   63.8725014        -4.76941486E-10
   64.0530014        -4.62922589E-10
   64.2334976        -4.46477355E-10
   64.4140015        -4.27241131E-10
   64.5944977        -4.05330519E-10
   64.7750015        -3.81307846E-10
   64.9554977        -3.56000396E-10
   65.1360016        -3.30226319E-10
   65.3164978        -3.04546610E-10
   65.4970016        -2.79061441E-10
   65.6774979        -2.53333521E-10
   65.8580017        -2.26476185E-10
   66.0384979        -1.97359060E-10
   66.2190018        -1.64855671E-10
   66.3994980        -1.28143302E-10
   66.5800018        -8.68804542E-11
   66.7604980        -4.13065693E-11
   66.9410019         7.79602338E-12
   67.1214981         5.92367613E-11
   67.3020020         1.11643569E-10
   67.4824982         1.63660266E-10
   67.6630020         2.14132365E-10
   67.8434982         2.62206118E-10
   68.0240021         3.07343428E-10
   68.2044983         3.49235196E-10
   68.3850021         3.87659127E-10
   68.5654984         4.22307328E-10
   68.7460022         4.52641119E-10
   68.9264984         4.77903994E-10
   69.1070023         4.97176744E-10
   69.2874985         5.09612130E-10
   69.4680023         5.14709941E-10
   69.6484985         5.12639098E-10
   69.8290024         5.04373043E-10
   70.0094986         4.91725827E-10
   70.1900024         4.77120621E-10
   70.3704987         4.63202199E-10
   70.5510025         4.52329368E-10
   70.7314987         4.46086446E-10
   70.9120026         4.44923737E-10
   71.0924988         4.48050513E-10
   71.2730026         4.53599269E-10
   71.4534988         4.59065536E-10
   71.6340027         4.61897270E-10
   71.8144989         4.60157051E-10
   71.9950027         4.53023924E-10
   72.1754990         4.41050613E-10
   72.3560028         4.26102487E-10
   72.5364990         4.10961765E-10
   72.7170029         3.98721473E-10
   72.8974991         3.92077010E-10
   73.0780029         3.92708005E-10
   73.2584991         4.00859707E-10
   73.4390030         4.15251833E-10
   73.6194992         4.33286435E-10
   73.8000031         4.51579385E-10
   73.9804993         4.66615468E-10
   74.1610031         4.75438688E-10
   74.3414993         4.76211293E-10
   74.5220032         4.68513617E-10
   74.7024994         4.53320936E-10
   74.8830032         4.32712977E-10
   75.0634995         4.09347389E-10
   75.2440033         3.85879884E-10
   75.4244995         3.64433539E-10
   75.6050034         3.46227297E-10
   75.7854996         3.31487476E-10
   75.9660034         3.19526822E-10
   76.1464996         3.09056170E-10
   76.3270035         2.98565173E-10
   76.5074997         2.86701163E-10
   76.6880035         2.72580070E-10
   76.8684998         2.55927363E-10
   77.0490036         2.37114550E-10
   77.2294998         2.17018889E-10
   77.4100037         1.96811165E-10
   77.5904999         1.77713788E-10
   77.7710037         1.60776850E-10
   77.9514999         1.46726784E-10
   78.1320038         1.35880113E-10
   78.3125000         1.28174693E-10
   78.4929962         1.23251950E-10
   78.6735001         1.20582350E-10
   78.8539963         1.19624033E-10
   79.0345001         1.19938351E-10
   79.2149963         1.21261362E-10
   79.3955002         1.23516822E-10
   79.5759964         1.26752650E-10
   79.7565002         1.31058581E-10
   79.9369965         1.36455375E-10
   80.1175003         1.42794707E-10
   80.2979965         1.49757484E-10
   80.4785004         1.56839056E-10
   80.6589966         1.63427383E-10
   80.8395004         1.68857581E-10
   81.0199966         1.72465917E-10
   81.2005005         1.73609419E-10
   81.3809967         1.71657952E-10
   81.5615005         1.65974220E-10
   81.7419968         1.55919527E-10
   81.9225006         1.40905426E-10
   82.1029968         1.20490964E-10
   82.2835007         9.45171996E-11
   82.4639969         6.32237249E-11
   82.6445007         2.73310055E-11
   82.8249969        -1.19887754E-11
   83.0055008        -5.32195954E-11
   83.1859970        -9.47273995E-11
   83.3665009        -1.35010336E-10
   83.5469971        -1.72935138E-10
   83.7275009        -2.07909287E-10
   83.9079971        -2.39900516E-10
   84.0885010        -2.69350237E-10
   84.2689972        -2.96983993E-10
   84.4495010        -3.23559318E-10
   84.6299973        -3.49634821E-10
   84.8105011        -3.75423109E-10
   84.9909973        -4.00736361E-10
   85.1715012        -4.25048496E-10
   85.3519974        -4.47645476E-10
   85.5325012        -4.67793249E-10
   85.7129974        -4.84904894E-10
   85.8935013        -4.98619923E-10
   86.0739975        -5.08797338E-10
   86.2545013        -5.15408827E-10
   86.4349976        -5.18378673E-10
   86.6155014        -5.17411836E-10
   86.7959976        -5.11875431E-10
   86.9765015        -5.00786690E-10
   87.1569977        -4.82932860E-10
   87.3375015        -4.57083787E-10
   87.5179977        -4.22296920E-10
   87.6985016        -3.78194059E-10
   87.8789978        -3.25163424E-10
   88.0595016        -2.64407052E-10
   88.2399979        -1.97813071E-10
   88.4205017        -1.27668778E-10
   88.6009979        -5.62612595E-11
   88.7815018         1.45086955E-11
   88.9619980         8.34324138E-11
   89.1425018         1.50127064E-10
   89.3229980         2.14936791E-10
   89.5035019         2.78665674E-10
   89.6839981         3.42161410E-10
   89.8645020         4.05902700E-10
   90.0449982         4.69653594E-10
   90.2255020         5.32326072E-10
   90.4059982         5.92045746E-10
   90.5865021         6.46440068E-10
   90.7669983         6.93082536E-10
   90.9475021         7.29989680E-10
   91.1279984         7.56061602E-10
   91.3085022         7.71348596E-10
   91.4889984         7.77088782E-10
   91.6695023         7.75496778E-10
   91.8499985         7.69343200E-10
   92.0305023         7.61397889E-10
   92.2109985         7.53873908E-10
   92.3915024         7.47981121E-10
   92.5719986         7.43680728E-10
   92.7525024         7.39704409E-10
   92.9329987         7.33823557E-10
   93.1135025         7.23345273E-10
   93.2939987         7.05698722E-10
   93.4745026         6.79028778E-10
   93.6549988         6.42652875E-10
   93.8355026         5.97276173E-10
   94.0159988         5.44938705E-10
   94.1965027         4.88688534E-10
   94.3769989         4.32041514E-10
   94.5575027         3.78368420E-10
   94.7379990         3.30349526E-10
   94.9185028         2.89590879E-10
   95.0989990         2.56520222E-10
   95.2795029         2.30563013E-10
   95.4599991         2.10529691E-10
   95.6405029         1.95132646E-10
   95.8209991         1.83455723E-10
   96.0015030         1.75263540E-10
   96.1819992         1.71042722E-10
   96.3625031         1.71776995E-10
   96.5429993         1.78490070E-10
   96.7235031         1.91721389E-10
   96.9039993         2.11097390E-10
   97.0845032         2.35121422E-10
   97.2649994         2.61304645E-10
   97.4455032         2.86592999E-10
   97.6259995         3.07998016E-10
   97.8065033         3.23238686E-10
   97.9869995         3.31205674E-10
   98.1675034         3.32119388E-10
   98.3479996         3.27301103E-10
   98.5285034         3.18634896E-10
   98.7089996         3.07863901E-10
   98.8895035         2.95929586E-10
   99.0699997         2.82556284E-10
   99.2505035         2.66216493E-10
   99.4309998         2.44509746E-10
   99.6115036         2.14852636E-10
   99.7919998         1.75320689E-10
   99.9725037         1.25380192E-10
   100.153000         6.63251815E-11
   100.333504         1.26529212E-12
   100.514000        -6.53525012E-11
   100.694504        -1.28571015E-10
   100.875000        -1.83930926E-10
   101.055496        -2.28396524E-10
   101.236000        -2.60991700E-10
   101.416496        -2.82990104E-10
   101.597000        -2.97593256E-10
   101.777496        -3.09206799E-10
   101.958000        -3.22428917E-10
   102.138496        -3.41027151E-10
   102.319000        -3.67116670E-10
   102.499496        -4.00753181E-10
   102.680000        -4.40015191E-10
   102.860497        -4.81576556E-10
   103.041000        -5.21594323E-10
   103.221497        -5.56698021E-10
   103.402000        -5.84824300E-10
   103.582497        -6.05685169E-10
   103.763000        -6.20778928E-10
   103.943497        -6.32945307E-10
   104.124001        -6.45606457E-10
   104.304497        -6.61931010E-10
   104.485001        -6.84095447E-10
   104.665497        -7.12874149E-10
   104.846001        -7.47592821E-10
   105.026497        -7.86437582E-10
   105.207001        -8.27002689E-10
   105.387497        -8.66878236E-10
   105.568001        -9.04133712E-10
   105.748497        -9.37588562E-10
   105.929001        -9.66835612E-10
   106.109497        -9.92082083E-10
   106.290001        -1.01390074E-09
   106.470497        -1.03299780E-09
   106.651001        -1.05005948E-09
   106.831497        -1.06569309E-09
   107.012001        -1.08041076E-09
   107.192497        -1.09462428E-09
   107.373001        -1.10857756E-09
   107.553497        -1.12223597E-09
   107.734001        -1.13514975E-09
   107.914497        -1.14637100E-09
   108.095001        -1.15447685E-09
   108.275497        -1.15773913E-09
   108.456001        -1.15443488E-09
   108.636497        -1.14321663E-09
   108.817001        -1.12347187E-09
   108.997498        -1.09554121E-09
   109.178001        -1.06072362E-09
   109.358498        -1.02105369E-09
   109.539001        -9.78864878E-10
   109.719498        -9.36272948E-10
   109.900002        -8.94668784E-10
   110.080498        -8.54393889E-10
   110.261002        -8.14668943E-10
   110.441498        -7.73805964E-10
   110.622002        -7.29664440E-10
   110.802498        -6.80249468E-10
   110.983002        -6.24302332E-10
   111.163498        -5.61734159E-10
   111.344002        -4.93819818E-10
   111.524498        -4.23033691E-10