  -34.5000000       0.00000000    
  -34.3199997       0.00000000    
  -34.1399994       0.00000000    
  -33.9599991       0.00000000    
  -33.7799988       9.98244508E-25
  -33.5999985       3.08872177E-23
  -33.4199982       3.11188790E-22
  -33.2400017       6.02678271E-22
  -33.0600014      -1.75861345E-21
  -32.8800011      -9.02851644E-21
  -32.7000008      -1.03244960E-20
  -32.5200005       1.93538776E-20
  -32.3400002       7.60636646E-20
  -32.1599998       8.05177285E-20
  -31.9799995      -5.88879507E-20
  -31.7999992      -2.94408418E-19
  -31.6200008      -4.58232158E-19
  -31.4400005      -5.07790668E-19
  -31.2600002      -3.39858244E-19
  -31.0799999       1.21058183E-18
  -30.8999996       6.02717461E-18
  -30.7199993       1.16269111E-17
  -30.5400009       5.06005861E-18
  -30.3600006      -2.88201372E-17
  -30.1800003      -7.61421673E-17
  -30.0000000      -6.99817893E-17
  -29.8199997       6.60335570E-17
  -29.6399994       2.96140188E-16
  -29.4599991       3.88870470E-16
  -29.2800007       4.67933293E-17
  -29.1000004      -7.37492052E-16
  -28.9200001      -1.40069349E-15
  -28.7399998      -1.03352620E-15
  -28.5599995       8.09130552E-16
  -28.3799992       3.29060463E-15
  -28.2000008       4.36995690E-15
  -28.0200005       2.13998787E-15
  -27.8400002      -3.35213352E-15
  -27.6599998      -9.31922250E-15
  -27.4799995      -1.14765790E-14
  -27.2999992      -6.75628927E-15
  -27.1200008       4.34641531E-15
  -26.9400005       1.74678048E-14
  -26.7600002       2.62760920E-14
  -26.5799999       2.52593526E-14
  -26.3999996       1.19118709E-14
  -26.2199993      -1.21444729E-14
  -26.0400009      -4.07262589E-14
  -25.8600006      -6.33770719E-14
  -25.6800003      -6.74817868E-14
  -25.5000000      -4.32452129E-14
  -25.3199997       9.56682887E-15
  -25.1399994       7.70391983E-14
  -24.9599991       1.33194562E-13
  -24.7800007       1.50065534E-13
  -24.6000004       1.11681118E-13
  -24.4200001       2.43329730E-14
  -24.2399998      -8.32613329E-14
  -24.0599995      -1.70837181E-13
  -23.8799992      -2.03516389E-13
  -23.7000008      -1.67050821E-13
  -23.5200005      -7.49269014E-14
  -23.3400002       3.55312059E-14
  -23.1599998       1.17133625E-13
  -22.9799995       1.32637513E-13
  -22.7999992       7.32552921E-14
  -22.6200008      -3.27998228E-14
  -22.4400005      -1.28240449E-13
  -22.2600002      -1.50656736E-13
  -22.0799999      -6.28761976E-14
  -21.8999996       1.25461734E-13
  -21.7199993       3.57474575E-13
  -21.5400009       5.51445825E-13
  -21.3600006       6.35623173E-13
  -21.1800003       5.78773628E-13
  -21.0000000       4.02766850E-13
  -20.8199997       1.72466926E-13
  -20.6399994      -3.23033091E-14
  -20.4599991      -1.51729459E-13
  -20.2800007      -1.74412242E-13
  -20.1000004      -1.46554847E-13
  -19.9200001      -1.54374533E-13
  -19.7399998      -2.82689968E-13
  -19.5599995      -5.65952070E-13
  -19.3799992      -9.56549510E-13
  -19.2000008      -1.33104085E-12
  -19.0200005      -1.53697974E-12
  -18.8400002      -1.46029825E-12
  -18.6599998      -1.08006876E-12
  -18.4799995      -4.82845589E-13
  -18.2999992       1.70363791E-13
  -18.1200008       7.08084470E-13
  -17.9400005       1.01388646E-12
  -17.7600002       1.06626253E-12
  -17.5799999       9.38718938E-13
  -17.3999996       7.61729601E-13
  -17.2199993       6.61523896E-13
  -17.0400009       6.99352956E-13
  -16.8600006       8.37299522E-13
  -16.6800003       9.49760778E-13
  -16.5000000       8.81888800E-13
  -16.3199997       5.32477816E-13
  -16.1399994      -7.87063828E-14
  -15.9600000      -7.97516296E-13
  -15.7799997      -1.39024436E-12
  -15.6000004      -1.64515276E-12
  -15.4200001      -1.47159867E-12
  -15.2399998      -9.45438931E-13
  -15.0600004      -2.75174631E-13
  -14.8800001       2.96191918E-13
  -14.6999998       6.05167826E-13
  -14.5200005       6.40621128E-13
  -14.3400002       5.38996202E-13
  -14.1599998       5.04678168E-13
  -13.9799995       6.96053675E-13
  -13.8000002       1.13531244E-12
  -13.6199999       1.68800553E-12
  -13.4399996       2.12318487E-12
  -13.2600002       2.22393046E-12
  -13.0799999       1.89244150E-12
  -12.8999996       1.19689534E-12
  -12.7200003       3.37012102E-13
  -12.5400000      -4.53475609E-13
  -12.3599997      -1.01794940E-12
  -12.1800003      -1.34574567E-12
  -12.0000000      -1.56434392E-12
  -11.8199997      -1.85859661E-12
  -11.6400003      -2.35665112E-12
  -11.4600000      -3.03957879E-12
  -11.2799997      -3.72221741E-12
  -11.1000004      -4.12048564E-12
  -10.9200001      -3.97946173E-12
  -10.7399998      -3.20500289E-12
  -10.5600004      -1.93494114E-12
  -10.3800001      -5.08932306E-13
  -10.1999998       6.59170852E-13
  -10.0200005       1.25493604E-12
  -9.84000015       1.20391360E-12
  -9.65999985       7.08958933E-13
  -9.47999954       1.59197606E-13
  -9.30000019      -5.19066940E-14
  -9.11999989       2.86826579E-13
  -8.93999958       1.10632272E-12
  -8.76000023       2.09879813E-12
  -8.57999992       2.87748254E-12
  -8.39999962       3.17046129E-12
  -8.22000027       2.94717831E-12
  -8.03999996       2.41400866E-12
  -7.86000013       1.88713151E-12
  -7.67999983       1.61557855E-12
  -7.50000000       1.64987577E-12
  -7.32000017       1.82329108E-12
  -7.13999987       1.85219310E-12
  -6.96000004       1.50225806E-12
  -6.78000021       7.36628857E-13
  -6.59999990      -2.29071943E-13
  -6.42000008      -9.96821657E-13
  -6.23999977      -1.15605225E-12
  -6.05999994      -4.79346977E-13
  -5.88000011       9.47459450E-13
  -5.69999981       2.72808165E-12
  -5.51999998       4.29905287E-12
  -5.34000015       5.15319818E-12
  -5.15999985       5.04102142E-12
  -4.98000002       4.05665215E-12
  -4.80000019       2.57190319E-12
  -4.61999989       1.05622574E-12
  -4.44000006      -1.27411767E-13
  -4.26000023      -8.55877055E-13
  -4.07999992      -1.25447504E-12
  -3.90000010      -1.58872015E-12
  -3.72000003      -2.09993199E-12
  -3.53999996      -2.86586596E-12
  -3.35999990      -3.75184432E-12
  -3.18000007      -4.47371090E-12
  -3.00000000      -4.74149929E-12
  -2.81999993      -4.41314910E-12
  -2.64000010      -3.58120326E-12
  -2.46000004      -2.54704959E-12
  -2.27999997      -1.69331866E-12
  -2.09999990      -1.31520272E-12
  -1.91999996      -1.49061481E-12
  -1.74000001      -2.04666687E-12
  -1.55999994      -2.63213995E-12
  -1.38000000      -2.85832122E-12
  -1.20000005      -2.44668890E-12
  -1.01999998      -1.32647604E-12
 -0.839999974       3.51180375E-13
 -0.660000026       2.28302642E-12
 -0.479999989       4.13737013E-12
 -0.300000012       5.68081780E-12
 -0.119999997       6.85379271E-12
   5.99999987E-02   7.76199417E-12
  0.239999995       8.59260059E-12
  0.419999987       9.50434176E-12
  0.600000024       1.05524773E-11
  0.779999971       1.16842334E-11
  0.959999979       1.27921883E-11
   1.13999999       1.37760090E-11
   1.32000005       1.45639334E-11
   1.50000000       1.50835178E-11
   1.67999995       1.52162050E-11
   1.86000001       1.47863648E-11
   2.03999996       1.36120785E-11
   2.22000003       1.15987437E-11
   2.40000010       8.82231527E-12
   2.57999992       5.54844322E-12
   2.75999999       2.16666854E-12
   2.94000006      -9.36619380E-13
   3.11999989      -3.51268060E-12
   3.29999995      -5.53485209E-12
   3.48000002      -7.19504491E-12
   3.66000009      -8.80938985E-12
   3.83999991      -1.06663584E-11
   4.01999998      -1.28764924E-11
   4.19999981      -1.52861664E-11
   4.38000011      -1.74987524E-11
   4.55999994      -1.90047648E-11
   4.73999977      -1.93777650E-11
   4.92000008      -1.84611094E-11
   5.09999990      -1.64686684E-11
   5.28000021      -1.39522170E-11
   5.46000004      -1.16392018E-11
   5.63999987      -1.01967133E-11
   5.82000017      -1.00094655E-11
   6.00000000      -1.10583721E-11
   6.17999983      -1.29460201E-11
   6.36000013      -1.50552348E-11
   6.53999996      -1.67684078E-11
   6.71999979      -1.76561613E-11
   6.90000010      -1.75629337E-11
   7.07999992      -1.65709477E-11
   7.26000023      -1.48862814E-11
   7.44000006      -1.27207654E-11
   7.61999989      -1.02321025E-11
   7.80000019      -7.53986283E-12
   7.98000002      -4.78775136E-12
   8.15999985      -2.19607058E-12
   8.34000015      -5.82506184E-14
   8.52000046       1.32862048E-12
   8.69999981       1.76932731E-12
   8.88000011       1.26204039E-12
   9.06000042       3.20046486E-14
   9.23999977      -1.50790741E-12
   9.42000008      -2.85109219E-12
   9.60000038      -3.50818571E-12
   9.77999973      -3.09930206E-12
   9.96000004      -1.40868003E-12
   10.1400003       1.59777888E-12
   10.3199997       5.77882924E-12
   10.5000000       1.08377881E-11
   10.6800003       1.63512832E-11
   10.8599997       2.18098734E-11
   11.0400000       2.66770824E-11
   11.2200003       3.04751328E-11
   11.3999996       3.28962413E-11
   11.5799999       3.39155856E-11
   11.7600002       3.38641962E-11
   11.9399996       3.34091921E-11
   12.1199999       3.34060071E-11
   12.3000002       3.46383998E-11
   12.4799995       3.75304163E-11
   12.6599998       4.19471055E-11
   12.8400002       4.71791946E-11
   13.0200005       5.21375339E-11
   13.1999998       5.56908443E-11
   13.3800001       5.70165928E-11
   13.5600004       5.58322659E-11
   13.7399998       5.24332452E-11
   13.9200001       4.75479482E-11
   14.1000004       4.20798708E-11
   14.2799997       3.68366344E-11
   14.4600000       3.23400785E-11
   14.6400003       2.87671015E-11
   14.8199997       2.60182761E-11
   15.0000000       2.38635396E-11
   15.1800003       2.20925795E-11
   15.3599997       2.06015552E-11
   15.5400000       1.93853683E-11
   15.7200003       1.84554143E-11
   15.8999996       1.77475742E-11
   16.0799999       1.70807309E-11
   16.2600002       1.61940027E-11
   16.4400005       1.48508567E-11
   16.6200008       1.29690564E-11
   16.7999992       1.07105332E-11
   16.9799995       8.48900204E-12
   17.1599998       6.88824822E-12
   17.3400002       6.52448581E-12
   17.5200005       7.90184324E-12
   17.7000008       1.13139081E-11
   17.8799992       1.68239658E-11
   18.0599995       2.43120177E-11
   18.2399998       3.35372667E-11
   18.4200001       4.41660562E-11
   18.6000004       5.57565348E-11
   18.7800007       6.77257000E-11
   18.9599991       7.93546201E-11
   19.1399994       8.98732685E-11
   19.3199997       9.86168022E-11
   19.5000000       1.05197247E-10
   19.6800003       1.09606706E-10
   19.8600006       1.12205897E-10
   20.0400009       1.13599491E-10
   20.2199993       1.14443767E-10
   20.3999996       1.15257810E-10
   20.5799999       1.16301052E-10
   20.7600002       1.17544016E-10
   20.9400005       1.18717577E-10
   21.1200008       1.19415353E-10
   21.2999992       1.19199234E-10
   21.4799995       1.17684196E-10
   21.6599998       1.14589359E-10
   21.8400002       1.09771164E-10
   22.0200005       1.03252171E-10
   22.2000008       9.52610837E-11
   22.3799992       8.62806146E-11
   22.5599995       7.70730146E-11
   22.7399998       6.86548804E-11
   22.9200001       6.21897880E-11
   23.1000004       5.87959681E-11
   23.2800007       5.92852920E-11
   23.4599991       6.38982339E-11
   23.6399994       7.21193938E-11
   23.8199997       8.26679766E-11
   24.0000000       9.37021016E-11
   24.1800003       1.03207304E-10
   24.3600006       1.09476858E-10
   24.5400009       1.11522340E-10
   24.7199993       1.09299493E-10
   24.8999996       1.03678253E-10
   25.0799999       9.61920960E-11
   25.2600002       8.86533763E-11
   25.4400005       8.27435620E-11
   25.6200008       7.96828645E-11
   25.7999992       8.00361236E-11
   25.9799995       8.36700501E-11
   26.1599998       8.98370892E-11
   26.3400002       9.73500516E-11
   26.5200005       1.04816579E-10
   26.7000008       1.10887480E-10
   26.8799992       1.14500201E-10
   27.0599995       1.15092408E-10
   27.2399998       1.12747034E-10
   27.4200001       1.08215562E-10
   27.6000004       1.02790276E-10
   27.7800007       9.80446488E-11
   27.9599991       9.54864451E-11
   28.1399994       9.62216001E-11
   28.3199997       1.00708435E-10
   28.5000000       1.08673702E-10
   28.6800003       1.19197721E-10
   28.8600006       1.30936761E-10
   29.0400009       1.42430401E-10
   29.2199993       1.52420687E-10
   29.3999996       1.60100933E-10
   29.5799999       1.65224154E-10
   29.7600002       1.68070405E-10
   29.9400005       1.69309178E-10
   30.1200008       1.69805850E-10
   30.2999992       1.70434319E-10
   30.4799995       1.71939518E-10
   30.6599998       1.74848414E-10
   30.8400002       1.79396262E-10
   31.0200005       1.85488583E-10
   31.2000008       1.92696761E-10
   31.3799992       2.00289896E-10
   31.5599995       2.07315456E-10
   31.7399998       2.12725781E-10
   31.9200001       2.15542223E-10
   32.0999985       2.15032908E-10
   32.2799988       2.10878426E-10
   32.4599991       2.03282738E-10
   32.6399994       1.92977023E-10
   32.8199997       1.81078874E-10
   33.0000000       1.68817627E-10
   33.1800003       1.57231173E-10
   33.3600006       1.46943041E-10
   33.5400009       1.38095965E-10
   33.7200012       1.30480321E-10
   33.9000015       1.23777280E-10
   34.0800018       1.17808360E-10
   34.2599983       1.12673655E-10
   34.4399986       1.08719492E-10
   34.6199989       1.06363127E-10
   34.7999992       1.05848198E-10
   34.9799995       1.07058334E-10
   35.1599998       1.09458789E-10
   35.3400002       1.12210061E-10
   35.5200005       1.14411376E-10
   35.7000008       1.15403152E-10
   35.8800011       1.15009835E-10
   36.0600014       1.13645725E-10
   36.2400017       1.12225056E-10
   36.4199982       1.11914464E-10
   36.5999985       1.13760307E-10
   36.7799988       1.18319743E-10
   36.9599991       1.25420382E-10
   37.1399994       1.34139103E-10
   37.3199997       1.43001527E-10
   37.5000000       1.50343502E-10
   37.6800003       1.54720251E-10
   37.8600006       1.55220753E-10
   38.0400009       1.51561833E-10
   38.2200012       1.44000922E-10
   38.4000015       1.33151282E-10
   38.5800018       1.19792690E-10
   38.7599983       1.04739994E-10
   38.9399986       8.87865892E-11
   39.1199989       7.26853161E-11
   39.2999992       5.71024963E-11
   39.4799995       4.25006627E-11
   39.6599998       2.90175748E-11
   39.8400002       1.64042599E-11
   40.0200005       4.08262139E-12
   40.2000008      -8.68979715E-12
   40.3800011      -2.25946276E-11
   40.5600014      -3.80319734E-11
   40.7400017      -5.50053128E-11
   40.9199982      -7.31176508E-11
   41.0999985      -9.16683951E-11
   41.2799988      -1.09785042E-10
   41.4599991      -1.26575195E-10
   41.6399994      -1.41299181E-10
   41.8199997      -1.53515839E-10
   42.0000000      -1.63170630E-10
   42.1800003      -1.70601380E-10
   42.3600006      -1.76475903E-10
   42.5400009      -1.81670873E-10
   42.7200012      -1.87143120E-10
   42.9000015      -1.93825650E-10
   43.0800018      -2.02538167E-10
   43.2599983      -2.13873558E-10
   43.4399986      -2.28043626E-10
   43.6199989      -2.44718273E-10
   43.7999992      -2.62981914E-10
   43.9799995      -2.81464907E-10
   44.1599998      -2.98643277E-10
   44.3400002      -3.13230691E-10
   44.5200005      -3.24516053E-10
   44.7000008      -3.32493699E-10
   44.8800011      -3.37724820E-10
   45.0600014      -3.41002976E-10
   45.2400017      -3.42945811E-10
   45.4199982      -3.43682749E-10
   45.5999985      -3.42737949E-10
   45.7799988      -3.39164030E-10
   45.9599991      -3.31875305E-10
   46.1399994      -3.20043242E-10
   46.3199997      -3.03395364E-10
   46.5000000      -2.82319501E-10
   46.6800003      -2.57745297E-10
   46.8600006      -2.30859401E-10
   47.0400009      -2.02750344E-10
   47.2200012      -1.74120274E-10
   47.4000015      -1.45189166E-10
   47.5800018      -1.15805428E-10
   47.7599983      -8.57160037E-11
   47.9399986      -5.49151800E-11
   48.1199989      -2.39307706E-11
   48.2999992       6.13478365E-12
   48.4799995       3.38427480E-11
   48.6599998       5.78196414E-11
   48.8400002       7.71629913E-11
   49.0200005       9.16831125E-11
   49.2000008       1.01902944E-10
   49.3800011       1.08816525E-10
   49.5600014       1.13557705E-10
   49.7400017       1.17159005E-10
   49.9199982       1.20424726E-10
   50.0999985       1.23891064E-10
   50.2799988       1.27824987E-10
   50.4599991       1.32242162E-10
   50.6399994       1.36917575E-10
   50.8199997       1.41409481E-10
   51.0000000       1.45155582E-10
   51.1800003       1.47628007E-10
   51.3600006       1.48489943E-10
   51.5400009       1.47703641E-10
   51.7200012       1.45560661E-10
   51.9000015       1.42651835E-10
   52.0800018       1.39759829E-10
   52.2599983       1.37706638E-10
   52.4399986       1.37196865E-10
   52.6199989       1.38689352E-10
   52.7999992       1.42292969E-10
   52.9799995       1.47736268E-10
   53.1599998       1.54410471E-10
   53.3400002       1.61493222E-10
   53.5200005       1.68100214E-10
   53.7000008       1.73414186E-10
   53.8800011       1.76761383E-10
   54.0600014       1.77624845E-10
   54.2400017       1.75640807E-10
   54.4199982       1.70631551E-10
   54.5999985       1.62710817E-10
   54.7799988       1.52428722E-10
   54.9599991       1.40827239E-10
   55.1399994       1.29347533E-10
   55.3199997       1.19541654E-10
   55.5000000       1.12672434E-10
   55.6800003       1.09379582E-10
   55.8600006       1.09521420E-10
   56.0400009       1.12288998E-10
   56.2200012       1.16522542E-10
   56.4000015       1.21127094E-10
   56.5800018       1.25389019E-10
   56.7599983       1.29137270E-10
   56.9399986       1.32723596E-10
   57.1199989       1.36827757E-10
   57.2999992       1.42190718E-10
   57.4799995       1.49359608E-10
   57.6599998       1.58547189E-10
   57.8400002       1.69612463E-10
   58.0200005       1.82167656E-10
   58.2000008       1.95760866E-10
   58.3800011       2.10069295E-10
   58.5600014       2.24996452E-10
   58.7400017       2.40625186E-10
   58.9199982       2.57036864E-10
   59.0999985       2.74092637E-10
   59.2799988       2.91253716E-10
   59.4599991       3.07519926E-10
   59.6399994       3.21584481E-10
   59.8199997       3.32181838E-10
   60.0000000       3.38478773E-10
   60.1800003       3.40348250E-10
   60.3600006       3.38479522E-10
   60.5400009       3.34224509E-10
   60.7200012       3.29250488E-10
   60.9000015       3.25068833E-10
   61.0800018       3.22624899E-10
   61.2599983       3.22014415E-10
   61.4399986       3.22422644E-10
   61.6199989       3.22261828E-10
   61.7999992       3.19566457E-10
   61.9799995       3.12476323E-10
   62.1599998       2.99727465E-10
   62.3400002       2.80972190E-10
   62.5200005       2.56896865E-10
   62.7000008       2.29029851E-10
   62.8800011       1.99360792E-10
   63.0600014       1.69879125E-10
   63.2400017       1.42124229E-10
   63.4199982       1.16916338E-10
   63.5999985       9.42394149E-11
   63.7799988       7.33551969E-11
   63.9599991       5.30565765E-11
   64.1399994       3.20183637E-11
   64.3199997       9.18773044E-12
   64.5000000      -1.58815409E-11
   64.6800003      -4.29008565E-11
   64.8600006      -7.08537742E-11
   65.0400009      -9.82087606E-11
   65.2200012      -1.23278263E-10
   65.4000015      -1.44599901E-10
   65.5800018      -1.61246572E-10
   65.7600021      -1.72992495E-10
   65.9400024      -1.80346821E-10
   66.1200027      -1.84416121E-10
   66.3000031      -1.86593394E-10
   66.4800034      -1.88256910E-10
   66.6600037      -1.90467753E-10
   66.8399963      -1.93788735E-10
   67.0199966      -1.98203093E-10
   67.1999969      -2.03204120E-10
   67.3799973      -2.07944689E-10
   67.5599976      -2.11434675E-10
   67.7399979      -2.12696194E-10
   67.9199982      -2.10901199E-10
   68.0999985      -2.05492234E-10
   68.2799988      -1.96268210E-10
   68.4599991      -1.83491736E-10
   68.6399994      -1.67989844E-10
   68.8199997      -1.51162249E-10
   69.0000000      -1.34840361E-10
   69.1800003      -1.20986457E-10
   69.3600006      -1.11291878E-10
   69.5400009      -1.06717080E-10
   69.7200012      -1.07222287E-10
   69.9000015      -1.11797419E-10
   70.0800018      -1.18726598E-10
   70.2600021      -1.26103766E-10
   70.4400024      -1.32406378E-10
   70.6200027      -1.36917408E-10
   70.8000031      -1.39882356E-10
   70.9800034      -1.42414955E-10
   71.1600037      -1.46228085E-10
   71.3399963      -1.53101490E-10
   71.5199966      -1.64384464E-10
   71.6999969      -1.80604684E-10
   71.8799973      -2.01282310E-10
   72.0599976      -2.24987973E-10
   72.2399979      -2.49681276E-10
   72.4199982      -2.73223194E-10
   72.5999985      -2.93857189E-10
   72.7799988      -3.10506870E-10
   72.9599991      -3.22831789E-10
   73.1399994      -3.31080774E-10
   73.3199997      -3.35805689E-10
   73.5000000      -3.37590123E-10
   73.6800003      -3.36841444E-10
   73.8600006      -3.33765182E-10
   74.0400009      -3.28395672E-10
   74.2200012      -3.20711985E-10
   74.4000015      -3.10797554E-10
   74.5800018      -2.99017505E-10
   74.7600021      -2.86101004E-10
   74.9400024      -2.73150558E-10
   75.1200027      -2.61494798E-10
   75.3000031      -2.52459997E-10
   75.4800034      -2.47016740E-10
   75.6600037      -2.45527459E-10
   75.8399963      -2.47659199E-10
   76.0199966      -2.52475374E-10
   76.1999969      -2.58686822E-10
   76.3799973      -2.65008016E-10
   76.5599976      -2.70464262E-10
   76.7399979      -2.74561512E-10
   76.9199982      -2.77315282E-10
   77.0999985      -2.79093748E-10
   77.2799988      -2.80468648E-10
   77.4599991      -2.82067120E-10
   77.6399994      -2.84399310E-10
   77.8199997      -2.87710883E-10
   78.0000000      -2.91893704E-10
   78.1800003      -2.96434544E-10
   78.3600006      -3.00475728E-10
   78.5400009      -3.02919134E-10
   78.7200012      -3.02601832E-10
   78.9000015      -2.98498698E-10
   79.0800018      -2.89879315E-10
   79.2600021      -2.76437789E-10
   79.4400024      -2.58458144E-10
   79.6200027      -2.36944631E-10
   79.8000031      -2.13632848E-10
   79.9800034      -1.90789121E-10
   80.1600037      -1.70852388E-10
   80.3399963      -1.55872329E-10
   80.5199966      -1.46905765E-10
   80.6999969      -1.43664219E-10
   80.8799973      -1.44491030E-10
   81.0599976      -1.46713156E-10
   81.2399979      -1.47242635E-10
   81.4199982      -1.43300496E-10
   81.5999985      -1.33061479E-10
   81.7799988      -1.16079327E-10
   81.9599991      -9.33945629E-11
   82.1399994      -6.73192890E-11
   82.3199997      -4.09573001E-11
   82.5000000      -1.75482979E-11
   82.6800003       1.91348958E-13
   82.8600006       1.06583258E-11
   83.0400009       1.36881470E-11
   83.2200012       1.05892014E-11
   83.4000015       3.80744091E-12
   83.5800018      -3.62382411E-12
   83.7600021      -8.73296487E-12
   83.9400024      -9.19762964E-12
   84.1200027      -3.73731037E-12
   84.3000031       7.71719407E-12
   84.4800034       2.40255402E-11
   84.6600037       4.30285391E-11
   84.8399963       6.18966198E-11
   85.0199966       7.76288617E-11
   85.1999969       8.76185582E-11
   85.3799973       9.01958230E-11
   85.5599976       8.48957363E-11
   85.7399979       7.24066709E-11
   85.9199982       5.42638365E-11
   86.0999985       3.24312452E-11
   86.2799988       8.89806458E-12
   86.4599991      -1.45480320E-11
   86.6399994      -3.63889439E-11
   86.8199997      -5.53922568E-11
   87.0000000      -7.07137127E-11
   87.1800003      -8.20967599E-11
   87.3600006      -9.00480801E-11
   87.5400009      -9.58814833E-11
   87.7200012      -1.01643999E-10
   87.9000015      -1.09850719E-10
   88.0800018      -1.22994795E-10
   88.2600021      -1.43020387E-10
   88.4400024      -1.70864586E-10
   88.6200027      -2.06073450E-10
   88.8000031      -2.46639570E-10
   88.9800034      -2.89178931E-10
   89.1600037      -3.29487132E-10
   89.3399963      -3.63358205E-10
   89.5199966      -3.87490706E-10
   89.6999969      -4.00196765E-10
   89.8799973      -4.01726347E-10
   90.0599976      -3.94063976E-10
   90.2399979      -3.80279308E-10
   90.4199982      -3.63709202E-10
   90.5999985      -3.47257167E-10
   90.7799988      -3.32961964E-10
   90.9599991      -3.21916660E-10
   91.1399994      -3.14349019E-10
   91.3199997      -3.09717307E-10
   91.5000000      -3.06788484E-10
   91.6800003      -3.03697706E-10
   91.8600006      -2.98046449E-10
   92.0400009      -2.87245477E-10
   92.2200012      -2.69068851E-10
   92.4000015      -2.42196985E-10
   92.5800018      -2.06591563E-10
   92.7600021      -1.63662056E-10
   92.9400024      -1.16118989E-10
   93.1200027      -6.74756154E-11
   93.3000031      -2.13758577E-11
   93.4800034       1.90553007E-11
   93.6600037       5.17628197E-11
   93.8399963       7.61452568E-11
   94.0199966       9.31525551E-11
   94.1999969       1.04979962E-10
   94.3799973       1.14522752E-10
   94.5599976       1.24791816E-10
   94.7399979       1.38371467E-10
   94.9199982       1.56984481E-10
   95.0999985       1.81338250E-10
   95.2799988       2.11154191E-10
   95.4599991       2.45253207E-10
   95.6399994       2.81661888E-10
   95.8199997       3.17835841E-10
   96.0000000       3.51047191E-10
   96.1800003       3.78932052E-10
   96.3600006       4.00082578E-10
   96.5400009       4.14516227E-10
   96.7200012       4.23846513E-10
   96.9000015       4.30979169E-10
   97.0800018       4.39386971E-10
   97.2600021       4.52223842E-10
   97.4400024       4.71564121E-10
   97.6200027       4.97960895E-10
   97.8000031       5.30434530E-10
   97.9800034       5.66799108E-10
   98.1600037       6.04164330E-10
   98.3399963       6.39473530E-10
   98.5199966       6.69892808E-10
   98.6999969       6.93050950E-10
   98.8799973       7.07191028E-10
   99.0599976       7.11300352E-10
   99.2399979       7.05196124E-10
   99.4199982       6.89614366E-10
   99.5999985       6.66293576E-10
   99.7799988       6.37973341E-10
   99.9599991       6.08171347E-10
   100.139999       5.80712145E-10
   100.320000       5.59096713E-10
   100.500000       5.45861967E-10
   100.680000       5.42056122E-10
   100.860001       5.47026979E-10
   101.040001       5.58709856E-10
   101.220001       5.74287673E-10
   101.400002       5.90968496E-10
   101.580002       6.06660167E-10
   101.760002       6.20363039E-10
   101.940002       6.32166541E-10
   102.120003       6.42958520E-10
   102.300003       6.54049648E-10
   102.480003       6.66854516E-10
   102.660004       6.82688850E-10
   102.839996       7.02595315E-10
   103.019997       7.27129801E-10
   103.199997       7.56137486E-10
   103.379997       7.88516585E-10
   103.559998       8.22113433E-10
   103.739998       8.53868531E-10
   103.919998       8.80239714E-10
   104.099998       8.97803221E-10
   104.279999       9.03932817E-10
   104.459999       8.97360408E-10
   104.639999       8.78433382E-10
   104.820000       8.49019688E-10
   105.000000       8.12098888E-10
   105.180000       7.71150366E-10
   105.360001       7.29503957E-10
   105.540001       6.89852564E-10
   105.720001       6.54034604E-10
   105.900002       6.23025853E-10
   106.080002       5.97027761E-10
   106.260002       5.75526460E-10
   106.440002       5.57348390E-10
   106.620003       5.40717415E-10
   106.800003       5.23405930E-10
   106.980003       5.03148245E-10
   107.160004       4.78252660E-10
   107.339996       4.48203308E-10
   107.519997       4.14051404E-10
   107.699997       3.78449216E-10
   107.879997       3.45194762E-10
   108.059998       3.18375770E-10
   108.239998       3.01394548E-10
   108.419998       2.96121128E-10
   108.599998       3.02439601E-10
   108.779999       3.18344878E-10
   108.959999       3.40499656E-10
   109.139999       3.65007830E-10
   109.320000       3.88188370E-10
   109.500000       4.07110429E-10
   109.680000       4.19816154E-10
   109.860001       4.25197072E-10
   110.040001       4.22742757E-10
   110.220001       4.12330475E-10
   110.400002       3.94156346E-10
   110.580002       3.68767517E-10
   110.760002       3.37215589E-10
   110.940002       3.01181968E-10
   111.120003       2.62817490E-10
   111.300003       2.24285507E-10
   111.480003       1.87209623E-10
   111.660004       1.52193980E-10
   111.839996       1.18600393E-10
   112.019997       8.48062731E-11
   112.199997       4.88576644E-11
   112.379997       9.24522785E-12
   112.559998      -3.45657877E-11
   112.739998      -8.20299731E-11
   112.919998      -1.31786873E-10
   113.099998      -1.82124510E-10
   113.279999      -2.31477698E-10
   113.459999      -2.78677803E-10
   113.639999      -3.22924243E-10
   113.820000      -3.63687275E-10
   114.000000      -4.00606853E-10
   114.180000      -4.33476560E-10
   114.360001      -4.62328870E-10
   114.540001      -4.87594853E-10
   114.720001      -5.10234466E-10
   114.900002      -5.31709898E-10
   115.080002      -5.53772028E-10
   115.260002      -5.78034620E-10
   115.440002      -6.05459682E-10
   115.620003      -6.35886122E-10
   115.800003      -6.67786715E-10
   115.980003      -6.98428648E-10
   116.160004      -7.24415194E-10
   116.339996      -7.42447770E-10
   116.519997      -7.50085993E-10
   116.699997      -7.46236961E-10
   116.879997      -7.31263772E-10
   117.059998      -7.06739167E-10
   117.239998      -6.74961698E-10
   117.419998      -6.38478992E-10
   117.599998      -5.99827243E-10
   117.779999      -5.61459379E-10
   117.959999      -5.25710697E-10
   118.139999      -4.94717212E-10
   118.320000      -4.70200434E-10
   118.500000      -4.53052235E-10
   118.680000      -4.42916787E-10
   118.860001      -4.38063585E-10
   119.040001      -4.35637554E-10
   119.220001      -4.32324981E-10
   119.400002      -4.25198043E-10
   119.580002      -4.12531342E-10