  -34.5000000         0.00000000    
  -34.3195000         0.00000000    
  -34.1389999         0.00000000    
  -33.9584999         6.62541782E-21
  -33.7779999         3.75607982E-20
  -33.5974998         1.14447029E-19
  -33.4169998         2.43703642E-19
  -33.2364998         3.95788604E-19
  -33.0559998         4.97797189E-19
  -32.8754997         4.48911952E-19
  -32.6949997         1.57782388E-19
  -32.5144997        -4.06983046E-19
  -32.3339996        -1.16411309E-18
  -32.1534996        -1.87534439E-18
  -31.9729996        -2.12303949E-18
  -31.7924995        -1.33009185E-18
  -31.6119995         1.15436446E-18
  -31.4314995         5.88924058E-18
  -31.2509995         1.31050522E-17
  -31.0704994         2.24359936E-17
  -30.8899994         3.26867500E-17
  -30.7094994         4.17172925E-17
  -30.5289993         4.65258125E-17
  -30.3484993         4.35792032E-17
  -30.1679993         2.93958582E-17
  -29.9874992         1.35511602E-18
  -29.8069992        -4.13159147E-17
  -29.6264992        -9.65158243E-17
  -29.4459991        -1.58531203E-16
  -29.2654991        -2.18068196E-16
  -29.0849991        -2.63385954E-16
  -28.9044991        -2.82371006E-16
  -28.7240009        -2.64908866E-16
  -28.5435009        -2.04876981E-16
  -28.3630009        -1.01435286E-16
  -28.1825008         4.04904248E-17
  -28.0020008         2.10690274E-16
  -27.8215008         3.94846341E-16
  -27.6410007         5.74937960E-16
  -27.4605007         7.27109917E-16
  -27.2800007         8.18546012E-16
  -27.0995007         8.10742085E-16
  -26.9190006         6.77594223E-16
  -26.7385006         4.34716817E-16
  -26.5580006         1.55336393E-16
  -26.3775005        -6.05138602E-17
  -26.1970005        -1.69438777E-16
  -26.0165005        -2.67968799E-16
  -25.8360004        -5.80426362E-16
  -25.6555004        -1.29214495E-15
  -25.4750004        -2.29564309E-15
  -25.2945004        -3.05484105E-15
  -25.1140003        -2.80283456E-15
  -24.9335003        -1.09111237E-15
  -24.7530003         1.61230180E-15
  -24.5725002         3.77894390E-15
  -24.3920002         3.47777922E-15
  -24.2115002        -3.39282223E-16
  -24.0310001        -6.67685960E-15
  -23.8505001        -1.23860408E-14
  -23.6700001        -1.35318689E-14
  -23.4895000        -7.70353511E-15
  -23.3090000         4.06434191E-15
  -23.1285000         1.70959336E-14
  -22.9480000         2.50207688E-14
  -22.7674999         2.29768986E-14
  -22.5869999         1.03641063E-14
  -22.4064999        -8.34128400E-15
  -22.2259998        -2.51178777E-14
  -22.0454998        -3.15022022E-14
  -21.8649998        -2.19333100E-14
  -21.6844997         3.77883590E-15
  -21.5039997         3.94611169E-14
  -21.3234997         7.33733685E-14
  -21.1429996         9.10675479E-14
  -20.9624996         8.02833345E-14
  -20.7819996         3.68454250E-14
  -20.6014996        -3.08711525E-14
  -20.4209995        -1.01962404E-13
  -20.2404995        -1.49264363E-13
  -20.0599995        -1.50437551E-13
  -19.8794994        -9.90204013E-14
  -19.6989994        -9.39493454E-15
  -19.5184994         8.79536719E-14
  -19.3379993         1.59326911E-13
  -19.1574993         1.82430270E-13
  -18.9769993         1.54955611E-13
  -18.7964993         9.26894737E-14
  -18.6159992         1.87474971E-14
  -18.4354992        -4.94970276E-14
  -18.2549992        -1.08359231E-13
  -18.0744991        -1.66723013E-13
  -17.8939991        -2.37203811E-13
  -17.7134991        -3.24687597E-13
  -17.5330009        -4.17761122E-13
  -17.3525009        -4.86411638E-13
  -17.1720009        -4.86803902E-13
  -16.9915009        -3.72379563E-13
  -16.8110008        -1.09684417E-13
  -16.6305008         3.04141667E-13
  -16.4500008         8.27739244E-13
  -16.2695007         1.37307169E-12
  -16.0890007         1.81980104E-12
  -15.9084997         2.04578498E-12
  -15.7279997         1.96429461E-12
  -15.5474997         1.55271455E-12
  -15.3669996         8.59362549E-13
  -15.1864996        -1.49436602E-14
  -15.0059996        -9.50994275E-13
  -14.8254995        -1.84340564E-12
  -14.6450005        -2.61569737E-12
  -14.4645004        -3.21452934E-12
  -14.2840004        -3.59263097E-12
  -14.1035004        -3.69650751E-12
  -13.9230003        -3.47064413E-12
  -13.7425003        -2.87818727E-12
  -13.5620003        -1.92694363E-12
  -13.3815002        -6.86110240E-13
  -13.2010002         7.15408960E-13
  -13.0205002         2.10891417E-12
  -12.8400002         3.31700271E-12
  -12.6595001         4.18767668E-12
  -12.4790001         4.62548359E-12
  -12.2985001         4.61469925E-12
  -12.1180000         4.22754713E-12
  -11.9375000         3.60869841E-12
  -11.7570000         2.93149164E-12
  -11.5764999         2.33378052E-12
  -11.3959999         1.85643211E-12
  -11.2154999         1.41470266E-12
  -11.0349998         8.23566584E-13
  -10.8544998        -1.26049304E-13
  -10.6739998        -1.56947816E-12
  -10.4934998        -3.49103819E-12
  -10.3129997        -5.70011443E-12
  -10.1324997        -7.86730056E-12
  -9.95199966        -9.60102831E-12
  -9.77149963        -1.05335124E-11
  -9.59099960        -1.03919529E-11
  -9.41049957        -9.04738784E-12
  -9.22999954        -6.54458822E-12
  -9.04950047        -3.11421158E-12
  -8.86900043         8.41050591E-13
  -8.68850040         4.79871785E-12
  -8.50800037         8.20863343E-12
  -8.32750034         1.06051201E-11
  -8.14700031         1.17032304E-11
  -7.96649981         1.14458018E-11
  -7.78599977         9.99081980E-12
  -7.60550022         7.65636339E-12
  -7.42500019         4.85381136E-12
  -7.24450016         2.03097717E-12
  -7.06400013        -3.75669195E-13
  -6.88350010        -1.99533228E-12
  -6.70300007        -2.59308590E-12
  -6.52250004        -2.14147883E-12
  -6.34200001        -8.58734091E-13
  -6.16149998         8.19113061E-13
  -5.98099995         2.33668792E-12
  -5.80049992         3.15705882E-12
  -5.61999989         2.88989362E-12
  -5.43949986         1.37284314E-12
  -5.25899982        -1.30012678E-12
  -5.07849979        -4.78482011E-12
  -4.89799976        -8.51008673E-12
  -4.71750021        -1.17231355E-11
  -4.53700018        -1.35827695E-11
  -4.35650015        -1.33199554E-11
  -4.17600012        -1.04485700E-11
  -3.99550009        -4.96459080E-12
  -3.81500006         2.54739567E-12
  -3.63450003         1.09581155E-11
  -3.45400000         1.87901621E-11
  -3.27349997         2.45143315E-11
  -3.09299994         2.68669947E-11
  -2.91249990         2.51202826E-11
  -2.73200011         1.92629350E-11
  -2.55150008         1.00682813E-11
  -2.37100005        -9.71211935E-13
  -2.19050002        -1.18622707E-11
  -2.00999999        -2.04776838E-11
  -1.82949996        -2.50168410E-11
  -1.64900005        -2.44479610E-11
  -1.46850002        -1.87965494E-11
  -1.28799999        -9.17938642E-12
  -1.10749996         2.43247414E-12
 -0.926999986         1.36449437E-11
 -0.746500015         2.21361367E-11
 -0.565999985         2.60929351E-11
 -0.385500014         2.45163837E-11
 -0.204999998         1.73777989E-11
  -2.44999994E-02     5.63172599E-12
  0.156000003        -8.91160236E-12
  0.336499989        -2.38605663E-11
  0.517000020        -3.66502870E-11
  0.697499990        -4.50268156E-11
  0.878000021        -4.75004411E-11
   1.05850005        -4.36500419E-11
   1.23899996        -3.41999797E-11
   1.41949999        -2.08640050E-11
   1.60000002        -6.01717114E-12
   1.78050005         7.71937722E-12
   1.96099997         1.79112610E-11
   2.14150000         2.27199318E-11
   2.32200003         2.12518302E-11
   2.50250006         1.37897202E-11
   2.68300009         1.82535020E-12
   2.86350012        -1.21715554E-11
   3.04399991        -2.52405857E-11
   3.22449994        -3.45684904E-11
   3.40499997        -3.80992043E-11
   3.58550000        -3.49436730E-11
   3.76600003        -2.54938275E-11
   3.94650006        -1.12589582E-11
   4.12699986         5.48192091E-12
   4.30749989         2.21029636E-11
   4.48799992         3.60600994E-11
   4.66849995         4.52960620E-11
   4.84899998         4.85960161E-11
   5.02950001         4.58368517E-11
   5.21000004         3.80478080E-11
   5.39050007         2.72225038E-11
   5.57100010         1.59014728E-11
   5.75150013         6.63414029E-12
   5.93200016         1.47592539E-12
   6.11250019         1.64435295E-12
   6.29300022         7.37384372E-12
   6.47349977         1.79317689E-11
   6.65399981         3.17372725E-11
   6.83449984         4.65614630E-11
   7.01499987         5.98317784E-11
   7.19549990         6.90590987E-11
   7.37599993         7.23400645E-11
   7.55649996         6.88028870E-11
   7.73699999         5.88357349E-11
   7.91750002         4.39989364E-11
   8.09799957         2.66474724E-11
   8.27849960         9.40801170E-12
   8.45899963        -5.31472219E-12
   8.63949966        -1.56901488E-11
   8.81999969        -2.06588184E-11
   9.00049973        -2.00263660E-11
   9.18099976        -1.44894756E-11
   9.36149979        -5.57203979E-12
   9.54199982         4.58822173E-12
   9.72249985         1.36232275E-11
   9.90299988         1.94155404E-11
   10.0834999         2.05246757E-11
   10.2639999         1.64081717E-11
   10.4445000         7.38613077E-12
   10.6250000        -5.57889152E-12
   10.8055000        -2.11418938E-11
   10.9860001        -3.77685452E-11
   11.1665001        -5.38516801E-11
   11.3470001        -6.78286802E-11
   11.5275002        -7.83728082E-11
   11.7080002        -8.46493708E-11
   11.8885002        -8.65294850E-11
   12.0690002        -8.46359371E-11
   12.2495003        -8.01699401E-11
   12.4300003        -7.45883841E-11
   12.6105003        -6.92774310E-11
   12.7910004        -6.53372634E-11
   12.9715004        -6.34977210E-11
   13.1520004        -6.40805742E-11
   13.3325005        -6.69297534E-11
   13.5129995        -7.13089657E-11
   13.6934996        -7.58719823E-11
   13.8739996        -7.88346402E-11
   14.0544996        -7.83897530E-11
   14.2349997        -7.32531535E-11
   14.4154997        -6.31279681E-11
   14.5959997        -4.88851980E-11
   14.7764997        -3.24013663E-11
   14.9569998        -1.61406496E-11
   15.1374998        -2.66019173E-12
   15.3179998         5.82500194E-12
   15.4984999         7.77845236E-12
   15.6789999         2.60691208E-12
   15.8594999        -9.13779816E-12
   16.0400009        -2.56934387E-11
   16.2205009        -4.42687519E-11
   16.4009991        -6.15446583E-11
   16.5814991        -7.43986400E-11
   16.7619991        -8.06259781E-11
   16.9424992        -7.93812863E-11
   17.1229992        -7.11962225E-11
   17.3034992        -5.76237114E-11
   17.4839993        -4.07207913E-11
   17.6644993        -2.25926569E-11
   17.8449993        -5.10918391E-12
   18.0254993         1.02563999E-11
   18.2059994         2.25806006E-11
   18.3864994         3.16692367E-11
   18.5669994         3.81986873E-11
   18.7474995         4.36542191E-11
   18.9279995         4.99875349E-11
   19.1084995         5.90579877E-11
   19.2889996         7.20802931E-11
   19.4694996         8.92739910E-11
   19.6499996         1.09843655E-10
   19.8304996         1.32182765E-10
   20.0109997         1.54147098E-10
   20.1914997         1.73316680E-10
   20.3719997         1.87226998E-10
   20.5524998         1.93728908E-10
   20.7329998         1.91487062E-10
   20.9134998         1.80536017E-10
   21.0939999         1.62616087E-10
   21.2744999         1.41044981E-10
   21.4549999         1.20070703E-10
   21.6355000         1.03897037E-10
   21.8160000         9.57187940E-11
   21.9965000         9.71148023E-11
   22.1770000         1.07867701E-10
   22.3575001         1.26152089E-10
   22.5380001         1.48911494E-10
   22.7185001         1.72308445E-10
   22.8990002         1.92305352E-10
   23.0795002         2.05393924E-10
   23.2600002         2.09425852E-10
   23.4405003         2.04314191E-10
   23.6210003         1.92247024E-10
   23.8015003         1.77294512E-10
   23.9820004         1.64400077E-10
   24.1625004         1.58129745E-10
   24.3430004         1.61624769E-10
   24.5235004         1.76002407E-10
   24.7040005         2.00288522E-10
   24.8845005         2.31713745E-10
   25.0650005         2.66207473E-10
   25.2455006         2.99037906E-10
   25.4260006         3.25577176E-10
   25.6065006         3.42245510E-10
   25.7870007         3.47387424E-10
   25.9675007         3.41810635E-10
   26.1480007         3.28669342E-10
   26.3285007         3.12646214E-10
   26.5090008         2.98668035E-10
   26.6895008         2.90632685E-10
   26.8700008         2.90580088E-10
   27.0505009         2.98468111E-10
   27.2310009         3.12449150E-10
   27.4115009         3.29389377E-10
   27.5919991         3.45438816E-10
   27.7724991         3.56628060E-10
   27.9529991         3.59547808E-10
   28.1334991         3.52109147E-10
   28.3139992         3.34208911E-10
   28.4944992         3.07979670E-10
   28.6749992         2.77426693E-10
   28.8554993         2.47487614E-10
   29.0359993         2.22825494E-10
   29.2164993         2.06802325E-10
   29.3969994         2.00951672E-10
   29.5774994         2.04932057E-10
   29.7579994         2.16812887E-10
   29.9384995         2.33432246E-10
   30.1189995         2.50807930E-10
   30.2994995         2.64627348E-10
   30.4799995         2.70955869E-10
   30.6604996         2.67105393E-10
   30.8409996         2.52352389E-10
   31.0214996         2.28192507E-10
   31.2019997         1.97944439E-10
   31.3824997         1.65854344E-10
   31.5629997         1.36017517E-10
   31.7434998         1.11627582E-10
   31.9239998         9.46279791E-11
   32.1044998         8.56798174E-11
   32.2849998         8.42679607E-11
   32.4654999         8.87310989E-11
   32.6459999         9.63390132E-11
   32.8264999         1.03567585E-10
   33.0070000         1.06750685E-10
   33.1875000         1.02944098E-10
   33.3680000         9.06817885E-11
   33.5485001         7.02917446E-11
   33.7290001         4.35880151E-11
   33.9095001         1.31977389E-11
   34.0900002        -1.82062074E-11
   34.2705002        -4.83909440E-11
   34.4510002        -7.57809093E-11
   34.6315002        -9.94926919E-11
   34.8120003        -1.19422014E-10
   34.9925003        -1.36388831E-10
   35.1730003        -1.52145435E-10
   35.3535004        -1.69069564E-10
   35.5340004        -1.89493796E-10
   35.7145004        -2.14938234E-10
   35.8950005        -2.45618359E-10
   36.0755005        -2.80481055E-10
   36.2560005        -3.17722515E-10
   36.4365005        -3.55464352E-10
   36.6170006        -3.92202881E-10
   36.7975006        -4.26813723E-10
   36.9780006        -4.58310195E-10
   37.1585007        -4.85610940E-10
   37.3390007        -5.07598352E-10
   37.5195007        -5.23451282E-10
   37.7000008        -5.32922262E-10
   37.8805008        -5.36451106E-10
   38.0610008        -5.34908173E-10
   38.2415009        -5.29307931E-10
   38.4220009        -5.20640531E-10
   38.6025009        -5.09996656E-10
   38.7830009        -4.98756259E-10
   38.9635010        -4.88621144E-10
   39.1440010        -4.81226115E-10
   39.3245010        -4.77513085E-10
   39.5050011        -4.77179740E-10
   39.6855011        -4.78598217E-10
   39.8660011        -4.79312867E-10
   40.0465012        -4.76826023E-10
   40.2270012        -4.69302819E-10
   40.4075012        -4.55877919E-10
   40.5880013        -4.36585851E-10
   40.7685013        -4.12098883E-10
   40.9490013        -3.83582943E-10
   41.1295013        -3.52676471E-10
   41.3100014        -3.21401267E-10
   41.4905014        -2.91825841E-10
   41.6710014        -2.65410582E-10
   41.8515015        -2.42407150E-10
   42.0320015        -2.21599475E-10
   42.2125015        -2.00694322E-10
   42.3930016        -1.77191983E-10
   42.5735016        -1.49324525E-10
   42.7540016        -1.16629192E-10
   42.9345016        -7.99675673E-11
   43.1150017        -4.11581359E-11
   43.2955017        -2.52454026E-12
   43.4760017         3.34168249E-11
   43.6565018         6.41566106E-11
   43.8370018         8.74900430E-11
   44.0175018         1.01986898E-10
   44.1980019         1.07549934E-10
   44.3785019         1.05693759E-10
   44.5589981         9.92583377E-11
   44.7394981         9.15598847E-11
   44.9199982         8.53002460E-11
   45.1004982         8.17713258E-11
   45.2809982         8.06322162E-11
   45.4614983         8.02890809E-11
   45.6419983         7.85588816E-11
   45.8224983         7.32386929E-11
   46.0029984         6.24453683E-11
   46.1834984         4.48506683E-11
   46.3639984         1.99809162E-11
   46.5444984        -1.13562024E-11
   46.7249985        -4.67286695E-11
   46.9054985        -8.21595986E-11
   47.0859985        -1.12816027E-10
   47.2664986        -1.34138436E-10
   47.4469986        -1.42983944E-10
   47.6274986        -1.38339326E-10
   47.8079987        -1.21386692E-10
   47.9884987        -9.50685988E-11
   48.1689987        -6.34877290E-11
   48.3494987        -3.13237630E-11
   48.5299988        -3.31895102E-12
   48.7104988         1.64027437E-11
   48.8909988         2.52033255E-11
   49.0714989         2.28222146E-11
   49.2519989         1.18276734E-11
   49.4324989        -2.73167014E-12
   49.6129990        -1.45383107E-11
   49.7934990        -1.77383212E-11
   49.9739990        -8.51797452E-12
   50.1544991         1.39573414E-11
   50.3349991         4.74502451E-11
   50.5154991         8.72309655E-11
   50.6959991         1.26980329E-10
   50.8764992         1.59832522E-10
   51.0569992         1.79548570E-10
   51.2374992         1.81804335E-10
   51.4179993         1.65496769E-10
   51.5984993         1.33566685E-10
   51.7789993         9.29285121E-11
   51.9594994         5.32386461E-11
   52.1399994         2.47414797E-11
   52.3204994         1.58908078E-11
   52.5009995         3.14674051E-11
   52.6814995         7.16744997E-11
   52.8619995         1.32277952E-10
   53.0424995         2.05523362E-10
   53.2229996         2.81462048E-10
   53.4034996         3.49575008E-10
   53.5839996         4.00587036E-10
   53.7644997         4.28372726E-10
   53.9449997         4.31479463E-10
   54.1254997         4.13783868E-10
   54.3059998         3.83753918E-10
   54.4864998         3.52416207E-10
   54.6669998         3.30558386E-10
   54.8474998         3.26131760E-10
   55.0279999         3.42568279E-10
   55.2084999         3.78363785E-10
   55.3889999         4.27739122E-10
   55.5695000         4.81899909E-10
   55.7500000         5.30606115E-10
   55.9305000         5.63826041E-10
   56.1110001         5.73539882E-10
   56.2915001         5.55411328E-10
   56.4720001         5.09938980E-10
   56.6525002         4.42629100E-10
   56.8330002         3.62855190E-10
   57.0135002         2.81791340E-10
   57.1940002         2.09967585E-10
   57.3745003         1.55313262E-10
   57.5550003         1.22039531E-10
   57.7355003         1.10415177E-10
   57.9160004         1.17080984E-10
   58.0965004         1.35685629E-10
   58.2770004         1.57763927E-10
   58.4575005         1.74036646E-10
   58.6380005         1.76245477E-10
   58.8185005         1.59084509E-10
   58.9990005         1.21692628E-10
   59.1795006         6.80620768E-11
   59.3600006         6.07026018E-12
   59.5405006        -5.44582573E-11
   59.7210007        -1.04006866E-10
   59.9015007        -1.35127243E-10
   60.0820007        -1.43520015E-10
   60.2625008        -1.28432848E-10
   60.4430008        -9.25842944E-11
   60.6235008        -4.18022388E-11
   60.8040009         1.57931879E-11
   60.9845009         7.11305737E-11
   61.1650009         1.16011138E-10
   61.3455009         1.44961668E-10
   61.5260010         1.56503172E-10
   61.7065010         1.53205129E-10
   61.8870010         1.40608733E-10
   62.0675011         1.25673319E-10
   62.2480011         1.15151513E-10
   62.4285011         1.14618717E-10
   62.6090012         1.27954827E-10
   62.7895012         1.57014776E-10
   62.9700012         2.01421227E-10
   63.1505013         2.58317839E-10
   63.3310013         3.22535609E-10
   63.5115013         3.87480131E-10
   63.6920013         4.46573195E-10
   63.8725014         4.94722041E-10
   64.0530014         5.29211119E-10
   64.2334976         5.49818691E-10
   64.4140015         5.58215751E-10
   64.5944977         5.57038971E-10
   64.7750015         5.49444823E-10
   64.9554977         5.38935896E-10
   65.1360016         5.29253197E-10
   65.3164978         5.24177035E-10
   65.4970016         5.26640287E-10
   65.6774979         5.37812295E-10
   65.8580017         5.56529878E-10
   66.0384979         5.79402915E-10
   66.2190018         6.01416195E-10
   66.3994980         6.16975138E-10
   66.5800018         6.20653362E-10
   66.7604980         6.07635886E-10
   66.9410019         5.74139181E-10
   67.1214981         5.17998255E-10
   67.3020020         4.39414644E-10
   67.4824982         3.41722317E-10
   67.6630020         2.31529088E-10
   67.8434982         1.17673857E-10
   68.0240021         9.44793722E-12
   68.2044983        -8.55225335E-11
   68.3850021        -1.62817482E-10
   68.5654984        -2.21800536E-10
   68.7460022        -2.65158978E-10
   68.9264984        -2.98245151E-10
   69.1070023        -3.27982003E-10
   69.2874985        -3.61943364E-10
   69.4680023        -4.07161777E-10
   69.6484985        -4.68865835E-10
   69.8290024        -5.48811385E-10
   70.0094986        -6.44377218E-10
   70.1900024        -7.48637763E-10
   70.3704987        -8.51752613E-10
   70.5510025        -9.43256584E-10
   70.7314987        -1.01440389E-09
   70.9120026        -1.05989317E-09
   71.0924988        -1.07856024E-09
   71.2730026        -1.07327847E-09
   71.4534988        -1.05041864E-09
   71.6340027        -1.01889530E-09
   71.8144989        -9.89072380E-10
   71.9950027        -9.70971747E-10
   72.1754990        -9.72049774E-10
   72.3560028        -9.95180827E-10
   72.5364990        -1.03745146E-09
   72.7170029        -1.09054321E-09
   72.8974991        -1.14255361E-09
   73.0780029        -1.18073229E-09
   73.2584991        -1.19405008E-09
   73.4390030        -1.17511789E-09
   73.6194992        -1.12101228E-09
   73.8000031        -1.03361908E-09
   73.9804993        -9.19325505E-10
   74.1610031        -7.88325349E-10
   74.3414993        -6.53262722E-10
   74.5220032        -5.27007715E-10
   74.7024994        -4.19974638E-10
   74.8830032        -3.37787742E-10
   75.0634995        -2.80010598E-10
   75.2440033        -2.40569509E-10
   75.4244995        -2.09534681E-10
   75.6050034        -1.75583881E-10
   75.7854996        -1.28587835E-10
   75.9660034        -6.13591539E-11
   76.1464996         2.90292044E-11
   76.3270035         1.40585363E-10
   76.5074997         2.66275446E-10
   76.6880035         3.94696054E-10
   76.8684998         5.12007103E-10
   77.0490036         6.04646722E-10
   77.2294998         6.62621458E-10
   77.4100037         6.82055301E-10
   77.5904999         6.66163347E-10
   77.7710037         6.24333696E-10
   77.9514999         5.69838676E-10
   78.1320038         5.17016485E-10
   78.3125000         4.78650786E-10
   78.4929962         4.64079303E-10
   78.6735001         4.77934137E-10
   78.8539963         5.19346621E-10
   79.0345001         5.81932558E-10
   79.2149963         6.54638066E-10
   79.3955002         7.23751836E-10
   79.5759964         7.75749964E-10
   79.7565002         8.00263689E-10
   79.9369965         7.92144794E-10
   80.1175003         7.52179707E-10
   80.2979965         6.86191604E-10
   80.4785004         6.03383066E-10
   80.6589966         5.14377707E-10
   80.8395004         4.29571850E-10
   81.0199966         3.57717439E-10
   81.2005005         3.04643255E-10
   81.3809967         2.72051659E-10
   81.5615005         2.56893423E-10
   81.7419968         2.51703963E-10
   81.9225006         2.46228982E-10
   82.1029968         2.29968336E-10
   82.2835007         1.94837396E-10
   82.4639969         1.36939599E-10
   82.6445007         5.69892571E-11
   82.8249969        -4.03636048E-11
   83.0055008        -1.47846027E-10
   83.1859970        -2.56777183E-10
   83.3665009        -3.58199997E-10
   83.5469971        -4.43955955E-10
   83.7275009        -5.07905829E-10
   83.9079971        -5.47226209E-10
   84.0885010        -5.63128766E-10
   84.2689972        -5.60599067E-10
   84.4495010        -5.47033807E-10
   84.6299973        -5.30228250E-10
   84.8105011        -5.16512222E-10
   84.9909973        -5.09757458E-10
   85.1715012        -5.11323595E-10
   85.3519974        -5.20536114E-10
   85.5325012        -5.35186673E-10
   85.7129974        -5.51724000E-10
   85.8935013        -5.65484271E-10
   86.0739975        -5.71276138E-10
   86.2545013        -5.64526648E-10
   86.4349976        -5.42587142E-10
   86.6155014        -5.05568420E-10
   86.7959976        -4.56256449E-10
   86.9765015        -3.99065558E-10
   87.1569977        -3.38733069E-10
   87.3375015        -2.79444357E-10
   87.5179977        -2.24596106E-10
   87.6985016        -1.77119305E-10
   87.8789978        -1.39636955E-10
   88.0595016        -1.14169452E-10
   88.2399979        -1.01394497E-10
   88.4205017        -1.00039886E-10
   88.6009979        -1.06974651E-10
   88.7815018        -1.17952495E-10
   88.9619980        -1.28770244E-10
   89.1425018        -1.36184966E-10
   89.3229980        -1.38116477E-10
   89.5035019        -1.33455483E-10
   89.6839981        -1.21809562E-10
   89.8645020        -1.03632693E-10
   90.0449982        -8.06131481E-11
   90.2255020        -5.58918259E-11
   90.4059982        -3.35388106E-11
   90.5865021        -1.73881430E-11
   90.7669983        -9.70781094E-12
   90.9475021        -1.04486324E-11
   91.1279984        -1.74686376E-11
   91.3085022        -2.75643952E-11
   91.4889984        -3.76702836E-11
   91.6695023        -4.55388158E-11
   91.8499985        -4.98256436E-11
   92.0305023        -4.98160506E-11
   92.2109985        -4.53743883E-11
   92.3915024        -3.72862678E-11
   92.5719986        -2.77336938E-11
   92.7525024        -2.03449427E-11
   92.9329987        -1.94646695E-11
   93.1135025        -2.87829014E-11
   93.2939987        -5.00188883E-11
   93.4745026        -8.22535304E-11
   93.6549988        -1.22256746E-10
   93.8355026        -1.65413558E-10
   94.0159988        -2.06684836E-10
   94.1965027        -2.41190318E-10
   94.3769989        -2.64468392E-10
   94.5575027        -2.72777745E-10
   94.7379990        -2.63783828E-10
   94.9185028        -2.37457942E-10
   95.0989990        -1.96636277E-10
   95.2795029        -1.46657922E-10
   95.4599991        -9.38879044E-11
   95.6405029        -4.38014972E-11
   95.8209991         6.60290507E-13
   96.0015030         3.96730530E-11
   96.1819992         7.59531535E-11
   96.3625031         1.13595786E-10
   96.5429993         1.56888780E-10
   96.7235031         2.09547019E-10
   96.9039993         2.74201467E-10
   97.0845032         3.51781576E-10
   97.2649994         4.40744385E-10
   97.4455032         5.36563294E-10
   97.6259995         6.31988628E-10
   97.8065033         7.18516302E-10
   97.9869995         7.88718424E-10
   98.1675034         8.38483727E-10
   98.3479996         8.68242089E-10
   98.5285034         8.82614704E-10
   98.7089996         8.88837448E-10
   98.8895035         8.94768870E-10
   99.0699997         9.07169229E-10
   99.2505035         9.30734656E-10
   99.4309998         9.67531166E-10
   99.6115036         1.01658315E-09
   99.7919998         1.07369702E-09
   99.9725037         1.13187337E-09
   100.153000         1.18261390E-09
   100.333504         1.21822086E-09
   100.514000         1.23423460E-09
   100.694504         1.23092680E-09
   100.875000         1.21328325E-09
   101.055496         1.18938592E-09
   101.236000         1.16812660E-09
   101.416496         1.15710064E-09
   101.597000         1.16146992E-09
   101.777496         1.18357657E-09
   101.958000         1.22289345E-09
   102.138496         1.27604327E-09
   102.319000         1.33676903E-09
   102.499496         1.39649792E-09
   102.680000         1.44572065E-09
   102.860497         1.47597556E-09
   103.041000         1.48175539E-09
   103.221497         1.46144885E-09
   103.402000         1.41702428E-09
   103.582497         1.35274936E-09
   103.763000         1.27383015E-09
   103.943497         1.18552823E-09
   104.124001         1.09287090E-09
   104.304497         1.00060793E-09
   104.485001         9.12652676E-10
   104.665497         8.31184233E-10
   104.846001         7.55790264E-10
   105.026497         6.83382628E-10
   105.207001         6.09204465E-10
   105.387497         5.28645905E-10
   105.568001         4.38913822E-10
   105.748497         3.39804102E-10
   105.929001         2.33370184E-10
   106.109497         1.22935620E-10
   106.290001         1.22677172E-11
   106.470497        -9.48264037E-11
   106.651001        -1.94493102E-10
   106.831497        -2.82923185E-10
   107.012001        -3.57047281E-10
   107.192497        -4.15418644E-10
   107.373001        -4.58846960E-10
   107.553497        -4.90203989E-10
   107.734001        -5.13312393E-10
   107.914497        -5.31540645E-10
   108.095001        -5.46995227E-10
   108.275497        -5.60682056E-10
   108.456001        -5.73480707E-10
   108.636497        -5.87016324E-10
   108.817001        -6.03816885E-10
   108.997498        -6.26531271E-10
   109.178001        -6.56818488E-10
   109.358498        -6.94580837E-10
   109.539001        -7.38022199E-10
   109.719498        -7.84226573E-10
   109.900002        -8.29783131E-10
   110.080498        -8.70913730E-10
   110.261002        -9.03288999E-10
   110.441498        -9.22147858E-10
   110.622002        -9.23149668E-10
   110.802498        -9.03897901E-10
   110.983002        -8.65455096E-10
   111.163498        -8.12863887E-10
   111.344002        -7.54151241E-10
   111.524498        -6.98315294E-10