  -34.5000000         0.00000000    
  -34.3199997         0.00000000    
  -34.1399994         0.00000000    
  -33.9599991         0.00000000    
  -33.7799988         5.20782342E-22
  -33.5999985         1.23734854E-20
  -33.4199982        -3.14109850E-20
  -33.2400017        -7.70728896E-19
  -33.0600014        -2.97563812E-18
  -32.8800011        -8.19875108E-19
  -32.7000008         2.38784808E-17
  -32.5200005         7.00922874E-17
  -32.3400002         5.56566358E-17
  -32.1599998        -1.43838384E-16
  -31.9799995        -4.90666493E-16
  -31.7999992        -6.80361904E-16
  -31.6200008        -3.66908679E-16
  -31.4400005         7.32881599E-16
  -31.2600002         3.28845803E-15
  -31.0799999         7.90886860E-15
  -30.8999996         1.12117245E-14
  -30.7199993         7.63198285E-16
  -30.5400009        -3.86602574E-14
  -30.3600006        -9.56816684E-14
  -30.1800003        -9.85328559E-14
  -30.0000000         6.01878844E-14
  -29.8199997         3.90141912E-13
  -29.6399994         6.37267962E-13
  -29.4599991         3.17187791E-13
  -29.2800007        -8.60698557E-13
  -29.1000004        -2.36137390E-12
  -28.9200001        -2.63800158E-12
  -28.7399998        -4.96203183E-14
  -28.5599995         5.28174423E-12
  -28.3799992         1.00682344E-11
  -28.2000008         8.78245220E-12
  -28.0200005        -2.44244100E-12
  -27.8400002        -2.08808318E-11
  -27.6599998        -3.52651033E-11
  -27.4799995        -3.02279035E-11
  -27.2999992         3.32000031E-12
  -27.1200008         5.74539444E-11
  -26.9400005         1.04379450E-10
  -26.7600002         1.06939936E-10
  -26.5799999         4.01391004E-11
  -26.3999996        -8.73076750E-11
  -26.2199993        -2.25792274E-10
  -26.0400009        -3.00849901E-10
  -25.8600006        -2.48526727E-10
  -25.6800003        -5.33913469E-11
  -25.5000000         2.32071459E-10
  -25.3199997         5.00368746E-10
  -25.1399994         6.31611319E-10
  -24.9599991         5.47177081E-10
  -24.7800007         2.48895654E-10
  -24.6000004        -1.75761183E-10
  -24.4200001        -5.86336923E-10
  -24.2399998        -8.46324844E-10
  -24.0599995        -8.79701312E-10
  -23.8799992        -7.02078340E-10
  -23.7000008        -4.11623846E-10
  -23.5200005        -1.41306189E-10
  -23.3400002         9.11649228E-12
  -23.1599998         3.15414500E-11
  -22.9799995         2.77322661E-11
  -22.7999992         1.69329328E-10
  -22.6200008         6.06441564E-10
  -22.4400005         1.36005840E-09
  -22.2600002         2.25153074E-09
  -22.0799999         2.91639157E-09
  -21.8999996         2.91613067E-09
  -21.7199993         1.91243532E-09
  -21.5400009        -1.71399103E-10
  -21.3600006        -3.08276182E-09
  -21.1800003        -6.30874242E-09
  -21.0000000        -9.25854771E-09
  -20.8199997        -1.14754002E-08
  -20.6399994        -1.27741320E-08
  -20.4599991        -1.32363995E-08
  -20.2800007        -1.30703190E-08
  -20.1000004        -1.24147421E-08
  -19.9200001        -1.11993073E-08
  -19.7399998        -9.14197074E-09
  -19.5599995        -5.89220361E-09
  -19.3799992        -1.25061050E-09
  -19.2000008         4.64488226E-09
  -19.0200005         1.12611520E-08
  -18.8400002         1.77752106E-08
  -18.6599998         2.33045725E-08
  -18.4799995         2.71717173E-08
  -18.2999992         2.90989792E-08
  -18.1200008         2.92576363E-08
  -17.9400005         2.81496195E-08
  -17.7600002         2.63635478E-08
  -17.5799999         2.42996077E-08
  -17.3999996         2.19811191E-08
  -17.2199993         1.90484961E-08
  -17.0400009         1.49610297E-08
  -16.8600006         9.33516109E-09
  -16.6800003         2.26820607E-09
  -16.5000000        -5.51859269E-09
  -16.3199997        -1.28132207E-08
  -16.1399994        -1.82868334E-08
  -15.9600000        -2.09478639E-08
  -15.7799997        -2.04682316E-08
  -15.6000004        -1.72366690E-08
  -15.4200001        -1.21361881E-08
  -15.2399998        -6.18251406E-09
  -15.0600004        -2.16020438E-10
  -14.8800001         5.21817611E-09
  -14.6999998         9.79618342E-09
  -14.5200005         1.32566269E-08
  -14.3400002         1.52979176E-08
  -14.1599998         1.56101052E-08
  -13.9799995         1.40159298E-08
  -13.8000002         1.06213198E-08
  -13.6199999         5.87410520E-09
  -13.4399996         4.90336549E-10
  -13.2600002        -4.71859440E-09
  -13.0799999        -9.04485287E-09
  -12.8999996        -1.20438237E-08
  -12.7200003        -1.36229117E-08
  -12.5400000        -1.40543053E-08
  -12.3599997        -1.39127350E-08
  -12.1800003        -1.39389584E-08
  -12.0000000        -1.48443329E-08
  -11.8199997        -1.71027192E-08
  -11.6400003        -2.07992663E-08
  -11.4600000        -2.55928114E-08
  -11.2799997        -3.07975263E-08
  -11.1000004        -3.55317908E-08
  -10.9200001        -3.88615220E-08
  -10.7399998        -3.98993087E-08
  -10.5600004        -3.78826535E-08
  -10.3800001        -3.22916058E-08
  -10.1999998        -2.30390391E-08
  -10.0200005        -1.06865752E-08
  -9.84000015         3.43547457E-09
  -9.65999985         1.73307946E-08
  -9.47999954         2.87026616E-08
  -9.30000019         3.54900500E-08
  -9.11999989         3.63864956E-08
  -8.93999958         3.11582546E-08
  -8.76000023         2.06771062E-08
  -8.57999992         6.70849998E-09
  -8.39999962        -8.43098302E-09
  -8.22000027        -2.22442278E-08
  -8.03999996        -3.24122560E-08
  -7.86000013        -3.71490287E-08
  -7.67999983        -3.55481475E-08
  -7.50000000        -2.78563803E-08
  -7.32000017        -1.55577737E-08
  -7.13999987        -1.16750176E-09
  -6.96000004         1.22711015E-08
  -6.78000021         2.18689529E-08
  -6.59999990         2.55553338E-08
  -6.42000008         2.25359038E-08
  -6.23999977         1.34434313E-08
  -6.05999994         1.85231497E-10
  -5.88000011        -1.44388075E-08
  -5.69999981        -2.72556164E-08
  -5.51999998        -3.52910199E-08
  -5.34000015        -3.63102401E-08
  -5.15999985        -2.92293336E-08
  -4.98000002        -1.43011034E-08
  -4.80000019         6.97677560E-09
  -4.61999989         3.21972955E-08
  -4.44000006         5.85027635E-08
  -4.26000023         8.30181435E-08
  -4.07999992         1.03166556E-07
  -3.90000010         1.16877594E-07
  -3.72000003         1.22771979E-07
  -3.53999996         1.20386247E-07
  -3.35999990         1.10398190E-07
  -3.18000007         9.47072962E-08
  -3.00000000         7.62105401E-08
  -2.81999993         5.82280393E-08
  -2.64000010         4.37172183E-08
  -2.46000004         3.45505455E-08
  -2.27999997         3.11248343E-08
  -2.09999990         3.24192513E-08
  -1.91999996         3.64170631E-08
  -1.74000001         4.06740099E-08
  -1.55999994         4.28219735E-08
  -1.38000000         4.09103862E-08
  -1.20000005         3.36098331E-08
  -1.01999998         2.03454000E-08
 -0.839999974         1.38333645E-09
 -0.660000026        -2.21721308E-08
 -0.479999989        -4.85287757E-08
 -0.300000012        -7.54994005E-08
 -0.119999997        -1.00854265E-07
   5.99999987E-02    -1.22626844E-07
  0.239999995        -1.39329032E-07
  0.419999987        -1.50123427E-07
  0.600000024        -1.55029269E-07
  0.779999971        -1.55157167E-07
  0.959999979        -1.52832399E-07
   1.13999999        -1.51390751E-07
   1.32000005        -1.54515277E-07
   1.50000000        -1.65217656E-07
   1.67999995        -1.84813715E-07
   1.86000001        -2.12333191E-07
   2.03999996        -2.44652000E-07
   2.22000003        -2.77313632E-07
   2.40000010        -3.05697540E-07
   2.57999992        -3.26075480E-07
   2.75999999        -3.36219074E-07
   2.94000006        -3.35482582E-07
   3.11999989        -3.24512058E-07
   3.29999995        -3.04811891E-07
   3.48000002        -2.78338632E-07
   3.66000009        -2.47179258E-07
   3.83999991        -2.13313811E-07
   4.01999998        -1.78470913E-07
   4.19999981        -1.44109862E-07
   4.38000011        -1.11523072E-07
   4.55999994        -8.19646075E-08
   4.73999977        -5.66490144E-08
   4.92000008        -3.65094053E-08
   5.09999990        -2.17700489E-08
   5.28000021        -1.15775238E-08
   5.46000004        -3.99448608E-09
   5.63999987         3.50156149E-09
   5.82000017         1.31666171E-08
   6.00000000         2.61731099E-08
   6.17999983         4.22391473E-08
   6.36000013         5.98872347E-08
   6.53999996         7.71661632E-08
   6.71999979         9.24274275E-08
   6.90000010         1.04772504E-07
   7.07999992         1.14041249E-07
   7.26000023         1.20507693E-07
   7.44000006         1.24594450E-07
   7.61999989         1.26835033E-07
   7.80000019         1.28067427E-07
   7.98000002         1.29632184E-07
   8.15999985         1.33334069E-07
   8.34000015         1.41090723E-07
   8.52000046         1.54397739E-07
   8.69999981         1.73855554E-07
   8.88000011         1.98955021E-07
   9.06000042         2.28163856E-07
   9.23999977         2.59223498E-07
   9.42000008         2.89543578E-07
   9.60000038         3.16626199E-07
   9.77999973         3.38489940E-07
   9.96000004         3.54028941E-07
   10.1400003         3.63172717E-07
   10.3199997         3.66705223E-07
   10.5000000         3.65717142E-07
   10.6800003         3.60887668E-07
   10.8599997         3.51962626E-07
   11.0400000         3.37759559E-07
   11.2200003         3.16758644E-07
   11.3999996         2.87993771E-07
   11.5799999         2.51761577E-07
   11.7600002         2.09752926E-07
   11.9399996         1.64556809E-07
   12.1199999         1.18858672E-07
   12.3000002         7.48021662E-08
   12.4799995         3.38137376E-08
   12.6599998        -3.16100635E-09
   12.8400002        -3.53366261E-08
   13.0200005        -6.20199287E-08
   13.1999998        -8.28919937E-08
   13.3800001        -9.84142332E-08
   13.5600004        -1.09998751E-07
   13.7399998        -1.19729989E-07
   13.9200001        -1.29728392E-07
   14.1000004        -1.41487973E-07
   14.2799997        -1.55524020E-07
   14.4600000        -1.71421050E-07
   14.6400003        -1.88105361E-07
   14.8199997        -2.04072478E-07
   15.0000000        -2.17411738E-07
   15.1800003        -2.25716036E-07
   15.3599997        -2.26113386E-07
   15.5400000        -2.15608139E-07
   15.7200003        -1.91683284E-07
   15.8999996        -1.52902132E-07
   16.0799999        -9.92139704E-08
   16.2600002        -3.18387734E-08
   16.4400005         4.71649848E-08
   16.6200008         1.35439251E-07
   16.7999992         2.30813868E-07
   16.9799995         3.31738164E-07
   17.1599998         4.37737697E-07
   17.3400002         5.49858498E-07
   17.5200005         6.70881775E-07
   17.7000008         8.05020761E-07
   17.8799992         9.56945883E-07
   18.0599995         1.13034264E-06
   18.2399998         1.32653884E-06
   18.4200001         1.54380143E-06
   18.6000004         1.77760091E-06
   18.7800007         2.02165120E-06
   18.9599991         2.26921475E-06
   19.1399994         2.51409938E-06
   19.3199997         2.75111051E-06
   19.5000000         2.97613974E-06
   19.6800003         3.18626121E-06
   19.8600006         3.38002837E-06
   20.0400009         3.55780821E-06
   20.2199993         3.72173236E-06
   20.3999996         3.87497403E-06
   20.5799999         4.02038177E-06
   20.7600002         4.15896511E-06
   20.9400005         4.28893463E-06
   21.1200008         4.40578424E-06
   21.2999992         4.50336665E-06
   21.4799995         4.57553415E-06
   21.6599998         4.61767740E-06
   21.8400002         4.62771550E-06
   22.0200005         4.60638785E-06
   22.2000008         4.55698591E-06
   22.3799992         4.48470473E-06
   22.5599995         4.39577525E-06
   22.7399998         4.29648117E-06
   22.9200001         4.19221169E-06
   23.1000004         4.08674077E-06
   23.2800007         3.98195971E-06
   23.4599991         3.87812952E-06
   23.6399994         3.77443234E-06
   23.8199997         3.66940935E-06
   24.0000000         3.56106420E-06
   24.1800003         3.44670752E-06
   24.3600006         3.32283139E-06
   24.5400009         3.18538969E-06
   24.7199993         3.03067986E-06
   24.8999996         2.85653437E-06
   25.0799999         2.66325355E-06
   25.2600002         2.45376214E-06
   25.4400005         2.23291022E-06
   25.6200008         2.00626209E-06
   25.7999992         1.77891843E-06
   25.9799995         1.55484190E-06
   26.1599998         1.33674007E-06
   26.3400002         1.12623832E-06
   26.5200005         9.23996083E-07
   26.7000008         7.29664691E-07
   26.8799992         5.41830502E-07
   27.0599995         3.58209775E-07
   27.2399998         1.76267406E-07
   27.4200001        -5.88397642E-09
   27.6000004        -1.88702302E-07
   27.7800007        -3.70905354E-07
   27.9599991        -5.49722472E-07
   28.1399994        -7.21580761E-07
   28.3199997        -8.82927168E-07
   28.5000000        -1.03088894E-06
   28.6800003        -1.16368244E-06
   28.8600006        -1.28077102E-06
   29.0400009        -1.38280870E-06
   29.2199993        -1.47129958E-06
   29.3999996        -1.54799579E-06
   29.5799999        -1.61417302E-06
   29.7600002        -1.67006522E-06
   29.9400005        -1.71475995E-06
   30.1200008        -1.74670390E-06
   30.2999992        -1.76463982E-06
   30.4799995        -1.76847323E-06
   30.6599998        -1.75959144E-06
   30.8400002        -1.74049478E-06
   31.0200005        -1.71390923E-06
   31.2000008        -1.68187705E-06
   31.3799992        -1.64528558E-06
   31.5599995        -1.60391949E-06
   31.7399998        -1.55680129E-06
   31.9200001        -1.50246763E-06
   32.0999985        -1.43902389E-06
   32.2799988        -1.36408516E-06
   32.4599991        -1.27482633E-06
   32.6399994        -1.16836895E-06
   32.8199997        -1.04241917E-06
   33.0000000        -8.95823007E-07
   33.1800003        -7.28659643E-07
   33.3600006        -5.41860686E-07
   33.5400009        -3.36548254E-07
   33.7200012        -1.13545383E-07
   33.9000015         1.26675687E-07
   34.0800018         3.83658687E-07
   34.2599983         6.56547513E-07
   34.4399986         9.43876955E-07
   34.6199989         1.24368046E-06
   34.7999992         1.55379530E-06
   34.9799995         1.87215210E-06
   35.1599998         2.19686603E-06
   35.3400002         2.52620839E-06
   35.5200005         2.85862370E-06
   35.7000008         3.19278206E-06
   35.8800011         3.52752386E-06
   36.0600014         3.86156353E-06
   36.2400017         4.19295748E-06
   36.4199982         4.51853657E-06
   36.5999985         4.83372560E-06
   36.7799988         5.13310852E-06
   36.9599991         5.41162854E-06
   37.1399994         5.66583549E-06
   37.3199997         5.89465208E-06
   37.5000000         6.09932931E-06
   37.6800003         6.28275575E-06
   37.8600006         6.44854799E-06
   38.0400009         6.60043224E-06
   38.2200012         6.74201783E-06
   38.4000015         6.87673173E-06
   38.5800018         7.00745659E-06
   38.7599983         7.13576628E-06
   38.9399986         7.26107010E-06
   39.1199989         7.38022754E-06
   39.2999992         7.48807224E-06
   39.4799995         7.57880707E-06
   39.6599998         7.64768174E-06
   39.8400002         7.69230883E-06
   40.0200005         7.71311261E-06
   40.2000008         7.71285704E-06
   40.3800011         7.69565304E-06
   40.5600014         7.66589073E-06
   40.7400017         7.62730588E-06
   40.9199982         7.58224269E-06
   41.0999985         7.53107361E-06
   41.2799988         7.47184731E-06
   41.4599991         7.40040150E-06
   41.6399994         7.31100818E-06
   41.8199997         7.19750642E-06
   42.0000000         7.05451703E-06
   42.1800003         6.87830470E-06
   42.3600006         6.66701408E-06
   42.5400009         6.42057967E-06
   42.7200012         6.14072042E-06
   42.9000015         5.83124211E-06
   43.0800018         5.49851802E-06
   43.2599983         5.15166357E-06
   43.4399986         4.80176277E-06
   43.6199989         4.46004879E-06
   43.7999992         4.13559428E-06
   43.9799995         3.83339693E-06
   44.1599998         3.55356883E-06
   44.3400002         3.29191380E-06
   44.5200005         3.04155583E-06
   44.7000008         2.79483015E-06
   44.8800011         2.54482302E-06
   45.0600014         2.28649651E-06
   45.2400017         2.01761304E-06
   45.4199982         1.73953231E-06
   45.5999985         1.45765932E-06
   45.7799988         1.18117021E-06
   45.9599991         9.21611900E-07
   46.1399994         6.90495028E-07
   46.3199997         4.96490713E-07
   46.5000000         3.43173781E-07
   46.6800003         2.28048222E-07
   46.8600006         1.43028473E-07
   47.0400009         7.59684724E-08
   47.2200012         1.26320945E-08
   47.4000015        -6.13089597E-08
   47.5800018        -1.58328945E-07
   47.7599983        -2.87309604E-07
   47.9399986        -4.52298593E-07
   48.1199989        -6.52027722E-07
   48.2999992        -8.80589198E-07
   48.4799995        -1.12939574E-06
   48.6599998        -1.38984615E-06
   48.8400002        -1.65563040E-06
   49.0200005        -1.92394759E-06
   49.2000008        -2.19550907E-06
   49.3800011        -2.47364210E-06
   49.5600014        -2.76305127E-06
   49.7400017        -3.06884272E-06
   49.9199982        -3.39591429E-06
   50.0999985        -3.74832166E-06
   50.2799988        -4.12838472E-06
   50.4599991        -4.53576513E-06
   50.6399994        -4.96706753E-06
   50.8199997        -5.41635382E-06
   51.0000000        -5.87650948E-06
   51.1800003        -6.34095886E-06
   51.3600006        -6.80492485E-06
   51.5400009        -7.26570943E-06
   51.7200012        -7.72217027E-06
   51.9000015        -8.17408727E-06
   52.0800018        -8.62199704E-06
   52.2599983        -9.06767127E-06
   52.4399986        -9.51471520E-06
   52.6199989        -9.96844756E-06
   52.7999992        -1.04346818E-05
   52.9799995        -1.09177909E-05
   53.1599998        -1.14188870E-05
   53.3400002        -1.19349515E-05
   53.5200005        -1.24593689E-05
   53.7000008        -1.29836371E-05
   53.8800011        -1.34994143E-05
   54.0600014        -1.40001603E-05
   54.2400017        -1.44821606E-05
   54.4199982        -1.49449834E-05
   54.5999985        -1.53914480E-05
   54.7799988        -1.58271196E-05
   54.9599991        -1.62593024E-05
   55.1399994        -1.66955433E-05
   55.3199997        -1.71419342E-05
   55.5000000        -1.76018693E-05
   55.6800003        -1.80758543E-05
   55.8600006        -1.85622321E-05
   56.0400009        -1.90583723E-05
   56.2200012        -1.95616703E-05
   56.4000015        -2.00698796E-05
   56.5800018        -2.05808956E-05
   56.7599983        -2.10926755E-05
   56.9399986        -2.16038334E-05
   57.1199989        -2.21148475E-05
   57.2999992        -2.26291759E-05
   57.4799995        -2.31534395E-05
   57.6599998        -2.36962132E-05
   57.8400002        -2.42656934E-05
   58.0200005        -2.48673259E-05
   58.2000008        -2.55025552E-05
   58.3800011        -2.61691239E-05
   58.5600014        -2.68625809E-05
   58.7400017        -2.75779967E-05
   58.9199982        -2.83111676E-05
   59.0999985        -2.90588760E-05
   59.2799988        -2.98185078E-05
   59.4599991        -3.05875874E-05
   59.6399994        -3.13636883E-05
   59.8199997        -3.21445914E-05
   60.0000000        -3.29284485E-05
   60.1800003        -3.37138808E-05
   60.3600006        -3.44998916E-05
   60.5400009        -3.52859424E-05
   60.7200012        -3.60721315E-05
   60.9000015        -3.68592919E-05
   61.0800018        -3.76486278E-05
   61.2599983        -3.84407613E-05
   61.4399986        -3.92345319E-05
   61.6199989        -4.00262397E-05
   61.7999992        -4.08099368E-05
   61.9799995        -4.15788672E-05
   62.1599998        -4.23273923E-05
   62.3400002        -4.30523614E-05
   62.5200005        -4.37533454E-05
   62.7000008        -4.44316865E-05
   62.8800011        -4.50890439E-05
   63.0600014        -4.57263486E-05
   63.2400017        -4.63436591E-05
   63.4199982        -4.69405277E-05
   63.5999985        -4.75164743E-05
   63.7799988        -4.80710150E-05
   63.9599991        -4.86031931E-05
   64.1399994        -4.91112587E-05
   64.3199997        -4.95931490E-05
   64.5000000        -5.00476563E-05
   64.6800003        -5.04757809E-05
   64.8600006        -5.08814519E-05
   65.0400009        -5.12714942E-05
   65.2200012        -5.16543769E-05
   65.4000015        -5.20384710E-05
   65.5800018        -5.24306670E-05
   65.7600021        -5.28357559E-05
   65.9400024        -5.32560261E-05
   66.1200027        -5.36910193E-05
   66.3000031        -5.41373556E-05
   66.4800034        -5.45889889E-05
   66.6600037        -5.50377990E-05
   66.8399963        -5.54748294E-05
   67.0199966        -5.58919746E-05
   67.1999969        -5.62834612E-05
   67.3799973        -5.66463968E-05
   67.5599976        -5.69805052E-05
   67.7399979        -5.72874815E-05
   67.9199982        -5.75704653E-05
   68.0999985        -5.78337313E-05
   68.2799988        -5.80822561E-05
   68.4599991        -5.83208930E-05
   68.6399994        -5.85530252E-05
   68.8199997        -5.87790055E-05
   69.0000000        -5.89952651E-05
   69.1800003        -5.91947100E-05
   69.3600006        -5.93685763E-05
   69.5400009        -5.95090096E-05
   69.7200012        -5.96110585E-05
   69.9000015        -5.96736027E-05
   70.0800018        -5.96992468E-05
   70.2600021        -5.96935497E-05
   70.4400024        -5.96643185E-05
   70.6200027        -5.96211576E-05
   70.8000031        -5.95750680E-05
   70.9800034        -5.95374149E-05
   71.1600037        -5.95179044E-05
   71.3399963        -5.95223646E-05
   71.5199966        -5.95511774E-05
   71.6999969        -5.95989732E-05
   71.8799973        -5.96558239E-05
   72.0599976        -5.97095859E-05
   72.2399979        -5.97484177E-05
   72.4199982        -5.97628350E-05
   72.5999985        -5.97470862E-05
   72.7799988        -5.96997052E-05
   72.9599991        -5.96234895E-05
   73.1399994        -5.95248566E-05
   73.3199997        -5.94122503E-05
   73.5000000        -5.92939068E-05
   73.6800003        -5.91753815E-05
   73.8600006        -5.90578493E-05
   74.0400009        -5.89379451E-05
   74.2200012        -5.88089642E-05
   74.4000015        -5.86628121E-05
   74.5800018        -5.84919107E-05
   74.7600021        -5.82901266E-05
   74.9400024        -5.80529595E-05
   75.1200027        -5.77774917E-05
   75.3000031        -5.74628539E-05
   75.4800034        -5.71110577E-05
   75.6600037        -5.67277821E-05
   75.8399963        -5.63223148E-05
   76.0199966        -5.59059845E-05
   76.1999969        -5.54896287E-05
   76.3799973        -5.50810582E-05
   76.5599976        -5.46835399E-05
   76.7399979        -5.42957714E-05
   76.9199982        -5.39131106E-05
   77.0999985        -5.35294348E-05
   77.2799988        -5.31388068E-05
   77.4599991        -5.27366610E-05
   77.6399994        -5.23206691E-05
   77.8199997        -5.18914494E-05
   78.0000000        -5.14526982E-05
   78.1800003        -5.10105274E-05
   78.3600006        -5.05719872E-05
   78.5400009        -5.01431605E-05
   78.7200012        -4.97274195E-05
   78.9000015        -4.93246043E-05
   79.0800018        -4.89314625E-05
   79.2600021        -4.85427990E-05
   79.4400024        -4.81524294E-05
   79.6200027        -4.77534268E-05
   79.8000031        -4.73378386E-05
   79.9800034        -4.68965954E-05
   80.1600037        -4.64203149E-05
   80.3399963        -4.59010589E-05
   80.5199966        -4.53343418E-05
   80.6999969        -4.47204584E-05
   80.8799973        -4.40643744E-05
   81.0599976        -4.33739660E-05
   81.2399979        -4.26576698E-05
   81.4199982        -4.19226744E-05
   81.5999985        -4.11743385E-05
   81.7799988        -4.04163948E-05
   81.9599991        -3.96515643E-05
   82.1399994        -3.88819753E-05
   82.3199997        -3.81093560E-05
   82.5000000        -3.73348666E-05
   82.6800003        -3.65590786E-05
   82.8600006        -3.57823556E-05
   83.0400009        -3.50050468E-05
   83.2200012        -3.42271160E-05
   83.4000015        -3.34475662E-05
   83.5800018        -3.26640547E-05
   83.7600021        -3.18730745E-05
   83.9400024        -3.10709547E-05
   84.1200027        -3.02551816E-05
   84.3000031        -2.94253041E-05
   84.4800034        -2.85827773E-05
   84.6600037        -2.77298750E-05
   84.8399963        -2.68685162E-05
   85.0199966        -2.59999470E-05
   85.1999969        -2.51254842E-05
   85.3799973        -2.42477890E-05
   85.5599976        -2.33716346E-05
   85.7399979        -2.25034819E-05
   85.9199982        -2.16499757E-05
   86.0999985        -2.08161418E-05
   86.2799988        -2.00041795E-05
   86.4599991        -1.92134903E-05
   86.6399994        -1.84417877E-05
   86.8199997        -1.76862904E-05
   87.0000000        -1.69442374E-05
   87.1800003        -1.62128599E-05
   87.3600006        -1.54893278E-05
   87.5400009        -1.47709925E-05
   87.7200012        -1.40560169E-05
   87.9000015        -1.33440535E-05
   88.0800018        -1.26364112E-05
   88.2600021        -1.19352762E-05
   88.4400024        -1.12425141E-05
   88.6200027        -1.05588952E-05
   88.8000031        -9.88420197E-06
   88.9800034        -9.21795436E-06
   89.1600037        -8.56014776E-06
   89.3399963        -7.91140701E-06
   89.5199966        -7.27226643E-06
   89.6999969        -6.64212621E-06
   89.8799973        -6.01886131E-06
   90.0599976        -5.39954135E-06
   90.2399979        -4.78183983E-06
   90.4199982        -4.16537750E-06
   90.5999985        -3.55223460E-06
   90.7799988        -2.94637721E-06
   90.9599991        -2.35253833E-06
   91.1399994        -1.77524566E-06
   91.3199997        -1.21836331E-06
   91.5000000        -6.84921702E-07
   91.6800003        -1.76702514E-07
   91.8600006         3.06717624E-07
   92.0400009         7.69165354E-07
   92.2200012         1.21852361E-06
   92.4000015         1.66602013E-06
   92.5800018         2.12410851E-06
   92.7600021         2.60386014E-06
   92.9400024         3.11284134E-06
   93.1200027         3.65413871E-06
   93.3000031         4.22668700E-06
   93.4800034         4.82623182E-06
   93.6600037         5.44610702E-06
   93.8399963         6.07774655E-06
   94.0199966         6.71133557E-06
   94.1999969         7.33711158E-06
   94.3799973         7.94730477E-06
   94.5599976         8.53814981E-06
   94.7399979         9.11101324E-06
   94.9199982         9.67193137E-06
   95.0999985         1.02296117E-05
   95.2799988         1.07929718E-05
   95.4599991         1.13692422E-05
   95.6399994         1.19631313E-05
   95.8199997         1.25768693E-05
   96.0000000         1.32104688E-05
   96.1800003         1.38615651E-05
   96.3600006         1.45249360E-05
   96.5400009         1.51923905E-05
   96.7200012         1.58536186E-05
   96.9000015         1.64978755E-05
   97.0800018         1.71158663E-05
   97.2600021         1.77009661E-05
   97.4400024         1.82493259E-05
   97.6200027         1.87591268E-05
   97.8000031         1.92298594E-05
   97.9800034         1.96622568E-05
   98.1600037         2.00587037E-05
   98.3399963         2.04235148E-05
   98.5199966         2.07624398E-05
   98.6999969         2.10811395E-05
   98.8799973         2.13832318E-05
   99.0599976         2.16691114E-05
   99.2399979         2.19361045E-05
   99.4199982         2.21797709E-05
   99.5999985         2.23955522E-05
   99.7799988         2.25799922E-05
   99.9599991         2.27312576E-05
   100.139999         2.28491281E-05
   100.320000         2.29351335E-05
   100.500000         2.29930738E-05
   100.680000         2.30294390E-05
   100.860001         2.30528112E-05
   101.040001         2.30722471E-05
   101.220001         2.30950773E-05
   101.400002         2.31249724E-05
   101.580002         2.31612303E-05
   101.760002         2.31996019E-05
   101.940002         2.32339298E-05
   102.120003         2.32575203E-05
   102.300003         2.32636012E-05
   102.480003         2.32450529E-05
   102.660004         2.31942013E-05
   102.839996         2.31034501E-05
   103.019997         2.29667548E-05
   103.199997         2.27812707E-05
   103.379997         2.25482381E-05
   103.559998         2.22726339E-05
   103.739998         2.19617887E-05
   103.919998         2.16236767E-05
   104.099998         2.12656414E-05
   104.279999         2.08937981E-05
   104.459999         2.05127199E-05
   104.639999         2.01247622E-05
   104.820000         1.97293557E-05
   105.000000         1.93225933E-05
   105.180000         1.88976173E-05
   105.360001         1.84461333E-05
   105.540001         1.79607014E-05
   105.720001         1.74366705E-05
   105.900002         1.68730749E-05
   106.080002         1.62724045E-05
   106.260002         1.56399747E-05
   106.440002         1.49833586E-05
   106.620003         1.43120878E-05
   106.800003         1.36373073E-05
   106.980003         1.29705804E-05
   107.160004         1.23215177E-05
   107.339996         1.16948650E-05
   107.519997         1.10883993E-05
   107.699997         1.04926849E-05
   107.879997         9.89306318E-06
   108.059998         9.27307792E-06
   108.239998         8.61793433E-06
   108.419998         7.91651746E-06
   108.599998         7.16192471E-06
   108.779999         6.35094648E-06
   108.959999         5.48330627E-06
   109.139999         4.56121097E-06
   109.320000         3.58910916E-06
   109.500000         2.57326360E-06
   109.680000         1.52077735E-06
   109.860001         4.38289618E-07
   110.040001        -6.69195060E-07
   110.220001        -1.79878748E-06
   110.400002        -2.94954884E-06
   110.580002        -4.12205964E-06
   110.760002        -5.31816568E-06
   110.940002        -6.54089990E-06
   111.120003        -7.79397760E-06