  -34.5000000         0.00000000    
  -34.3195000         0.00000000    
  -34.1389999         0.00000000    
  -33.9584999         4.67409909E-28
  -33.7779999        -5.64419920E-24
  -33.5974998        -3.58587390E-23
  -33.4169998        -1.12296862E-22
  -33.2364998        -2.16882349E-22
  -33.0559998        -2.39415397E-22
  -32.8754997         4.26815338E-23
  -32.6949997         9.08812595E-22
  -32.5144997         2.48591463E-21
  -32.3339996         4.41627650E-21
  -32.1534996         5.88520669E-21
  -31.9729996         6.46310221E-21
  -31.7924995         6.65067995E-21
  -31.6119995         6.15553198E-21
  -31.4314995         1.82258868E-21
  -31.2509995        -8.60939598E-21
  -31.0704994        -1.91063729E-20
  -30.8899994        -2.32716699E-20
  -30.7094994        -4.62204809E-20
  -30.5289993        -1.54718020E-19
  -30.3484993        -3.70801778E-19
  -30.1679993        -5.10449227E-19
  -29.9874992        -1.44044198E-19
  -29.8069992         1.11129161E-18
  -29.6264992         3.06505738E-18
  -29.4459991         4.67483977E-18
  -29.2654991         4.46965845E-18
  -29.0849991         1.56205800E-18
  -28.9044991        -3.44018213E-18
  -28.7240009        -8.29961759E-18
  -28.5435009        -9.99791369E-18
  -28.3630009        -6.48338002E-18
  -28.1825008         8.63598790E-19
  -28.0020008         5.07243323E-18
  -27.8215008        -5.38399784E-18
  -27.6410007        -3.88282318E-17
  -27.4605007        -8.63459298E-17
  -27.2800007        -1.10570271E-16
  -27.0995007        -5.28465312E-17
  -26.9190006         1.31219684E-16
  -26.7385006         4.18524114E-16
  -26.5580006         6.82745243E-16
  -26.3775005         7.18295798E-16
  -26.1970005         3.40100484E-16
  -26.0165005        -4.76508019E-16
  -25.8360004        -1.49773986E-15
  -25.6555004        -2.26016914E-15
  -25.4750004        -2.25494803E-15
  -25.2945004        -1.20294836E-15
  -25.1140003         7.18705762E-16
  -24.9335003         2.84208649E-15
  -24.7530003         4.22624971E-15
  -24.5725002         4.05625867E-15
  -24.3920002         2.04534168E-15
  -24.2115002        -1.35758862E-15
  -24.0310001        -5.07055056E-15
  -23.8505001        -7.76450539E-15
  -23.6700001        -8.37473333E-15
  -23.4895000        -6.52008058E-15
  -23.3090000        -2.64676281E-15
  -23.1285000         2.17548554E-15
  -22.9480000         6.73345750E-15
  -22.7674999         1.02306876E-14
  -22.5869999         1.26737178E-14
  -22.4064999         1.48725162E-14
  -22.2259998         1.79842493E-14
  -22.0454998         2.27328193E-14
  -21.8649998         2.86203454E-14
  -21.6844997         3.35198178E-14
  -21.5039997         3.39400783E-14
  -21.3234997         2.59986057E-14
  -21.1429996         6.82515136E-15
  -20.9624996        -2.41021684E-14
  -20.7819996        -6.41967287E-14
  -20.6014996        -1.07870283E-13
  -20.4209995        -1.47454965E-13
  -20.2404995        -1.74599782E-13
  -20.0599995        -1.81706660E-13
  -19.8794994        -1.63098959E-13
  -19.6989994        -1.15852491E-13
  -19.5184994        -4.03941949E-14
  -19.3379993         5.90380880E-14
  -19.1574993         1.74153023E-13
  -18.9769993         2.92845284E-13
  -18.7964993         4.00197670E-13
  -18.6159992         4.80301671E-13
  -18.4354992         5.18577856E-13
  -18.2549992         5.03980213E-13
  -18.0744991         4.30444715E-13
  -17.8939991         2.97247903E-13
  -17.7134991         1.08436128E-13
  -17.5330009        -1.28101807E-13
  -17.3525009        -4.01228963E-13
  -17.1720009        -6.96374815E-13
  -16.9915009        -9.94619317E-13
  -16.8110008        -1.27161237E-12
  -16.6305008        -1.49722932E-12
  -16.4500008        -1.63690144E-12
  -16.2695007        -1.65523433E-12
  -16.0890007        -1.52188960E-12
  -15.9084997        -1.21886138E-12
  -15.7279997        -7.47439708E-13
  -15.5474997        -1.32711062E-13
  -15.3669996         5.76343823E-13
  -15.1864996         1.31206265E-12
  -15.0059996         1.99793827E-12
  -14.8254995         2.56084932E-12
  -14.6450005         2.94258910E-12
  -14.4645004         3.10788027E-12
  -14.2840004         3.04734103E-12
  -14.1035004         2.77556797E-12
  -13.9230003         2.32587560E-12
  -13.7425003         1.74370967E-12
  -13.5620003         1.08038123E-12
  -13.3815002         3.87981124E-13
  -13.2010002        -2.84445915E-13
  -13.0205002        -8.93743304E-13
  -12.8400002        -1.40486526E-12
  -12.6595001        -1.79277285E-12
  -12.4790001        -2.04421311E-12
  -12.2985001        -2.15943431E-12
  -12.1180000        -2.15348702E-12
  -11.9375000        -2.05626878E-12
  -11.7570000        -1.91010662E-12
  -11.5764999        -1.76390760E-12
  -11.3959999        -1.66390003E-12
  -11.2154999        -1.64247338E-12
  -11.0349998        -1.70792493E-12
  -10.8544998        -1.83836822E-12
  -10.6739998        -1.98226266E-12
  -10.4934998        -2.06635165E-12
  -10.3129997        -2.00976432E-12
  -10.1324997        -1.74146364E-12
  -9.95199966        -1.21739240E-12
  -9.77149963        -4.33707405E-13
  -9.59099960         5.66805988E-13
  -9.41049957         1.69673943E-12
  -9.22999954         2.83443126E-12
  -9.04950047         3.84081916E-12
  -8.86900043         4.57943839E-12
  -8.68850040         4.93565258E-12
  -8.50800037         4.83183632E-12
  -8.32750034         4.23684785E-12
  -8.14700031         3.16997253E-12
  -7.96649981         1.70071585E-12
  -7.78599977        -5.42446235E-14
  -7.60550022        -1.93670557E-12
  -7.42500019        -3.75619197E-12
  -7.24450016        -5.30436242E-12
  -7.06400013        -6.37527618E-12
  -6.88350010        -6.79044277E-12
  -6.70300007        -6.42546866E-12
  -6.52250004        -5.23369716E-12
  -6.34200001        -3.26192740E-12
  -6.16149998        -6.54216373E-13
  -5.98099995         2.35852180E-12
  -5.80049992         5.48308794E-12
  -5.61999989         8.40021108E-12
  -5.43949986         1.08073507E-11
  -5.25899982         1.24610114E-11
  -5.07849979         1.32106851E-11
  -4.89799976         1.30174664E-11
  -4.71750021         1.19532630E-11
  -4.53700018         1.01807217E-11
  -4.35650015         7.91830664E-12
  -4.17600012         5.39816065E-12
  -3.99550009         2.82554839E-12
  -3.81500006         3.47817342E-13
  -3.63450003        -1.96162943E-12
  -3.45400000        -4.10209323E-12
  -3.27349997        -6.12818173E-12
  -3.09299994        -8.12049646E-12
  -2.91249990        -1.01510302E-11
  -2.73200011        -1.22510569E-11
  -2.55150008        -1.43887844E-11
  -2.37100005        -1.64615179E-11
  -2.19050002        -1.83033987E-11
  -2.00999999        -1.97060319E-11
  -1.82949996        -2.04469358E-11
  -1.64900005        -2.03205057E-11
  -1.46850002        -1.91674801E-11
  -1.28799999        -1.69005730E-11
  -1.10749996        -1.35248809E-11
 -0.926999986        -9.15101935E-12
 -0.746500015        -3.99800635E-12
 -0.565999985         1.61739838E-12
 -0.385500014         7.30669431E-12
 -0.204999998         1.26496435E-11
  -2.44999994E-02     1.72431930E-11
  0.156000003         2.07514318E-11
  0.336499989         2.29479734E-11
  0.517000020         2.37432608E-11
  0.697499990         2.31920507E-11
  0.878000021         2.14797225E-11
   1.05850005         1.88895826E-11
   1.23899996         1.57569079E-11
   1.41949999         1.24180102E-11
   1.60000002         9.16411391E-12
   1.78050005         6.20851504E-12
   1.96099997         3.67227429E-12
   2.14150000         1.58874053E-12
   2.32200003        -7.72629167E-14
   2.50250006        -1.40245964E-12
   2.68300009        -2.47722004E-12
   2.86350012        -3.38182130E-12
   3.04399991        -4.16944387E-12
   3.22449994        -4.85673264E-12
   3.40499997        -5.42191552E-12
   3.58550000        -5.81018090E-12
   3.76600003        -5.94547068E-12
   3.94650006        -5.74691770E-12
   4.12699986        -5.14715007E-12
   4.30749989        -4.10925764E-12
   4.48799992        -2.63974801E-12
   4.66849995        -7.95857575E-13
   4.84899998         1.31357035E-12
   5.02950001         3.53422261E-12
   5.21000004         5.67986283E-12
   5.39050007         7.55322194E-12
   5.57100010         8.97238447E-12
   5.75150013         9.79837479E-12
   5.93200016         9.95776985E-12
   6.11250019         9.45421519E-12
   6.29300022         8.36544549E-12
   6.47349977         6.82665643E-12
   6.65399981         5.00538586E-12
   6.83449984         3.07508814E-12
   7.01499987         1.19365455E-12
   7.19549990        -5.09949992E-13
   7.37599993        -1.94130194E-12
   7.55649996        -3.04120444E-12
   7.73699999        -3.78468958E-12
   7.91750002        -4.18033707E-12
   8.09799957        -4.27050019E-12
   8.27849960        -4.13136712E-12
   8.45899963        -3.87153721E-12
   8.63949966        -3.62748590E-12
   8.81999969        -3.55490182E-12
   9.00049973        -3.81559498E-12
   9.18099976        -4.56097356E-12
   9.36149979        -5.91451324E-12
   9.54199982        -7.95640723E-12
   9.72249985        -1.07136765E-11
   9.90299988        -1.41571000E-11
   10.0834999        -1.82043651E-11
   10.2639999        -2.27268204E-11
   10.4445000        -2.75574424E-11
   10.6250000        -3.24985108E-11
   10.8055000        -3.73295700E-11
   10.9860001        -4.18168208E-11
   11.1665001        -4.57247643E-11
   11.3470001        -4.88285558E-11
   11.5275002        -5.09248858E-11
   11.7080002        -5.18390886E-11
   11.8885002        -5.14289930E-11
   12.0690002        -4.95879136E-11
   12.2495003        -4.62510412E-11
   12.4300003        -4.14072006E-11
   12.6105003        -3.51150081E-11
   12.7910004        -2.75183435E-11
   12.9715004        -1.88552438E-11
   13.1520004        -9.45459770E-12
   13.3325005         2.80669937E-13
   13.5129995         9.90204706E-12
   13.6934996         1.89506397E-11
   13.8739996         2.69941361E-11
   14.0544996         3.36599845E-11
   14.2349997         3.86615497E-11
   14.4154997         4.18143575E-11
   14.5959997         4.30411783E-11
   14.7764997         4.23671966E-11
   14.9569998         3.99066162E-11
   15.1374998         3.58445842E-11
   15.3179998         3.04168184E-11
   15.4984999         2.38887243E-11
   15.6789999         1.65340797E-11
   15.8594999         8.61383014E-12
   16.0400009         3.56818308E-13
   16.2205009        -8.05388568E-12
   16.4009991        -1.64846140E-11
   16.5814991        -2.48427997E-11
   16.7619991        -3.30589375E-11
   16.9424992        -4.10656925E-11
   17.1229992        -4.87813713E-11
   17.3034992        -5.61051205E-11
   17.4839993        -6.29238744E-11
   17.6644993        -6.91279603E-11
   17.8449993        -7.46256251E-11
   18.0254993        -7.93501237E-11
   18.2059994        -8.32555136E-11
   18.3864994        -8.63002100E-11
   18.5669994        -8.84248300E-11
   18.7474995        -8.95305774E-11
   18.9279995        -8.94652824E-11
   19.1084995        -8.80252260E-11
   19.2889996        -8.49744927E-11
   19.4694996        -8.00821978E-11
   19.6499996        -7.31715175E-11
   19.8304996        -6.41693990E-11
   20.0109997        -5.31440517E-11
   20.1914997        -4.03207016E-11
   20.3719997        -2.60706352E-11
   20.5524998        -1.08778299E-11
   20.7329998         4.70694620E-12
   20.9134998         2.01129096E-11
   21.0939999         3.47862780E-11
   21.2744999         4.82151125E-11
   21.4549999         5.99436403E-11
   21.6355000         6.95786970E-11
   21.8160000         7.67976099E-11
   21.9965000         8.13560053E-11
   22.1770000         8.30998534E-11
   22.3575001         8.19768281E-11
   22.5380001         7.80464790E-11
   22.7185001         7.14842907E-11
   22.8990002         6.25769714E-11
   23.0795002         5.17059381E-11
   23.2600002         3.93190341E-11
   23.4405003         2.58956554E-11
   23.6210003         1.19127052E-11
   23.8015003        -2.18111770E-12
   23.9820004        -1.59745221E-11
   24.1625004        -2.90892501E-11
   24.3430004        -4.11652622E-11
   24.5235004        -5.18472036E-11
   24.7040005        -6.07769113E-11
   24.8845005        -6.76013759E-11
   25.0650005        -7.19916210E-11
   25.2455006        -7.36726999E-11
   25.4260006        -7.24583032E-11
   25.6065006        -6.82857382E-11
   25.7870007        -6.12433299E-11
   25.9675007        -5.15848995E-11
   26.1480007        -3.97238249E-11
   26.3285007        -2.62043338E-11
   26.5090008        -1.16504775E-11
   26.6895008         3.29716072E-12
   26.8700008         1.80456761E-11
   27.0505009         3.21022653E-11
   27.2310009         4.51065747E-11
   27.4115009         5.68397343E-11
   27.5919991         6.72126660E-11
   27.7724991         7.62401461E-11
   27.9529991         8.40083836E-11
   28.1334991         9.06424380E-11
   28.3139992         9.62802407E-11
   28.4944992         1.01058037E-10
   28.6749992         1.05107437E-10
   28.8554993         1.08562749E-10
   29.0359993         1.11571204E-10
   29.2164993         1.14298716E-10
   29.3969994         1.16922472E-10
   29.5774994         1.19612639E-10
   29.7579994         1.22504312E-10
   29.9384995         1.25671501E-10
   30.1189995         1.29111583E-10
   30.2994995         1.32745800E-10
   30.4799995         1.36436237E-10
   30.6604996         1.40016415E-10
   30.8409996         1.43323159E-10
   31.0214996         1.46229334E-10
   31.2019997         1.48664220E-10
   31.3824997         1.50621515E-10
   31.5629997         1.52148322E-10
   31.7434998         1.53317720E-10
   31.9239998         1.54190355E-10
   32.1044998         1.54772611E-10
   32.2849998         1.54986468E-10
   32.4654999         1.54657787E-10
   32.6459999         1.53531368E-10
   32.8264999         1.51305510E-10
   33.0070000         1.47679799E-10
   33.1875000         1.42403575E-10
   33.3680000         1.35316827E-10
   33.5485001         1.26376562E-10
   33.7290001         1.15668364E-10
   33.9095001         1.03399567E-10
   34.0900002         8.98762384E-11
   34.2705002         7.54635104E-11
   34.4510002         6.05369158E-11
   34.6315002         4.54324633E-11
   34.8120003         3.04089740E-11
   34.9925003         1.56296035E-11
   35.1730003         1.16940485E-12
   35.3535004        -1.29558421E-11
   35.5340004        -2.67472901E-11
   35.7145004        -4.01796027E-11
   35.8950005        -5.31664643E-11
   36.0755005        -6.55405036E-11
   36.2560005        -7.70563682E-11
   36.4365005        -8.74141245E-11
   36.6170006        -9.62991076E-11
   36.7975006        -1.03433234E-10
   36.9780006        -1.08624422E-10
   37.1585007        -1.11802276E-10
   37.3390007        -1.13032528E-10
   37.5195007        -1.12507843E-10
   37.7000008        -1.10521266E-10
   37.8805008        -1.07429649E-10
   38.0610008        -1.03617996E-10
   38.2415009        -9.94670804E-11
   38.4220009        -9.53234922E-11
   38.6025009        -9.14762363E-11
   38.7830009        -8.81346454E-11
   38.9635010        -8.54168819E-11
   39.1440010        -8.33521585E-11
   39.3245010        -8.18961843E-11
   39.5050011        -8.09614251E-11
   39.6855011        -8.04466216E-11
   39.8660011        -8.02610062E-11
   40.0465012        -8.03345099E-11
   40.2270012        -8.06096370E-11
   40.4075012        -8.10249437E-11
   40.5880013        -8.14946860E-11
   40.7685013        -8.18943385E-11
   40.9490013        -8.20569793E-11
   41.1295013        -8.17822893E-11
   41.3100014        -8.08605821E-11
   41.4905014        -7.91041677E-11
   41.6710014        -7.63801383E-11
   41.8515015        -7.26375141E-11
   42.0320015        -6.79149861E-11
   42.2125015        -6.23302174E-11
   42.3930016        -5.60492659E-11
   42.5735016        -4.92465374E-11
   42.7540016        -4.20642896E-11
   42.9345016        -3.45858099E-11
   43.1150017        -2.68244264E-11
   43.2955017        -1.87300106E-11
   43.4760017        -1.02099856E-11
   43.6565018        -1.16211608E-12
   43.8370018         8.48300423E-12
   44.0175018         1.87165665E-11
   44.1980019         2.94064668E-11
   44.3785019         4.02664013E-11
   44.5589981         5.08496648E-11
   44.7394981         6.05737474E-11
   44.9199982         6.87768106E-11
   45.1004982         7.47956280E-11
   45.2809982         7.80484496E-11
   45.4614983         7.81082490E-11
   45.6419983         7.47536963E-11
   45.8224983         6.79913209E-11
   46.0029984         5.80546791E-11
   46.1834984         4.53783504E-11
   46.3639984         3.05578618E-11
   46.5444984         1.42980463E-11
   46.7249985        -2.64145411E-12
   46.9054985        -1.94973412E-11
   47.0859985        -3.55460938E-11
   47.2664986        -5.01385565E-11
   47.4469986        -6.27294675E-11
   47.6274986        -7.29041272E-11
   47.8079987        -8.04053352E-11
   47.9884987        -8.51556811E-11
   48.1689987        -8.72698233E-11
   48.3494987        -8.70503392E-11
   48.5299988        -8.49663118E-11
   48.7104988        -8.16145762E-11
   48.8909988        -7.76726600E-11
   49.0714989        -7.38465539E-11
   49.2519989        -7.08190381E-11
   49.4324989        -6.92012350E-11
   49.6129990        -6.94870272E-11
   49.7934990        -7.20179333E-11
   49.9739990        -7.69619229E-11
   50.1544991        -8.43104961E-11
   50.3349991        -9.38916098E-11
   50.5154991        -1.05393867E-10
   50.6959991        -1.18391907E-10
   50.8764992        -1.32367020E-10
   51.0569992        -1.46724993E-10
   51.2374992        -1.60820066E-10
   51.4179993        -1.73990003E-10
   51.5984993        -1.85612664E-10
   51.7789993        -1.95176167E-10
   51.9594994        -2.02353800E-10
   52.1399994        -2.07065642E-10
   52.3204994        -2.09511075E-10
   52.5009995        -2.10165482E-10
   52.6814995        -2.09731441E-10
   52.8619995        -2.09053677E-10
   53.0424995        -2.09006770E-10
   53.2229996        -2.10377341E-10
   53.4034996        -2.13759885E-10
   53.5839996        -2.19488774E-10
   53.7644997        -2.27623156E-10
   53.9449997        -2.37976000E-10
   54.1254997        -2.50181265E-10
   54.3059998        -2.63773919E-10
   54.4864998        -2.78261747E-10
   54.6669998        -2.93173347E-10
   54.8474998        -3.08080950E-10
   55.0279999        -3.22603805E-10
   55.2084999        -3.36399825E-10
   55.3889999        -3.49157980E-10
   55.5695000        -3.60593277E-10
   55.7500000        -3.70446673E-10
   55.9305000        -3.78493625E-10
   56.1110001        -3.84559634E-10
   56.2915001        -3.88546140E-10
   56.4720001        -3.90454835E-10
   56.6525002        -3.90412008E-10
   56.8330002        -3.88668348E-10
   57.0135002        -3.85582205E-10
   57.1940002        -3.81573911E-10
   57.3745003        -3.77065823E-10
   57.5550003        -3.72411546E-10
   57.7355003        -3.67827629E-10
   57.9160004        -3.63337666E-10
   58.0965004        -3.58730629E-10
   58.2770004        -3.53543805E-10
   58.4575005        -3.47081086E-10
   58.6380005        -3.38465200E-10
   58.8185005        -3.26722649E-10
   58.9990005        -3.10892645E-10
   59.1795006        -2.90138497E-10
   59.3600006        -2.63844002E-10
   59.5405006        -2.31673528E-10
   59.7210007        -1.93597971E-10
   59.9015007        -1.49878526E-10
   60.0820007        -1.01021268E-10
   60.2625008        -4.77145337E-11
   60.4430008         9.24243841E-12
   60.6235008         6.90083476E-11
   60.8040009         1.30756683E-10
   60.9845009         1.93710145E-10
   61.1650009         2.57156463E-10
   61.3455009         3.20441812E-10
   61.5260010         3.82967907E-10
   61.7065010         4.44181941E-10
   61.8870010         5.03590059E-10
   62.0675011         5.60769098E-10
   62.2480011         6.15373807E-10
   62.4285011         6.67140287E-10
   62.6090012         7.15862702E-10
   62.7895012         7.61363583E-10
   62.9700012         8.03454081E-10
   63.1505013         8.41915593E-10
   63.3310013         8.76488382E-10
   63.5115013         9.06889064E-10
   63.6920013         9.32847799E-10
   63.8725014         9.54148538E-10
   64.0530014         9.70679648E-10
   64.2334976         9.82465553E-10
   64.4140015         9.89683446E-10
   64.5944977         9.92655846E-10
   64.7750015         9.91797866E-10
   64.9554977         9.87557147E-10
   65.1360016         9.80331594E-10
   65.3164978         9.70413749E-10
   65.4970016         9.57960600E-10
   65.6774979         9.43008005E-10
   65.8580017         9.25520771E-10
   66.0384979         9.05459374E-10
   66.2190018         8.82854234E-10
   66.3994980         8.57842464E-10
   66.5800018         8.30684854E-10
   66.7604980         8.01741173E-10
   66.9410019         7.71414488E-10
   67.1214981         7.40069395E-10
   67.3020020         7.07956416E-10
   67.4824982         6.75152489E-10
   67.6630020         6.41549425E-10
   67.8434982         6.06900641E-10
   68.0240021         5.70917147E-10
   68.2044983         5.33388111E-10
   68.3850021         4.94303265E-10
   68.5654984         4.53947047E-10
   68.7460022         4.12900325E-10
   68.9264984         3.72014003E-10
   69.1070023         3.32307404E-10
   69.2874985         2.94844787E-10
   69.4680023         2.60613003E-10
   69.6484985         2.30425262E-10
   69.8290024         2.04848277E-10
   70.0094986         1.84191898E-10
   70.1900024         1.68531397E-10
   70.3704987         1.57754906E-10
   70.5510025         1.51627710E-10
   70.7314987         1.49842735E-10
   70.9120026         1.52041713E-10
   71.0924988         1.57818369E-10
   71.2730026         1.66707620E-10
   71.4534988         1.78152687E-10
   71.6340027         1.91498081E-10
   71.8144989         2.05972503E-10
   71.9950027         2.20701304E-10
   72.1754990         2.34701286E-10
   72.3560028         2.46900944E-10
   72.5364990         2.56159732E-10
   72.7170029         2.61316441E-10
   72.8974991         2.61268257E-10
   73.0780029         2.55083010E-10
   73.2584991         2.42129428E-10
   73.4390030         2.22190280E-10
   73.6194992         1.95548827E-10
   73.8000031         1.63007136E-10
   73.9804993         1.25840005E-10
   74.1610031         8.56940144E-11
   74.3414993         4.44077275E-11
   74.5220032         3.82556877E-12
   74.7024994        -3.44016100E-11
   74.8830032        -6.89814664E-11
   75.0634995        -9.90842339E-11
   75.2440033        -1.24385238E-10
   75.4244995        -1.45035275E-10
   75.6050034        -1.61581734E-10
   75.7854996        -1.74867398E-10
   75.9660034        -1.85911800E-10
   76.1464996        -1.95794339E-10
   76.3270035        -2.05554435E-10
   76.5074997        -2.16092061E-10
   76.6880035        -2.28101954E-10
   76.8684998        -2.42022430E-10
   77.0490036        -2.58041116E-10
   77.2294998        -2.76135448E-10
   77.4100037        -2.96138974E-10
   77.5904999        -3.17830817E-10
   77.7710037        -3.40997841E-10
   77.9514999        -3.65469571E-10
   78.1320038        -3.91112476E-10
   78.3125000        -4.17787194E-10
   78.4929962        -4.45288195E-10
   78.6735001        -4.73279527E-10
   78.8539963        -5.01242881E-10
   79.0345001        -5.28458943E-10
   79.2149963        -5.54030821E-10
   79.3955002        -5.76944825E-10
   79.5759964        -5.96166339E-10
   79.7565002        -6.10751894E-10
   79.9369965        -6.19953977E-10
   80.1175003        -6.23304852E-10
   80.2979965        -6.20661633E-10
   80.4785004        -6.12224382E-10
   80.6589966        -5.98522287E-10
   80.8395004        -5.80376858E-10
   81.0199966        -5.58838642E-10
   81.2005005        -5.35095468E-10
   81.3809967        -5.10350207E-10
   81.5615005        -4.85682328E-10
   81.7419968        -4.61912869E-10
   81.9225006        -4.39513370E-10
   82.1029968        -4.18559826E-10
   82.2835007        -3.98764993E-10
   82.4639969        -3.79558163E-10
   82.6445007        -3.60209362E-10
   82.8249969        -3.39965056E-10
   83.0055008        -3.18180676E-10
   83.1859970        -2.94423264E-10
   83.3665009        -2.68533584E-10
   83.5469971        -2.40641757E-10
   83.7275009        -2.11135082E-10
   83.9079971        -1.80590473E-10
   84.0885010        -1.49687360E-10
   84.2689972        -1.19119534E-10
   84.4495010        -8.95224520E-11
   84.6299973        -6.14166704E-11
   84.8105011        -3.51793143E-11
   84.9909973        -1.10275964E-11
   85.1715012         1.09784785E-11
   85.3519974         3.09190798E-11
   85.5325012         4.89831162E-11
   85.7129974         6.54216542E-11
   85.8935013         8.05027781E-11
   86.0739975         9.44697931E-11
   86.2545013         1.07522588E-10
   86.4349976         1.19809232E-10
   86.6155014         1.31427522E-10
   86.7959976         1.42420395E-10
   86.9765015         1.52753046E-10
   87.1569977         1.62280231E-10
   87.3375015         1.70718523E-10
   87.5179977         1.77630244E-10
   87.6985016         1.82441118E-10
   87.8789978         1.84488716E-10
   88.0595016         1.83098287E-10
   88.2399979         1.77673265E-10
   88.4205017         1.67783759E-10
   88.6009979         1.53237215E-10
   88.7815018         1.34121103E-10
   88.9619980         1.10803693E-10
   89.1425018         8.38943151E-11
   89.3229980         5.41665046E-11
   89.5035019         2.24692782E-11
   89.6839981        -1.03607791E-11
   89.8645020        -4.35525782E-11
   90.0449982        -7.64182398E-11
   90.2255020        -1.08337374E-10
   90.4059982        -1.38730707E-10
   90.5865021        -1.67046516E-10
   90.7669983        -1.92772395E-10
   90.9475021        -2.15475929E-10
   91.1279984        -2.34858771E-10
   91.3085022        -2.50812621E-10
   91.4889984        -2.63456257E-10
   91.6695023        -2.73151279E-10
   91.8499985        -2.80483303E-10
   92.0305023        -2.86214386E-10
   92.2109985        -2.91207503E-10
   92.3915024        -2.96342756E-10
   92.5719986        -3.02428443E-10
   92.7525024        -3.10130699E-10
   92.9329987        -3.19924365E-10
   93.1135025        -3.32063599E-10
   93.2939987        -3.46566137E-10
   93.4745026        -3.63200664E-10
   93.6549988        -3.81476767E-10
   93.8355026        -4.00643102E-10
   94.0159988        -4.19714735E-10
   94.1965027        -4.37539005E-10
   94.3769989        -4.52902188E-10
   94.5575027        -4.64662059E-10
   94.7379990        -4.71874484E-10
   94.9185028        -4.73893313E-10
   95.0989990        -4.70425143E-10
   95.2795029        -4.61544553E-10
   95.4599991        -4.47676507E-10
   95.6405029        -4.29563329E-10
   95.8209991        -4.08217543E-10
   96.0015030        -3.84866444E-10
   96.1819992        -3.60879743E-10
   96.3625031        -3.37676997E-10
   96.5429993        -3.16611543E-10
   96.7235031        -2.98845421E-10
   96.9039993        -2.85214102E-10
   97.0845032        -2.76121376E-10
   97.2649994        -2.71479977E-10
   97.4455032        -2.70725942E-10
   97.6259995        -2.72906503E-10
   97.8065033        -2.76845463E-10
   97.9869995        -2.81332041E-10
   98.1675034        -2.85305057E-10
   98.3479996        -2.87987661E-10
   98.5285034        -2.88937652E-10
   98.7089996        -2.88025992E-10
   98.8895035        -2.85361318E-10
   99.0699997        -2.81196316E-10
   99.2505035        -2.75850676E-10
   99.4309998        -2.69662764E-10
   99.6115036        -2.62961458E-10
   99.7919998        -2.56051708E-10
   99.9725037        -2.49199189E-10
   100.153000        -2.42606185E-10
   100.333504        -2.36387743E-10
   100.514000        -2.30551869E-10
   100.694504        -2.24991650E-10
   100.875000        -2.19491439E-10
   101.055496        -2.13742982E-10
   101.236000        -2.07366194E-10
   101.416496        -1.99935471E-10
   101.597000        -1.91002200E-10
   101.777496        -1.80115409E-10
   101.958000        -1.66840944E-10
   102.138496        -1.50783871E-10
   102.319000        -1.31613803E-10
   102.499496        -1.09094622E-10
   102.680000        -8.31247779E-11
   102.860497        -5.37708246E-11
   103.041000        -2.12876366E-11
   103.221497         1.38887799E-11
   103.402000         5.11720701E-11
   103.582497         8.98793470E-11
   103.763000         1.29283084E-10
   103.943497         1.68646416E-10
   104.124001         2.07240822E-10
   104.304497         2.44356341E-10
   104.485001         2.79320095E-10
   104.665497         3.11548370E-10
   104.846001         3.40623890E-10
   105.026497         3.66391528E-10
   105.207001         3.89026589E-10
   105.387497         4.09068890E-10
   105.568001         4.27383823E-10
   105.748497         4.45055881E-10
   105.929001         4.63235089E-10
   106.109497         4.82948792E-10
   106.290001         5.04920938E-10
   106.470497         5.29433219E-10
   106.651001         5.56249824E-10
   106.831497         5.84629622E-10
   107.012001         6.13418094E-10
   107.192497         6.41207365E-10
   107.373001         6.66524613E-10
   107.553497         6.88017421E-10
   107.734001         7.04604486E-10
   107.914497         7.15573378E-10
   108.095001         7.20624227E-10
   108.275497         7.19865112E-10
   108.456001         7.13774706E-10
   108.636497         7.03128222E-10
   108.817001         6.88906487E-10
   108.997498         6.72178424E-10
   109.178001         6.53992471E-10
   109.358498         6.35278274E-10
   109.539001         6.16779239E-10
   109.719498         5.99017835E-10
   109.900002         5.82293880E-10
   110.080498         5.66702296E-10
   110.261002         5.52173862E-10
   110.441498         5.38520173E-10
   110.622002         5.25482380E-10
   110.802498         5.12774878E-10
   110.983002         5.00116171E-10
   111.163498         4.87231477E-10
   111.344002         4.73838857E-10
   111.524498         4.59628641E-10