  -34.5000000         0.00000000    
  -34.3195000         0.00000000    
  -34.1389999         0.00000000    
  -33.9584999        -2.45855266E-24
  -33.7779999         5.11438147E-20
  -33.5974998         3.00518956E-19
  -33.4169998         8.36742924E-19
  -33.2364998         1.27150750E-18
  -33.0559998         3.72595571E-19
  -32.8754997        -3.71244739E-18
  -32.6949997        -1.24229078E-17
  -32.5144997        -2.54438209E-17
  -32.3339996        -3.98214607E-17
  -32.1534996        -4.92585294E-17
  -31.9729996        -4.17187913E-17
  -31.7924995         5.74777864E-18
  -31.6119995         1.30279610E-16
  -31.4314995         3.71622815E-16
  -31.2509995         7.31092401E-16
  -31.0704994         1.10048882E-15
  -30.8899994         1.18982877E-15
  -30.7094994         5.18568870E-16
  -30.5289993        -1.43778612E-15
  -30.3484993        -4.87316816E-15
  -30.1679993        -9.11383988E-15
  -29.9874992        -1.22570360E-14
  -29.8069992        -1.15122806E-14
  -29.6264992        -4.43690469E-15
  -29.4459991         9.73334115E-15
  -29.2654991         3.02339059E-14
  -29.0849991         5.69548342E-14
  -28.9044991         9.20192335E-14
  -28.7240009         1.35592235E-13
  -28.5435009         1.73769311E-13
  -28.3630009         1.66390461E-13
  -28.1825008         5.23961469E-14
  -28.0020008        -2.13354182E-13
  -27.8215008        -6.01763973E-13
  -27.6410007        -9.71117067E-13
  -27.4605007        -1.09964783E-12
  -27.2800007        -8.04274670E-13
  -27.0995007        -8.99341840E-14
  -26.9190006         7.82108319E-13
  -26.7385006         1.40209177E-12
  -26.5580006         1.48615408E-12
  -26.3775005         1.16945646E-12
  -26.1970005         1.09823945E-12
  -26.0165005         2.17076986E-12
  -25.8360004         4.97492499E-12
  -25.6555004         9.18616398E-12
  -25.4750004         1.32829468E-11
  -25.2945004         1.48299602E-11
  -25.1140003         1.13160765E-11
  -24.9335003         1.25304823E-12
  -24.7530003        -1.49105450E-11
  -24.5725002        -3.44594596E-11
  -24.3920002        -5.28590123E-11
  -24.2115002        -6.49019657E-11
  -24.0310001        -6.62346566E-11
  -23.8505001        -5.47805828E-11
  -23.6700001        -3.15372485E-11
  -23.4895000        -3.45603429E-13
  -23.3090000         3.34425092E-11
  -23.1285000         6.49900758E-11
  -22.9480000         9.18269905E-11
  -22.7674999         1.14512531E-10
  -22.5869999         1.35476116E-10
  -22.4064999         1.56293034E-10
  -22.2259998         1.74677536E-10
  -22.0454998         1.83054488E-10
  -21.8649998         1.70221781E-10
  -21.6844997         1.26286204E-10
  -21.5039997         4.92607378E-11
  -21.3234997        -4.96559113E-11
  -21.1429996        -1.45217088E-10
  -20.9624996        -2.03371292E-10
  -20.7819996        -1.91827901E-10
  -20.6014996        -9.26894325E-11
  -20.4209995         8.74379735E-11
  -20.2404995         3.13946341E-10
  -20.0599995         5.29205846E-10
  -19.8794994         6.64804434E-10
  -19.6989994         6.57123467E-10
  -19.5184994         4.61136546E-10
  -19.3379993         5.81696045E-11
  -19.1574993        -5.44039036E-10
  -18.9769993        -1.31731470E-09
  -18.7964993        -2.22077978E-09
  -18.6159992        -3.20542104E-09
  -18.4354992        -4.21237001E-09
  -18.2549992        -5.16547383E-09
  -18.0744991        -5.96264860E-09
  -17.8939991        -6.47272813E-09
  -17.7134991        -6.54360877E-09
  -17.5330009        -6.02342576E-09
  -17.3525009        -4.79094675E-09
  -17.1720009        -2.78681300E-09
  -16.9915009        -3.60512904E-11
  -16.8110008         3.34487971E-09
  -16.6305008         7.15769266E-09
  -16.4500008         1.11440919E-08
  -16.2695007         1.50124766E-08
  -16.0890007         1.84631261E-08
  -15.9084997         2.12093525E-08
  -15.7279997         2.29963266E-08
  -15.5474997         2.36210695E-08
  -15.3669996         2.29554225E-08
  -15.1864996         2.09693116E-08
  -15.0059996         1.77471282E-08
  -14.8254995         1.34883980E-08
  -14.6450005         8.48673487E-09
  -14.4645004         3.08778536E-09
  -14.2840004        -2.36516162E-09
  -14.1035004        -7.58352847E-09
  -13.9230003        -1.23688055E-08
  -13.7425003        -1.66211489E-08
  -13.5620003        -2.03209112E-08
  -13.3815002        -2.34926496E-08
  -13.2010002        -2.61672515E-08
  -13.0205002        -2.83573200E-08
  -12.8400002        -3.00537017E-08
  -12.6595001        -3.12401518E-08
  -12.4790001        -3.19138991E-08
  -12.2985001        -3.20968816E-08
  -12.1180000        -3.18277493E-08
  -11.9375000        -3.11359862E-08
  -11.7570000        -3.00109697E-08
  -11.5764999        -2.83844042E-08
  -11.3959999        -2.61404907E-08
  -11.2154999        -2.31562005E-08
  -11.0349998        -1.93593550E-08
  -10.8544998        -1.47823584E-08
  -10.6739998        -9.58916058E-09
  -10.4934998        -4.06261202E-09
  -10.3129997         1.44547507E-09
  -10.1324997         6.58551214E-09
  -9.95199966         1.10797336E-08
  -9.77149963         1.47698431E-08
  -9.59099960         1.76321961E-08
  -9.41049957         1.97624939E-08
  -9.22999954         2.13420606E-08
  -9.04950047         2.26015917E-08
  -8.86900043         2.37951205E-08
  -8.68850040         2.51886529E-08
  -8.50800037         2.70582881E-08
  -8.32750034         2.96860403E-08
  -8.14700031         3.33411236E-08
  -7.96649981         3.82406498E-08
  -7.78599977         4.44937704E-08
  -7.60550022         5.20430348E-08
  -7.42500019         6.06210833E-08
  -7.24450016         6.97380784E-08
  -7.06400013         7.87061438E-08
  -6.88350010         8.66962964E-08
  -6.70300007         9.28158030E-08
  -6.52250004         9.61914708E-08
  -6.34200001         9.60482964E-08
  -6.16149998         9.17779204E-08
  -5.98099995         8.29957187E-08
  -5.80049992         6.95854681E-08
  -5.61999989         5.17282572E-08
  -5.43949986         2.99094118E-08
  -5.25899982         4.89691709E-09
  -5.07849979        -2.23117773E-08
  -4.89799976        -5.05711704E-08
  -4.71750021        -7.86867602E-08
  -4.53700018        -1.05515426E-07
  -4.35650015        -1.30048875E-07
  -4.17600012        -1.51465031E-07
  -3.99550009        -1.69139469E-07
  -3.81500006        -1.82620454E-07
  -3.63450003        -1.91582146E-07
  -3.45400000        -1.95777943E-07
  -3.27349997        -1.95015815E-07
  -3.09299994        -1.89169043E-07
  -2.91249990        -1.78220517E-07
  -2.73200011        -1.62323445E-07
  -2.55150008        -1.41852468E-07
  -2.37100005        -1.17421870E-07
  -2.19050002        -8.98590358E-08
  -2.00999999        -6.01397971E-08
  -1.82949996        -2.93053883E-08
  -1.64900005         1.61428848E-09
  -1.46850002         3.16527284E-08
  -1.28799999         5.99289649E-08
  -1.10749996         8.56480682E-08
 -0.926999986         1.08096081E-07
 -0.746500015         1.26645190E-07
 -0.565999985         1.40777928E-07
 -0.385500014         1.50129338E-07
 -0.204999998         1.54536835E-07
  -2.44999994E-02     1.54082443E-07
  0.156000003         1.49111941E-07
  0.336499989         1.40219910E-07
  0.517000020         1.28198579E-07
  0.697499990         1.13958485E-07
  0.878000021         9.84378659E-08
   1.05850005         8.25203728E-08
   1.23899996         6.69780036E-08
   1.41949999         5.24453547E-08
   1.60000002         3.94207689E-08
   1.78050005         2.82802741E-08
   1.96099997         1.92892138E-08
   2.14150000         1.26007995E-08
   2.32200003         8.23970314E-09
   2.50250006         6.07689854E-09
   2.68300009         5.80652149E-09
   2.86350012         6.93621027E-09
   3.04399991         8.80030981E-09
   3.22449994         1.06018607E-08
   3.40499997         1.14843086E-08
   3.58550000         1.06272671E-08
   3.76600003         7.35225170E-09
   3.94650006         1.21759858E-09
   4.12699986        -7.92027866E-09
   4.30749989        -1.98950456E-08
   4.48799992        -3.42709860E-08
   4.66849995        -5.04223792E-08
   4.84899998        -6.76287684E-08
   5.02950001        -8.51625757E-08
   5.21000004        -1.02354882E-07
   5.39050007        -1.18638731E-07
   5.57100010        -1.33577956E-07
   5.75150013        -1.46890713E-07
   5.93200016        -1.58470030E-07
   6.11250019        -1.68393953E-07
   6.29300022        -1.76913659E-07
   6.47349977        -1.84411263E-07
   6.65399981        -1.91328255E-07
   6.83449984        -1.98077302E-07
   7.01499987        -2.04956677E-07
   7.19549990        -2.12087329E-07
   7.37599993        -2.19385214E-07
   7.55649996        -2.26571203E-07
   7.73699999        -2.33210542E-07
   7.91750002        -2.38767029E-07
   8.09799957        -2.42654409E-07
   8.27849960        -2.44272826E-07
   8.45899963        -2.43026108E-07
   8.63949966        -2.38326294E-07
   8.81999969        -2.29599038E-07
   9.00049973        -2.16301117E-07
   9.18099976        -1.97954705E-07
   9.36149979        -1.74187477E-07
   9.54199982        -1.44759795E-07
   9.72249985        -1.09560752E-07
   9.90299988        -6.85683759E-08
   10.0834999        -2.17893970E-08
   10.2639999         3.07897992E-08
   10.4445000         8.92085268E-08
   10.6250000         1.53476037E-07
   10.8055000         2.23464838E-07
   10.9860001         2.98788393E-07
   11.1665001         3.78709615E-07
   11.3470001         4.62117924E-07
   11.5275002         5.47587490E-07
   11.7080002         6.33502566E-07
   11.8885002         7.18212675E-07
   12.0690002         8.00180658E-07
   12.2495003         8.78093260E-07
   12.4300003         9.50927529E-07
   12.6105003         1.01798219E-06
   12.7910004         1.07889252E-06
   12.9715004         1.13364456E-06
   13.1520004         1.18259516E-06
   13.3325005         1.22648339E-06
   13.5129995         1.26641805E-06
   13.6934996         1.30381829E-06
   13.8739996         1.34030495E-06
   14.0544996         1.37755319E-06
   14.2349997         1.41714304E-06
   14.4154997         1.46044567E-06
   14.5959997         1.50857829E-06
   14.7764997         1.56243095E-06
   14.9569998         1.62274137E-06
   15.1374998         1.69017255E-06
   15.3179998         1.76534866E-06
   15.4984999         1.84882856E-06
   15.6789999         1.94102790E-06
   15.8594999         2.04213006E-06
   16.0400009         2.15203181E-06
   16.2205009         2.27035457E-06
   16.4009991         2.39651854E-06
   16.5814991         2.52985114E-06
   16.7619991         2.66968641E-06
   16.9424992         2.81542384E-06
   17.1229992         2.96654139E-06
   17.3034992         3.12258089E-06
   17.4839993         3.28313808E-06
   17.6644993         3.44788282E-06
   17.8449993         3.61661273E-06
   18.0254993         3.78930963E-06
   18.2059994         3.96616224E-06
   18.3864994         4.14750593E-06
   18.5669994         4.33366631E-06
   18.7474995         4.52471750E-06
   18.9279995         4.72021429E-06
   19.1084995         4.91897663E-06
   19.2889996         5.11899907E-06
   19.4694996         5.31753813E-06
   19.6499996         5.51138100E-06
   19.8304996         5.69722761E-06
   20.0109997         5.87211025E-06
   20.1914997         6.03374110E-06
   20.3719997         6.18072499E-06
   20.5524998         6.31260446E-06
   20.7329998         6.42977284E-06
   20.9134998         6.53330289E-06
   21.0939999         6.62475668E-06
   21.2744999         6.70602049E-06
   21.4549999         6.77917978E-06
   21.6355000         6.84642782E-06
   21.8160000         6.90999013E-06
   21.9965000         6.97206042E-06
   22.1770000         7.03473779E-06
   22.3575001         7.09997857E-06
   22.5380001         7.16956811E-06
   22.7185001         7.24511756E-06
   22.8990002         7.32808712E-06
   23.0795002         7.41982421E-06
   23.2600002         7.52159667E-06
   23.4405003         7.63460503E-06
   23.6210003         7.75994977E-06
   23.8015003         7.89855494E-06
   23.9820004         8.05103809E-06
   24.1625004         8.21755293E-06
   24.3430004         8.39764198E-06
   24.5235004         8.59012016E-06
   24.7040005         8.79303570E-06
   24.8845005         9.00372288E-06
   25.0650005         9.21895298E-06
   25.2455006         9.43517716E-06
   25.4260006         9.64882747E-06
   25.6065006         9.85667157E-06
   25.7870007         1.00561456E-05
   25.9675007         1.02456343E-05
   26.1480007         1.04246346E-05
   26.3285007         1.05937861E-05
   26.5090008         1.07547376E-05
   26.6895008         1.09099037E-05
   26.8700008         1.10621504E-05
   27.0505009         1.12144944E-05
   27.2310009         1.13698698E-05
   27.4115009         1.15310013E-05
   27.5919991         1.17004065E-05
   27.7724991         1.18804528E-05
   27.9529991         1.20734694E-05
   28.1334991         1.22818083E-05
   28.3139992         1.25078213E-05
   28.4944992         1.27537332E-05
   28.6749992         1.30213939E-05
   28.8554993         1.33119802E-05
   29.0359993         1.36257049E-05
   29.2164993         1.39616141E-05
   29.3969994         1.43175348E-05
   29.5774994         1.46901903E-05
   29.7579994         1.50754649E-05
   29.9384995         1.54687550E-05
   30.1189995         1.58653238E-05
   30.2994995         1.62606048E-05
   30.4799995         1.66503960E-05
   30.6604996         1.70309468E-05
   30.8409996         1.73989356E-05
   31.0214996         1.77513848E-05
   31.2019997         1.80855095E-05
   31.3824997         1.83985667E-05
   31.5629997         1.86877005E-05
   31.7434998         1.89497969E-05
   31.9239998         1.91814088E-05
   32.1044998         1.93787200E-05
   32.2849998         1.95375851E-05
   32.4654999         1.96536475E-05
   32.6459999         1.97225327E-05
   32.8264999         1.97400968E-05
   33.0070000         1.97026820E-05
   33.1875000         1.96073725E-05
   33.3680000         1.94521599E-05
   33.5485001         1.92359985E-05
   33.7290001         1.89587627E-05
   33.9095001         1.86210909E-05
   34.0900002         1.82241893E-05
   34.2705002         1.77696274E-05
   34.4510002         1.72591681E-05
   34.6315002         1.66946120E-05
   34.8120003         1.60776799E-05
   34.9925003         1.54098889E-05
   35.1730003         1.46924531E-05
   35.3535004         1.39262011E-05
   35.5340004         1.31115730E-05
   35.7145004         1.22487118E-05
   35.8950005         1.13376527E-05
   36.0755005         1.03785942E-05
   36.2560005         9.37218829E-06
   36.4365005         8.31979469E-06
   36.6170006         7.22365257E-06
   36.7975006         6.08694745E-06
   36.9780006         4.91377796E-06
   37.1585007         3.70905991E-06
   37.3390007         2.47840080E-06
   37.5195007         1.22799759E-06
   37.7000008        -3.54061740E-08
   37.8805008        -1.30452577E-06
   38.0610008        -2.57149873E-06
   38.2415009        -3.82785038E-06
   38.4220009        -5.06450897E-06
   38.6025009        -6.27189274E-06
   38.7830009        -7.44006729E-06
   38.9635010        -8.55896997E-06
   39.1440010        -9.61866226E-06
   39.3245010        -1.06095931E-05
   39.5050011        -1.15228841E-05
   39.6855011        -1.23505997E-05
   39.8660011        -1.30860208E-05
   40.0465012        -1.37238922E-05
   40.2270012        -1.42606004E-05
   40.4075012        -1.46942684E-05
   40.5880013        -1.50247542E-05
   40.7685013        -1.52535458E-05
   40.9490013        -1.53836081E-05
   41.1295013        -1.54191748E-05
   41.3100014        -1.53655546E-05
   41.4905014        -1.52289249E-05
   41.6710014        -1.50161441E-05
   41.8515015        -1.47345527E-05
   42.0320015        -1.43917960E-05
   42.2125015        -1.39956564E-05
   42.3930016        -1.35539030E-05
   42.5735016        -1.30741719E-05
   42.7540016        -1.25638508E-05
   42.9345016        -1.20299737E-05
   43.1150017        -1.14791246E-05
   43.2955017        -1.09173498E-05
   43.4760017        -1.03501125E-05
   43.6565018        -9.78229309E-06
   43.8370018        -9.21823266E-06
   44.0175018        -8.66181927E-06
   44.1980019        -8.11657719E-06
   44.3785019        -7.58575425E-06
   44.5589981        -7.07237268E-06
   44.7394981        -6.57925239E-06
   44.9199982        -6.10899133E-06
   45.1004982        -5.66393055E-06
   45.2809982        -5.24611369E-06
   45.4614983        -4.85725832E-06
   45.6419983        -4.49873869E-06
   45.8224983        -4.17158526E-06
   46.0029984        -3.87647742E-06
   46.1834984        -3.61372759E-06
   46.3639984        -3.38326572E-06
   46.5444984        -3.18466550E-06
   46.7249985        -3.01725186E-06
   46.9054985        -2.88032606E-06
   47.0859985        -2.77349909E-06
   47.2664986        -2.69706720E-06
   47.4469986        -2.65230824E-06
   47.6274986        -2.64158598E-06
   47.8079987        -2.66818415E-06
   47.9884987        -2.73587898E-06
   48.1689987        -2.84835710E-06
   48.3494987        -3.00863462E-06
   48.5299988        -3.21863126E-06
   48.7104988        -3.47898276E-06
   48.8909988        -3.78910181E-06
   49.0714989        -4.14738815E-06
   49.2519989        -4.55147801E-06
   49.4324989        -4.99842963E-06
   49.6129990        -5.48478556E-06
   49.7934990        -6.00654994E-06
   49.9739990        -6.55913573E-06
   50.1544991        -7.13735380E-06
   50.3349991        -7.73548436E-06
   50.5154991        -8.34742241E-06
   50.6959991        -8.96681559E-06
   50.8764992        -9.58714645E-06
   51.0569992        -1.02016747E-05
   51.2374992        -1.08032673E-05
   51.4179993        -1.13841934E-05
   51.5984993        -1.19359902E-05
   51.7789993        -1.24495273E-05
   51.9594994        -1.29152750E-05
   52.1399994        -1.33237654E-05
   52.3204994        -1.36660810E-05
   52.5009995        -1.39342574E-05
   52.6814995        -1.41214559E-05
   52.8619995        -1.42219087E-05
   53.0424995        -1.42307144E-05
   53.2229996        -1.41435994E-05
   53.4034996        -1.39567619E-05
   53.5839996        -1.36668705E-05
   53.7644997        -1.32711548E-05
   53.9449997        -1.27675303E-05
   54.1254997        -1.21546491E-05
   54.3059998        -1.14318209E-05
   54.4864998        -1.05988493E-05
   54.6669998        -9.65581512E-06
   54.8474998        -8.60294858E-06
   55.0279999        -7.44060480E-06
   55.2084999        -6.16939815E-06
   55.3889999        -4.79040636E-06
   55.5695000        -3.30536477E-06
   55.7500000        -1.71674640E-06
   55.9305000        -2.76752861E-08
   56.1110001         1.75835328E-06
   56.2915001         3.63783579E-06
   56.4720001         5.60762464E-06
   56.6525002         7.66516496E-06
   56.8330002         9.80855111E-06
   57.0135002         1.20363684E-05
   57.1940002         1.43474126E-05
   57.3745003         1.67403468E-05
   57.5550003         1.92134012E-05
   57.7355003         2.17641555E-05
   57.9160004         2.43894210E-05
   58.0965004         2.70852015E-05
   58.2770004         2.98467421E-05
   58.4575005         3.26686204E-05
   58.6380005         3.55449120E-05
   58.8185005         3.84694467E-05
   58.9990005         4.14360511E-05
   59.1795006         4.44387988E-05
   59.3600006         4.74721382E-05
   59.5405006         5.05308708E-05
   59.7210007         5.36100051E-05
   59.9015007         5.67044808E-05
   60.0820007         5.98088482E-05
   60.2625008         6.29170390E-05
   60.4430008         6.60221995E-05
   60.6235008         6.91167370E-05
   60.8040009         7.21924880E-05
   60.9845009         7.52409906E-05
   61.1650009         7.82538555E-05
   61.3455009         8.12231156E-05
   61.5260010         8.41415094E-05
   61.7065010         8.70026488E-05
   61.8870010         8.98010840E-05
   62.0675011         9.25322529E-05
   62.2480011         9.51922848E-05
   62.4285011         9.77778254E-05
   62.6090012         1.00285826E-04
   62.7895012         1.02713377E-04
   62.9700012         1.05057617E-04
   63.1505013         1.07315675E-04
   63.3310013         1.09484667E-04
   63.5115013         1.11561661E-04
   63.6920013         1.13543640E-04
   63.8725014         1.15427414E-04
   64.0530014         1.17209507E-04
   64.2334976         1.18886055E-04
   64.4140015         1.20452794E-04
   64.5944977         1.21905287E-04
   64.7750015         1.23239181E-04
   64.9554977         1.24450657E-04
   65.1360016         1.25536782E-04
   65.3164978         1.26495783E-04
   65.4970016         1.27326988E-04
   65.6774979         1.28030602E-04
   65.8580017         1.28607368E-04
   66.0384979         1.29058200E-04
   66.2190018         1.29384120E-04
   66.3994980         1.29586289E-04
   66.5800018         1.29666456E-04
   66.7604980         1.29627282E-04
   66.9410019         1.29472828E-04
   67.1214981         1.29208711E-04
   67.3020020         1.28842046E-04
   67.4824982         1.28381289E-04
   67.6630020         1.27835898E-04
   67.8434982         1.27215972E-04
   68.0240021         1.26531930E-04
   68.2044983         1.25794337E-04
   68.3850021         1.25013597E-04
   68.5654984         1.24199796E-04
   68.7460022         1.23362319E-04
   68.9264984         1.22509577E-04
   69.1070023         1.21648736E-04
   69.2874985         1.20785524E-04
   69.4680023         1.19924291E-04
   69.6484985         1.19068289E-04
   69.8290024         1.18219999E-04
   70.0094986         1.17381445E-04
   70.1900024         1.16554424E-04
   70.3704987         1.15740404E-04
   70.5510025         1.14940325E-04
   70.7314987         1.14154289E-04
   70.9120026         1.13381284E-04
   71.0924988         1.12619178E-04
   71.2730026         1.11864887E-04
   71.4534988         1.11114627E-04
   71.6340027         1.10364374E-04
   71.8144989         1.09610090E-04
   71.9950027         1.08847969E-04
   72.1754990         1.08074528E-04
   72.3560028         1.07286694E-04
   72.5364990         1.06481959E-04
   72.7170029         1.05658481E-04
   72.8974991         1.04815364E-04
   73.0780029         1.03952734E-04
   73.2584991         1.03071856E-04
   73.4390030         1.02174949E-04
   73.6194992         1.01264828E-04
   73.8000031         1.00344456E-04
   73.9804993         9.94163420E-05
   74.1610031         9.84821309E-05
   74.3414993         9.75422590E-05
   74.5220032         9.65959043E-05
   74.7024994         9.56411750E-05
   74.8830032         9.46753571E-05
   75.0634995         9.36953293E-05
   75.2440033         9.26978464E-05
   75.4244995         9.16797362E-05
   75.6050034         9.06380446E-05
   75.7854996         8.95700214E-05
   75.9660034         8.84731780E-05
   76.1464996         8.73453318E-05
   76.3270035         8.61847584E-05
   76.5074997         8.49903809E-05
   76.6880035         8.37620100E-05
   76.8684998         8.25005336E-05
   77.0490036         8.12080252E-05
   77.2294998         7.98877300E-05
   77.4100037         7.85438242E-05
   77.5904999         7.71810664E-05
   77.7710037         7.58043534E-05
   77.9514999         7.44182980E-05
   78.1320038         7.30269385E-05
   78.3125000         7.16336363E-05
   78.4929962         7.02411489E-05
   78.6735001         6.88518267E-05
   78.8539963         6.74677140E-05
   79.0345001         6.60906226E-05
   79.2149963         6.47219495E-05
   79.3955002         6.33625314E-05
   79.5759964         6.20124047E-05
   79.7565002         6.06707872E-05
   79.9369965         5.93361401E-05
   80.1175003         5.80064261E-05
   80.2979965         5.66794552E-05
   80.4785004         5.53531718E-05
   80.6589966         5.40258334E-05
   80.8395004         5.26961376E-05
   81.0199966         5.13632403E-05
   81.2005005         5.00268252E-05
   81.3809967         4.86872668E-05
   81.5615005         4.73459040E-05
   81.7419968         4.60053852E-05
   81.9225006         4.46699487E-05
   82.1029968         4.33455498E-05
   82.2835007         4.20396973E-05
   82.4639969         4.07610605E-05
   82.6445007         3.95188799E-05
   82.8249969         3.83224105E-05
   83.0055008         3.71804636E-05
   83.1859970         3.61011917E-05
   83.3665009         3.50920018E-05
   83.5469971         3.41595514E-05
   83.7275009         3.33096250E-05
   83.9079971         3.25469118E-05
   84.0885010         3.18746788E-05
   84.2689972         3.12944831E-05
   84.4495010         3.08061317E-05
   84.6299973         3.04078494E-05
   84.8105011         3.00967822E-05
   84.9909973         2.98695068E-05
   85.1715012         2.97224688E-05
   85.3519974         2.96520957E-05
   85.5325012         2.96545859E-05
   85.7129974         2.97253810E-05
   85.8935013         2.98585419E-05
   86.0739975         3.00462325E-05
   86.2545013         3.02784520E-05
   86.4349976         3.05431349E-05
   86.6155014         3.08265735E-05
   86.7959976         3.11140830E-05
   86.9765015         3.13907731E-05
   87.1569977         3.16423138E-05
   87.3375015         3.18556558E-05
   87.5179977         3.20196777E-05
   87.6985016         3.21257321E-05
   87.8789978         3.21681218E-05
   88.0595016         3.21443586E-05
   88.2399979         3.20551881E-05
   88.4205017         3.19042992E-05
   88.6009979         3.16977203E-05
   88.7815018         3.14429853E-05
   88.9619980         3.11483200E-05
   89.1425018         3.08219933E-05
   89.3229980         3.04719470E-05
   89.5035019         3.01057516E-05
   89.6839981         2.97307342E-05
   89.8645020         2.93541307E-05
   90.0449982         2.89830932E-05
   90.2255020         2.86244831E-05
   90.4059982         2.82845394E-05
   90.5865021         2.79684718E-05
   90.7669983         2.76801657E-05
   90.9475021         2.74220274E-05
   91.1279984         2.71950194E-05
   91.3085022         2.69987977E-05
   91.4889984         2.68319036E-05
   91.6695023         2.66919542E-05
   91.8499985         2.65758063E-05
   92.0305023         2.64797327E-05
   92.2109985         2.63996226E-05
   92.3915024         2.63312249E-05
   92.5719986         2.62704434E-05
   92.7525024         2.62136109E-05
   92.9329987         2.61577334E-05
   93.1135025         2.61006571E-05
   93.2939987         2.60411161E-05
   93.4745026         2.59787357E-05
   93.6549988         2.59139269E-05
   93.8355026         2.58477521E-05
   94.0159988         2.57817464E-05
   94.1965027         2.57176634E-05
   94.3769989         2.56571620E-05
   94.5575027         2.56014064E-05
   94.7379990         2.55506675E-05
   94.9185028         2.55040432E-05
   95.0989990         2.54593560E-05
   95.2795029         2.54133593E-05
   95.4599991         2.53621838E-05
   95.6405029         2.53019098E-05
   95.8209991         2.52291138E-05
   96.0015030         2.51411930E-05
   96.1819992         2.50364465E-05
   96.3625031         2.49139139E-05
   96.5429993         2.47731587E-05
   96.7235031         2.46141008E-05
   96.9039993         2.44370585E-05
   97.0845032         2.42429651E-05
   97.2649994         2.40337122E-05
   97.4455032         2.38124758E-05
   97.6259995         2.35839307E-05
   97.8065033         2.33542996E-05
   97.9869995         2.31312515E-05
   98.1675034         2.29236884E-05
   98.3479996         2.27414603E-05
   98.5285034         2.25950062E-05
   98.7089996         2.24949272E-05
   98.8895035         2.24514388E-05
   99.0699997         2.24737560E-05
   99.2505035         2.25694093E-05
   99.4309998         2.27437340E-05
   99.6115036         2.29995458E-05
   99.7919998         2.33372139E-05
   99.9725037         2.37551012E-05
   100.153000         2.42502792E-05
   100.333504         2.48193337E-05
   100.514000         2.54590213E-05
   100.694504         2.61666082E-05
   100.875000         2.69398570E-05
   101.055496         2.77767231E-05
   101.236000         2.86749873E-05
   101.416496         2.96319740E-05
   101.597000         3.06445181E-05
   101.777496         3.17090817E-05
   101.958000         3.28220194E-05
   102.138496         3.39796825E-05
   102.319000         3.51784183E-05
   102.499496         3.64143489E-05
   102.680000         3.76831413E-05
   102.860497         3.89798515E-05
   103.041000         4.02990190E-05
   103.221497         4.16349612E-05
   103.402000         4.29821666E-05
   103.582497         4.43356548E-05
   103.763000         4.56911621E-05
   103.943497         4.70450614E-05
   104.124001         4.83941440E-05
   104.304497         4.97352812E-05
   104.485001         5.10652098E-05
   104.665497         5.23804047E-05
   104.846001         5.36771367E-05
   105.026497         5.49516044E-05
   105.207001         5.61999950E-05
   105.387497         5.74184705E-05
   105.568001         5.86030474E-05
   105.748497         5.97494072E-05
   105.929001         6.08528535E-05
   106.109497         6.19084167E-05
   106.290001         6.29111964E-05
   106.470497         6.38568090E-05
   106.651001         6.47417764E-05
   106.831497         6.55636832E-05
   107.012001         6.63209285E-05
   107.192497         6.70122899E-05
   107.373001         6.76363052E-05
   107.553497         6.81907259E-05
   107.734001         6.86723724E-05
   107.914497         6.90773304E-05
   108.095001         6.94014088E-05
   108.275497         6.96408970E-05
   108.456001         6.97931391E-05
   108.636497         6.98569856E-05
   108.817001         6.98330041E-05
   108.997498         6.97234864E-05
   109.178001         6.95322306E-05
   109.358498         6.92643735E-05
   109.539001         6.89261215E-05
   109.719498         6.85244886E-05
   109.900002         6.80670491E-05
   110.080498         6.75616830E-05
   110.261002         6.70163499E-05
   110.441498         6.64388281E-05
   110.622002         6.58366334E-05
   110.802498         6.52169110E-05
   110.983002         6.45864566E-05
   111.163498         6.39517311E-05
   111.344002         6.33188538E-05
   111.524498         6.26935362E-05