  -34.5000000         0.00000000    
  -34.3199997         0.00000000    
  -34.1399994         0.00000000    
  -33.9599991        -3.80361138E-18
  -33.7799988        -2.57141882E-17
  -33.5999985        -9.77972065E-17
  -33.4199982        -2.73125509E-16
  -33.2400017        -6.18134681E-16
  -33.0600014        -1.18758900E-15
  -32.8800011        -1.98223519E-15
  -32.7000008        -2.90297863E-15
  -32.5200005        -3.73107383E-15
  -32.3400002        -4.16946801E-15
  -32.1599998        -3.96329511E-15
  -31.9799995        -3.07389167E-15
  -31.7999992        -1.82425062E-15
  -31.6200008        -8.95192276E-16
  -31.4400005        -1.06517654E-15
  -31.2600002        -2.67084396E-15
  -31.0799999        -4.90431568E-15
  -30.8999996        -5.20544775E-15
  -30.7199993         9.18764250E-16
  -30.5400009         1.93688246E-14
  -30.3600006         5.61384266E-14
  -30.1800003         1.15418485E-13
  -30.0000000         1.97607691E-13
  -29.8199997         2.97863649E-13
  -29.6399994         4.05745235E-13
  -29.4599991         5.06173011E-13
  -29.2800007         5.81445211E-13
  -29.1000004         6.13558358E-13
  -28.9200001         5.85785164E-13
  -28.7399998         4.82556486E-13
  -28.5599995         2.87277011E-13
  -28.3799992        -2.12700578E-14
  -28.2000008        -4.72141965E-13
  -28.0200005        -1.10257550E-12
  -27.8400002        -1.95323987E-12
  -27.6599998        -3.05766371E-12
  -27.4799995        -4.42732136E-12
  -27.2999992        -6.03579946E-12
  -27.1200008        -7.80607089E-12
  -26.9400005        -9.60393397E-12
  -26.7600002        -1.12388866E-11
  -26.5799999        -1.24724658E-11
  -26.3999996        -1.30340582E-11
  -26.2199993        -1.26443838E-11
  -26.0400009        -1.10454337E-11
  -25.8600006        -8.03156153E-12
  -25.6800003        -3.47171163E-12
  -25.5000000         2.68804618E-12
  -25.3199997         1.04454006E-11
  -25.1399994         1.97758580E-11
  -24.9599991         3.06565467E-11
  -24.7800007         4.30541297E-11
  -24.6000004         5.68663207E-11
  -24.4200001         7.18343302E-11
  -24.2399998         8.74691569E-11
  -24.0599995         1.03040819E-10
  -23.8799992         1.17656648E-10
  -23.7000008         1.30409336E-10
  -23.5200005         1.40528630E-10
  -23.3400002         1.47448512E-10
  -23.1599998         1.50721671E-10
  -22.9799995         1.49776386E-10
  -22.7999992         1.43595136E-10
  -22.6200008         1.30466804E-10
  -22.4400005         1.07984385E-10
  -22.2600002         7.34040329E-11
  -22.0799999         2.43469411E-11
  -21.8999996        -4.03475864E-11
  -21.7199993        -1.19953589E-10
  -21.5400009        -2.11737697E-10
  -21.3600006        -3.11606629E-10
  -21.1800003        -4.15441404E-10
  -21.0000000        -5.20680166E-10
  -20.8199997        -6.27463470E-10
  -20.6399994        -7.38684724E-10
  -20.4599991        -8.58643268E-10
  -20.2800007        -9.90594273E-10
  -20.1000004        -1.13407383E-09
  -19.9200001        -1.28316402E-09
  -19.7399998        -1.42664602E-09
  -19.5599995        -1.55027891E-09
  -19.3799992        -1.64050784E-09
  -19.2000008        -1.68813952E-09
  -19.0200005        -1.69034353E-09
  -18.8400002        -1.64989444E-09
  -18.6599998        -1.57172653E-09
  -18.4799995        -1.45816159E-09
  -18.2999992        -1.30500821E-09
  -18.1200008        -1.10065879E-09
  -17.9400005        -8.29216473E-10
  -17.7600002        -4.76933215E-10
  -17.5799999        -3.95249909E-11
  -17.3999996         4.72930806E-10
  -17.2199993         1.03629649E-09
  -17.0400009         1.61877767E-09
  -16.8600006         2.19172946E-09
  -16.6800003         2.74092327E-09
  -16.5000000         3.27348793E-09
  -16.3199997         3.81689214E-09
  -16.1399994         4.40920855E-09
  -15.9600000         5.08345011E-09
  -15.7799997         5.85150461E-09
  -15.6000004         6.69385347E-09
  -15.4200001         7.55938867E-09
  -15.2399998         8.37584402E-09
  -15.0600004         9.06716480E-09
  -14.8800001         9.57128954E-09
  -14.6999998         9.85162707E-09
  -14.5200005         9.89807347E-09
  -14.3400002         9.71777592E-09
  -14.1599998         9.32013933E-09
  -13.9799995         8.70298500E-09
  -13.8000002         7.84624721E-09
  -13.6199999         6.71635370E-09
  -13.4399996         5.27983168E-09
  -13.2600002         3.52068952E-09
  -13.0799999         1.45437329E-09
  -12.8999996        -8.67602767E-10
  -12.7200003        -3.36457018E-09
  -12.5400000        -5.94287730E-09
  -12.3599997        -8.51560689E-09
  -12.1800003        -1.10192317E-08
  -12.0000000        -1.34224010E-08
  -11.8199997        -1.57255915E-08
  -11.6400003        -1.79538784E-08
  -11.4600000        -2.01468833E-08
  -11.2799997        -2.23493739E-08
  -11.1000004        -2.46035565E-08
  -10.9200001        -2.69412475E-08
  -10.7399998        -2.93730213E-08
  -10.5600004        -3.18724922E-08
  -10.3800001        -3.43575053E-08
  -10.1999998        -3.66740665E-08
  -10.0200005        -3.85912813E-08
  -9.84000015        -3.98148465E-08
  -9.65999985        -4.00219307E-08
  -9.47999954        -3.89134840E-08
  -9.30000019        -3.62729295E-08
  -9.11999989        -3.20163345E-08
  -8.93999958        -2.62196167E-08
  -8.76000023        -1.91140561E-08
  -8.57999992        -1.10499849E-08
  -8.39999962        -2.43774223E-09
  -8.22000027         6.31886055E-09
  -8.03999996         1.48798494E-08
  -7.86000013         2.30044552E-08
  -7.67999983         3.05594376E-08
  -7.50000000         3.75039022E-08
  -7.32000017         4.38606342E-08
  -7.13999987         4.96861432E-08
  -6.96000004         5.50491528E-08
  -6.78000021         6.00215984E-08
  -6.59999990         6.46795968E-08
  -6.42000008         6.91071165E-08
  -6.23999977         7.33939061E-08
  -6.05999994         7.76213724E-08
  -5.88000011         8.18354664E-08
  -5.69999981         8.60107434E-08
  -5.51999998         9.00142538E-08
  -5.34000015         9.35798212E-08
  -5.15999985         9.63020526E-08
  -4.98000002         9.76562120E-08
  -4.80000019         9.70452518E-08
  -4.61999989         9.38699856E-08
  -4.44000006         8.76135715E-08
  -4.26000023         7.79278722E-08
  -4.07999992         6.47075069E-08
  -3.90000010         4.81376325E-08
  -3.72000003         2.87047861E-08
  -3.53999996         7.16533588E-09
  -3.35999990        -1.55265720E-08
  -3.18000007        -3.83220744E-08
  -3.00000000        -6.01958092E-08
  -2.81999993        -8.02602216E-08
  -2.64000010        -9.78577646E-08
  -2.46000004        -1.12618110E-07
  -2.27999997        -1.24475477E-07
  -2.09999990        -1.33649266E-07
  -1.91999996        -1.40597294E-07
  -1.74000001        -1.45952569E-07
  -1.55999994        -1.50451910E-07
  -1.38000000        -1.54859961E-07
  -1.20000005        -1.59887804E-07
  -1.01999998        -1.66104471E-07
 -0.839999974        -1.73843858E-07
 -0.660000026        -1.83117052E-07
 -0.479999989        -1.93547393E-07
 -0.300000012        -2.04350144E-07
 -0.119999997        -2.14374026E-07
   5.99999987E-02    -2.22210986E-07
  0.239999995        -2.26362516E-07
  0.419999987        -2.25434277E-07
  0.600000024        -2.18319144E-07
  0.779999971        -2.04328870E-07
  0.959999979        -1.83245916E-07
   1.13999999        -1.55288447E-07
   1.32000005        -1.21005016E-07
   1.50000000        -8.11345231E-08
   1.67999995        -3.64745496E-08
   1.86000001         1.22046790E-08
   2.03999996         6.41816413E-08
   2.22000003         1.18743472E-07
   2.40000010         1.75108838E-07
   2.57999992         2.32348583E-07
   2.75999999         2.89337208E-07
   2.94000006         3.44755648E-07
   3.11999989         3.97146636E-07
   3.29999995         4.45008112E-07
   3.48000002         4.86898500E-07
   3.66000009         5.21529500E-07
   3.83999991         5.47827938E-07
   4.01999998         5.64963898E-07
   4.19999981         5.72350416E-07
   4.38000011         5.69629549E-07
   4.55999994         5.56659359E-07
   4.73999977         5.33509194E-07
   4.92000008         5.00466228E-07
   5.09999990         4.58045292E-07
   5.28000021         4.06994019E-07
   5.46000004         3.48283208E-07
   5.63999987         2.83076957E-07
   5.82000017         2.12682522E-07
   6.00000000         1.38483927E-07
   6.17999983         6.18670555E-08
   6.36000013        -1.58562106E-08
   6.53999996        -9.35160713E-08
   6.71999979        -1.70136971E-07
   6.90000010        -2.44965463E-07
   7.07999992        -3.17465947E-07
   7.26000023        -3.87279357E-07
   7.44000006        -4.54146146E-07
   7.61999989        -5.17804779E-07
   7.80000019        -5.77885146E-07
   7.98000002        -6.33823333E-07
   8.15999985        -6.84822851E-07
   8.34000015        -7.29879105E-07
   8.52000046        -7.67865117E-07
   8.69999981        -7.97662778E-07
   8.88000011        -8.18304272E-07
   9.06000042        -8.29087924E-07
   9.23999977        -8.29634700E-07
   9.42000008        -8.19872525E-07
   9.60000038        -7.99955160E-07
   9.77999973        -7.70144766E-07
   9.96000004        -7.30699128E-07
   10.1400003        -6.81804011E-07
   10.3199997        -6.23575943E-07
   10.5000000        -5.56137934E-07
   10.6800003        -4.79745609E-07
   10.8599997        -3.94921642E-07
   11.0400000        -3.02552763E-07
   11.2200003        -2.03913558E-07
   11.3999996        -1.00602598E-07
   11.5799999         5.59560220E-09
   11.7600002         1.12887001E-07
   11.9399996         2.19635879E-07
   12.1199999         3.24480141E-07
   12.3000002         4.26367308E-07
   12.4799995         5.24506959E-07
   12.6599998         6.18259321E-07
   12.8400002         7.06997298E-07
   13.0200005         7.89983858E-07
   13.1999998         8.66302855E-07
   13.3800001         9.34865227E-07
   13.5600004         9.94494144E-07
   13.7399998         1.04407241E-06
   13.9200001         1.08272116E-06
   14.1000004         1.10997269E-06
   14.2799997         1.12590249E-06
   14.4600000         1.13119677E-06
   14.6400003         1.12714622E-06
   14.8199997         1.11557551E-06
   15.0000000         1.09872815E-06
   15.1800003         1.07913650E-06
   15.3599997         1.05950187E-06
   15.5400000         1.04260437E-06
   15.7200003         1.03124330E-06
   15.8999996         1.02820104E-06
   16.0799999         1.03620664E-06
   16.2600002         1.05787421E-06
   16.4400005         1.09560347E-06
   16.6200008         1.15143791E-06
   16.7999992         1.22690483E-06
   16.9799995         1.32287119E-06
   17.1599998         1.43945817E-06
   17.3400002         1.57605041E-06
   17.5200005         1.73140859E-06
   17.7000008         1.90387095E-06
   17.8799992         2.09160180E-06
   18.0599995         2.29283091E-06
   18.2399998         2.50603080E-06
   18.4200001         2.73000205E-06
   18.6000004         2.96386315E-06
   18.7800007         3.20696290E-06
   18.9599991         3.45876651E-06
   19.1399994         3.71875171E-06
   19.3199997         3.98634711E-06
   19.5000000         4.26092447E-06
   19.6800003         4.54182464E-06
   19.8600006         4.82839141E-06
   20.0400009         5.11997678E-06
   20.2199993         5.41590407E-06
   20.3999996         5.71538658E-06
   20.5799999         6.01742022E-06
   20.7600002         6.32069487E-06
   20.9400005         6.62354387E-06
   21.1200008         6.92396270E-06
   21.2999992         7.21968900E-06
   21.4799995         7.50832987E-06
   21.6599998         7.78750928E-06
   21.8400002         8.05500622E-06
   22.0200005         8.30887166E-06
   22.2000008         8.54752307E-06
   22.3799992         8.76981630E-06
   22.5599995         8.97510745E-06
   22.7399998         9.16330828E-06
   22.9200001         9.33491992E-06
   23.1000004         9.49101377E-06
   23.2800007         9.63316688E-06
   23.4599991         9.76331921E-06
   23.6399994         9.88357624E-06
   23.8199997         9.99597796E-06
   24.0000000         1.01022943E-05
   24.1800003         1.02038912E-05
   24.3600006         1.03017010E-05
   24.5400009         1.03963166E-05
   24.7199993         1.04881810E-05
   24.8999996         1.05778390E-05
   25.0799999         1.06661737E-05
   25.2600002         1.07545902E-05
   25.4400005         1.08450840E-05
   25.6200008         1.09402108E-05
   25.7999992         1.10429737E-05
   25.9799995         1.11566460E-05
   26.1599998         1.12846101E-05
   26.3400002         1.14302138E-05
   26.5200005         1.15966786E-05
   26.7000008         1.17870513E-05
   26.8799992         1.20041786E-05
   27.0599995         1.22506863E-05
   27.2399998         1.25289462E-05
   27.4200001         1.28410084E-05
   27.6000004         1.31885099E-05
   27.7800007         1.35725759E-05
   27.9599991         1.39936856E-05
   28.1399994         1.44515670E-05
   28.3199997         1.49450825E-05
   28.5000000         1.54721438E-05
   28.6800003         1.60296386E-05
   28.8600006         1.66133923E-05
   29.0400009         1.72181699E-05
   29.2199993         1.78377359E-05
   29.3999996         1.84649598E-05
   29.5799999         1.90919891E-05
   29.7600002         1.97104528E-05
   29.9400005         2.03116979E-05
   30.1200008         2.08870151E-05
   30.2999992         2.14278771E-05
   30.4799995         2.19261347E-05
   30.6599998         2.23742063E-05
   30.8400002         2.27652563E-05
   31.0200005         2.30933438E-05
   31.2000008         2.33535593E-05
   31.3799992         2.35421303E-05
   31.5599995         2.36564701E-05
   31.7399998         2.36951837E-05
   31.9200001         2.36580072E-05
   32.0999985         2.35456737E-05
   32.2799988         2.33597693E-05
   32.4599991         2.31025133E-05
   32.6399994         2.27765559E-05
   32.8199997         2.23847564E-05
   33.0000000         2.19299800E-05
   33.1800003         2.14149113E-05
   33.3600006         2.08418915E-05
   33.5400009         2.02128213E-05
   33.7200012         1.95291195E-05
   33.9000015         1.87917667E-05
   34.0800018         1.80014504E-05
   34.2599983         1.71587653E-05
   34.4399986         1.62645083E-05
   34.6199989         1.53199471E-05
   34.7999992         1.43271036E-05
   34.9799995         1.32889336E-05
   35.1599998         1.22094407E-05
   35.3400002         1.10936689E-05
   35.5200005         9.94760649E-06
   35.7000008         8.77800085E-06
   35.8800011         7.59212344E-06
   36.0600014         6.39747941E-06
   36.2400017         5.20150434E-06
   36.4199982         4.01126135E-06
   36.5999985         2.83316785E-06
   36.7799988         1.67279563E-06
   36.9599991         5.34780668E-07
   37.1399994        -5.77149819E-07
   37.3199997        -1.66001325E-06
   37.5000000        -2.71131398E-06
   37.6800003        -3.72874183E-06
   37.8600006        -4.70990199E-06
   38.0400009        -5.65214214E-06
   38.2200012        -6.55251324E-06
   38.4000015        -7.40788164E-06
   38.5800018        -8.21514186E-06
   38.7599983        -8.97146856E-06
   38.9399986        -9.67452434E-06
   39.1199989        -1.03225693E-05
   39.2999992        -1.09144430E-05
   39.4799995        -1.14494287E-05
   39.6599998        -1.19270944E-05
   39.8400002        -1.23471527E-05
   40.0200005        -1.27094218E-05
   40.2000008        -1.30139142E-05
   40.3800011        -1.32610285E-05
   40.5600014        -1.34517877E-05
   40.7400017        -1.35880327E-05
   40.9199982        -1.36725057E-05
   41.0999985        -1.37087554E-05
   41.2799988        -1.37008947E-05
   41.4599991        -1.36532244E-05
   41.6399994        -1.35698410E-05
   41.8199997        -1.34542870E-05
   42.0000000        -1.33093445E-05
   42.1800003        -1.31369870E-05
   42.3600006        -1.29385016E-05
   42.5400009        -1.27147096E-05
   42.7200012        -1.24662365E-05
   42.9000015        -1.21937501E-05
   43.0800018        -1.18981334E-05
   43.2599983        -1.15805742E-05
   43.4399986        -1.12425932E-05
   43.6199989        -1.08860513E-05
   43.7999992        -1.05131785E-05
   43.9799995        -1.01266469E-05
   44.1599998        -9.72966427E-06
   44.3400002        -9.32611511E-06
   44.5200005        -8.92064963E-06
   44.7000008        -8.51873301E-06
   44.8800011        -8.12659619E-06
   45.0600014        -7.75109220E-06
   45.2400017        -7.39946472E-06
   45.4199982        -7.07905474E-06
   45.5999985        -6.79698041E-06
   45.7799988        -6.55982421E-06
   45.9599991        -6.37336188E-06
   46.1399994        -6.24234144E-06
   46.3199997        -6.17032947E-06
   46.5000000        -6.15961198E-06
   46.6800003        -6.21116897E-06
   46.8600006        -6.32469528E-06
   47.0400009        -6.49868161E-06
   47.2200012        -6.73054183E-06
   47.4000015        -7.01678118E-06
   47.5800018        -7.35319873E-06
   47.7599983        -7.73511874E-06
   47.9399986        -8.15764088E-06
   48.1199989        -8.61590888E-06
   48.2999992        -9.10538165E-06
   48.4799995        -9.62209651E-06
   48.6599998        -1.01628857E-05
   48.8400002        -1.07255155E-05
   49.0200005        -1.13087181E-05
   49.2000008        -1.19120741E-05
   49.3800011        -1.25357774E-05
   49.5600014        -1.31802908E-05
   49.7400017        -1.38459545E-05
   49.9199982        -1.45326248E-05
   50.0999985        -1.52393832E-05
   50.2799988        -1.59643878E-05
   50.4599991        -1.67048438E-05
   50.6399994        -1.74571251E-05
   50.8199997        -1.82169551E-05
   51.0000000        -1.89796410E-05
   51.1800003        -1.97402860E-05
   51.3600006        -2.04939934E-05
   51.5400009        -2.12360319E-05
   51.7200012        -2.19619906E-05
   51.9000015        -2.26679331E-05
   52.0800018        -2.33505507E-05
   52.2599983        -2.40073150E-05
   52.4399986        -2.46365616E-05
   52.6199989        -2.52374775E-05
   52.7999992        -2.58099572E-05
   52.9799995        -2.63542861E-05
   53.1599998        -2.68706954E-05
   53.3400002        -2.73588375E-05
   53.5200005        -2.78172429E-05
   53.7000008        -2.82428537E-05
   53.8800011        -2.86307131E-05
   54.0600014        -2.89738309E-05
   54.2400017        -2.92632940E-05
   54.4199982        -2.94885285E-05
   54.5999985        -2.96377402E-05
   54.7799988        -2.96983744E-05
   54.9599991        -2.96576145E-05
   55.1399994        -2.95027548E-05
   55.3199997        -2.92214681E-05
   55.5000000        -2.88019346E-05
   55.6800003        -2.82328747E-05
   55.8600006        -2.75035254E-05
   56.0400009        -2.66036368E-05
   56.2200012        -2.55235500E-05
   56.4000015        -2.42543883E-05
   56.5800018        -2.27883593E-05
   56.7599983        -2.11191000E-05
   56.9399986        -1.92420102E-05
   57.1199989        -1.71544489E-05
   57.2999992        -1.48557410E-05
   57.4799995        -1.23469890E-05
   57.6599998        -9.63069760E-06
   57.8400002        -6.71033604E-06
   58.0200005        -3.58997340E-06
   58.2000008        -2.74090667E-07
   58.3800011         3.23236463E-06
   58.5600014         6.92369031E-06
   58.7400017         1.07930136E-05
   58.9199982         1.48318895E-05
   59.0999985         1.90300525E-05
   59.2799988         2.33754345E-05
   59.4599991         2.78544812E-05
   59.6399994         3.24526409E-05
   59.8199997         3.71549577E-05
   60.0000000         4.19465650E-05
   60.1800003         4.68129219E-05
   60.3600006         5.17398366E-05
   60.5400009         5.67131938E-05
   60.7200012         6.17186233E-05
   60.9000015         6.67411805E-05
   61.0800018         7.17652438E-05
   61.2599983         7.67746969E-05
   61.4399986         8.17534310E-05
   61.6199989         8.66858245E-05
   61.7999992         9.15574274E-05
   61.9799995         9.63553321E-05
   62.1599998         1.01068319E-04
   62.3400002         1.05686639E-04
   62.5200005         1.10201603E-04
   62.7000008         1.14604969E-04
   62.8800011         1.18888413E-04
   63.0600014         1.23043123E-04
   63.2400017         1.27059699E-04
   63.4199982         1.30928252E-04
   63.5999985         1.34638743E-04
   63.7799988         1.38181553E-04
   63.9599991         1.41547847E-04
   64.1399994         1.44730089E-04
   64.3199997         1.47722094E-04
   64.5000000         1.50519205E-04
   64.6800003         1.53117944E-04
   64.8600006         1.55515852E-04
   65.0400009         1.57711067E-04
   65.2200012         1.59702162E-04
   65.4000015         1.61487973E-04
   65.5800018         1.63067714E-04
   65.7600021         1.64441342E-04
   65.9400024         1.65609876E-04
   66.1200027         1.66575905E-04
   66.3000031         1.67343955E-04
   66.4800034         1.67920574E-04
   66.6600037         1.68314175E-04
   66.8399963         1.68534607E-04
   67.0199966         1.68592451E-04
   67.1999969         1.68498256E-04
   67.3799973         1.68261846E-04
   67.5599976         1.67891892E-04
   67.7399979         1.67395658E-04
   67.9199982         1.66779268E-04
   68.0999985         1.66048019E-04
   68.2799988         1.65206890E-04
   68.4599991         1.64261000E-04
   68.6399994         1.63215824E-04
   68.8199997         1.62077180E-04
   69.0000000         1.60851137E-04
   69.1800003         1.59543444E-04
   69.3600006         1.58159193E-04
   69.5400009         1.56702503E-04
   69.7200012         1.55176254E-04
   69.9000015         1.53582238E-04
   70.0800018         1.51921369E-04
   70.2600021         1.50194086E-04
   70.4400024         1.48400781E-04
   70.6200027         1.46542181E-04
   70.8000031         1.44619495E-04
   70.9800034         1.42634541E-04
   71.1600037         1.40589618E-04
   71.3399963         1.38487303E-04
   71.5199966         1.36330360E-04
   71.6999969         1.34121554E-04
   71.8799973         1.31863766E-04
   72.0599976         1.29560140E-04
   72.2399979         1.27214356E-04
   72.4199982         1.24830942E-04
   72.5999985         1.22415309E-04
   72.7799988         1.19973833E-04
   72.9599991         1.17513460E-04
   73.1399994         1.15041243E-04
   73.3199997         1.12563743E-04
   73.5000000         1.10086432E-04
   73.6800003         1.07613356E-04
   73.8600006         1.05147075E-04
   74.0400009         1.02688951E-04
   74.2200012         1.00239668E-04
   74.4000015         9.77998861E-05
   74.5800018         9.53707495E-05
   74.7600021         9.29541493E-05
   74.9400024         9.05526103E-05
   75.1200027         8.81688175E-05
   75.3000031         8.58049316E-05
   75.4800034         8.34618768E-05
   75.6600037         8.11389109E-05
   75.8399963         7.88335674E-05
   76.0199966         7.65421137E-05
   76.1999969         7.42603515E-05
   76.3799973         7.19847667E-05
   76.5599976         6.97135547E-05
   76.7399979         6.74474868E-05
   76.9199982         6.51903392E-05
   77.0999985         6.29488422E-05
   77.2799988         6.07322290E-05
   77.4599991         5.85515154E-05
   77.6399994         5.64186521E-05
   77.8199997         5.43457318E-05
   78.0000000         5.23443632E-05
   78.1800003         5.04252457E-05
   78.3600006         4.85979035E-05
   78.5400009         4.68705803E-05
   78.7200012         4.52501918E-05
   78.9000015         4.37423005E-05
   79.0800018         4.23510719E-05
   79.2600021         4.10792491E-05
   79.4400024         3.99281307E-05
   79.6200027         3.88975532E-05
   79.8000031         3.79859048E-05
   79.9800034         3.71901588E-05
   80.1600037         3.65059350E-05
   80.3399963         3.59275837E-05
   80.5199966         3.54483527E-05
   80.6999969         3.50606388E-05
   80.8799973         3.47562964E-05
   81.0599976         3.45270782E-05
   81.2399979         3.43650463E-05
   81.4199982         3.42630083E-05
   81.5999985         3.42147941E-05
   81.7799988         3.42154017E-05
   81.9599991         3.42609856E-05
   82.1399994         3.43486790E-05
   82.3199997         3.44763139E-05
   82.5000000         3.46421693E-05
   82.6800003         3.48446702E-05
   82.8600006         3.50822374E-05
   83.0400009         3.53531323E-05
   83.2200012         3.56553755E-05
   83.4000015         3.59866244E-05
   83.5800018         3.63440631E-05
   83.7600021         3.67241955E-05
   83.9400024         3.71226961E-05
   84.1200027         3.75342715E-05
   84.3000031         3.79526937E-05
   84.4800034         3.83709448E-05
   84.6600037         3.87815417E-05
   84.8399963         3.91769354E-05
   85.0199966         3.95499446E-05
   85.1999969         3.98941520E-05
   85.3799973         4.02041078E-05
   85.5599976         4.04754210E-05
   85.7399979         4.07046682E-05
   85.9199982         4.08892556E-05
   86.0999985         4.10271714E-05
   86.2799988         4.11168367E-05
   86.4599991         4.11569818E-05
   86.6399994         4.11466062E-05
   86.8199997         4.10850371E-05
   87.0000000         4.09719651E-05
   87.1800003         4.08075284E-05
   87.3600006         4.05922838E-05
   87.5400009         4.03271297E-05
   87.7200012         4.00131576E-05
   87.9000015         3.96514552E-05
   88.0800018         3.92428956E-05
   88.2600021         3.87880173E-05
   88.4400024         3.82869948E-05
   88.6200027         3.77397446E-05
   88.8000031         3.71461756E-05
   88.9800034         3.65065825E-05
   89.1600037         3.58220532E-05
   89.3399963         3.50948976E-05
   89.5199966         3.43289285E-05
   89.6999969         3.35295990E-05
   89.8799973         3.27038797E-05
   90.0599976         3.18599668E-05
   90.2399979         3.10067953E-05
   90.4199982         3.01534565E-05
   90.5999985         2.93086232E-05
   90.7799988         2.84800117E-05
   90.9599991         2.76739320E-05
   91.1399994         2.68949643E-05
   91.3199997         2.61457699E-05
   91.5000000         2.54270417E-05
   91.6800003         2.47376302E-05
   91.8600006         2.40748723E-05
   92.0400009         2.34351137E-05
   92.2200012         2.28143927E-05
   92.4000015         2.22092149E-05
   92.5800018         2.16173084E-05
   92.7600021         2.10381950E-05
   92.9400024         2.04734861E-05
   93.1200027         1.99267997E-05
   93.3000031         1.94033419E-05
   93.4800034         1.89092025E-05
   93.6600037         1.84505698E-05
   93.8399963         1.80330062E-05
   94.0199966         1.76609446E-05
   94.1999969         1.73374974E-05
   94.3799973         1.70645253E-05
   94.5599976         1.68428942E-05
   94.7399979         1.66727641E-05
   94.9199982         1.65537949E-05
   95.0999985         1.64851845E-05
   95.2799988         1.64655576E-05
   95.4599991         1.64928024E-05
   95.6399994         1.65639667E-05
   95.8199997         1.66752889E-05
   96.0000000         1.68224869E-05
   96.1800003         1.70012190E-05
   96.3600006         1.72076725E-05
   96.5400009         1.74391189E-05
   96.7200012         1.76943231E-05
   96.9000015         1.79737199E-05
   97.0800018         1.82792846E-05
   97.2600021         1.86142443E-05
   97.4400024         1.89826351E-05
   97.6200027         1.93888700E-05
   97.8000031         1.98374037E-05
   97.9800034         2.03325362E-05
   98.1600037         2.08782931E-05
   98.3399963         2.14783995E-05
   98.5199966         2.21361734E-05
   98.6999969         2.28543540E-05
   98.8799973         2.36347860E-05
   99.0599976         2.44780404E-05
   99.2399979         2.53830094E-05
   99.4199982         2.63466136E-05
   99.5999985         2.73636506E-05
   99.7799988         2.84269190E-05
   99.9599991         2.95276132E-05
   100.139999         3.06559123E-05
   100.320000         3.18017228E-05
   100.500000         3.29554750E-05
   100.680000         3.41087762E-05
   100.860001         3.52548777E-05
   101.040001         3.63888976E-05
   101.220001         3.75077580E-05
   101.400002         3.86098618E-05
   101.580002         3.96947144E-05
   101.760002         4.07624429E-05
   101.940002         4.18134623E-05
   102.120003         4.28482490E-05
   102.300003         4.38673414E-05
   102.480003         4.48715073E-05
   102.660004         4.58619725E-05
   102.839996         4.68406615E-05
   103.019997         4.78103575E-05
   103.199997         4.87746474E-05
   103.379997         4.97376968E-05
   103.559998         5.07038094E-05
   103.739998         5.16769687E-05
   103.919998         5.26603399E-05
   104.099998         5.36559310E-05
   104.279999         5.46644478E-05
   104.459999         5.56853302E-05
   104.639999         5.67169955E-05
   104.820000         5.77571627E-05
   105.000000         5.88031398E-05
   105.180000         5.98520710E-05
   105.360001         6.09009512E-05
   105.540001         6.19465500E-05
   105.720001         6.29851056E-05
   105.900002         6.40119397E-05
   106.080002         6.50210714E-05
   106.260002         6.60048681E-05
   106.440002         6.69538276E-05
   106.620003         6.78566212E-05
   106.800003         6.87002102E-05
   106.980003         6.94702321E-05
   107.160004         7.01514946E-05
   107.339996         7.07285799E-05
   107.519997         7.11864486E-05
   107.699997         7.15110800E-05
   107.879997         7.16900831E-05
   108.059998         7.17131770E-05
   108.239998         7.15726928E-05
   108.419998         7.12639812E-05
   108.599998         7.07858198E-05
   108.779999         7.01407043E-05
   108.959999         6.93350448E-05
   109.139999         6.83792750E-05
   109.320000         6.72875758E-05
   109.500000         6.60774458E-05
   109.680000         6.47688430E-05
   109.860001         6.33831442E-05
   110.040001         6.19419006E-05
   110.220001         6.04656052E-05
   110.400002         5.89727097E-05
   110.580002         5.74789447E-05
   110.760002         5.59970977E-05
   110.940002         5.45372422E-05
   111.120003         5.31072801E-05