  -34.5000000         0.00000000    
  -34.3199997         0.00000000    
  -34.1399994         0.00000000    
  -33.9599991         0.00000000    
  -33.7799988         2.14134952E-26
  -33.5999985         1.19971209E-24
  -33.4199982         4.36209820E-23
  -33.2400017         3.33311756E-22
  -33.0600014         8.79292587E-22
  -32.8800011        -8.85629021E-22
  -32.7000008        -1.09856524E-20
  -32.5200005        -2.47955919E-20
  -32.3400002        -3.70824786E-21
  -32.1599998         9.60565619E-20
  -31.9799995         2.13968696E-19
  -31.7999992         1.57792353E-19
  -31.6200008        -1.76176003E-19
  -31.4400005        -6.62372579E-19
  -31.2600002        -1.34806100E-18
  -31.0799999        -2.51957994E-18
  -30.8999996        -2.63135252E-18
  -30.7199993         4.02924639E-18
  -30.5400009         2.20410265E-17
  -30.3600006         3.85353173E-17
  -30.1800003         1.42596442E-17
  -30.0000000        -8.43046334E-17
  -29.8199997        -2.10725598E-16
  -29.6399994        -1.99133105E-16
  -29.4599991         1.28387259E-16
  -29.2800007         7.05844943E-16
  -29.1000004         1.03968858E-15
  -28.9200001         4.24239522E-16
  -28.7399998        -1.36662657E-15
  -28.5599995        -3.37342793E-15
  -28.3799992        -3.54931856E-15
  -28.2000008        -1.27298173E-16
  -28.0200005         6.34956226E-15
  -27.8400002         1.19687814E-14
  -27.6599998         1.09300183E-14
  -27.4799995        -4.29388318E-16
  -27.2999992        -1.93062288E-14
  -27.1200008        -3.52635096E-14
  -26.9400005        -3.45199502E-14
  -26.7600002        -8.61610808E-15
  -26.5799999         3.72683723E-14
  -26.3999996         8.23501152E-14
  -26.2199993         9.80183138E-14
  -26.0400009         6.31267838E-14
  -25.8600006        -2.08857200E-14
  -25.6800003        -1.24405464E-13
  -25.5000000        -1.99056835E-13
  -25.3199997        -1.99680862E-13
  -25.1399994        -1.08758000E-13
  -24.9599991         4.97217251E-14
  -24.7800007         2.15845598E-13
  -24.6000004         3.18331841E-13
  -24.4200001         3.07569833E-13
  -24.2399998         1.81327934E-13
  -24.0599995        -1.03590444E-14
  -23.8799992        -1.85373852E-13
  -23.7000008        -2.67065910E-13
  -23.5200005        -2.22388134E-13
  -23.3400002        -8.20829475E-14
  -23.1599998         6.88323706E-14
  -22.9799995         1.29175642E-13
  -22.7999992         3.35086302E-14
  -22.6200008        -2.05515455E-13
  -22.4400005        -4.86694506E-13
  -22.2600002        -6.52365857E-13
  -22.0799999        -5.54865290E-13
  -21.8999996        -1.30798950E-13
  -21.7199993         5.52098243E-13
  -21.5400009         1.30314824E-12
  -21.3600006         1.87632028E-12
  -21.1800003         2.07199405E-12
  -21.0000000         1.82662913E-12
  -20.8199997         1.24450125E-12
  -20.6399994         5.50577541E-13
  -20.4599991        -1.74496665E-14
  -20.2800007        -3.26561776E-13
  -20.1000004        -4.14995973E-13
  -19.9200001        -4.70394665E-13
  -19.7399998        -7.26127166E-13
  -19.5599995        -1.32569530E-12
  -19.3799992        -2.22425355E-12
  -19.2000008        -3.18023602E-12
  -19.0200005        -3.84648086E-12
  -18.8400002        -3.92111951E-12
  -18.6599998        -3.28843615E-12
  -18.4799995        -2.08341525E-12
  -18.2999992        -6.48158990E-13
  -18.1200008         6.03098788E-13
  -17.9400005         1.35308778E-12
  -17.7600002         1.51186659E-12
  -17.5799999         1.25079331E-12
  -17.3999996         9.21836826E-13
  -17.2199993         8.92290040E-13
  -17.0400009         1.36352648E-12
  -16.8600006         2.25473589E-12
  -16.6800003         3.21065028E-12
  -16.5000000         3.74112720E-12
  -16.3199997         3.43955376E-12
  -16.1399994         2.18402314E-12
  -15.9600000         2.24165345E-13
  -15.7799997        -1.89635308E-12
  -15.6000004        -3.55467153E-12
  -15.4200001        -4.30436025E-12
  -15.2399998        -4.05086078E-12
  -15.0600004        -3.06272629E-12
  -14.8800001        -1.81633408E-12
  -14.6999998        -7.55617303E-13
  -14.5200005        -8.95176064E-14
  -14.3400002         2.73406379E-13
  -14.1599998         6.27879855E-13
  -13.9799995         1.27104696E-12
  -13.8000002         2.30641808E-12
  -13.6199999         3.55363287E-12
  -13.4399996         4.60787658E-12
  -13.2600002         5.01814042E-12
  -13.0799999         4.49848622E-12
  -12.8999996         3.07458746E-12
  -12.7200003         1.10007077E-12
  -12.5400000        -8.64861188E-13
  -12.3599997        -2.26202217E-12
  -12.1800003        -2.74521096E-12
  -12.0000000        -2.30563095E-12
  -11.8199997        -1.26119503E-12
  -11.6400003        -1.14674356E-13
  -11.4600000         6.57651342E-13
  -11.2799997         7.93173632E-13
  -11.1000004         3.22354394E-13
  -10.9200001        -4.92066674E-13
  -10.7399998        -1.31883827E-12
  -10.5600004        -1.93498906E-12
  -10.3800001        -2.31957595E-12
  -10.1999998        -2.61428032E-12
  -10.0200005        -2.97646760E-12
  -9.84000015        -3.41365629E-12
  -9.65999985        -3.70334015E-12
  -9.47999954        -3.45830569E-12
  -9.30000019        -2.31788221E-12
  -9.11999989        -1.73653084E-13
  -8.93999958         2.68707322E-12
  -8.76000023         5.60155871E-12
  -8.57999992         7.72174078E-12
  -8.39999962         8.30279942E-12
  -8.22000027         6.97628934E-12
  -8.03999996         3.90169190E-12
  -7.86000013        -2.59178041E-13
  -7.67999983        -4.53238965E-12
  -7.50000000        -7.91598124E-12
  -7.32000017        -9.65898889E-12
  -7.13999987        -9.44517988E-12
  -6.96000004        -7.43049459E-12
  -6.78000021        -4.13808094E-12
  -6.59999990        -2.65705589E-13
  -6.42000008         3.51246788E-12
  -6.23999977         6.67546530E-12
  -6.05999994         8.88275131E-12
  -5.88000011         9.92065284E-12
  -5.69999981         9.63124979E-12
  -5.51999998         7.89135771E-12
  -5.34000015         4.67259998E-12
  -5.15999985         1.55700878E-13
  -4.98000002        -5.17246706E-12
  -4.80000019        -1.05150931E-11
  -4.61999989        -1.48909496E-11
  -4.44000006        -1.73630346E-11
  -4.26000023        -1.72940828E-11
  -4.07999992        -1.45404704E-11
  -3.90000010        -9.52163348E-12
  -3.72000003        -3.14804064E-12
  -3.53999996         3.36930505E-12
  -3.35999990         8.78094472E-12
  -3.18000007         1.20765377E-11
  -3.00000000         1.27181078E-11
  -2.81999993         1.07691495E-11
  -2.64000010         6.87366960E-12
  -2.46000004         2.07671597E-12
  -2.27999997        -2.46627241E-12
  -2.09999990        -5.79436065E-12
  -1.91999996        -7.35171559E-12
  -1.74000001        -7.03536274E-12
  -1.55999994        -5.08963227E-12
  -1.38000000        -1.92751002E-12
  -1.20000005         2.01709374E-12
  -1.01999998         6.34066974E-12
 -0.839999974         1.06325790E-11
 -0.660000026         1.44175852E-11
 -0.479999989         1.71586859E-11
 -0.300000012         1.83568959E-11
 -0.119999997         1.77182904E-11
   5.99999987E-02     1.53115732E-11
  0.239999995         1.16389702E-11
  0.419999987         7.58004857E-12
  0.600000024         4.21768263E-12
  0.779999971         2.59005599E-12
  0.959999979         3.42599213E-12
   1.13999999         6.92117154E-12
   1.32000005         1.26139489E-11
   1.50000000         1.94132072E-11
   1.67999995         2.58064421E-11
   1.86000001         3.02206385E-11
   2.03999996         3.14394691E-11
   2.22000003         2.89327833E-11
   2.40000010         2.29713141E-11
   2.57999992         1.44831577E-11
   2.75999999         4.72572849E-12
   2.94000006        -5.07249234E-12
   3.11999989        -1.39486244E-11
   3.29999995        -2.12554956E-11
   3.48000002        -2.65724040E-11
   3.66000009        -2.95952672E-11
   3.83999991        -3.01124715E-11
   4.01999998        -2.80918344E-11
   4.19999981        -2.38152588E-11
   4.38000011        -1.79579181E-11
   4.55999994        -1.15388601E-11
   4.73999977        -5.74309393E-12
   4.92000008        -1.67624747E-12
   5.09999990        -1.30649641E-13
   5.28000021        -1.41787526E-12
   5.46000004        -5.29051499E-12
   5.63999987        -1.09620724E-11
   5.82000017        -1.72345783E-11
   6.00000000        -2.27394978E-11
   6.17999983        -2.62642286E-11
   6.36000013        -2.70821074E-11
   6.53999996        -2.51674914E-11
   6.71999979        -2.11969036E-11
   6.90000010        -1.63195117E-11
   7.07999992        -1.17837337E-11
   7.26000023        -8.57740094E-12
   7.44000006        -7.22419000E-12
   7.61999989        -7.78395490E-12
   7.80000019        -9.99332821E-12
   7.98000002        -1.34210681E-11
   8.15999985        -1.75391542E-11
   8.34000015        -2.17006604E-11
   8.52000046        -2.51033343E-11
   8.69999981        -2.68407536E-11
   8.88000011        -2.60859546E-11
   9.06000042        -2.23586982E-11
   9.23999977        -1.57585438E-11
   9.42000008        -7.04727119E-12
   9.60000038         2.47064240E-12
   9.77999973         1.12375361E-11
   9.96000004         1.78137106E-11
   10.1400003         2.12301027E-11
   10.3199997         2.12426708E-11
   10.5000000         1.84312132E-11
   10.6800003         1.41031952E-11
   10.8599997         9.99428665E-12
   11.0400000         7.81428915E-12
   11.2200003         8.76405372E-12
   11.3999996         1.31935990E-11
   11.5799999         2.05477996E-11
   11.7600002         2.96290006E-11
   11.9399996         3.90562895E-11
   12.1199999         4.77019535E-11
   12.3000002         5.49066036E-11
   12.4799995         6.04090250E-11
   12.6599998         6.40984973E-11
   12.8400002         6.57968402E-11
   13.0200005         6.52464957E-11
   13.1999998         6.23265120E-11
   13.3800001         5.73535802E-11
   13.5600004         5.12550939E-11
   13.7399998         4.54596812E-11
   13.9200001         4.15109579E-11
   14.1000004         4.05618247E-11
   14.2799997         4.29631504E-11
   14.4600000         4.81034379E-11
   14.6400003         5.45429084E-11
   14.8199997         6.03743930E-11
   15.0000000         6.36936337E-11
   15.1800003         6.30633948E-11
   15.3599997         5.78746356E-11
   15.5400000         4.85219261E-11
   15.7200003         3.63308966E-11
   15.8999996         2.32246739E-11
   16.0799999         1.12056501E-11
   16.2600002         1.82505421E-12
   16.4400005        -4.15799556E-12
   16.6200008        -6.79830151E-12
   16.7999992        -6.69473027E-12
   16.9799995        -4.60450688E-12
   17.1599998        -1.16574523E-12
   17.3400002         3.13844241E-12
   17.5200005         7.82292113E-12
   17.7000008         1.22293226E-11
   17.8799992         1.55443818E-11
   18.0599995         1.70664212E-11
   18.2399998         1.66023358E-11
   18.4200001         1.47681260E-11
   18.6000004         1.29767004E-11
   18.7800007         1.30718899E-11
   18.9599991         1.67463803E-11
   19.1399994         2.49975075E-11
   19.3199997         3.78217943E-11
   19.5000000         5.42299539E-11
   19.6800003         7.25248819E-11
   19.8600006         9.07132425E-11
   20.0400009         1.06917940E-10
   20.2199993         1.19724633E-10
   20.3999996         1.28421371E-10
   20.5799999         1.33086486E-10
   20.7600002         1.34494693E-10
   20.9400005         1.33847017E-10
   21.1200008         1.32391334E-10
   21.2999992         1.31069461E-10
   21.4799995         1.30331676E-10
   21.6599998         1.30179076E-10
   21.8400002         1.30367064E-10
   22.0200005         1.30611619E-10
   22.2000008         1.30664896E-10
   22.3799992         1.30240499E-10
   22.5599995         1.28881725E-10
   22.7399998         1.25936844E-10
   22.9200001         1.20734617E-10
   23.1000004         1.12901195E-10
   23.2800007         1.02659770E-10
   23.4599991         9.09287645E-11
   23.6399994         7.91466823E-11
   23.8199997         6.88835516E-11
   24.0000000         6.14126736E-11
   24.1800003         5.74177997E-11
   24.3600006         5.69099420E-11
   24.5400009         5.93276470E-11
   24.7199993         6.37399994E-11
   24.8999996         6.90639559E-11
   25.0799999         7.42488293E-11
   25.2600002         7.84271467E-11
   25.4400005         8.10326806E-11
   25.6200008         8.18704202E-11
   25.7999992         8.10989401E-11
   25.9799995         7.91394381E-11
   26.1599998         7.65599875E-11
   26.3400002         7.40012496E-11
   26.5200005         7.21683269E-11
   26.7000008         7.18562848E-11
   26.8799992         7.39293002E-11
   27.0599995         7.91763877E-11
   27.2399998         8.80306800E-11
   27.4200001         1.00281838E-10
   27.6000004         1.14932827E-10
   27.7800007         1.30323571E-10
   27.9599991         1.44514345E-10
   28.1399994         1.55807742E-10
   28.3199997         1.63205643E-10
   28.5000000         1.66634956E-10
   28.6800003         1.66886296E-10
   28.8600006         1.65326003E-10
   29.0400009         1.63502822E-10
   29.2199993         1.62771824E-10
   29.3999996         1.64019867E-10
   29.5799999         1.67542258E-10
   29.7600002         1.73074943E-10
   29.9400005         1.79960713E-10
   30.1200008         1.87375337E-10
   30.2999992         1.94550889E-10
   30.4799995         2.00905403E-10
   30.6599998         2.06049955E-10
   30.8400002         2.09702922E-10
   31.0200005         2.11612686E-10
   31.2000008         2.11582987E-10
   31.3799992         2.09602960E-10
   31.5599995         2.06003617E-10
   31.7399998         2.01528183E-10
   31.9200001         1.97198952E-10
   32.0999985         1.94001051E-10
   32.2799988         1.92503943E-10
   32.4599991         1.92610913E-10
   32.6399994         1.93549926E-10
   32.8199997         1.94112879E-10
   33.0000000         1.93020808E-10
   33.1800003         1.89268004E-10
   33.3600006         1.82329846E-10
   33.5400009         1.72234449E-10
   33.7200012         1.59520758E-10
   33.9000015         1.45143647E-10
   34.0800018         1.30343583E-10
   34.2599983         1.16470833E-10
   34.4399986         1.04775424E-10
   34.6199989         9.62047386E-11
   34.7999992         9.12635315E-11
   34.9799995         8.99768038E-11
   35.1599998         9.19547632E-11
   35.3400002         9.64890390E-11
   35.5200005         1.02646579E-10
   35.7000008         1.09346580E-10
   35.8800011         1.15479543E-10
   36.0600014         1.20083235E-10
   36.2400017         1.22595725E-10
   36.4199982         1.23050223E-10
   36.5999985         1.22094779E-10
   36.7799988         1.20787005E-10
   36.9599991         1.20202528E-10
   37.1399994         1.21023455E-10
   37.3199997         1.23258931E-10
   37.5000000         1.26221270E-10
   37.6800003         1.28715122E-10
   37.8600006         1.29348629E-10
   38.0400009         1.26817834E-10
   38.2200012         1.20129795E-10
   38.4000015         1.08796777E-10
   38.5800018         9.29820804E-11
   38.7599983         7.35821890E-11
   38.9399986         5.21765200E-11
   39.1199989         3.07752365E-11
   39.2999992         1.13481386E-11
   39.4799995        -4.70378120E-12
   39.6599998        -1.69313383E-11
   39.8400002        -2.58794097E-11
   40.0200005        -3.28119754E-11
   40.2000008        -3.92542734E-11
   40.3800011        -4.65445911E-11
   40.5600014        -5.55686538E-11
   40.7400017        -6.67240915E-11
   40.9199982        -7.99836170E-11
   41.0999985        -9.49416795E-11
   41.2799988        -1.10825855E-10
   41.4599991        -1.26532104E-10
   41.6399994        -1.40764803E-10
   41.8199997        -1.52294399E-10
   42.0000000        -1.60296013E-10
   42.1800003        -1.64628658E-10
   42.3600006        -1.65942413E-10
   42.5400009        -1.65588113E-10
   42.7200012        -1.65397085E-10
   42.9000015        -1.67401079E-10
   43.0800018        -1.73505293E-10
   43.2599983        -1.85121710E-10
   43.4399986        -2.02778572E-10
   43.6199989        -2.25830701E-10
   43.7999992        -2.52408733E-10
   43.9799995        -2.79739537E-10
   44.1599998        -3.04797049E-10
   44.3400002        -3.25069416E-10
   44.5200005        -3.39169137E-10
   44.7000008        -3.47012058E-10
   44.8800011        -3.49547946E-10
   45.0600014        -3.48219953E-10
   45.2400017        -3.44471368E-10
   45.4199982        -3.39487910E-10
   45.5999985        -3.34155814E-10
   45.7799988        -3.29095418E-10
   45.9599991        -3.24600263E-10
   46.1399994        -3.20423577E-10
   46.3199997        -3.15516946E-10
   46.5000000        -3.07986581E-10
   46.6800003        -2.95417774E-10
   46.8600006        -2.75482276E-10
   47.0400009        -2.46633658E-10
   47.2200012        -2.08649195E-10
   47.4000015        -1.62853425E-10
   47.5800018        -1.11954994E-10
   47.7599983        -5.96032529E-11
   47.9399986        -9.80190061E-12
   48.1199989         3.37659067E-11
   48.2999992         6.84180906E-11
   48.4799995         9.30084551E-11
   48.6599998         1.08129408E-10
   48.8400002         1.15898652E-10
   49.0200005         1.19342383E-10
   49.2000008         1.21526580E-10
   49.3800011         1.24784405E-10
   49.5600014         1.30334021E-10
   49.7400017         1.38339368E-10
   49.9199982         1.48229873E-10
   50.0999985         1.59019409E-10
   50.2799988         1.69466580E-10
   50.4599991         1.78042331E-10
   50.6399994         1.82892451E-10
   50.8199997         1.82054274E-10
   51.0000000         1.73970463E-10
   51.1800003         1.58115090E-10
   51.3600006         1.35418357E-10
   51.5400009         1.08283126E-10
   51.7200012         8.01436487E-11
   51.9000015         5.47190349E-11
   52.0800018         3.52729547E-11
   52.2599983         2.40865192E-11
   52.4399986         2.21420191E-11
   52.6199989         2.89859664E-11
   52.7999992         4.27476145E-11
   52.9799995         6.03536457E-11
   53.1599998         7.80039505E-11
   53.3400002         9.19381515E-11
   53.5200005         9.93247012E-11
   53.7000008         9.89589660E-11
   53.8800011         9.14703591E-11
   54.0600014         7.90258761E-11
   54.2400017         6.46567938E-11
   54.4199982         5.15030969E-11
   54.5999985         4.22597027E-11
   54.7799988         3.89180216E-11
   54.9599991         4.27153313E-11
   55.1399994         5.40692074E-11
   55.3199997         7.24922691E-11
   55.5000000         9.65656305E-11
   55.6800003         1.24013189E-10
   55.8600006         1.52009474E-10
   56.0400009         1.77642789E-10
   56.2200012         1.98444455E-10
   56.4000015         2.12792964E-10
   56.5800018         2.20131149E-10
   56.7599983         2.21124188E-10
   56.9399986         2.17687965E-10
   57.1199989         2.12903972E-10
   57.2999992         2.10647652E-10
   57.4799995         2.14871870E-10
   57.6599998         2.28606994E-10
   57.8400002         2.52941584E-10
   58.0200005         2.86459051E-10
   58.2000008         3.25420385E-10
   58.3800011         3.64661107E-10
   58.5600014         3.98900107E-10
   58.7400017         4.23954316E-10
   58.9199982         4.37463010E-10
   59.0999985         4.38990955E-10
   59.2799988         4.29700303E-10
   59.4599991         4.11903150E-10
   59.6399994         3.88727855E-10
   59.8199997         3.63853087E-10
   60.0000000         3.41231265E-10
   60.1800003         3.24643284E-10
   60.3600006         3.17013998E-10
   60.5400009         3.19741261E-10
   60.7200012         3.32172456E-10
   60.9000015         3.51521895E-10
   61.0800018         3.73207326E-10
   61.2599983         3.91613381E-10
   61.4399986         4.01166572E-10
   61.6199989         3.97516658E-10
   61.7999992         3.78588494E-10
   61.9799995         3.45210194E-10
   62.1599998         3.01051795E-10
   62.3400002         2.51791282E-10
   62.5200005         2.03667597E-10
   62.7000008         1.61896177E-10
   62.8800011         1.29467562E-10
   63.0600014         1.06703160E-10
   63.2400017         9.16283438E-11
   63.4199982         8.08948880E-11
   63.5999985         7.07553113E-11
   63.7799988         5.76951438E-11
   63.9599991         3.87709066E-11
   64.1399994         1.17796996E-11
   64.3199997        -2.44584509E-11
   64.5000000        -6.96600139E-11
   64.6800003        -1.21608473E-10
   64.8600006        -1.76024237E-10
   65.0400009        -2.27072569E-10
   65.2200012        -2.68477601E-10
   65.4000015        -2.94973213E-10
   65.5800018        -3.03619879E-10
   65.7600021        -2.94657160E-10
   65.9400024        -2.71546730E-10
   66.1200027        -2.40208520E-10
   66.3000031        -2.07720091E-10
   66.4800034        -1.80816556E-10
   66.6600037        -1.64503952E-10
   66.8399963        -1.61070379E-10
   67.0199966        -1.69779205E-10
   67.1999969        -1.87353438E-10
   67.3799973        -2.09042658E-10
   67.5599976        -2.29826963E-10
   67.7399979        -2.45515552E-10
   67.9199982        -2.53310928E-10
   68.0999985        -2.51799276E-10
   68.2799988        -2.40673453E-10
   68.4599991        -2.20575891E-10
   68.6399994        -1.93160835E-10
   68.8199997        -1.61233332E-10
   69.0000000        -1.28780875E-10
   69.1800003        -1.00547029E-10
   69.3600006        -8.11050255E-11
   69.5400009        -7.35934508E-11
   69.7200012        -7.86958068E-11
   69.9000015        -9.42672954E-11
   70.0800018        -1.15794971E-10
   70.2600021        -1.37482511E-10
   70.4400024        -1.53675933E-10
   70.6200027        -1.60158956E-10
   70.8000031        -1.55013238E-10
   70.9800034        -1.38971348E-10
   71.1600037        -1.15249581E-10
   71.3399963        -8.88271054E-11
   71.5199966        -6.53120405E-11
   71.6999969        -4.96763533E-11
   71.8799973        -4.51966971E-11
   72.0599976        -5.28860740E-11
   72.2399979        -7.15120810E-11
   72.4199982        -9.82164419E-11
   72.5999985        -1.29314351E-10
   72.7799988        -1.61014355E-10
   72.9599991        -1.89902316E-10
   73.1399994        -2.13130305E-10
   73.3199997        -2.28528571E-10
   73.5000000        -2.34816971E-10
   73.6800003        -2.31987513E-10
   73.8600006        -2.21562366E-10
   74.0400009        -2.06536024E-10
   74.2200012        -1.90904806E-10
   74.4000015        -1.78891790E-10
   74.5800018        -1.74046597E-10
   74.7600021        -1.78475998E-10
   74.9400024        -1.92572236E-10
   75.1200027        -2.15062759E-10
   75.3000031        -2.43260218E-10
   75.4800034        -2.73473244E-10
   75.6600037        -3.01753650E-10
   75.8399963        -3.24640537E-10
   76.0199966        -3.39805351E-10
   76.1999969        -3.46522117E-10
   76.3799973        -3.45853596E-10
   76.5599976        -3.40247996E-10
   76.7399979        -3.32672612E-10
   76.9199982        -3.25872468E-10
   77.0999985        -3.21830701E-10
   77.2799988        -3.21586868E-10
   77.4599991        -3.25357241E-10
   77.6399994        -3.32790573E-10
   77.8199997        -3.43063050E-10
   78.0000000        -3.54769936E-10
   78.1800003        -3.65938030E-10
   78.3600006        -3.74316661E-10
   78.5400009        -3.77832182E-10
   78.7200012        -3.75068698E-10
   78.9000015        -3.65724812E-10
   79.0800018        -3.50793006E-10
   79.2600021        -3.32309152E-10
   79.4400024        -3.12942339E-10
   79.6200027        -2.95571345E-10
   79.8000031        -2.82804807E-10
   79.9800034        -2.76496687E-10
   80.1600037        -2.77407070E-10
   80.3399963        -2.84964663E-10
   80.5199966        -2.97213060E-10
   80.6999969        -3.11139836E-10
   80.8799973        -3.23392424E-10
   81.0599976        -3.31016631E-10
   81.2399979        -3.31949301E-10
   81.4199982        -3.25247301E-10
   81.5999985        -3.10970444E-10
   81.7799988        -2.89830049E-10
   81.9599991        -2.62921740E-10
   82.1399994        -2.31775321E-10
   82.3199997        -1.98450631E-10
   82.5000000        -1.65351219E-10
   82.6800003        -1.34826983E-10
   82.8600006        -1.08614388E-10
   83.0400009        -8.72110509E-11
   83.2200012        -6.95497687E-11
   83.4000015        -5.33016443E-11
   83.5800018        -3.56571890E-11
   83.7600021        -1.41541986E-11
   83.9400024         1.26647980E-11
   84.1200027         4.48166851E-11
   84.3000031         8.08133560E-11
   84.4800034         1.17867299E-10
   84.6600037         1.52346788E-10
   84.8399963         1.80373660E-10
   85.0199966         1.98679823E-10
   85.1999969         2.05396741E-10
   85.3799973         2.00534464E-10
   85.5599976         1.85878313E-10
   85.7399979         1.64370809E-10
   85.9199982         1.39190562E-10
   86.0999985         1.12929249E-10
   86.2799988         8.72167130E-11
   86.4599991         6.28829835E-11
   86.6399994         4.03143630E-11
   86.8199997         1.97146154E-11
   87.0000000         1.10978837E-12
   87.1800003        -1.58685131E-11
   87.3600006        -3.22108555E-11
   87.5400009        -4.94867064E-11
   87.7200012        -6.93794605E-11
   87.9000015        -9.30642091E-11
   88.0800018        -1.20748439E-10
   88.2600021        -1.51527180E-10
   88.4400024        -1.83498161E-10
   88.6200027        -2.14136625E-10
   88.8000031        -2.40786363E-10
   88.9800034        -2.61066585E-10
   89.1600037        -2.73284118E-10
   89.3399963        -2.76871526E-10
   89.5199966        -2.72727257E-10
   89.6999969        -2.63167155E-10
   89.8799973        -2.51419524E-10
   90.0599976        -2.40767517E-10
   90.2399979        -2.33534109E-10
   90.4199982        -2.30400796E-10
   90.5999985        -2.30421765E-10
   90.7799988        -2.31670169E-10
   90.9599991        -2.32095079E-10
   91.1399994        -2.30224756E-10
   91.3199997        -2.25460442E-10
   91.5000000        -2.17940360E-10
   91.6800003        -2.08172354E-10
   91.8600006        -1.96790140E-10
   92.0400009        -1.84569526E-10
   92.2200012        -1.72457590E-10
   92.4000015        -1.61459429E-10
   92.5800018        -1.52359125E-10
   92.7600021        -1.45381818E-10
   92.9400024        -1.39944029E-10
   93.1200027        -1.34707662E-10
   93.3000031        -1.27973687E-10
   93.4800034        -1.18138416E-10
   93.6600037        -1.04031131E-10
   93.8399963        -8.50789439E-11
   94.0199966        -6.13687018E-11
   94.1999969        -3.36733350E-11
   94.3799973        -3.47077748E-12
   94.5599976         2.71276872E-11
   94.7399979         5.57318428E-11
   94.9199982         8.03517600E-11
   95.0999985         1.00087487E-10
   95.2799988         1.15481562E-10
   95.4599991         1.28351912E-10
   95.6399994         1.41124140E-10
   95.8199997         1.55907121E-10
   96.0000000         1.73844369E-10
   96.1800003         1.95082089E-10
   96.3600006         2.19233923E-10
   96.5400009         2.45896914E-10
   96.7200012         2.74941098E-10
   96.9000015         3.06457443E-10
   97.0800018         3.40420220E-10
   97.2600021         3.76307874E-10
   97.4400024         4.13018231E-10
   97.6200027         4.49129817E-10
   97.8000031         4.83255713E-10
   97.9800034         5.14295662E-10
   98.1600037         5.41521328E-10
   98.3399963         5.64526259E-10
   98.5199966         5.83158521E-10
   98.6999969         5.97501493E-10
   98.8799973         6.07889072E-10
   99.0599976         6.14807594E-10
   99.2399979         6.18675444E-10
   99.4199982         6.19658325E-10
   99.5999985         6.17686846E-10
   99.7799988         6.12737583E-10
   99.9599991         6.05280992E-10
   100.139999         5.96585337E-10
   100.320000         5.88580074E-10
   100.500000         5.83268878E-10
   100.680000         5.82021653E-10
   100.860001         5.85152704E-10
   101.040001         5.91990512E-10
   101.220001         6.01480088E-10
   101.400002         6.12946860E-10
   101.580002         6.26571184E-10
   101.760002         6.43293641E-10
   101.940002         6.64287847E-10
   102.120003         6.90367152E-10
   102.300003         7.21616100E-10
   102.480003         7.57323870E-10
   102.660004         7.96186339E-10
   102.839996         8.36557656E-10
   103.019997         8.76599404E-10
   103.199997         9.14353981E-10
   103.379997         9.47902201E-10
   103.559998         9.75620362E-10
   103.739998         9.96410066E-10
   103.919998         1.00983077E-09
   104.099998         1.01601549E-09
   104.279999         1.01543629E-09
   104.459999         1.00864961E-09
   104.639999         9.96217220E-10
   104.820000         9.78825021E-10
   105.000000         9.57391499E-10
   105.180000         9.32987909E-10
   105.360001         9.06551223E-10
   105.540001         8.78566941E-10
   105.720001         8.48889403E-10
   105.900002         8.16939683E-10
   106.080002         7.82216680E-10
   106.260002         7.44811435E-10
   106.440002         7.05605907E-10
   106.620003         6.66064370E-10
   106.800003         6.27776775E-10
   106.980003         5.92075389E-10
   107.160004         5.59872093E-10
   107.339996         5.31814870E-10
   107.519997         5.08504405E-10
   107.699997         4.90532059E-10
   107.879997         4.78266537E-10
   108.059998         4.71545636E-10
   108.239998         4.69504491E-10
   108.419998         4.70710637E-10
   108.599998         4.73568074E-10
   108.779999         4.76750806E-10
   108.959999         4.79392470E-10
   109.139999         4.80940343E-10
   109.320000         4.80882945E-10
   109.500000         4.78560969E-10
   109.680000         4.73180106E-10
   109.860001         4.64018296E-10
   110.040001         4.50637083E-10
   110.220001         4.32885727E-10
   110.400002         4.10701223E-10
   110.580002         3.83881732E-10
   110.760002         3.52055551E-10
   110.940002         3.14847676E-10
   111.120003         2.72153577E-10