  -34.5000000         0.00000000    
  -34.3195000         0.00000000    
  -34.1389999         0.00000000    
  -33.9584999         4.21329878E-27
  -33.7779999        -6.89053024E-23
  -33.5974998        -4.33411238E-22
  -33.4169998        -1.34735342E-21
  -33.2364998        -2.56451900E-21
  -33.0559998        -2.70199355E-21
  -32.8754997         5.84276027E-22
  -32.6949997         8.62786699E-21
  -32.5144997         1.84433537E-20
  -32.3339996         2.08361691E-20
  -32.1534996         2.91118341E-21
  -31.9729996        -4.48874212E-20
  -31.7924995        -1.18884401E-19
  -31.6119995        -1.90171007E-19
  -31.4314995        -1.95380474E-19
  -31.2509995        -4.67377726E-20
  -31.0704994         3.24362489E-19
  -30.8899994         9.09729205E-19
  -30.7094994         1.60069158E-18
  -30.5289993         2.20672969E-18
  -30.3484993         2.44234133E-18
  -30.1679993         1.82232935E-18
  -29.9874992        -4.10662630E-19
  -29.8069992        -5.03103367E-18
  -29.6264992        -1.20959556E-17
  -29.4459991        -2.00655686E-17
  -29.2654991        -2.55196254E-17
  -29.0849991        -2.40604357E-17
  -28.9044991        -1.22762247E-17
  -28.7240009         1.01174752E-17
  -28.5435009         3.91185954E-17
  -28.3630009         6.71446723E-17
  -28.1825008         8.58397482E-17
  -28.0020008         9.02197821E-17
  -27.8215008         8.20204436E-17
  -27.6410007         6.90142527E-17
  -27.4605007         5.78260790E-17
  -27.2800007         4.16946741E-17
  -27.0995007        -9.37827021E-18
  -26.9190006        -1.44897691E-16
  -26.7385006        -4.09125807E-16
  -26.5580006        -8.00654029E-16
  -26.3775005        -1.23764187E-15
  -26.1970005        -1.55766500E-15
  -26.0165005        -1.57029638E-15
  -25.8360004        -1.15181287E-15
  -25.6555004        -3.39215440E-16
  -25.4750004         6.33388209E-16
  -25.2945004         1.39441168E-15
  -25.1140003         1.58184218E-15
  -24.9335003         1.01775064E-15
  -24.7530003        -1.75042773E-16
  -24.5725002        -1.58053129E-15
  -24.3920002        -2.63121192E-15
  -24.2115002        -2.82822416E-15
  -24.0310001        -1.94421166E-15
  -23.8505001        -1.18843156E-16
  -23.6700001         2.19494760E-15
  -23.4895000         4.40979371E-15
  -23.3090000         6.02997631E-15
  -23.1285000         6.82787838E-15
  -22.9480000         6.89568845E-15
  -22.7674999         6.54980466E-15
  -22.5869999         6.12913464E-15
  -22.4064999         5.77943667E-15
  -22.2259998         5.33159171E-15
  -22.0454998         4.35030192E-15
  -21.8649998         2.35569201E-15
  -21.6844997        -8.69160783E-16
  -21.5039997        -5.03333659E-15
  -21.3234997        -9.29882849E-15
  -21.1429996        -1.25050506E-14
  -20.9624996        -1.35831550E-14
  -20.7819996        -1.19719476E-14
  -20.6014996        -7.82109989E-15
  -20.4209995        -1.85761695E-15
  -20.2404995         5.03281609E-15
  -20.0599995         1.22845586E-14
  -19.8794994         1.98886385E-14
  -19.6989994         2.81614365E-14
  -19.5184994         3.70254364E-14
  -19.3379993         4.50348173E-14
  -19.1574993         4.85651727E-14
  -18.9769993         4.16232194E-14
  -18.7964993         1.65985915E-14
  -18.6159992        -3.39818133E-14
  -18.4354992        -1.14948415E-13
  -18.2549992        -2.25744079E-13
  -18.0744991        -3.58104036E-13
  -17.8939991        -4.94826727E-13
  -17.7134991        -6.10170009E-13
  -17.5330009        -6.72166261E-13
  -17.3525009        -6.46849111E-13
  -17.1720009        -5.04047054E-13
  -16.9915009        -2.24058998E-13
  -16.8110008         1.95792940E-13
  -16.6305008         7.35972535E-13
  -16.4500008         1.35223061E-12
  -16.2695007         1.97696286E-12
  -16.0890007         2.52510729E-12
  -15.9084997         2.90449674E-12
  -15.7279997         3.02959307E-12
  -15.5474997         2.83659988E-12
  -15.3669996         2.29727825E-12
  -15.1864996         1.42864279E-12
  -15.0059996         2.96172754E-13
  -14.8254995        -9.90792734E-13
  -14.6450005        -2.29140361E-12
  -14.4645004        -3.45184797E-12
  -14.2840004        -4.32730067E-12
  -14.1035004        -4.80376329E-12
  -13.9230003        -4.81619085E-12
  -13.7425003        -4.35987097E-12
  -13.5620003        -3.49306868E-12
  -13.3815002        -2.33027031E-12
  -13.2010002        -1.02672677E-12
  -13.0205002         2.43763804E-13
  -12.8400002         1.31485448E-12
  -12.6595001         2.05367212E-12
  -12.4790001         2.38269929E-12
  -12.2985001         2.29345883E-12
  -12.1180000         1.84883619E-12
  -11.9375000         1.17258698E-12
  -11.7570000         4.27035225E-13
  -11.5764999        -2.17375217E-13
  -11.3959999        -6.14844222E-13
  -11.2154999        -6.72530065E-13
  -11.0349998        -3.68333077E-13
  -10.8544998         2.45659070E-13
  -10.6739998         1.05466579E-12
  -10.4934998         1.90491741E-12
  -10.3129997         2.63430423E-12
  -10.1324997         3.10351853E-12
  -9.95199966         3.22152808E-12
  -9.77149963         2.96076727E-12
  -9.59099960         2.35974803E-12
  -9.41049957         1.51334381E-12
  -9.22999954         5.53216598E-13
  -9.04950047        -3.77532017E-13
  -8.86900043        -1.15071841E-12
  -8.68850040        -1.67583948E-12
  -8.50800037        -1.91549793E-12
  -8.32750034        -1.89107670E-12
  -8.14700031        -1.67773835E-12
  -7.96649981        -1.38938763E-12
  -7.78599977        -1.15574043E-12
  -7.60550022        -1.09510784E-12
  -7.42500019        -1.28770323E-12
  -7.24450016        -1.75484985E-12
  -7.06400013        -2.44898676E-12
  -6.88350010        -3.25761250E-12
  -6.70300007        -4.02140907E-12
  -6.52250004        -4.56348978E-12
  -6.34200001        -4.72391570E-12
  -6.16149998        -4.39231030E-12
  -5.98099995        -3.53181612E-12
  -5.80049992        -2.18969721E-12
  -5.61999989        -4.92847408E-13
  -5.43949986         1.37063950E-12
  -5.25899982         3.18031105E-12
  -5.07849979         4.71767764E-12
  -4.89799976         5.80053497E-12
  -4.71750021         6.31196614E-12
  -4.53700018         6.21955569E-12
  -4.35650015         5.58166144E-12
  -4.17600012         4.53943784E-12
  -3.99550009         3.29539672E-12
  -3.81500006         2.08134118E-12
  -3.63450003         1.12036975E-12
  -3.45400000         5.88792632E-13
  -3.27349997         5.84343988E-13
  -3.09299994         1.10656102E-12
  -2.91249990         2.05362376E-12
  -2.73200011         3.23722754E-12
  -2.55150008         4.41366041E-12
  -2.37100005         5.32576023E-12
  -2.19050002         5.74789738E-12
  -2.00999999         5.52535058E-12
  -1.82949996         4.60073299E-12
  -1.64900005         3.02305772E-12
  -1.46850002         9.38612035E-13
  -1.28799999        -1.43389771E-12
  -1.10749996        -3.83916813E-12
 -0.926999986        -6.02616611E-12
 -0.746500015        -7.78766027E-12
 -0.565999985        -8.99218634E-12
 -0.385500014        -9.60299895E-12
 -0.204999998        -9.68006231E-12
  -2.44999994E-02    -9.36384303E-12
  0.156000003        -8.84309206E-12
  0.336499989        -8.31239157E-12
  0.517000020        -7.92786843E-12
  0.697499990        -7.77033646E-12
  0.878000021        -7.82390125E-12
   1.05850005        -7.97518735E-12
   1.23899996        -8.03411591E-12
   1.41949999        -7.77292033E-12
   1.60000002        -6.97605905E-12
   1.78050005        -5.49087078E-12
   1.96099997        -3.26799503E-12
   2.14150000        -3.82250573E-13
   2.32200003         2.97146856E-12
   2.50250006         6.50683804E-12
   2.68300009         9.89311931E-12
   2.86350012         1.28101904E-11
   3.04399991         1.49997983E-11
   3.22449994         1.63030856E-11
   3.40499997         1.66782178E-11
   3.58550000         1.61968720E-11
   3.76600003         1.50222491E-11
   3.94650006         1.33745333E-11
   4.12699986         1.14907120E-11
   4.30749989         9.58636816E-12
   4.48799992         7.82556919E-12
   4.66849995         6.30343651E-12
   4.84899998         5.04287410E-12
   5.02950001         4.00408352E-12
   5.21000004         3.10310848E-12
   5.39050007         2.23448105E-12
   5.57100010         1.29361604E-12
   5.75150013         1.95691851E-13
   5.93200016        -1.11076697E-12
   6.11250019        -2.63644401E-12
   6.29300022        -4.35080878E-12
   6.47349977        -6.18884805E-12
   6.65399981        -8.06439290E-12
   6.83449984        -9.88751095E-12
   7.01499987        -1.15819975E-11
   7.19549990        -1.30981684E-11
   7.37599993        -1.44174074E-11
   7.55649996        -1.55476396E-11
   7.73699999        -1.65118544E-11
   7.91750002        -1.73341081E-11
   8.09799957        -1.80278032E-11
   8.27849960        -1.85891805E-11
   8.45899963        -1.89971441E-11
   8.63949966        -1.92179554E-11
   8.81999969        -1.92122429E-11
   9.00049973        -1.89417336E-11
   9.18099976        -1.83741650E-11
   9.36149979        -1.74853309E-11
   9.54199982        -1.62589508E-11
   9.72249985        -1.46851888E-11
   9.90299988        -1.27595426E-11
   10.0834999        -1.04833078E-11
   10.2639999        -7.86607411E-12
   10.4445000        -4.92953725E-12
   10.6250000        -1.71096893E-12
   10.8055000         1.73544143E-12
   10.9860001         5.33993466E-12
   11.1665001         9.02089861E-12
   11.3470001         1.26889506E-11
   11.5275002         1.62503032E-11
   11.7080002         1.96090453E-11
   11.8885002         2.26707351E-11
   12.0690002         2.53499652E-11
   12.2495003         2.75837461E-11
   12.4300003         2.93496547E-11
   12.6105003         3.06842676E-11
   12.7910004         3.16950702E-11
   12.9715004         3.25600345E-11
   13.1520004         3.35110828E-11
   13.3325005         3.48034691E-11
   13.5129995         3.66767797E-11
   13.6934996         3.93147147E-11
   13.8739996         4.28124480E-11
   14.0544996         4.71569381E-11
   14.2349997         5.22232917E-11
   14.4154997         5.77873652E-11
   14.5959997         6.35524064E-11
   14.7764997         6.91858654E-11
   14.9569998         7.43613573E-11
   15.1374998         7.88020690E-11
   15.3179998         8.23187629E-11
   15.4984999         8.48394618E-11
   15.6789999         8.64252905E-11
   15.8594999         8.72690253E-11
   16.0400009         8.76731882E-11
   16.2205009         8.80081216E-11
   16.4009991         8.86524187E-11
   16.5814991         8.99253172E-11
   16.7619991         9.20234028E-11
   16.9424992         9.49747156E-11
   17.1229992         9.86226309E-11
   17.3034992         1.02643893E-10
   17.4839993         1.06599229E-10
   17.6644993         1.10006643E-10
   17.8449993         1.12423001E-10
   18.0254993         1.13519048E-10
   18.2059994         1.13135348E-10
   18.3864994         1.11311252E-10
   18.5669994         1.08283008E-10
   18.7474995         1.04451933E-10
   18.9279995         1.00328960E-10
   19.1084995         9.64615887E-11
   19.2889996         9.33559688E-11
   19.4694996         9.14035098E-11
   19.6499996         9.08248615E-11
   19.8304996         9.16390089E-11
   20.0109997         9.36630079E-11
   20.1914997         9.65410529E-11
   20.3719997         9.98016392E-11
   20.5524998         1.02928312E-10
   20.7329998         1.05435799E-10
   20.9134998         1.06934871E-10
   21.0939999         1.07175060E-10
   21.2744999         1.06054894E-10
   21.4549999         1.03605395E-10
   21.6355000         9.99465510E-11
   21.8160000         9.52327800E-11
   21.9965000         8.95969132E-11
   22.1770000         8.31074237E-11
   22.3575001         7.57444940E-11
   22.5380001         6.73988643E-11
   22.7185001         5.78899671E-11
   22.8990002         4.70040742E-11
   23.0795002         3.45439718E-11
   23.2600002         2.03826938E-11
   23.4405003         4.51492012E-12
   23.6210003        -1.29072820E-11
   23.8015003        -3.15602440E-11
   23.9820004        -5.09651904E-11
   24.1625004        -7.05338704E-11
   24.3430004        -8.96413985E-11
   24.5235004        -1.07711423E-10
   24.7040005        -1.24299598E-10
   24.8845005        -1.39158587E-10
   25.0650005        -1.52267116E-10
   25.2455006        -1.63817085E-10
   25.4260006        -1.74157855E-10
   25.6065006        -1.83705551E-10
   25.7870007        -1.92837080E-10
   25.9675007        -2.01792860E-10
   26.1480007        -2.10605408E-10
   26.3285007        -2.19073648E-10
   26.5090008        -2.26788310E-10
   26.6895008        -2.33199848E-10
   26.8700008        -2.37715903E-10
   27.0505009        -2.39810005E-10
   27.2310009        -2.39114117E-10
   27.4115009        -2.35491543E-10
   27.5919991        -2.29063865E-10
   27.7724991        -2.20198776E-10
   27.9529991        -2.09459061E-10
   28.1334991        -1.97520333E-10
   28.3139992        -1.85072513E-10
   28.4944992        -1.72724335E-10
   28.6749992        -1.60927091E-10
   28.8554993        -1.49935037E-10
   29.0359993        -1.39803738E-10
   29.2164993        -1.30432290E-10
   29.3969994        -1.21633106E-10
   29.5774994        -1.13213064E-10
   29.7579994        -1.05051384E-10
   29.9384995        -9.71509609E-11
   30.1189995        -8.96551861E-11
   30.2994995        -8.28261904E-11
   30.4799995        -7.69832670E-11
   30.6604996        -7.24224916E-11
   30.8409996        -6.93253441E-11
   31.0214996        -6.76853643E-11
   31.2019997        -6.72633893E-11
   31.3824997        -6.75867765E-11
   31.5629997        -6.79910780E-11
   31.7434998        -6.77022535E-11
   31.9239998        -6.59482399E-11
   32.1044998        -6.20786547E-11
   32.2849998        -5.56830415E-11
   32.4654999        -4.66783383E-11
   32.6459999        -3.53555761E-11
   32.8264999        -2.23664073E-11
   33.0070000        -8.64791572E-12
   33.1875000         4.70724024E-12
   33.3680000         1.66170099E-11
   33.5485001         2.61837375E-11
   33.7290001         3.28375556E-11
   33.9095001         3.64242664E-11
   34.0900002         3.72176248E-11
   34.2705002         3.58547532E-11
   34.4510002         3.32044496E-11
   34.6315002         3.01972579E-11
   34.8120003         2.76522902E-11
   34.9925003         2.61339925E-11
   35.1730003         2.58696051E-11
   35.3535004         2.67411284E-11
   35.5340004         2.83475396E-11
   35.7145004         3.01234489E-11
   35.8950005         3.14812135E-11
   36.0755005         3.19497415E-11
   36.2560005         3.12748681E-11
   36.4365005         2.94750301E-11
   36.6170006         2.68312907E-11
   36.7975006         2.38301115E-11
   36.9780006         2.10651132E-11
   37.1585007         1.91199938E-11
   37.3390007         1.84527133E-11
   37.5195007         1.93047800E-11
   37.7000008         2.16481902E-11
   37.8805008         2.51864658E-11
   38.0610008         2.94015853E-11
   38.2415009         3.36455586E-11
   38.4220009         3.72557332E-11
   38.6025009         3.96749925E-11
   38.7830009         4.05541781E-11
   38.9635010         3.98218472E-11
   39.1440010         3.77060015E-11
   39.3245010         3.47080663E-11
   39.5050011         3.15321033E-11
   39.6855011         2.89790657E-11
   39.8660011         2.78251849E-11
   40.0465012         2.87054512E-11
   40.2270012         3.20186412E-11
   40.4075012         3.78659951E-11
   40.5880013         4.60322613E-11
   40.7685013         5.60108418E-11
   40.9490013         6.70562356E-11
   41.1295013         7.82695644E-11
   41.3100014         8.86948154E-11
   41.4905014         9.74305220E-11
   41.6710014         1.03733050E-10
   41.8515015         1.07114116E-10
   42.0320015         1.07407506E-10
   42.2125015         1.04799266E-10
   42.3930016         9.98104932E-11
   42.5735016         9.32350724E-11
   42.7540016         8.60373509E-11
   42.9345016         7.92345564E-11
   43.1150017         7.37790523E-11
   43.2955017         7.04597145E-11
   43.4760017         6.98383573E-11
   43.6565018         7.22225266E-11
   43.8370018         7.76772258E-11
   44.0175018         8.60599023E-11
   44.1980019         9.70723918E-11
   44.3785019         1.10311170E-10
   44.5589981         1.25309874E-10
   44.7394981         1.41565704E-10
   44.9199982         1.58553129E-10
   45.1004982         1.75729709E-10
   45.2809982         1.92540456E-10
   45.4614983         2.08423612E-10
   45.6419983         2.22822025E-10
   45.8224983         2.35198028E-10
   46.0029984         2.45049231E-10
   46.1834984         2.51929810E-10
   46.3639984         2.55476390E-10
   46.5444984         2.55437477E-10
   46.7249985         2.51704074E-10
   46.9054985         2.44331527E-10
   47.0859985         2.33542324E-10
   47.2664986         2.19702159E-10
   47.4469986         2.03271983E-10
   47.6274986         1.84741097E-10
   47.8079987         1.64559602E-10
   47.9884987         1.43083878E-10
   48.1689987         1.20548557E-10
   48.3494987         9.70737518E-11
   48.5299988         7.27013519E-11
   48.7104988         4.74534058E-11
   48.8909988         2.13992053E-11
   49.0714989        -5.28787821E-12
   49.2519989        -3.22946080E-11
   49.4324989        -5.91628482E-11
   49.6129990        -8.53181484E-11
   49.7934990        -1.10124722E-10
   49.9739990        -1.32961600E-10
   50.1544991        -1.53305535E-10
   50.3349991        -1.70811101E-10
   50.5154991        -1.85377033E-10
   50.6959991        -1.97186267E-10
   50.8764992        -2.06711176E-10
   51.0569992        -2.14673612E-10
   51.2374992        -2.21954580E-10
   51.4179993        -2.29465599E-10
   51.5984993        -2.37991821E-10
   51.7789993        -2.48040116E-10
   51.9594994        -2.59721800E-10
   52.1399994        -2.72700557E-10
   52.3204994        -2.86224267E-10
   52.5009995        -2.99241687E-10
   52.6814995        -3.10584863E-10
   52.8619995        -3.19185428E-10
   53.0424995        -3.24280991E-10
   53.2229996        -3.25569571E-10
   53.4034996        -3.23285426E-10
   53.5839996        -3.18174376E-10
   53.7644997        -3.11372844E-10
   53.9449997        -3.04215791E-10
   54.1254997        -2.98004343E-10
   54.3059998        -2.93778973E-10
   54.4864998        -2.92138286E-10
   54.6669998        -2.93141622E-10
   54.8474998        -2.96309310E-10
   55.0279999        -3.00728109E-10
   55.2084999        -3.05240028E-10
   55.3889999        -3.08683107E-10
   55.5695000        -3.10143800E-10
   55.7500000        -3.09168885E-10
   55.9305000        -3.05902553E-10
   56.1110001        -3.01116326E-10
   56.2915001        -2.96119657E-10
   56.4720001        -2.92565222E-10
   56.6525002        -2.92181557E-10
   56.8330002        -2.96482949E-10
   57.0135002        -3.06503850E-10
   57.1940002        -3.22611327E-10
   57.3745003        -3.44427986E-10
   57.5550003        -3.70873499E-10
   57.7355003        -4.00318279E-10
   57.9160004        -4.30816827E-10
   58.0965004        -4.60380623E-10
   58.2770004        -4.87239582E-10
   58.4575005        -5.10050946E-10
   58.6380005        -5.28023625E-10
   58.8185005        -5.40940626E-10
   58.9990005        -5.49086443E-10
   59.1795006        -5.53093960E-10
   59.3600006        -5.53756874E-10
   59.5405006        -5.51830970E-10
   59.7210007        -5.47877410E-10
   59.9015007        -5.42163647E-10
   60.0820007        -5.34642830E-10
   60.2625008        -5.25008925E-10
   60.4430008        -5.12812737E-10
   60.6235008        -4.97610231E-10
   60.8040009        -4.79109863E-10
   60.9845009        -4.57289179E-10
   61.1650009        -4.32449798E-10
   61.3455009        -4.05210865E-10
   61.5260010        -3.76435993E-10
   61.7065010        -3.47122026E-10
   61.8870010        -3.18271076E-10
   62.0675011        -2.90768631E-10
   62.2480011        -2.65294120E-10
   62.4285011        -2.42274811E-10
   62.6090012        -2.21875351E-10
   62.7895012        -2.04028197E-10
   62.9700012        -1.88481647E-10
   63.1505013        -1.74856990E-10
   63.3310013        -1.62708111E-10
   63.5115013        -1.51569077E-10
   63.6920013        -1.40997616E-10
   63.8725014        -1.30614755E-10
   64.0530014        -1.20136401E-10
   64.2334976        -1.09401849E-10
   64.4140015        -9.83918641E-11
   64.5944977        -8.72245332E-11
   64.7750015        -7.61411420E-11
   64.9554977        -6.54626076E-11
   65.1360016        -5.55395105E-11
   65.3164978        -4.66913730E-11
   65.4970016        -3.91609835E-11
   65.6774979        -3.30838829E-11
   65.8580017        -2.84746948E-11
   66.0384979        -2.52381345E-11
   66.2190018        -2.31841560E-11
   66.3994980        -2.20572102E-11
   66.5800018        -2.15613204E-11
   66.7604980        -2.13758785E-11
   66.9410019        -2.11607658E-11
   67.1214981        -2.05638770E-11
   67.3020020        -1.92181687E-11
   67.4824982        -1.67530920E-11
   67.6630020        -1.28148369E-11
   67.8434982        -7.09731232E-12
   68.0240021         6.19510628E-13
   68.2044983         1.04287403E-11
   68.3850021         2.22742883E-11
   68.5654984         3.59471342E-11
   68.7460022         5.10941740E-11
   68.9264984         6.72585390E-11
   69.1070023         8.39305986E-11
   69.2874985         1.00602707E-10
   69.4680023         1.16827076E-10
   69.6484985         1.32259717E-10
   69.8290024         1.46687357E-10
   70.0094986         1.60034916E-10
   70.1900024         1.72348830E-10
   70.3704987         1.83764171E-10
   70.5510025         1.94463695E-10
   70.7314987         2.04633283E-10
   70.9120026         2.14423007E-10
   71.0924988         2.23923741E-10
   71.2730026         2.33153941E-10
   71.4534988         2.42051379E-10
   71.6340027         2.50480386E-10
   71.8144989         2.58231492E-10
   71.9950027         2.65043654E-10
   72.1754990         2.70611505E-10
   72.3560028         2.74615164E-10
   72.5364990         2.76750595E-10
   72.7170029         2.76767081E-10
   72.8974991         2.74509915E-10
   73.0780029         2.69962774E-10
   73.2584991         2.63281397E-10
   73.4390030         2.54807148E-10
   73.6194992         2.45060722E-10
   73.8000031         2.34700037E-10
   73.9804993         2.24458868E-10
   74.1610031         2.15070975E-10
   74.3414993         2.07191139E-10
   74.5220032         2.01340805E-10
   74.7024994         1.97878922E-10
   74.8830032         1.96999250E-10
   75.0634995         1.98759703E-10
   75.2440033         2.03115344E-10
   75.4244995         2.09961340E-10
   75.6050034         2.19162355E-10
   75.7854996         2.30568190E-10
   75.9660034         2.44018722E-10
   76.1464996         2.59337718E-10
   76.3270035         2.76312528E-10
   76.5074997         2.94679059E-10
   76.6880035         3.14095305E-10
   76.8684998         3.34133721E-10
   77.0490036         3.54272361E-10
   77.2294998         3.73899772E-10
   77.4100037         3.92331667E-10
   77.5904999         4.08830220E-10
   77.7710037         4.22641699E-10
   77.9514999         4.33042796E-10
   78.1320038         4.39394854E-10
   78.3125000         4.41204073E-10
   78.4929962         4.38168002E-10
   78.6735001         4.30201486E-10
   78.8539963         4.17433282E-10
   79.0345001         4.00173283E-10
   79.2149963         3.78856169E-10
   79.3955002         3.53982926E-10
   79.5759964         3.26067617E-10
   79.7565002         2.95602154E-10
   79.9369965         2.63046085E-10
   80.1175003         2.28824848E-10
   80.2979965         1.93348532E-10
   80.4785004         1.57028363E-10
   80.6589966         1.20293844E-10
   80.8395004         8.36063718E-11
   81.0199966         4.74693965E-11
   81.2005005         1.24299538E-11
   81.3809967        -2.09238564E-11
   81.5615005        -5.19671285E-11
   81.7419968        -8.00443878E-11
   81.9225006        -1.04482714E-10
   82.1029968        -1.24606700E-10
   82.2835007        -1.39772513E-10
   82.4639969        -1.49413398E-10
   82.6445007        -1.53100060E-10
   82.8249969        -1.50603557E-10
   83.0055008        -1.41952658E-10
   83.1859970        -1.27468355E-10
   83.3665009        -1.07774754E-10
   83.5469971        -8.37799621E-11
   83.7275009        -5.66266652E-11
   83.9079971        -2.76208206E-11
   84.0885010         1.86331766E-12
   84.2689972         3.04926327E-11
   84.4495010         5.70928305E-11
   84.6299973         8.07646311E-11
   84.8105011         1.00976054E-10
   84.9909973         1.17616791E-10
   85.1715012         1.30997227E-10
   85.3519974         1.41785472E-10
   85.5325012         1.50886734E-10
   85.7129974         1.59277813E-10
   85.8935013         1.67822659E-10
   86.0739975         1.77096837E-10
   86.2545013         1.87259819E-10
   86.4349976         1.97997271E-10
   86.6155014         2.08556963E-10
   86.7959976         2.17873442E-10
   86.9765015         2.24761904E-10
   87.1569977         2.28142810E-10
   87.3375015         2.27254771E-10
   87.5179977         2.21805962E-10
   87.6985016         2.12042744E-10
   87.8789978         1.98719555E-10
   88.0595016         1.82987139E-10
   88.2399979         1.66221745E-10
   88.4205017         1.49829552E-10
   88.6009979         1.35063988E-10
   88.7815018         1.22881358E-10
   88.9619980         1.13856660E-10
   89.1425018         1.08171375E-10
   89.3229980         1.05664442E-10
   89.5035019         1.05938577E-10
   89.6839981         1.08490966E-10
   89.8645020         1.12845303E-10
   90.0449982         1.18656127E-10
   90.2255020         1.25773045E-10
   90.4059982         1.34254011E-10
   90.5865021         1.44334655E-10
   90.7669983         1.56364213E-10
   90.9475021         1.70722603E-10
   91.1279984         1.87738977E-10
   91.3085022         2.07627096E-10
   91.4889984         2.30449354E-10
   91.6695023         2.56109967E-10
   91.8499985         2.84370361E-10
   92.0305023         3.14873017E-10
   92.2109985         3.47159829E-10
   92.3915024         3.80676185E-10
   92.5719986         4.14768692E-10
   92.7525024         4.48680426E-10
   92.9329987         4.81566231E-10
   93.1135025         5.12533682E-10
   93.2939987         5.40712919E-10
   93.4745026         5.65338276E-10
   93.6549988         5.85823889E-10
   93.8355026         6.01809380E-10
   94.0159988         6.13167017E-10
   94.1965027         6.19969076E-10
   94.3769989         6.22426444E-10
   94.5575027         6.20817175E-10
   94.7379990         6.15425488E-10
   94.9185028         6.06502737E-10
   95.0989990         5.94260030E-10
   95.2795029         5.78882609E-10
   95.4599991         5.60556435E-10
   95.6405029         5.39490619E-10
   95.8209991         5.15924026E-10
   96.0015030         4.90115892E-10
   96.1819992         4.62328009E-10
   96.3625031         4.32812730E-10
   96.5429993         4.01817857E-10
   96.7235031         3.69609954E-10
   96.9039993         3.36507239E-10
   97.0845032         3.02903036E-10
   97.2649994         2.69266331E-10
   97.4455032         2.36106051E-10
   97.6259995         2.03912748E-10
   97.8065033         1.73088321E-10
   97.9869995         1.43890316E-10
   98.1675034         1.16409361E-10
   98.3479996         9.05849146E-11
   98.5285034         6.62528712E-11
   98.7089996         4.32093597E-11
   98.8895035         2.12679579E-11
   99.0699997         2.94192323E-13
   99.2505035        -1.97920152E-11
   99.4309998        -3.90448680E-11
   99.6115036        -5.75391366E-11
   99.7919998        -7.54151255E-11
   99.9725037        -9.29050240E-11
   100.153000        -1.10325936E-10
   100.333504        -1.28044367E-10
   100.514000        -1.46419710E-10
   100.694504        -1.65745515E-10
   100.875000        -1.86202720E-10
   101.055496        -2.07838191E-10
   101.236000        -2.30571603E-10
   101.416496        -2.54226556E-10
   101.597000        -2.78575218E-10
   101.777496        -3.03394115E-10
   101.958000        -3.28517491E-10
   102.138496        -3.53890112E-10
   102.319000        -3.79605680E-10
   102.499496        -4.05923406E-10
   102.680000        -4.33248881E-10
   102.860497        -4.62074212E-10
   103.041000        -4.92880237E-10
   103.221497        -5.26018007E-10
   103.402000        -5.61590940E-10
   103.582497        -5.99370997E-10
   103.763000        -6.38767650E-10
   103.943497        -6.78865297E-10
   104.124001        -7.18525406E-10
   104.304497        -7.56529561E-10
   104.485001        -7.91738730E-10
   104.665497        -8.23232260E-10
   104.846001        -8.50402415E-10
   105.026497        -8.72986516E-10
   105.207001        -8.91040852E-10
   105.387497        -9.04868791E-10
   105.568001        -9.14924358E-10
   105.748497        -9.21714982E-10
   105.929001        -9.25713950E-10
   106.109497        -9.27296073E-10
   106.290001        -9.26694554E-10
   106.470497        -9.23983223E-10
   106.651001        -9.19092358E-10
   106.831497        -9.11863085E-10
   107.012001        -9.02140140E-10
   107.192497        -8.89894380E-10
   107.373001        -8.75353456E-10
   107.553497        -8.59099125E-10
   107.734001        -8.42096504E-10
   107.914497        -8.25631175E-10
   108.095001        -8.11143930E-10
   108.275497        -7.99996902E-10
   108.456001        -7.93208277E-10
   108.636497        -7.91216093E-10
   108.817001        -7.93735577E-10
   108.997498        -7.99740718E-10
   109.178001        -8.07594103E-10
   109.358498        -8.15293610E-10
   109.539001        -8.20797375E-10
   109.719498        -8.22354407E-10
   109.900002        -8.18776047E-10
   110.080498        -8.09598055E-10
   110.261002        -7.95107258E-10
   110.441498        -7.76236575E-10
   110.622002        -7.54361906E-10
   110.802498        -7.31042282E-10
   110.983002        -7.07750414E-10
   111.163498        -6.85640156E-10
   111.344002        -6.65384525E-10
   111.524498        -6.47094989E-10