  -34.5000000         0.00000000    
  -34.3199997         0.00000000    
  -34.1399994         0.00000000    
  -33.9599991         0.00000000    
  -33.7799988         2.32503144E-25
  -33.5999985         9.27285878E-25
  -33.4199982         2.41390392E-24
  -33.2400017        -2.77123030E-24
  -33.0600014        -4.64254235E-23
  -32.8800011        -1.79553009E-22
  -32.7000008        -4.27870582E-22
  -32.5200005        -6.87829709E-22
  -32.3400002        -3.65734116E-22
  -32.1599998         2.48455592E-21
  -31.9799995         1.15548060E-20
  -31.7999992         2.84885882E-20
  -31.6200008         4.13604750E-20
  -31.4400005         1.31593361E-20
  -31.2600002        -1.02635136E-19
  -31.0799999        -2.95691607E-19
  -30.8999996        -4.19875431E-19
  -30.7199993        -2.24615234E-19
  -30.5400009         4.13257728E-19
  -30.3600006         1.21230246E-18
  -30.1800003         1.57153191E-18
  -30.0000000         1.21651478E-18
  -29.8199997         7.93730101E-19
  -29.6399994         1.19699332E-18
  -29.4599991         1.34053056E-18
  -29.2800007        -3.35649627E-18
  -29.1000004        -1.78520068E-17
  -28.9200001        -3.86354624E-17
  -28.7399998        -4.56265712E-17
  -28.5599995        -7.35405006E-18
  -28.3799992         9.28921115E-17
  -28.2000008         2.20881417E-16
  -28.0200005         2.77116067E-16
  -27.8400002         1.37734585E-16
  -27.6599998        -2.48052143E-16
  -27.4799995        -7.56282049E-16
  -27.2999992        -1.07046266E-15
  -27.1200008        -8.12400311E-16
  -26.9400005         2.03593104E-16
  -26.7600002         1.72827459E-15
  -26.5799999         3.03172997E-15
  -26.3999996         3.16889891E-15
  -26.2199993         1.49358622E-15
  -26.0400009        -1.83072937E-15
  -25.8600006        -5.64702001E-15
  -25.6800003        -8.14981898E-15
  -25.5000000        -7.68373148E-15
  -25.3199997        -3.63350495E-15
  -25.1399994         3.07400539E-15
  -24.9599991         1.01875905E-14
  -24.7800007         1.50403897E-14
  -24.6000004         1.57346246E-14
  -24.4200001         1.19956865E-14
  -24.2399998         5.21852848E-15
  -24.0599995        -2.36449332E-15
  -23.8799992        -8.98224654E-15
  -23.7000008        -1.43739289E-14
  -23.5200005        -1.99266788E-14
  -23.3400002        -2.76591528E-14
  -23.1599998        -3.84176503E-14
  -22.9799995        -5.01647640E-14
  -22.7999992        -5.73872547E-14
  -22.6200008        -5.23027869E-14
  -22.4400005        -2.77903209E-14
  -22.2600002         1.88993972E-14
  -22.0799999         8.31847612E-14
  -21.8999996         1.52449152E-13
  -21.7199993         2.08355184E-13
  -21.5400009         2.31720757E-13
  -21.3600006         2.08314445E-13
  -21.1800003         1.33369552E-13
  -21.0000000         1.30411081E-14
  -20.8199997        -1.37665527E-13
  -20.6399994        -2.99374214E-13
  -20.4599991        -4.53043636E-13
  -20.2800007        -5.82787507E-13
  -20.1000004        -6.75924323E-13
  -19.9200001        -7.21113653E-13
  -19.7399998        -7.06704172E-13
  -19.5599995        -6.21419799E-13
  -19.3799992        -4.58141500E-13
  -19.2000008        -2.19497638E-13
  -19.0200005         7.75987008E-14
  -18.8400002         4.01453420E-13
  -18.6599998         7.10596350E-13
  -18.4799995         9.63254758E-13
  -18.2999992         1.12804232E-12
  -18.1200008         1.19181412E-12
  -17.9400005         1.16167210E-12
  -17.7600002         1.06047289E-12
  -17.5799999         9.17816821E-13
  -17.3999996         7.60157128E-13
  -17.2199993         6.03719982E-13
  -17.0400009         4.52498851E-13
  -16.8600006         3.01318893E-13
  -16.6800003         1.41926916E-13
  -16.5000000        -3.09380885E-14
  -16.3199997        -2.16184885E-13
  -16.1399994        -4.06829897E-13
  -15.9600000        -5.93390083E-13
  -15.7799997        -7.67791104E-13
  -15.6000004        -9.25154593E-13
  -15.4200001        -1.06212402E-12
  -15.2399998        -1.17262255E-12
  -15.0600004        -1.24394158E-12
  -14.8800001        -1.25654185E-12
  -14.6999998        -1.18938344E-12
  -14.5200005        -1.02954299E-12
  -14.3400002        -7.81940485E-13
  -14.1599998        -4.73972424E-13
  -13.9799995        -1.51569770E-13
  -13.8000002         1.32940330E-13
  -13.6199999         3.36799734E-13
  -13.4399996         4.40183399E-13
  -13.2600002         4.51708386E-13
  -13.0799999         4.04398683E-13
  -12.8999996         3.44612387E-13
  -12.7200003         3.18900749E-13
  -12.5400000         3.63512145E-13
  -12.3599997         4.98822175E-13
  -12.1800003         7.27995192E-13
  -12.0000000         1.03760056E-12
  -11.8199997         1.39827722E-12
  -11.6400003         1.76538439E-12
  -11.4600000         2.08136264E-12
  -11.2799997         2.28198038E-12
  -11.1000004         2.30741923E-12
  -10.9200001         2.11672086E-12
  -10.7399998         1.70192473E-12
  -10.5600004         1.09709095E-12
  -10.3800001         3.78074498E-13
  -10.1999998        -3.48847063E-13
  -10.0200005        -9.68172265E-13
  -9.84000015        -1.38162268E-12
  -9.65999985        -1.53296841E-12
  -9.47999954        -1.42400620E-12
  -9.30000019        -1.11644895E-12
  -9.11999989        -7.18469663E-13
  -8.93999958        -3.59359379E-13
  -8.76000023        -1.59433976E-13
  -8.57999992        -2.03412469E-13
  -8.39999962        -5.23676209E-13
  -8.22000027        -1.09601434E-12
  -8.03999996        -1.84653334E-12
  -7.86000013        -2.66610193E-12
  -7.67999983        -3.42847712E-12
  -7.50000000        -4.00949933E-12
  -7.32000017        -4.30584778E-12
  -7.13999987        -4.25191479E-12
  -6.96000004        -3.83235197E-12
  -6.78000021        -3.08686865E-12
  -6.59999990        -2.10441994E-12
  -6.42000008        -1.00625617E-12
  -6.23999977         7.90779931E-14
  -6.05999994         1.04264882E-12
  -5.88000011         1.81676657E-12
  -5.69999981         2.38569798E-12
  -5.51999998         2.78328597E-12
  -5.34000015         3.07908234E-12
  -5.15999985         3.35747857E-12
  -4.98000002         3.69539946E-12
  -4.80000019         4.14364289E-12
  -4.61999989         4.71527201E-12
  -4.44000006         5.38238941E-12
  -4.26000023         6.08047727E-12
  -4.07999992         6.71788927E-12
  -3.90000010         7.18756348E-12
  -3.72000003         7.37873478E-12
  -3.53999996         7.18792604E-12
  -3.35999990         6.53020823E-12
  -3.18000007         5.35179149E-12
  -3.00000000         3.64355898E-12
  -2.81999993         1.45243832E-12
  -2.64000010        -1.11453598E-12
  -2.46000004        -3.89828577E-12
  -2.27999997        -6.70923690E-12
  -2.09999990        -9.35856080E-12
  -1.91999996        -1.16909173E-11
  -1.74000001        -1.36092318E-11
  -1.55999994        -1.50848049E-11
  -1.38000000        -1.61513632E-11
  -1.20000005        -1.68870161E-11
  -1.01999998        -1.73907416E-11
 -0.839999974        -1.77596705E-11
 -0.660000026        -1.80708244E-11
 -0.479999989        -1.83681646E-11
 -0.300000012        -1.86545883E-11
 -0.119999997        -1.88889304E-11
   5.99999987E-02    -1.89891557E-11
  0.239999995        -1.88433574E-11
  0.419999987        -1.83290223E-11
  0.600000024        -1.73387103E-11
  0.779999971        -1.58075410E-11
  0.959999979        -1.37358345E-11
   1.13999999        -1.12000843E-11
   1.32000005        -8.34709385E-12
   1.50000000        -5.36977580E-12
   1.67999995        -2.46853406E-12
   1.86000001         1.92927854E-13
   2.03999996         2.52501600E-12
   2.22000003         4.53106866E-12
   2.40000010         6.30109203E-12
   2.57999992         7.98224074E-12
   2.75999999         9.73636102E-12
   2.94000006         1.16993559E-11
   3.11999989         1.39553022E-11
   3.29999995         1.65308062E-11
   3.48000002         1.94060341E-11
   3.66000009         2.25323475E-11
   3.83999991         2.58463233E-11
   4.01999998         2.92746036E-11
   4.19999981         3.27317548E-11
   4.38000011         3.61177165E-11
   4.55999994         3.93216432E-11
   4.73999977         4.22347816E-11
   4.92000008         4.47682620E-11
   5.09999990         4.68687797E-11
   5.28000021         4.85244379E-11
   5.46000004         4.97577708E-11
   5.63999987         5.06080941E-11
   5.82000017         5.11102341E-11
   6.00000000         5.12773678E-11
   6.17999983         5.10945522E-11
   6.36000013         5.05246019E-11
   6.53999996         4.95235554E-11
   6.71999979         4.80585918E-11
   6.90000010         4.61206212E-11
   7.07999992         4.37258979E-11
   7.26000023         4.09056469E-11
   7.44000006         3.76890567E-11
   7.61999989         3.40881004E-11
   7.80000019         3.00929837E-11
   7.98000002         2.56816634E-11
   8.15999985         2.08390701E-11
   8.34000015         1.55768384E-11
   8.52000046         9.94204458E-12
   8.69999981         4.01008350E-12
   8.88000011        -2.13613914E-12
   9.06000042        -8.43049242E-12
   9.23999977        -1.48399192E-11
   9.42000008        -2.13662230E-11
   9.60000038        -2.80343249E-11
   9.77999973        -3.48753422E-11
   9.96000004        -4.19137641E-11
   10.1400003        -4.91631597E-11
   10.3199997        -5.66295413E-11
   10.5000000        -6.43144357E-11
   10.6800003        -7.22120766E-11
   10.8599997        -8.02991076E-11
   11.0400000        -8.85211002E-11
   11.2200003        -9.67846844E-11
   11.3999996        -1.04961421E-10
   11.5799999        -1.12906441E-10
   11.7600002        -1.20484803E-10
   11.9399996        -1.27598279E-10
   12.1199999        -1.34202149E-10
   12.3000002        -1.40305878E-10
   12.4799995        -1.45957843E-10
   12.6599998        -1.51217580E-10
   12.8400002        -1.56125973E-10
   13.0200005        -1.60682037E-10
   13.1999998        -1.64834368E-10
   13.3800001        -1.68492054E-10
   13.5600004        -1.71550163E-10
   13.7399998        -1.73923528E-10
   13.9200001        -1.75578385E-10
   14.1000004        -1.76552079E-10
   14.2799997        -1.76958656E-10
   14.4600000        -1.76981915E-10
   14.6400003        -1.76859458E-10
   14.8199997        -1.76862580E-10
   15.0000000        -1.77271808E-10
   15.1800003        -1.78348628E-10
   15.3599997        -1.80302870E-10
   15.5400000        -1.83261864E-10
   15.7200003        -1.87251284E-10
   15.8999996        -1.92197799E-10
   16.0799999        -1.97956040E-10
   16.2600002        -2.04354089E-10
   16.4400005        -2.11241788E-10
   16.6200008        -2.18521395E-10
   16.7999992        -2.26150251E-10
   16.9799995        -2.34113035E-10
   17.1599998        -2.42376647E-10
   17.3400002        -2.50845483E-10
   17.5200005        -2.59335498E-10
   17.7000008        -2.67573880E-10
   17.8799992        -2.75224926E-10
   18.0599995        -2.81931589E-10
   18.2399998        -2.87360108E-10
   18.4200001        -2.91238339E-10
   18.6000004        -2.93380348E-10
   18.7800007        -2.93698094E-10
   18.9599991        -2.92200930E-10
   19.1399994        -2.88988833E-10
   19.3199997        -2.84240936E-10
   19.5000000        -2.78203433E-10
   19.6800003        -2.71173084E-10
   19.8600006        -2.63475741E-10
   20.0400009        -2.55437393E-10
   20.2199993        -2.47349918E-10
   20.3999996        -2.39439885E-10
   20.5799999        -2.31848554E-10
   20.7600002        -2.24631938E-10
   20.9400005        -2.17782278E-10
   21.1200008        -2.11261952E-10
   21.2999992        -2.05037903E-10
   21.4799995        -1.99104330E-10
   21.6599998        -1.93486921E-10
   21.8400002        -1.88235413E-10
   22.0200005        -1.83411564E-10
   22.2000008        -1.79082763E-10
   22.3799992        -1.75320966E-10
   22.5599995        -1.72202419E-10
   22.7399998        -1.69797967E-10
   22.9200001        -1.68148911E-10
   23.1000004        -1.67236419E-10
   23.2800007        -1.66954423E-10
   23.4599991        -1.67104233E-10
   23.6399994        -1.67420994E-10
   23.8199997        -1.67625913E-10
   24.0000000        -1.67494171E-10
   24.1800003        -1.66916744E-10
   24.3600006        -1.65936875E-10
   24.5400009        -1.64752212E-10
   24.7199993        -1.63678779E-10
   24.8999996        -1.63088890E-10
   25.0799999        -1.63334526E-10
   25.2600002        -1.64677799E-10
   25.4400005        -1.67243872E-10
   25.6200008        -1.71005654E-10
   25.7999992        -1.75804538E-10
   25.9799995        -1.81399104E-10
   26.1599998        -1.87526300E-10
   26.3400002        -1.93960237E-10
   26.5200005        -2.00553532E-10
   26.7000008        -2.07256323E-10
   26.8799992        -2.14112797E-10
   27.0599995        -2.21238861E-10
   27.2399998        -2.28788724E-10
   27.4200001        -2.36913378E-10
   27.6000004        -2.45714449E-10
   27.7800007        -2.55203497E-10
   27.9599991        -2.65269390E-10
   28.1399994        -2.75668266E-10
   28.3199997        -2.86037694E-10
   28.5000000        -2.95933833E-10
   28.6800003        -3.04882702E-10
   28.8600006        -3.12434578E-10
   29.0400009        -3.18207821E-10
   29.2199993        -3.21919130E-10
   29.3999996        -3.23400501E-10
   29.5799999        -3.22608884E-10
   29.7600002        -3.19632348E-10
   29.9400005        -3.14694548E-10
   30.1200008        -3.08151032E-10
   30.2999992        -3.00476449E-10
   30.4799995        -2.92234459E-10
   30.6599998        -2.84034934E-10
   30.8400002        -2.76481060E-10
   31.0200005        -2.70114653E-10
   31.2000008        -2.65368671E-10
   31.3799992        -2.62535382E-10
   31.5599995        -2.61755312E-10
   31.7399998        -2.63029154E-10
   31.9200001        -2.66251243E-10
   32.0999985        -2.71254436E-10
   32.2799988        -2.77857654E-10
   32.4599991        -2.85903551E-10
   32.6399994        -2.95276664E-10
   32.8199997        -3.05900444E-10
   33.0000000        -3.17710414E-10
   33.1800003        -3.30614897E-10
   33.3600006        -3.44447498E-10
   33.5400009        -3.58925722E-10
   33.7200012        -3.73627240E-10
   33.9000015        -3.87992083E-10
   34.0800018        -4.01358169E-10
   34.2599983        -4.13028556E-10
   34.4399986        -4.22359064E-10
   34.6199989        -4.28846597E-10
   34.7999992        -4.32201636E-10
   34.9799995        -4.32385794E-10
   35.1599998        -4.29608543E-10
   35.3400002        -4.24287688E-10
   35.5200005        -4.16982532E-10
   35.7000008        -4.08313966E-10
   35.8800011        -3.98881539E-10
   36.0600014        -3.89189514E-10
   36.2400017        -3.79586640E-10
   36.4199982        -3.70230957E-10
   36.5999985        -3.61081776E-10
   36.7799988        -3.51924406E-10
   36.9599991        -3.42423506E-10
   37.1399994        -3.32193939E-10
   37.3199997        -3.20879573E-10
   37.5000000        -3.08222170E-10
   37.6800003        -2.94111291E-10
   37.8600006        -2.78606666E-10
   38.0400009        -2.61929423E-10
   38.2200012        -2.44425674E-10
   38.4000015        -2.26505231E-10
   38.5800018        -2.08569689E-10
   38.7599983        -1.90942387E-10
   38.9399986        -1.73817113E-10
   39.1199989        -1.57235919E-10
   39.2999992        -1.41100756E-10
   39.4799995        -1.25215366E-10
   39.6599998        -1.09347795E-10
   39.8400002        -9.33006866E-11
   40.0200005        -7.69796726E-11
   40.2000008        -6.04462244E-11
   40.3800011        -4.39429708E-11
   40.5600014        -2.78823978E-11
   40.7400017        -1.27911631E-11
   40.9199982         7.86933452E-13
   41.0999985         1.24096679E-11
   41.2799988         2.18478482E-11
   41.4599991         2.91573397E-11
   41.6399994         3.46828018E-11
   41.8199997         3.89930484E-11
   42.0000000         4.27596743E-11
   42.1800003         4.66132410E-11
   42.3600006         5.10134261E-11
   42.5400009         5.61594660E-11
   42.7200012         6.19612972E-11
   42.9000015         6.80662887E-11
   43.0800018         7.39348444E-11
   43.2599983         7.89473070E-11
   43.4399986         8.25217950E-11
   43.6199989         8.42188749E-11
   43.7999992         8.38169950E-11
   43.9799995         8.13401499E-11
   44.1599998         7.70360165E-11
   44.3400002         7.13094236E-11
   44.5200005         6.46306203E-11
   44.7000008         5.74379572E-11
   44.8800011         5.00591860E-11
   45.0600014         4.26643373E-11
   45.2400017         3.52567212E-11
   45.4199982         2.77057439E-11
   45.5999985         1.98071264E-11
   45.7799988         1.13624761E-11
   45.9599991         2.25381974E-12
   46.1399994        -7.50373548E-12
   46.3199997        -1.77501017E-11
   46.5000000        -2.82047944E-11
   46.6800003        -3.85229487E-11
   46.8600006        -4.83539840E-11
   47.0400009        -5.73894890E-11
   47.2200012        -6.53859189E-11
   47.4000015        -7.21692012E-11
   47.5800018        -7.76347181E-11
   47.7599983        -8.17519732E-11
   47.9399986        -8.45735218E-11
   48.1199989        -8.62408894E-11
   48.2999992        -8.69678288E-11
   48.4799995        -8.69990191E-11
   48.6599998        -8.65495522E-11
   48.8400002        -8.57460006E-11
   49.0200005        -8.45932144E-11
   49.2000008        -8.29731214E-11
   49.3800011        -8.06778255E-11
   49.5600014        -7.74556461E-11
   49.7400017        -7.30559432E-11
   49.9199982        -6.72590872E-11
   50.0999985        -5.98936664E-11
   50.2799988        -5.08426079E-11
   50.4599991        -4.00482321E-11
   50.6399994        -2.75148845E-11
   50.8199997        -1.33052432E-11
   51.0000000         2.47220755E-12
   51.1800003         1.96880654E-11
   51.3600006         3.82228971E-11
   51.5400009         5.80004621E-11
   51.7200012         7.90107563E-11
   51.9000015         1.01319619E-10
   52.0800018         1.25055369E-10
   52.2599983         1.50372784E-10
   52.4399986         1.77397944E-10
   52.6199989         2.06162601E-10
   52.7999992         2.36547920E-10
   52.9799995         2.68257722E-10
   53.1599998         3.00835912E-10
   53.3400002         3.33722355E-10
   53.5200005         3.66335212E-10
   53.7000008         3.98145739E-10
   53.8800011         4.28727498E-10
   54.0600014         4.57769295E-10
   54.2400017         4.85063656E-10
   54.4199982         5.10485709E-10
   54.5999985         5.33982580E-10
   54.7799988         5.55571811E-10
   54.9599991         5.75344716E-10
   55.1399994         5.93454896E-10
   55.3199997         6.10088258E-10
   55.5000000         6.25422436E-10
   55.6800003         6.39588937E-10
   55.8600006         6.52656484E-10
   56.0400009         6.64643340E-10
   56.2200012         6.75547618E-10
   56.4000015         6.85384471E-10
   56.5800018         6.94207747E-10
   56.7599983         7.02108593E-10
   56.9399986         7.09196590E-10
   57.1199989         7.15564719E-10
   57.2999992         7.21261939E-10
   57.4799995         7.26277538E-10
   57.6599998         7.30546346E-10
   57.8400002         7.33973993E-10
   58.0200005         7.36476991E-10
   58.2000008         7.38022921E-10
   58.3800011         7.38655470E-10
   58.5600014         7.38490269E-10
   58.7400017         7.37679917E-10
   58.9199982         7.36359196E-10
   59.0999985         7.34589500E-10
   59.2799988         7.32332028E-10
   59.4599991         7.29456384E-10
   59.6399994         7.25789318E-10
   59.8199997         7.21180837E-10
   60.0000000         7.15558168E-10
   60.1800003         7.08961279E-10
   60.3600006         7.01545932E-10
   60.5400009         6.93566760E-10
   60.7200012         6.85351054E-10
   60.9000015         6.77270684E-10
   61.0800018         6.69718447E-10
   61.2599983         6.63072763E-10
   61.4399986         6.57665145E-10
   61.6199989         6.53743837E-10
   61.7999992         6.51450449E-10
   61.9799995         6.50820065E-10
   62.1599998         6.51806220E-10
   62.3400002         6.54317323E-10
   62.5200005         6.58258392E-10
   62.7000008         6.63556043E-10
   62.8800011         6.70157208E-10
   63.0600014         6.78009704E-10
   63.2400017         6.87021717E-10
   63.4199982         6.97020275E-10
   63.5999985         7.07716552E-10
   63.7799988         7.18690496E-10
   63.9599991         7.29403149E-10
   64.1399994         7.39239781E-10
   64.3199997         7.47575002E-10
   64.5000000         7.53846818E-10
   64.6800003         7.57616470E-10
   64.8600006         7.58605456E-10
   65.0400009         7.56689322E-10
   65.2200012         7.51862905E-10
   65.4000015         7.44187822E-10
   65.5800018         7.33739014E-10
   65.7600021         7.20561277E-10
   65.9400024         7.04646452E-10
   66.1200027         6.85928481E-10
   66.3000031         6.64303390E-10
   66.4800034         6.39667819E-10
   66.6600037         6.11979800E-10
   66.8399963         5.81326376E-10
   67.0199966         5.47981605E-10
   67.1999969         5.12431375E-10
   67.3799973         4.75346928E-10
   67.5599976         4.37506364E-10
   67.7399979         3.99677791E-10
   67.9199982         3.62495561E-10
   68.0999985         3.26362548E-10
   68.2799988         2.91404317E-10
   68.4599991         2.57484062E-10
   68.6399994         2.24270325E-10
   68.8199997         1.91343580E-10
   69.0000000         1.58314098E-10
   69.1800003         1.24929372E-10
   69.3600006         9.11475617E-11
   69.5400009         5.71669379E-11
   69.7200012         2.34025785E-11
   69.9000015        -9.57964957E-12
   70.0800018        -4.11568592E-11
   70.2600021        -7.07474287E-11
   70.4400024        -9.78914311E-11
   70.6200027        -1.22299948E-10
   70.8000031        -1.43863310E-10
   70.9800034        -1.62628203E-10
   71.1600037        -1.78743451E-10
   71.3399963        -1.92394004E-10
   71.5199966        -2.03732170E-10
   71.6999969        -2.12825396E-10
   71.8799973        -2.19635116E-10
   72.0599976        -2.24032876E-10
   72.2399979        -2.25854682E-10
   72.4199982        -2.24973512E-10
   72.5999985        -2.21369659E-10
   72.7799988        -2.15175530E-10
   72.9599991        -2.06683629E-10
   73.1399994        -1.96321584E-10
   73.3199997        -1.84607801E-10
   73.5000000        -1.72105552E-10
   73.6800003        -1.59383284E-10
   73.8600006        -1.46984633E-10
   74.0400009        -1.35402467E-10
   74.2200012        -1.25051053E-10
   74.4000015        -1.16233974E-10
   74.5800018        -1.09120261E-10
   74.7600021        -1.03729837E-10
   74.9400024        -9.99403199E-11
   75.1200027        -9.75131920E-11
   75.3000031        -9.61403249E-11
   75.4800034        -9.54983662E-11
   75.6600037        -9.53115850E-11
   75.8399963        -9.54090418E-11
   76.0199966        -9.57643131E-11
   76.1999969        -9.65119998E-11
   76.3799973        -9.79270484E-11
   76.5599976        -1.00374792E-10
   76.7399979        -1.04237736E-10
   76.9199982        -1.09839082E-10
   77.0999985        -1.17381743E-10
   77.2799988        -1.26913952E-10
   77.4599991        -1.38324976E-10
   77.6399994        -1.51365004E-10
   77.8199997        -1.65686062E-10
   78.0000000        -1.80897575E-10
   78.1800003        -1.96631392E-10
   78.3600006        -2.12609541E-10
   78.5400009        -2.28700420E-10
   78.7200012        -2.44949255E-10
   78.9000015        -2.61568184E-10
   79.0800018        -2.78887080E-10
   79.2600021        -2.97270930E-10
   79.4400024        -3.17024906E-10
   79.6200027        -3.38307882E-10
   79.8000031        -3.61070757E-10
   79.9800034        -3.85033228E-10
   80.1600037        -4.09699469E-10
   80.3399963        -4.34415642E-10
   80.5199966        -4.58459298E-10
   80.6999969        -4.81148954E-10
   80.8799973        -5.01953978E-10
   81.0599976        -5.20576360E-10
   81.2399979        -5.36988065E-10
   81.4199982        -5.51408197E-10
   81.5999985        -5.64228553E-10
   81.7799988        -5.75908599E-10
   81.9599991        -5.86861448E-10
   82.1399994        -5.97356831E-10
   82.3199997        -6.07452477E-10
   82.5000000        -6.16959039E-10
   82.6800003        -6.25444474E-10
   82.8600006        -6.32279673E-10
   83.0400009        -6.36727449E-10
   83.2200012        -6.38066711E-10
   83.4000015        -6.35732078E-10
   83.5800018        -6.29439945E-10
   83.7600021        -6.19265583E-10
   83.9400024        -6.05653250E-10
   84.1200027        -5.89352955E-10
   84.3000031        -5.71303505E-10
   84.4800034        -5.52486057E-10
   84.6600037        -5.33776467E-10
   84.8399963        -5.15819054E-10
   85.0199966        -4.98942221E-10
   85.1999969        -4.83123375E-10
   85.3799973        -4.68015182E-10
   85.5599976        -4.53030446E-10
   85.7399979        -4.37471587E-10
   85.9199982        -4.20678659E-10
   86.0999985        -4.02163386E-10
   86.2799988        -3.81700838E-10
   86.4599991        -3.59362956E-10
   86.6399994        -3.35495853E-10
   86.8199997        -3.10654974E-10
   87.0000000        -2.85513529E-10
   87.1800003        -2.60760469E-10
   87.3600006        -2.37001418E-10
   87.5400009        -2.14671322E-10
   87.7200012        -1.93976543E-10
   87.9000015        -1.74879541E-10
   88.0800018        -1.57134583E-10
   88.2600021        -1.40373269E-10
   88.4400024        -1.24216706E-10
   88.6200027        -1.08388798E-10
   88.8000031        -9.28050761E-11
   88.9800034        -7.76157541E-11
   89.1600037        -6.32027555E-11
   89.3399963        -5.01316905E-11
   89.5199966        -3.90676796E-11
   89.6999969        -3.06646965E-11
   89.8799973        -2.54429429E-11
   90.0599976        -2.36734903E-11
   90.2399979        -2.52969555E-11
   90.4199982        -2.99014667E-11
   90.5999985        -3.67733413E-11
   90.7799988        -4.50148217E-11
   90.9599991        -5.37030698E-11
   91.1399994        -6.20551666E-11
   91.3199997        -6.95642710E-11
   91.5000000        -7.60839794E-11
   91.6800003        -8.18495202E-11
   91.8600006        -8.74386050E-11
   92.0400009        -9.36721811E-11
   92.2200012        -1.01471172E-10
   92.4000015        -1.11684044E-10
   92.5800018        -1.24915384E-10
   92.7600021        -1.41390955E-10
   92.9400024        -1.60892868E-10
   93.1200027        -1.82781262E-10
   93.3000031        -2.06099901E-10
   93.4800034        -2.29739394E-10
   93.6600037        -2.52619758E-10
   93.8399963        -2.73858297E-10
   94.0199966        -2.92894264E-10
   94.1999969        -3.09554271E-10
   94.3799973        -3.24051785E-10
   94.5599976        -3.36915551E-10
   94.7399979        -3.48859358E-10
   94.9199982        -3.60609986E-10
   95.0999985        -3.72729264E-10
   95.2799988        -3.85470184E-10
   95.4599991        -3.98698768E-10
   95.6399994        -4.11899903E-10
   95.8199997        -4.24260155E-10
   96.0000000        -4.34804998E-10
   96.1800003        -4.42557241E-10
   96.3600006        -4.46690573E-10
   96.5400009        -4.46657183E-10
   96.7200012        -4.42271164E-10
   96.9000015        -4.33737601E-10
   97.0800018        -4.21615493E-10
   97.2600021        -4.06716938E-10
   97.4400024        -3.89959259E-10
   97.6200027        -3.72200964E-10
   97.8000031        -3.54100749E-10
   97.9800034        -3.36037337E-10
   98.1600037        -3.18101878E-10
   98.3399963        -3.00161840E-10
   98.5199966        -2.81968865E-10
   98.6999969        -2.63285865E-10
   98.8799973        -2.43999959E-10
   99.0599976        -2.24205654E-10
   99.2399979        -2.04243095E-10
   99.4199982        -1.84684157E-10
   99.5999985        -1.66270817E-10
   99.7799988        -1.49812468E-10
   99.9599991        -1.36067269E-10
   100.139999        -1.25634475E-10
   100.320000        -1.18881766E-10
   100.500000        -1.15918615E-10
   100.680000        -1.16612206E-10
   100.860001        -1.20626495E-10
   101.040001        -1.27466745E-10
   101.220001        -1.36517936E-10
   101.400002        -1.47077892E-10
   101.580002        -1.58389538E-10
   101.760002        -1.69681616E-10
   101.940002        -1.80212303E-10
   102.120003        -1.89311636E-10
   102.300003        -1.96417618E-10
   102.480003        -2.01100567E-10
   102.660004        -2.03083800E-10
   102.839996        -2.02256073E-10
   103.019997        -1.98675104E-10
   103.199997        -1.92550448E-10
   103.379997        -1.84196242E-10
   103.559998        -1.73954504E-10
   103.739998        -1.62105246E-10
   103.919998        -1.48787899E-10
   104.099998        -1.33965131E-10
   104.279999        -1.17438823E-10
   104.459999        -9.89219262E-11
   104.639999        -7.81467738E-11
   104.820000        -5.49798609E-11
   105.000000        -2.95190677E-11
   105.180000        -2.14871176E-12
   105.360001         2.64604016E-11
   105.540001         5.54102805E-11
   105.720001         8.36870295E-11
   105.900002         1.10306174E-10
   106.080002         1.34458791E-10
   106.260002         1.55630023E-10
   106.440002         1.73657824E-10
   106.620003         1.88720553E-10
   106.800003         2.01261119E-10
   106.980003         2.11864581E-10
   107.160004         2.21123370E-10
   107.339996         2.29510022E-10
   107.519997         2.37283554E-10
   107.699997         2.44442383E-10
   107.879997         2.50734128E-10
   108.059998         2.55722776E-10
   108.239998         2.58903260E-10
   108.419998         2.59842647E-10
   108.599998         2.58309096E-10
   108.779999         2.54359395E-10
   108.959999         2.48359611E-10
   109.139999         2.40934106E-10
   109.320000         2.32863062E-10
   109.500000         2.24962299E-10
   109.680000         2.17966034E-10
   109.860001         2.12444382E-10
   110.040001         2.08755610E-10
   110.220001         2.07035875E-10
   110.400002         2.07218201E-10
   110.580002         2.09079906E-10
   110.760002         2.12304771E-10
   110.940002         2.16554316E-10
   111.120003         2.21533500E-10