  -34.5000000       0.00000000    
  -34.3199997       0.00000000    
  -34.1399994       0.00000000    
  -33.9599991      -1.07390514E-24
  -33.7799988       1.69943675E-20
  -33.5999985       1.01498053E-19
  -33.4199982       2.92484628E-19
  -33.2400017       4.92487569E-19
  -33.0600014       3.88703001E-19
  -32.8800011      -3.76188017E-19
  -32.7000008      -1.77338486E-18
  -32.5200005      -2.98490461E-18
  -32.3400002      -2.31565097E-18
  -32.1599998       2.47091195E-18
  -31.9799995       1.34678950E-17
  -31.7999992       3.23134731E-17
  -31.6200008       6.07944531E-17
  -31.4400005       9.89106445E-17
  -31.2600002       1.33618296E-16
  -31.0799999       1.21270647E-16
  -30.8999996      -1.43918772E-17
  -30.7199993      -3.46483195E-16
  -30.5400009      -8.69537289E-16
  -30.3600006      -1.39061105E-15
  -30.1800003      -1.42778912E-15
  -30.0000000      -3.17333562E-16
  -29.8199997       2.16528197E-15
  -29.6399994       4.87640933E-15
  -29.4599991       5.37594320E-15
  -29.2800007       2.36512542E-15
  -29.1000004      -8.97252154E-16
  -28.9200001       2.72690314E-15
  -28.7399998       1.57381415E-14
  -28.5599995       2.51154891E-14
  -28.3799992       3.57041624E-15
  -28.2000008      -6.78670377E-14
  -28.0200005      -1.68612560E-13
  -27.8400002      -2.29741166E-13
  -27.6599998      -1.68404448E-13
  -27.4799995       5.16878410E-14
  -27.2999992       3.80648665E-13
  -27.1200008       6.96721760E-13
  -26.9400005       8.58581056E-13
  -26.7600002       7.47204870E-13
  -26.5799999       2.72857366E-13
  -26.3999996      -6.20498444E-13
  -26.2199993      -1.90248143E-12
  -26.0400009      -3.36536116E-12
  -25.8600006      -4.59806975E-12
  -25.6800003      -5.14751176E-12
  -25.5000000      -4.87280659E-12
  -25.3199997      -4.30626888E-12
  -25.1399994      -4.72453196E-12
  -24.9599991      -7.73131472E-12
  -24.7800007      -1.44372014E-11
  -24.6000004      -2.46120173E-11
  -24.4200001      -3.62724156E-11
  -24.2399998      -4.59752063E-11
  -24.0599995      -4.97349766E-11
  -23.8799992      -4.41969968E-11
  -23.7000008      -2.76308421E-11
  -23.5200005      -4.55737878E-13
  -23.3400002       3.47709986E-11
  -23.1599998       7.38049760E-11
  -22.9799995       1.11427666E-10
  -22.7999992       1.42215267E-10
  -22.6200008       1.61170993E-10
  -22.4400005       1.64127642E-10
  -22.2600002       1.48037929E-10
  -22.0799999       1.11486757E-10
  -21.8999996       5.57690769E-11
  -21.7199993      -1.34869459E-11
  -21.5400009      -8.48148843E-11
  -21.3600006      -1.40725709E-10
  -21.1800003      -1.60012489E-10
  -21.0000000      -1.22882510E-10
  -20.8199997      -1.78704048E-11
  -20.6399994       1.51815782E-10
  -20.4599991       3.65347363E-10
  -20.2800007       5.86760196E-10
  -20.1000004       7.72911180E-10
  -19.9200001       8.84442353E-10
  -19.7399998       8.95397922E-10
  -19.5599995       7.96960331E-10
  -19.3799992       5.92837612E-10
  -19.2000008       2.87616042E-10
  -19.0200005      -1.26660488E-10
  -18.8400002      -6.78321455E-10
  -18.6599998      -1.41210399E-09
  -18.4799995      -2.37157671E-09
  -18.2999992      -3.57209373E-09
  -18.1200008      -4.97331820E-09
  -17.9400005      -6.46190879E-09
  -17.7600002      -7.85231347E-09
  -17.5799999      -8.90777674E-09
  -17.3999996      -9.37697742E-09
  -17.2199993      -9.03681574E-09
  -17.0400009      -7.73052999E-09
  -16.8600006      -5.39279954E-09
  -16.6800003      -2.05869610E-09
  -16.5000000       2.14115770E-09
  -16.3199997       6.99320157E-09
  -16.1399994       1.22150956E-08
  -15.9600000       1.74682881E-08
  -15.7799997       2.23705765E-08
  -15.6000004       2.65138773E-08
  -15.4200001       2.94925062E-08
  -15.2399998       3.09434718E-08
  -15.0600004       3.05937533E-08
  -14.8800001       2.83040400E-08
  -14.6999998       2.40967406E-08
  -14.5200005       1.81598203E-08
  -14.3400002       1.08255502E-08
  -14.1599998       2.53109711E-09
  -13.9799995      -6.22767926E-09
  -13.8000002      -1.49387347E-08
  -13.6199999      -2.31075106E-08
  -13.4399996      -3.02831005E-08
  -13.2600002      -3.60820600E-08
  -13.0799999      -4.02140010E-08
  -12.8999996      -4.25077573E-08
  -12.7200003      -4.29305800E-08
  -12.5400000      -4.15896935E-08
  -12.3599997      -3.87083965E-08
  -12.1800003      -3.45775781E-08
  -12.0000000      -2.94944442E-08
  -11.8199997      -2.37081874E-08
  -11.6400003      -1.73926917E-08
  -11.4600000      -1.06577405E-08
  -11.2799997      -3.59522145E-09
  -11.1000004       3.65827901E-09
  -10.9200001       1.08695071E-08
  -10.7399998       1.76914501E-08
  -10.5600004       2.36919924E-08
  -10.3800001       2.84207005E-08
  -10.1999998       3.14907211E-08
  -10.0200005       3.26477263E-08
  -9.84000015       3.18051541E-08
  -9.65999985       2.90414555E-08
  -9.47999954       2.45719640E-08
  -9.30000019       1.87176106E-08
  -9.11999989       1.18894263E-08
  -8.93999958       4.59416860E-09
  -8.76000023      -2.55109622E-09
  -8.57999992      -8.81913476E-09
  -8.39999962      -1.34106131E-08
  -8.22000027      -1.55398023E-08
  -8.03999996      -1.45572878E-08
  -7.86000013      -1.00807318E-08
  -7.67999983      -2.09680184E-09
  -7.50000000       8.99677488E-09
  -7.32000017       2.24228263E-08
  -7.13999987       3.71220743E-08
  -6.96000004       5.18903143E-08
  -6.78000021       6.55211423E-08
  -6.59999990       7.69236550E-08
  -6.42000008       8.51970938E-08
  -6.23999977       8.96611780E-08
  -6.05999994       8.98544528E-08
  -5.88000011       8.55194955E-08
  -5.69999981       7.65910571E-08
  -5.51999998       6.31941788E-08
  -5.34000015       4.56483136E-08
  -5.15999985       2.44668534E-08
  -4.98000002       3.41488282E-10
  -4.80000019      -2.58927972E-08
  -4.61999989      -5.33073852E-08
  -4.44000006      -8.09335319E-08
  -4.26000023      -1.07808788E-07
  -4.07999992      -1.33010474E-07
  -3.90000010      -1.55678336E-07
  -3.72000003      -1.75033676E-07
  -3.53999996      -1.90402773E-07
  -3.35999990      -2.01247190E-07
  -3.18000007      -2.07197218E-07
  -3.00000000      -2.08078291E-07
  -2.81999993      -2.03920479E-07
  -2.64000010      -1.94944590E-07
  -2.46000004      -1.81526104E-07
  -2.27999997      -1.64145277E-07
  -2.09999990      -1.43335598E-07
  -1.91999996      -1.19642294E-07
  -1.74000001      -9.35986719E-08
  -1.55999994      -6.57219914E-08
  -1.38000000      -3.65251296E-08
  -1.20000005      -6.53620402E-09
  -1.01999998       2.36832900E-08
 -0.839999974       5.35304459E-08
 -0.660000026       8.23685582E-08
 -0.479999989       1.09551621E-07
 -0.300000012       1.34462326E-07
 -0.119999997       1.56557874E-07
   5.99999987E-02   1.75417398E-07
  0.239999995       1.90785798E-07
  0.419999987       2.02609684E-07
  0.600000024       2.11059245E-07
  0.779999971       2.16527880E-07
  0.959999979       2.19599499E-07
   1.13999999       2.20978237E-07
   1.32000005       2.21383701E-07
   1.50000000       2.21428053E-07
   1.67999995       2.21500372E-07
   1.86000001       2.21685269E-07
   2.03999996       2.21735320E-07
   2.22000003       2.21101956E-07
   2.40000010       2.19015689E-07
   2.57999992       2.14596682E-07
   2.75999999       2.06975997E-07
   2.94000006       1.95411431E-07
   3.11999989       1.79388181E-07
   3.29999995       1.58697816E-07
   3.48000002       1.33489763E-07
   3.66000009       1.04287636E-07
   3.83999991       7.19617148E-08
   4.01999998       3.76519971E-08
   4.19999981       2.64306799E-09
   4.38000011      -3.17967697E-08
   4.55999994      -6.45882778E-08
   4.73999977      -9.49939221E-08
   4.92000008      -1.22718021E-07
   5.09999990      -1.47929910E-07
   5.28000021      -1.71202075E-07
   5.46000004      -1.93374461E-07
   5.63999987      -2.15373220E-07
   5.82000017      -2.38021258E-07
   6.00000000      -2.61877375E-07
   6.17999983      -2.87130916E-07
   6.36000013      -3.13565437E-07
   6.53999996      -3.40590532E-07
   6.71999979      -3.67331694E-07
   6.90000010      -3.92760597E-07
   7.07999992      -4.15844454E-07
   7.26000023      -4.35689316E-07
   7.44000006      -4.51650351E-07
   7.61999989      -4.63383060E-07
   7.80000019      -4.70821050E-07
   7.98000002      -4.74081247E-07
   8.15999985      -4.73319858E-07
   8.34000015      -4.68579088E-07
   8.52000046      -4.59671270E-07
   8.69999981      -4.46133129E-07
   8.88000011      -4.27263586E-07
   9.06000042      -4.02227215E-07
   9.23999977      -3.70188957E-07
   9.42000008      -3.30440770E-07
   9.60000038      -2.82495222E-07
   9.77999973      -2.26141125E-07
   9.96000004      -1.61475143E-07
   10.1400003      -8.89286014E-08
   10.3199997      -9.29944921E-09
   10.5000000       7.62188179E-08
   10.6800003       1.66036529E-07
   10.8599997       2.58225072E-07
   11.0400000       3.50650140E-07
   11.2200003       4.41173597E-07
   11.3999996       5.27886982E-07
   11.5799999       6.09320409E-07
   11.7600002       6.84569784E-07
   11.9399996       7.53306722E-07
   12.1199999       8.15674866E-07
   12.3000002       8.72115095E-07
   12.4799995       9.23187656E-07
   12.6599998       9.69459393E-07
   12.8400002       1.01149362E-06
   13.0200005       1.04994103E-06
   13.1999998       1.08568224E-06
   13.3800001       1.11995917E-06
   13.5600004       1.15443231E-06
   13.7399998       1.19113508E-06
   13.9200001       1.23233463E-06
   14.1000004       1.28033741E-06
   14.2799997       1.33729111E-06
   14.4600000       1.40502345E-06
   14.6400003       1.48493484E-06
   14.8199997       1.57793943E-06
   15.0000000       1.68443489E-06
   15.1800003       1.80428299E-06
   15.3599997       1.93680034E-06
   15.5400000       2.08077290E-06
   15.7200003       2.23452003E-06
   15.8999996       2.39603037E-06
   16.0799999       2.56316457E-06
   16.2600002       2.73390197E-06
   16.4400005       2.90657226E-06
   16.6200008       3.08001313E-06
   16.7999992       3.25361566E-06
   16.9799995       3.42723956E-06
   17.1599998       3.60103763E-06
   17.3400002       3.77524702E-06
   17.5200005       3.95001234E-06
   17.7000008       4.12529153E-06
   17.8799992       4.30084719E-06
   18.0599995       4.47630237E-06
   18.2399998       4.65120638E-06
   18.4200001       4.82506675E-06
   18.6000004       4.99732596E-06
   18.7800007       5.16729096E-06
   18.9599991       5.33405409E-06
   19.1399994       5.49645847E-06
   19.3199997       5.65313030E-06
   19.5000000       5.80259893E-06
   19.6800003       5.94347284E-06
   19.8600006       6.07464108E-06
   20.0400009       6.19544062E-06
   20.2199993       6.30576233E-06
   20.3999996       6.40608096E-06
   20.5799999       6.49739832E-06
   20.7600002       6.58114368E-06
   20.9400005       6.65905281E-06
   21.1200008       6.73304521E-06
   21.2999992       6.80512767E-06
   21.4799995       6.87731381E-06
   21.6599998       6.95155450E-06
   21.8400002       7.02965690E-06
   22.0200005       7.11319672E-06
   22.2000008       7.20341222E-06
   22.3799992       7.30109923E-06
   22.5599995       7.40653377E-06
   22.7399998       7.51943435E-06
   22.9200001       7.63899970E-06
   23.1000004       7.76401157E-06
   23.2800007       7.89301794E-06
   23.4599991       8.02454815E-06
   23.6399994       8.15733711E-06
   23.8199997       8.29050077E-06
   24.0000000       8.42359350E-06
   24.1800003       8.55653434E-06
   24.3600006       8.68937695E-06
   24.5400009       8.82199583E-06
   24.7199993       8.95373978E-06
   24.8999996       9.08318725E-06
   25.0799999       9.20809271E-06
   25.2600002       9.32556031E-06
   25.4400005       9.43245868E-06
   25.6200008       9.52598566E-06
   25.7999992       9.60428588E-06
   25.9799995       9.66697644E-06
   26.1599998       9.71547342E-06
   26.3400002       9.75307739E-06
   26.5200005       9.78479329E-06
   26.7000008       9.81692301E-06
   26.8799992       9.85654424E-06
   27.0599995       9.91094203E-06
   27.2399998       9.98708038E-06
   27.4200001       1.00911948E-05
   27.6000004       1.02285012E-05
   27.7800007       1.04030432E-05
   27.9599991       1.06176403E-05
   28.1399994       1.08739141E-05
   28.3199997       1.11723684E-05
   28.5000000       1.15125113E-05
   28.6800003       1.18929993E-05
   28.8600006       1.23117816E-05
   29.0400009       1.27662433E-05
   29.2199993       1.32533005E-05
   29.3999996       1.37694424E-05
   29.5799999       1.43107281E-05
   29.7600002       1.48727386E-05
   29.9400005       1.54505233E-05
   30.1200008       1.60385771E-05
   30.2999992       1.66308619E-05
   30.4799995       1.72208911E-05
   30.6599998       1.78018672E-05
   30.8400002       1.83668635E-05
   31.0200005       1.89090024E-05
   31.2000008       1.94216318E-05
   31.3799992       1.98984308E-05
   31.5599995       2.03334494E-05
   31.7399998       2.07210815E-05
   31.9200001       2.10559847E-05
   32.0999985       2.13329786E-05
   32.2799988       2.15470009E-05
   32.4599991       2.16931076E-05
   32.6399994       2.17666020E-05
   32.8199997       2.17632096E-05
   33.0000000       2.16793396E-05
   33.1800003       2.15123346E-05
   33.3600006       2.12606828E-05
   33.5400009       2.09241789E-05
   33.7200012       2.05039778E-05
   33.9000015       2.00025352E-05
   34.0800018       1.94234344E-05
   34.2599983       1.87711030E-05
   34.4399986       1.80504467E-05
   34.6199989       1.72664222E-05
   34.7999992       1.64236462E-05
   34.9799995       1.55260441E-05
   35.1599998       1.45766480E-05
   35.3400002       1.35775726E-05
   35.5200005       1.25301867E-05
   35.7000008       1.14354834E-05
   35.8800011       1.02946060E-05
   36.0600014       9.10944254E-06
   36.2400017       7.88320176E-06
   36.4199982       6.62084904E-06
   36.5999985       5.32930699E-06
   36.7799988       4.01737634E-06
   36.9599991       2.69535826E-06
   37.1399994       1.37444272E-06
   37.3199997       6.59598030E-08
   37.5000000      -1.21939468E-06
   37.6800003      -2.47223124E-06
   37.8600006      -3.68494034E-06
   38.0400009      -4.85189503E-06
   38.2200012      -5.96933705E-06
   38.4000015      -7.03498426E-06
   38.5800018      -8.04739557E-06
   38.7599983      -9.00522809E-06
   38.9399986      -9.90651733E-06
   39.1199989      -1.07481592E-05
   39.2999992      -1.15256744E-05
   39.4799995      -1.22333477E-05
   39.6599998      -1.28646889E-05
   39.8400002      -1.34131333E-05
   40.0200005      -1.38728301E-05
   40.2000008      -1.42393365E-05
   40.3800011      -1.45101503E-05
   40.5600014      -1.46849379E-05
   40.7400017      -1.47654919E-05
   40.9199982      -1.47554383E-05
   41.0999985      -1.46597722E-05
   41.2799988      -1.44843443E-05
   41.4599991      -1.42353720E-05
   41.6399994      -1.39190806E-05
   41.8199997      -1.35415039E-05
   42.0000000      -1.31084807E-05
   42.1800003      -1.26257919E-05
   42.3600006      -1.20994182E-05
   42.5400009      -1.15358189E-05
   42.7200012      -1.09421753E-05
   42.9000015      -1.03264920E-05
   43.0800018      -9.69753637E-06
   43.2599983      -9.06455080E-06
   43.4399986      -8.43679936E-06
   43.6199989      -7.82300413E-06
   43.7999992      -7.23078711E-06
   43.9799995      -6.66623419E-06
   44.1599998      -6.13365728E-06
   44.3400002      -5.63560025E-06
   44.5200005      -5.17307853E-06
   44.7000008      -4.74597346E-06
   44.8800011      -4.35352786E-06
   45.0600014      -3.99484816E-06
   45.2400017      -3.66935683E-06
   45.4199982      -3.37715210E-06
   45.5999985      -3.11923031E-06
   45.7799988      -2.89755917E-06
   45.9599991      -2.71497629E-06
   46.1399994      -2.57492502E-06
   46.3199997      -2.48104971E-06
   46.5000000      -2.43671343E-06
   46.6800003      -2.44450734E-06
   46.8600006      -2.50584480E-06
   47.0400009      -2.62071762E-06
   47.2200012      -2.78766470E-06
   47.4000015      -3.00396164E-06
   47.5800018      -3.26599229E-06
   47.7599983      -3.56971736E-06
   47.9399986      -3.91114327E-06
   48.1199989      -4.28667499E-06
   48.2999992      -4.69328779E-06
   48.4799995      -5.12847919E-06
   48.6599998      -5.59003229E-06
   48.8400002      -6.07565107E-06
   49.0200005      -6.58256795E-06
   49.2000008      -7.10719678E-06
   49.3800011      -7.64490505E-06
   49.5600014      -8.18993885E-06
   49.7400017      -8.73551926E-06
   49.9199982      -9.27407837E-06
   50.0999985      -9.79761899E-06
   50.2799988      -1.02981485E-05
   50.4599991      -1.07681280E-05
   50.6399994      -1.12008920E-05
   50.8199997      -1.15909861E-05
   51.0000000      -1.19343840E-05
   51.1800003      -1.22285810E-05
   51.3600006      -1.24725211E-05
   51.5400009      -1.26663845E-05
   51.7200012      -1.28112242E-05
   51.9000015      -1.29084874E-05
   52.0800018      -1.29594300E-05
   52.2599983      -1.29645377E-05
   52.4399986      -1.29230039E-05
   52.6199989      -1.28323818E-05
   52.7999992      -1.26884925E-05
   52.9799995      -1.24855933E-05
   53.1599998      -1.22168285E-05
   53.3400002      -1.18748503E-05
   53.5200005      -1.14525155E-05
   53.7000008      -1.09435096E-05
   53.8800011      -1.03428029E-05
   54.0600014      -9.64684386E-06
   54.2400017      -8.85349800E-06
   54.4199982      -7.96179029E-06
   54.5999985      -6.97153473E-06
   54.7799988      -5.88299008E-06
   54.9599991      -4.69662564E-06
   55.1399994      -3.41305167E-06
   55.3199997      -2.03310447E-06
   55.5000000      -5.58015188E-07
   55.6800003       1.01040371E-06
   55.8600006       2.66965026E-06
   56.0400009       4.41654447E-06
   56.2200012       6.24737368E-06
   56.4000015       8.15815019E-06
   56.5800018       1.01449477E-05
   56.7599983       1.22042584E-05
   56.9399986       1.43332963E-05
   57.1199989       1.65302008E-05
   57.2999992       1.87940641E-05
   57.4799995       2.11247716E-05
   57.6599998       2.35226416E-05
   57.8400002       2.59879580E-05
   58.0200005       2.85204551E-05
   58.2000008       3.11188815E-05
   58.3800011       3.37807578E-05
   58.5600014       3.65023188E-05
   58.7400017       3.92787042E-05
   58.9199982       4.21042932E-05
   59.0999985       4.49730869E-05
   59.2799988       4.78790389E-05
   59.4599991       5.08162884E-05
   59.6399994       5.37791748E-05
   59.8199997       5.67621319E-05
   60.0000000       5.97594590E-05
   60.1800003       6.27651098E-05
   60.3600006       6.57725323E-05
   60.5400009       6.87746651E-05
   60.7200012       7.17640796E-05
   60.9000015       7.47331942E-05
   61.0800018       7.76746019E-05
   61.2599983       8.05812742E-05
   61.4399986       8.34467501E-05
   61.6199989       8.62651796E-05
   61.7999992       8.90312731E-05
   61.9799995       9.17401412E-05
   62.1599998       9.43871491E-05
   62.3400002       9.69676985E-05
   62.5200005       9.94771181E-05
   62.7000008       1.01910584E-04
   62.8800011       1.04263156E-04
   63.0600014       1.06529886E-04
   63.2400017       1.08705928E-04
   63.4199982       1.10786721E-04
   63.5999985       1.12767986E-04
   63.7799988       1.14645649E-04
   63.9599991       1.16415657E-04
   64.1399994       1.18073687E-04
   64.3199997       1.19614931E-04
   64.5000000       1.21033991E-04
   64.6800003       1.22324956E-04
   64.8600006       1.23481761E-04
   65.0400009       1.24498765E-04
   65.2200012       1.25371444E-04
   65.4000015       1.26097031E-04
   65.5800018       1.26675150E-04
   65.7600021       1.27108113E-04
   65.9400024       1.27400985E-04
   66.1200027       1.27561259E-04
   66.3000031       1.27598527E-04
   66.4800034       1.27523774E-04
   66.6600037       1.27348831E-04
   66.8399963       1.27085776E-04
   67.0199966       1.26746396E-04
   67.1999969       1.26341678E-04
   67.3799973       1.25881546E-04
   67.5599976       1.25374543E-04
   67.7399979       1.24827740E-04
   67.9199982       1.24246915E-04
   68.0999985       1.23636768E-04
   68.2799988       1.23001184E-04
   68.4599991       1.22343656E-04
   68.6399994       1.21667377E-04
   68.8199997       1.20975412E-04
   69.0000000       1.20270663E-04
   69.1800003       1.19555894E-04
   69.3600006       1.18833741E-04
   69.5400009       1.18106807E-04
   69.7200012       1.17377800E-04
   69.9000015       1.16649615E-04
   70.0800018       1.15925279E-04
   70.2600021       1.15207731E-04
   70.4400024       1.14499417E-04
   70.6200027       1.13801892E-04
   70.8000031       1.13115435E-04
   70.9800034       1.12438916E-04
   71.1600037       1.11769928E-04
   71.3399963       1.11105219E-04
   71.5199966       1.10441295E-04
   71.6999969       1.09774992E-04
   71.8799973       1.09103843E-04
   72.0599976       1.08426197E-04
   72.2399979       1.07740947E-04
   72.4199982       1.07047090E-04
   72.5999985       1.06343257E-04
   72.7799988       1.05627485E-04
   72.9599991       1.04897234E-04
   73.1399994       1.04149723E-04
   73.3199997       1.03382568E-04
   73.5000000       1.02594269E-04
   73.6800003       1.01784506E-04
   73.8600006       1.00954210E-04
   74.0400009       1.00105135E-04
   74.2200012       9.92392961E-05
   74.4000015       9.83582722E-05
   74.5800018       9.74626309E-05
   74.7600021       9.65516010E-05
   74.9400024       9.56230069E-05
   75.1200027       9.46734726E-05
   75.3000031       9.36988217E-05
   75.4800034       9.26944776E-05
   75.6600037       9.16558784E-05
   75.8399963       9.05787892E-05
   76.0199966       8.94596669E-05
   76.1999969       8.82959503E-05
   76.3799973       8.70864533E-05
   76.5599976       8.58317799E-05
   76.7399979       8.45346876E-05
   76.9199982       8.32001897E-05
   77.0999985       8.18353365E-05
   77.2799988       8.04486554E-05
   77.4599991       7.90491395E-05
   77.6399994       7.76451998E-05
   77.8199997       7.62436030E-05
   78.0000000       7.48487291E-05
   78.1800003       7.34622445E-05
   78.3600006       7.20831595E-05
   78.5400009       7.07084109E-05
   78.7200012       6.93334950E-05
   78.9000015       6.79533914E-05
   79.0800018       6.65632615E-05
   79.2600021       6.51591035E-05
   79.4400024       6.37381236E-05
   79.6200027       6.22989319E-05
   79.8000031       6.08414775E-05
   79.9800034       5.93668337E-05
   80.1600037       5.78768704E-05
   80.3399963       5.63738467E-05
   80.5199966       5.48600292E-05
   80.6999969       5.33374332E-05
   80.8799973       5.18077104E-05
   81.0599976       5.02723051E-05
   81.2399979       4.87328289E-05
   81.4199982       4.71916246E-05
   81.5999985       4.56523667E-05
   81.7799988       4.41205812E-05
   81.9599991       4.26038569E-05
   82.1399994       4.11117617E-05
   82.3199997       3.96553332E-05
   82.5000000       3.82463732E-05
   82.6800003       3.68965957E-05
   82.8600006       3.56168384E-05
   83.0400009       3.44165273E-05
   83.2200012       3.33033713E-05
   83.4000015       3.22833585E-05
   83.5800018       3.13609053E-05
   83.7600021       3.05391586E-05
   83.9400024       2.98202231E-05
   84.1200027       2.92053555E-05
   84.3000031       2.86950126E-05
   84.4800034       2.82888377E-05
   84.6600037       2.79855485E-05
   84.8399963       2.77828221E-05
   85.0199966       2.76771625E-05
   85.1999969       2.76637948E-05
   85.3799973       2.77365234E-05
   85.5599976       2.78876159E-05
   85.7399979       2.81077027E-05
   85.9199982       2.83857789E-05
   86.0999985       2.87093590E-05
   86.2799988       2.90648677E-05
   86.4599991       2.94382280E-05
   86.6399994       2.98156247E-05
   86.8199997       3.01842920E-05
   87.0000000       3.05332178E-05
   87.1800003       3.08536146E-05
   87.3600006       3.11391523E-05
   87.5400009       3.13858654E-05
   87.7200012       3.15918587E-05
   87.9000015       3.17568192E-05
   88.0800018       3.18814236E-05
   88.2600021       3.19667524E-05
   88.4400024       3.20137951E-05
   88.6200027       3.20230938E-05
   88.8000031       3.19946048E-05
   88.9800034       3.19277678E-05
   89.1600037       3.18217899E-05
   89.3399963       3.16760561E-05
   89.5199966       3.14906174E-05
   89.6999969       3.12666998E-05
   89.8799973       3.10070791E-05
   90.0599976       3.07162518E-05
   90.2399979       3.04003097E-05
   90.4199982       3.00664269E-05
   90.5999985       2.97220722E-05
   90.7799988       2.93739904E-05
   90.9599991       2.90272037E-05
   91.1399994       2.86842605E-05
   91.3199997       2.83449408E-05
   91.5000000       2.80065196E-05
   91.6800003       2.76645533E-05
   91.8600006       2.73140140E-05
   92.0400009       2.69505399E-05
   92.2200012       2.65715134E-05
   92.4000015       2.61767673E-05
   92.5800018       2.57688134E-05
   92.7600021       2.53525886E-05
   92.9400024       2.49348723E-05
   93.1200027       2.45234969E-05
   93.3000031       2.41265625E-05
   93.4800034       2.37517725E-05
   93.6600037       2.34059571E-05
   93.8399963       2.30947662E-05
   94.0199966       2.28225326E-05
   94.1999969       2.25922831E-05
   94.3799973       2.24058767E-05
   94.5599976       2.22642775E-05
   94.7399979       2.21679238E-05
   94.9199982       2.21171849E-05
   95.0999985       2.21126902E-05
   95.2799988       2.21555274E-05
   95.4599991       2.22471081E-05
   95.6399994       2.23887673E-05
   95.8199997       2.25811236E-05
   96.0000000       2.28234276E-05
   96.1800003       2.31130398E-05
   96.3600006       2.34452145E-05
   96.5400009       2.38132416E-05
   96.7200012       2.42089081E-05
   96.9000015       2.46231921E-05
   97.0800018       2.50470312E-05
   97.2600021       2.54720471E-05
   97.4400024       2.58911441E-05
   97.6200027       2.62989433E-05
   97.8000031       2.66919815E-05
   97.9800034       2.70686996E-05
   98.1600037       2.74292051E-05
   98.3399963       2.77747986E-05
   98.5199966       2.81073171E-05
   98.6999969       2.84283815E-05
   98.8799973       2.87386665E-05
   99.0599976       2.90373991E-05
   99.2399979       2.93222529E-05
   99.4199982       2.95897389E-05
   99.5999985       2.98361465E-05
   99.7799988       3.00588090E-05
   99.9599991       3.02574754E-05
   100.139999       3.04354016E-05
   100.320000       3.05998547E-05
   100.500000       3.07618975E-05
   100.680000       3.09354728E-05
   100.860001       3.11359909E-05
   101.040001       3.13787423E-05
   101.220001       3.16774240E-05
   101.400002       3.20430081E-05
   101.580002       3.24831235E-05
   101.760002       3.30018011E-05
   101.940002       3.35996483E-05
   102.120003       3.42742969E-05
   102.300003       3.50210103E-05
   102.480003       3.58335019E-05
   102.660004       3.67047724E-05
   102.839996       3.76280004E-05
   103.019997       3.85973399E-05
   103.199997       3.96085125E-05
   103.379997       4.06590589E-05
   103.559998       4.17481788E-05
   103.739998       4.28762032E-05
   103.919998       4.40437652E-05
   104.099998       4.52508357E-05
   104.279999       4.64958975E-05
   104.459999       4.77753747E-05
   104.639999       4.90834427E-05
   104.820000       5.04122581E-05
   105.000000       5.17524932E-05
   105.180000       5.30941252E-05
   105.360001       5.44273062E-05
   105.540001       5.57432286E-05
   105.720001       5.70348202E-05
   105.900002       5.82972243E-05
   106.080002       5.95279307E-05
   106.260002       6.07265101E-05
   106.440002       6.18939230E-05
   106.620003       6.30315553E-05
   106.800003       6.41401202E-05
   106.980003       6.52185772E-05
   107.160004       6.62634047E-05
   107.339996       6.72681635E-05
   107.519997       6.82235914E-05
   107.699997       6.91180830E-05
   107.879997       6.99384764E-05
   108.059998       7.06711216E-05
   108.239998       7.13030458E-05
   108.419998       7.18230876E-05
   108.599998       7.22228942E-05
   108.779999       7.24976417E-05
   108.959999       7.26463259E-05
   109.139999       7.26715662E-05
   109.320000       7.25789578E-05
   109.500000       7.23761041E-05
   109.680000       7.20714743E-05
   109.860001       7.16733994E-05
   110.040001       7.11893954E-05
   110.220001       7.06259380E-05
   110.400002       6.99887751E-05
   110.580002       6.92835820E-05
   110.760002       6.85168488E-05
   110.940002       6.76966083E-05
   111.120003       6.68328503E-05
   111.300003       6.59374491E-05
   111.480003       6.50236398E-05
   111.660004       6.41051083E-05
   111.839996       6.31950534E-05
   112.019997       6.23052911E-05
   112.199997       6.14456949E-05
   112.379997       6.06238391E-05
   112.559998       5.98449697E-05
   112.739998       5.91120697E-05
   112.919998       5.84260924E-05
   113.099998       5.77862556E-05
   113.279999       5.71905694E-05
   113.459999       5.66364542E-05
   113.639999       5.61215165E-05
   113.820000       5.56442938E-05
   114.000000       5.52048223E-05
   114.180000       5.48048520E-05
   114.360001       5.44476352E-05
   114.540001       5.41372829E-05
   114.720001       5.38778440E-05
   114.900002       5.36723710E-05
   115.080002       5.35221589E-05
   115.260002       5.34264036E-05
   115.440002       5.33823659E-05
   115.620003       5.33859711E-05
   115.800003       5.34326718E-05
   115.980003       5.35183717E-05
   116.160004       5.36402222E-05
   116.339996       5.37971355E-05
   116.519997       5.39899884E-05
   116.699997       5.42216221E-05
   116.879997       5.44966206E-05
   117.059998       5.48209464E-05
   117.239998       5.52014353E-05
   117.419998       5.56450941E-05
   117.599998       5.61583511E-05
   117.779999       5.67462303E-05
   117.959999       5.74116384E-05
   118.139999       5.81549975E-05
   118.320000       5.89742485E-05
   118.500000       5.98652987E-05
   118.680000       6.08227529E-05
   118.860001       6.18407939E-05
   119.040001       6.29138667E-05
   119.220001       6.40371727E-05
   119.400002       6.52067392E-05
   119.580002       6.64191321E-05