  -34.5000000         0.00000000    
  -34.3195000         0.00000000    
  -34.1389999         0.00000000    
  -33.9584999         1.62438363E-27
  -33.7779999         1.21136297E-23
  -33.5974998         9.36513137E-23
  -33.4169998         3.74958538E-22
  -33.2364998         5.21024276E-22
  -33.0559998        -5.93143581E-22
  -32.8754997        -2.07796171E-21
  -32.6949997         6.60254010E-22
  -32.5144997         4.52568365E-21
  -32.3339996        -1.32322289E-20
  -32.1534996        -6.06410825E-20
  -31.9729996        -5.46589510E-20
  -31.7924995         1.60807530E-19
  -31.6119995         5.69360772E-19
  -31.4314995         6.80311955E-19
  -31.2509995        -3.10106703E-19
  -31.0704994        -2.56255922E-18
  -30.8899994        -4.44416639E-18
  -30.7094994        -2.70498731E-18
  -30.5289993         4.91554643E-18
  -30.3484993         1.57643271E-17
  -30.1679993         2.06348955E-17
  -29.9874992         8.06629476E-18
  -29.8069992        -2.55882268E-17
  -29.6264992        -6.63545825E-17
  -29.4459991        -8.24541708E-17
  -29.2654991        -3.97084910E-17
  -29.0849991         7.16581072E-17
  -28.9044991         2.14288443E-16
  -28.7240009         3.04338435E-16
  -28.5435009         2.45638417E-16
  -28.3630009        -1.21429824E-17
  -28.1825008        -4.20328295E-16
  -28.0020008        -8.18259238E-16
  -27.8215008        -9.81348020E-16
  -27.6410007        -7.20347100E-16
  -27.4605007         9.64356192E-18
  -27.2800007         1.04616764E-15
  -27.0995007         2.04392925E-15
  -26.9190006         2.58970477E-15
  -26.7385006         2.36572342E-15
  -26.5580006         1.29197491E-15
  -26.3775005        -4.17672396E-16
  -26.1970005        -2.31531141E-15
  -26.0165005        -3.87437995E-15
  -25.8360004        -4.67719227E-15
  -25.6555004        -4.55437164E-15
  -25.4750004        -3.61432728E-15
  -25.2945004        -2.14932705E-15
  -25.1140003        -4.64475440E-16
  -24.9335003         1.27976916E-15
  -24.7530003         3.11568682E-15
  -24.5725002         5.15389098E-15
  -24.3920002         7.33179607E-15
  -24.2115002         9.13277869E-15
  -24.0310001         9.43024989E-15
  -23.8505001         6.58822777E-15
  -23.6700001        -1.14696636E-15
  -23.4895000        -1.50669509E-14
  -23.3090000        -3.54497349E-14
  -23.1285000        -6.12756848E-14
  -22.9480000        -9.03569618E-14
  -22.7674999        -1.19850283E-13
  -22.5869999        -1.46947816E-13
  -22.4064999        -1.69454999E-13
  -22.2259998        -1.86018789E-13
  -22.0454998        -1.95940594E-13
  -21.8649998        -1.98715895E-13
  -21.6844997        -1.93577820E-13
  -21.5039997        -1.79316685E-13
  -21.3234997        -1.54503350E-13
  -21.1429996        -1.18036833E-13
  -20.9624996        -6.97687757E-14
  -20.7819996        -1.09092465E-14
  -20.6014996         5.59951018E-14
  -20.4209995         1.27540068E-13
  -20.2404995         2.00231907E-13
  -20.0599995         2.71240956E-13
  -19.8794994         3.38823696E-13
  -19.6989994         4.02214882E-13
  -19.5184994         4.61008293E-13
  -19.3379993         5.14279916E-13
  -19.1574993         5.59855222E-13
  -18.9769993         5.94108096E-13
  -18.7964993         6.12482992E-13
  -18.6159992         6.10620333E-13
  -18.4354992         5.85671377E-13
  -18.2549992         5.37267550E-13
  -18.0744991         4.67733979E-13
  -17.8939991         3.81463687E-13
  -17.7134991         2.83737362E-13
  -17.5330009         1.79496947E-13
  -17.3525009         7.25603253E-14
  -17.1720009        -3.44843376E-14
  -16.9915009        -1.39793261E-13
  -16.8110008        -2.41521972E-13
  -16.6305008        -3.37205144E-13
  -16.4500008        -4.23514658E-13
  -16.2695007        -4.96440237E-13
  -16.0890007        -5.51763279E-13
  -15.9084997        -5.85627196E-13
  -15.7279997        -5.95034601E-13
  -15.5474997        -5.78165228E-13
  -15.3669996        -5.34463966E-13
  -15.1864996        -4.64502568E-13
  -15.0059996        -3.69682312E-13
  -14.8254995        -2.51914727E-13
  -14.6450005        -1.13459325E-13
  -14.4645004         4.29468439E-14
  -14.2840004         2.13673561E-13
  -14.1035004         3.93680829E-13
  -13.9230003         5.76213014E-13
  -13.7425003         7.52989359E-13
  -13.5620003         9.14979355E-13
  -13.3815002         1.05357769E-12
  -13.2010002         1.16176654E-12
  -13.0205002         1.23484231E-12
  -12.8400002         1.27046670E-12
  -12.6595001         1.26811159E-12
  -12.4790001         1.22820352E-12
  -12.2985001         1.15134876E-12
  -12.1180000         1.03790728E-12
  -11.9375000         8.87976487E-13
  -11.7570000         7.01666047E-13
  -11.5764999         4.79485104E-13
  -11.3959999         2.22682184E-13
  -11.2154999        -6.65063707E-14
  -11.0349998        -3.84685041E-13
  -10.8544998        -7.27147346E-13
  -10.6739998        -1.08771304E-12
  -10.4934998        -1.45855853E-12
  -10.3129997        -1.83005846E-12
  -10.1324997        -2.19072135E-12
  -9.95199966        -2.52733056E-12
  -9.77149963        -2.82547553E-12
  -9.59099960        -3.07059348E-12
  -9.41049957        -3.24949204E-12
  -9.22999954        -3.35207665E-12
  -9.04950047        -3.37277970E-12
  -8.86900043        -3.31114585E-12
  -8.68850040        -3.17126208E-12
  -8.50800037        -2.96009159E-12
  -8.32750034        -2.68522812E-12
  -8.14700031        -2.35282735E-12
  -7.96649981        -1.96641271E-12
  -7.78599977        -1.52688940E-12
  -7.60550022        -1.03362501E-12
  -7.42500019        -4.86076348E-13
  -7.24450016         1.14660072E-13
  -7.06400013         7.64828196E-13
  -6.88350010         1.45763761E-12
  -6.70300007         2.18338000E-12
  -6.52250004         2.92969490E-12
  -6.34200001         3.68172810E-12
  -6.16149998         4.42211458E-12
  -5.98099995         5.13096770E-12
  -5.80049992         5.78622740E-12
  -5.61999989         6.36464536E-12
  -5.43949986         6.84354136E-12
  -5.25899982         7.20309316E-12
  -5.07849979         7.42866185E-12
  -4.89799976         7.51244639E-12
  -4.71750021         7.45391596E-12
  -4.53700018         7.25868584E-12
  -4.35650015         6.93609926E-12
  -4.17600012         6.49617599E-12
  -3.99550009         5.94686106E-12
  -3.81500006         5.29250515E-12
  -3.63450003         4.53404805E-12
  -3.45400000         3.67075988E-12
  -3.27349997         2.70291537E-12
  -3.09299994         1.63433568E-12
  -2.91249990         4.73942066E-13
  -2.73200011        -7.64066436E-13
  -2.55150008        -2.06124180E-12
  -2.37100005        -3.39635221E-12
  -2.19050002        -4.74649877E-12
  -2.00999999        -6.08749422E-12
  -1.82949996        -7.39365166E-12
  -1.64900005        -8.63774330E-12
  -1.46850002        -9.79190340E-12
  -1.28799999        -1.08298466E-11
  -1.10749996        -1.17300588E-11
 -0.926999986        -1.24787776E-11
 -0.746500015        -1.30715395E-11
 -0.565999985        -1.35123059E-11
 -0.385500014        -1.38102377E-11
 -0.204999998        -1.39750468E-11
  -2.44999994E-02    -1.40126357E-11
  0.156000003        -1.39224968E-11
  0.336499989        -1.36978276E-11
  0.517000020        -1.33282005E-11
  0.697499990        -1.28037051E-11
  0.878000021        -1.21190315E-11
   1.05850005        -1.12761423E-11
   1.23899996        -1.02847774E-11
   1.41949999        -9.16107815E-12
   1.60000002        -7.92511976E-12
   1.78050005        -6.59867820E-12
   1.96099997        -5.20387249E-12
   2.14150000        -3.76330130E-12
   2.32200003        -2.30058529E-12
   2.50250006        -8.40951278E-13
   2.68300009         5.89371434E-13
   2.86350012         1.96494557E-12
   3.04399991         3.26376491E-12
   3.22449994         4.46965295E-12
   3.40499997         5.57347397E-12
   3.58550000         6.57244485E-12
   3.76600003         7.46787094E-12
   3.94650006         8.26194408E-12
   4.12699986         8.95503029E-12
   4.30749989         9.54409728E-12
   4.48799992         1.00230033E-11
   4.66849995         1.03842620E-11
   4.84899998         1.06217951E-11
   5.02950001         1.07338626E-11
   5.21000004         1.07253954E-11
   5.39050007         1.06092453E-11
   5.57100010         1.04058602E-11
   5.75150013         1.01416566E-11
   5.93200016         9.84602851E-12
   6.11250019         9.54781306E-12
   6.29300022         9.27195820E-12
   6.47349977         9.03709746E-12
   6.65399981         8.85452996E-12
   6.83449984         8.72857515E-12
   7.01499987         8.65773338E-12
   7.19549990         8.63601725E-12
   7.37599993         8.65397858E-12
   7.55649996         8.69912128E-12
   7.73699999         8.75658313E-12
   7.91750002         8.80984608E-12
   8.09799957         8.84233138E-12
   8.27849960         8.83911954E-12
   8.45899963         8.78863822E-12
   8.63949966         8.68297274E-12
   8.81999969         8.51692935E-12
   9.00049973         8.28539060E-12
   9.18099976         7.98007840E-12
   9.36149979         7.58687991E-12
   9.54199982         7.08500446E-12
   9.72249985         6.44892473E-12
   9.90299988         5.65303577E-12
   10.0834999         4.67790607E-12
   10.2639999         3.51613183E-12
   10.4445000         2.17594584E-12
   10.6250000         6.80859340E-13
   10.8055000        -9.34723978E-13
   10.9860001        -2.63200984E-12
   11.1665001        -4.37434030E-12
   11.3470001        -6.13108305E-12
   11.5275002        -7.87794049E-12
   11.7080002        -9.59431059E-12
   11.8885002        -1.12598958E-11
   12.0690002        -1.28526868E-11
   12.2495003        -1.43498243E-11
   12.4300003        -1.57303753E-11
   12.6105003        -1.69783302E-11
   12.7910004        -1.80834740E-11
   12.9715004        -1.90387237E-11
   13.1520004        -1.98351457E-11
   13.3325005        -2.04561333E-11
   13.5129995        -2.08747082E-11
   13.6934996        -2.10550813E-11
   13.8739996        -2.09588891E-11
   14.0544996        -2.05540984E-11
   14.2349997        -1.98229783E-11
   14.4154997        -1.87664866E-11
   14.5959997        -1.74031484E-11
   14.7764997        -1.57627453E-11
   14.9569998        -1.38776716E-11
   15.1374998        -1.17743211E-11
   15.3179998        -9.46807823E-12
   15.4984999        -6.96256811E-12
   15.6789999        -4.25283029E-12
   15.8594999        -1.33026381E-12
   16.0400009         1.81285228E-12
   16.2205009         5.18114458E-12
   16.4009991         8.77639020E-12
   16.5814991         1.25984223E-11
   16.7619991         1.66462070E-11
   16.9424992         2.09161282E-11
   17.1229992         2.53984195E-11
   17.3034992         3.00735860E-11
   17.4839993         3.49096620E-11
   17.6644993         3.98637928E-11
   17.8449993         4.48872987E-11
   18.0254993         4.99336544E-11
   18.2059994         5.49665868E-11
   18.3864994         5.99650052E-11
   18.5669994         6.49235526E-11
   18.7474995         6.98483771E-11
   18.9279995         7.47493248E-11
   19.1084995         7.96316693E-11
   19.2889996         8.44899775E-11
   19.4694996         8.93057295E-11
   19.6499996         9.40479708E-11
   19.8304996         9.86780657E-11
   20.0109997         1.03153895E-10
   20.1914997         1.07434617E-10
   20.3719997         1.11483288E-10
   20.5524998         1.15268205E-10
   20.7329998         1.18764290E-10
   20.9134998         1.21952656E-10
   21.0939999         1.24821473E-10
   21.2744999         1.27365118E-10
   21.4549999         1.29582886E-10
   21.6355000         1.31476510E-10
   21.8160000         1.33046837E-10
   21.9965000         1.34290676E-10
   22.1770000         1.35198075E-10
   22.3575001         1.35750966E-10
   22.5380001         1.35922509E-10
   22.7185001         1.35678441E-10
   22.8990002         1.34980013E-10
   23.0795002         1.33788508E-10
   23.2600002         1.32071062E-10
   23.4405003         1.29807623E-10
   23.6210003         1.26995719E-10
   23.8015003         1.23653449E-10
   23.9820004         1.19817836E-10
   24.1625004         1.15539876E-10
   24.3430004         1.10876794E-10
   24.5235004         1.05884482E-10
   24.7040005         1.00611769E-10
   24.8845005         9.50985818E-11
   25.0650005         8.93767976E-11
   25.2455006         8.34745675E-11
   25.4260006         7.74206185E-11
   25.6065006         7.12481393E-11
   25.7870007         6.49960363E-11
   25.9675007         5.87084409E-11
   26.1480007         5.24329920E-11
   26.3285007         4.62192923E-11
   26.5090008         4.01186202E-11
   26.6895008         3.41855780E-11
   26.8700008         2.84799372E-11
   27.0505009         2.30674299E-11
   27.2310009         1.80173827E-11
   27.4115009         1.33970751E-11
   27.5919991         9.26394118E-12
   27.7724991         5.65822172E-12
   27.9529991         2.59979278E-12
   28.1334991         8.96924543E-14
   28.3139992        -1.88334656E-12
   28.4944992        -3.33334358E-12
   28.6749992        -4.26973778E-12
   28.8554993        -4.69407282E-12
   29.0359993        -4.60176602E-12
   29.2164993        -3.98753209E-12
   29.3969994        -2.85192508E-12
   29.5774994        -1.20425002E-12
   29.7579994         9.37386995E-13
   29.9384995         3.54964539E-12
   30.1189995         6.60825474E-12
   30.2994995         1.00908743E-11
   30.4799995         1.39762282E-11
   30.6604996         1.82410094E-11
   30.8409996         2.28562464E-11
   31.0214996         2.77861727E-11
   31.2019997         3.29902147E-11
   31.3824997         3.84292424E-11
   31.5629997         4.40724991E-11
   31.7434998         4.99037686E-11
   31.9239998         5.59231203E-11
   32.1044998         6.21430060E-11
   32.2849998         6.85802526E-11
   32.4654999         7.52458235E-11
   32.6459999         8.21366794E-11
   32.8264999         8.92310253E-11
   33.0070000         9.64900937E-11
   33.1875000         1.03864875E-10
   33.3680000         1.11304063E-10
   33.5485001         1.18761959E-10
   33.7290001         1.26201771E-10
   33.9095001         1.33596689E-10
   34.0900002         1.40924744E-10
   34.2705002         1.48166285E-10
   34.4510002         1.55300758E-10
   34.6315002         1.62306169E-10
   34.8120003         1.69159825E-10
   34.9925003         1.75838566E-10
   35.1730003         1.82319534E-10
   35.3535004         1.88577834E-10
   35.5340004         1.94585903E-10
   35.7145004         2.00312975E-10
   35.8950005         2.05725867E-10
   36.0755005         2.10790843E-10
   36.2560005         2.15475901E-10
   36.4365005         2.19753091E-10
   36.6170006         2.23598542E-10
   36.7975006         2.26993896E-10
   36.9780006         2.29925856E-10
   37.1585007         2.32386763E-10
   37.3390007         2.34372188E-10
   37.5195007         2.35879094E-10
   37.7000008         2.36902220E-10
   37.8805008         2.37430742E-10
   38.0610008         2.37446923E-10
   38.2415009         2.36927755E-10
   38.4220009         2.35849285E-10
   38.6025009         2.34193054E-10
   38.7830009         2.31952332E-10
   38.9635010         2.29135044E-10
   39.1440010         2.25764324E-10
   39.3245010         2.21874907E-10
   39.5050011         2.17508137E-10
   39.6855011         2.12706283E-10
   39.8660011         2.07508316E-10
   40.0465012         2.01948541E-10
   40.2270012         1.96057309E-10
   40.4075012         1.89865165E-10
   40.5880013         1.83404208E-10
   40.7685013         1.76709911E-10
   40.9490013         1.69819492E-10
   41.1295013         1.62768174E-10
   41.3100014         1.55585461E-10
   41.4905014         1.48293447E-10
   41.6710014         1.40908035E-10
   41.8515015         1.33443298E-10
   42.0320015         1.25916569E-10
   42.2125015         1.18352592E-10
   42.3930016         1.10781558E-10
   42.5735016         1.03236177E-10
   42.7540016         9.57434756E-11
   42.9345016         8.83198167E-11
   43.1150017         8.09693146E-11
   43.2955017         7.36869871E-11
   43.4760017         6.64659439E-11
   43.6565018         5.93048249E-11
   43.8370018         5.22120368E-11
   44.0175018         4.52069354E-11
   44.1980019         3.83144315E-11
   44.3785019         3.15600046E-11
   44.5589981         2.49651619E-11
   44.7394981         1.85456251E-11
   44.9199982         1.23126093E-11
   45.1004982         6.27577721E-12
   45.2809982         4.47875732E-13
   45.4614983        -5.15475032E-12
   45.6419983        -1.05128293E-11
   45.8224983        -1.56070400E-11
   46.0029984        -2.04244364E-11
   46.1834984        -2.49615988E-11
   46.3639984        -2.92273462E-11
   46.5444984        -3.32417704E-11
   46.7249985        -3.70304239E-11
   46.9054985        -4.06192094E-11
   47.0859985        -4.40293982E-11
   47.2664986        -4.72747189E-11
   47.4469986        -5.03638554E-11
   47.6274986        -5.33024319E-11
   47.8079987        -5.60977861E-11
   47.9884987        -5.87583177E-11
   48.1689987        -6.12932552E-11
   48.3494987        -6.37092948E-11
   48.5299988        -6.60084695E-11
   48.7104988        -6.81882606E-11
   48.8909988        -7.02424299E-11
   49.0714989        -7.21651211E-11
   49.2519989        -7.39492634E-11
   49.4324989        -7.55874391E-11
   49.6129990        -7.70674358E-11
   49.7934990        -7.83684159E-11
   49.9739990        -7.94587868E-11
   50.1544991        -8.02946876E-11
   50.3349991        -8.08210859E-11
   50.5154991        -8.09744979E-11
   50.6959991        -8.06874637E-11
   50.8764992        -7.98931546E-11
   51.0569992        -7.85329093E-11
   51.2374992        -7.65607994E-11
   51.4179993        -7.39495340E-11
   51.5984993        -7.06928335E-11
   51.7789993        -6.68050129E-11
   51.9594994        -6.23192817E-11
   52.1399994        -5.72818841E-11
   52.3204994        -5.17501875E-11
   52.5009995        -4.57880990E-11
   52.6814995        -3.94640258E-11
   52.8619995        -3.28498374E-11
   53.0424995        -2.60199588E-11
   53.2229996        -1.90525044E-11
   53.4034996        -1.20308034E-11
   53.5839996        -5.04374624E-12
   53.7644997         1.81320443E-12
   53.9449997         8.43996747E-12
   54.1254997         1.47361446E-11
   54.3059998         2.06033385E-11
   54.4864998         2.59485523E-11
   54.6669998         3.06855860E-11
   54.8474998         3.47360751E-11
   55.0279999         3.80307348E-11
   55.2084999         4.05151156E-11
   55.3889999         4.21534335E-11
   55.5695000         4.29364044E-11
   55.7500000         4.28834745E-11
   55.9305000         4.20421718E-11
   56.1110001         4.04812572E-11
   56.2915001         3.82822524E-11
   56.4720001         3.55295203E-11
   56.6525002         3.23054916E-11
   56.8330002         2.86884683E-11
   57.0135002         2.47510224E-11
   57.1940002         2.05669058E-11
   57.3745003         1.62095459E-11
   57.5550003         1.17548141E-11
   57.7355003         7.27578978E-12
   57.9160004         2.84040781E-12
   58.0965004        -1.49215145E-12
   58.2770004        -5.67399339E-12
   58.4575005        -9.66726005E-12
   58.6380005        -1.34413496E-11
   58.8185005        -1.69695959E-11
   58.9990005        -2.02270874E-11
   59.1795006        -2.31887981E-11
   59.3600006        -2.58319737E-11
   59.5405006        -2.81403355E-11
   59.7210007        -3.01064659E-11
   59.9015007        -3.17314786E-11
   60.0820007        -3.30223210E-11
   60.2625008        -3.39863415E-11
   60.4430008        -3.46270651E-11
   60.6235008        -3.49407170E-11
   60.8040009        -3.49177909E-11
   60.9845009        -3.45480658E-11
   61.1650009        -3.38244432E-11
   61.3455009        -3.27474194E-11
   61.5260010        -3.13247622E-11
   61.7065010        -2.95675533E-11
   61.8870010        -2.74900259E-11
   62.0675011        -2.51017748E-11
   62.2480011        -2.24146326E-11
   62.4285011        -1.94401734E-11
   62.6090012        -1.61981453E-11
   62.7895012        -1.27187358E-11
   62.9700012        -9.04530183E-12
   63.1505013        -5.23250410E-12
   63.3310013        -1.34402407E-12
   63.5115013         2.54837406E-12
   63.6920013         6.36983825E-12
   63.8725014         1.00465946E-11
   64.0530014         1.35048101E-11
   64.2334976         1.66738186E-11
   64.4140015         1.94875886E-11
   64.5944977         2.18834811E-11
   64.7750015         2.38031712E-11
   64.9554977         2.51956112E-11
   65.1360016         2.60120606E-11
   65.3164978         2.62131775E-11
   65.4970016         2.57640662E-11
   65.6774979         2.46340483E-11
   65.8580017         2.27956300E-11
   66.0384979         2.02257690E-11
   66.2190018         1.69068926E-11
   66.3994980         1.28347732E-11
   66.5800018         8.01833079E-12
   66.7604980         2.48547645E-12
   66.9410019        -3.71574082E-12
   67.1214981        -1.05192270E-11
   67.3020020        -1.78423491E-11
   67.4824982        -2.55893466E-11
   67.6630020        -3.36535175E-11
   67.8434982        -4.19214385E-11
   68.0240021        -5.02769666E-11
   68.2044983        -5.86078339E-11
   68.3850021        -6.68120143E-11
   68.5654984        -7.47994514E-11
   68.7460022        -8.24957255E-11
   68.9264984        -8.98380814E-11
   69.1070023        -9.67713271E-11
   69.2874985        -1.03244836E-10
   69.4680023        -1.09210613E-10
   69.6484985        -1.14623068E-10
   69.8290024        -1.19444885E-10
   70.0094986        -1.23650201E-10
   70.1900024        -1.27229977E-10
   70.3704987        -1.30195979E-10
   70.5510025        -1.32582376E-10
   70.7314987        -1.34444941E-10
   70.9120026        -1.35861530E-10
   71.0924988        -1.36925665E-10
   71.2730026        -1.37743164E-10
   71.4534988        -1.38431655E-10
   71.6340027        -1.39115067E-10
   71.8144989        -1.39922948E-10
   71.9950027        -1.40986195E-10
   72.1754990        -1.42430456E-10
   72.3560028        -1.44366921E-10
   72.5364990        -1.46886253E-10
   72.7170029        -1.50054150E-10
   72.8974991        -1.53908039E-10
   73.0780029        -1.58463603E-10
   73.2584991        -1.63716263E-10
   73.4390030        -1.69646686E-10
   73.6194992        -1.76222412E-10
   73.8000031        -1.83394092E-10
   73.9804993        -1.91092961E-10
   74.1610031        -1.99223193E-10
   74.3414993        -2.07664316E-10
   74.5220032        -2.16272625E-10
   74.7024994        -2.24886984E-10
   74.8830032        -2.33337905E-10
   75.0634995        -2.41455578E-10
   75.2440033        -2.49077453E-10
   75.4244995        -2.56052984E-10
   75.6050034        -2.62246724E-10
   75.7854996        -2.67542571E-10
   75.9660034        -2.71845851E-10
   76.1464996        -2.75084622E-10
   76.3270035        -2.77214307E-10
   76.5074997        -2.78220003E-10
   76.6880035        -2.78121193E-10
   76.8684998        -2.76970141E-10
   77.0490036        -2.74852585E-10
   77.2294998        -2.71881989E-10
   77.4100037        -2.68195993E-10
   77.5904999        -2.63949612E-10
   77.7710037        -2.59311489E-10
   77.9514999        -2.54463423E-10
   78.1320038        -2.49594290E-10
   78.3125000        -2.44895826E-10
   78.4929962        -2.40553300E-10
   78.6735001        -2.36733855E-10
   78.8539963        -2.33574798E-10
   79.0345001        -2.31176300E-10
   79.2149963        -2.29596495E-10
   79.3955002        -2.28854519E-10
   79.5759964        -2.28931568E-10
   79.7565002        -2.29778391E-10
   79.9369965        -2.31319366E-10
   80.1175003        -2.33455283E-10
   80.2979965        -2.36070191E-10
   80.4785004        -2.39034514E-10
   80.6589966        -2.42208115E-10
   80.8395004        -2.45445303E-10
   81.0199966        -2.48596005E-10
   81.2005005        -2.51507509E-10
   81.3809967        -2.54026772E-10
   81.5615005        -2.56002608E-10
   81.7419968        -2.57291743E-10
   81.9225006        -2.57764921E-10
   82.1029968        -2.57312061E-10
   82.2835007        -2.55849508E-10
   82.4639969        -2.53325222E-10
   82.6445007        -2.49722215E-10
   82.8249969        -2.45061776E-10
   83.0055008        -2.39403247E-10
   83.1859970        -2.32841385E-10
   83.3665009        -2.25499966E-10
   83.5469971        -2.17523624E-10
   83.7275009        -2.09069248E-10
   83.9079971        -2.00299971E-10
   84.0885010        -1.91378580E-10
   84.2689972        -1.82462725E-10
   84.4495010        -1.73700221E-10
   84.6299973        -1.65222544E-10
   84.8105011        -1.57137692E-10
   84.9909973        -1.49528209E-10
   85.1715012        -1.42449566E-10
   85.3519974        -1.35932085E-10
   85.5325012        -1.29985814E-10
   85.7129974        -1.24605576E-10
   85.8935013        -1.19773788E-10
   86.0739975        -1.15462938E-10
   86.2545013        -1.11635659E-10
   86.4349976        -1.08246169E-10
   86.6155014        -1.05242461E-10
   86.7959976        -1.02566747E-10
   86.9765015        -1.00157868E-10
   87.1569977        -9.79498843E-11
   87.3375015        -9.58736909E-11
   87.5179977        -9.38552430E-11
   87.6985016        -9.18169013E-11
   87.8789978        -8.96793473E-11
   88.0595016        -8.73639563E-11
   88.2399979        -8.47981685E-11
   88.4205017        -8.19202206E-11
   88.6009979        -7.86845589E-11
   88.7815018        -7.50654955E-11
   88.9619980        -7.10579998E-11
   89.1425018        -6.66764075E-11
   89.3229980        -6.19488350E-11
   89.5035019        -5.69076487E-11
   89.6839981        -5.15813399E-11
   89.8645020        -4.59878524E-11
   90.0449982        -4.01307945E-11
   90.2255020        -3.40005801E-11
   90.4059982        -2.75769650E-11
   90.5865021        -2.08343169E-11
   90.7669983        -1.37461110E-11
   90.9475021        -6.28968405E-12
   91.1279984         1.54893503E-12
   91.3085022         9.77060099E-12
   91.4889984         1.83586497E-11
   91.6695023         2.72751665E-11
   91.8499985         3.64620660E-11
   92.0305023         4.58418928E-11
   92.2109985         5.53252479E-11
   92.3915024         6.48166243E-11
   92.5719986         7.42203313E-11
   92.7525024         8.34449801E-11
   92.9329987         9.24082338E-11
   93.1135025         1.01039524E-10
   93.2939987         1.09283235E-10
   93.4745026         1.17101870E-10
   93.6549988         1.24476512E-10
   93.8355026         1.31406039E-10
   94.0159988         1.37904882E-10
   94.1965027         1.43998716E-10
   94.3769989         1.49724261E-10
   94.5575027         1.55124941E-10
   94.7379990         1.60251742E-10
   94.9185028         1.65160469E-10
   95.0989990         1.69912237E-10
   95.2795029         1.74573050E-10
   95.4599991         1.79215739E-10
   95.6405029         1.83922572E-10
   95.8209991         1.88790192E-10
   96.0015030         1.93929831E-10
   96.1819992         1.99468747E-10
   96.3625031         2.05542305E-10
   96.5429993         2.12286064E-10
   96.7235031         2.19824201E-10
   96.9039993         2.28258037E-10
   97.0845032         2.37654646E-10
   97.2649994         2.48039145E-10
   97.4455032         2.59386707E-10
   97.6259995         2.71622863E-10
   97.8065033         2.84624796E-10
   97.9869995         2.98234271E-10
   98.1675034         3.12271348E-10
   98.3479996         3.26551924E-10
   98.5285034         3.40903250E-10
   98.7089996         3.55172364E-10
   98.8895035         3.69230174E-10
   99.0699997         3.82969101E-10
   99.2505035         3.96297523E-10
   99.4309998         4.09133394E-10
   99.6115036         4.21398527E-10
   99.7919998         4.33013070E-10
   99.9725037         4.43891396E-10
   100.153000         4.53940135E-10
   100.333504         4.63058675E-10
   100.514000         4.71145345E-10
   100.694504         4.78108719E-10
   100.875000         4.83882490E-10
   101.055496         4.88440621E-10
   101.236000         4.91808205E-10
   101.416496         4.94069119E-10
   101.597000         4.95363084E-10
   101.777496         4.95874619E-10
   101.958000         4.95814612E-10
   102.138496         4.95400110E-10
   102.319000         4.94832564E-10
   102.499496         4.94279229E-10
   102.680000         4.93864061E-10
   102.860497         4.93664110E-10
   103.041000         4.93714458E-10
   103.221497         4.94016383E-10
   103.402000         4.94547792E-10
   103.582497         4.95273711E-10
   103.763000         4.96154784E-10
   103.943497         4.97155928E-10
   104.124001         4.98252384E-10
   104.304497         4.99436159E-10
   104.485001         5.00714248E-10
   104.665497         5.02103414E-10
   104.846001         5.03619313E-10
   105.026497         5.05258668E-10
   105.207001         5.06987841E-10
   105.387497         5.08732390E-10
   105.568001         5.10378684E-10
   105.748497         5.11783005E-10
   105.929001         5.12786869E-10
   106.109497         5.13235010E-10
   106.290001         5.12990983E-10
   106.470497         5.11949538E-10
   106.651001         5.10041787E-10
   106.831497         5.07239972E-10
   107.012001         5.03552644E-10
   107.192497         4.99021102E-10
   107.373001         4.93707353E-10
   107.553497         4.87685226E-10
   107.734001         4.81023776E-10
   107.914497         4.73776296E-10
   108.095001         4.65969319E-10
   108.275497         4.57598653E-10
   108.456001         4.48629550E-10
   108.636497         4.39007747E-10
   108.817001         4.28672209E-10
   108.997498         4.17574503E-10
   109.178001         4.05691647E-10
   109.358498         3.93035576E-10
   109.539001         3.79653031E-10
   109.719498         3.65616648E-10
   109.900002         3.51012552E-10
   110.080498         3.35925870E-10
   110.261002         3.20431237E-10
   110.441498         3.04584857E-10
   110.622002         2.88424368E-10
   110.802498         2.71966921E-10
   110.983002         2.55211963E-10
   111.163498         2.38140563E-10
   111.344002         2.20722995E-10
   111.524498         2.02923525E-10