  -34.5000000         0.00000000    
  -34.3199997         0.00000000    
  -34.1399994         0.00000000    
  -33.9599991         4.54894708E-24
  -33.7799988        -7.06149872E-20
  -33.5999985        -4.12943529E-19
  -33.4199982        -1.10282490E-18
  -33.2400017        -1.37236925E-18
  -33.0600014         1.15908156E-18
  -32.8800011         1.08737664E-17
  -32.7000008         3.36327336E-17
  -32.5200005         7.23804807E-17
  -32.3400002         1.16933520E-16
  -32.1599998         1.39524670E-16
  -31.9799995         1.13111430E-16
  -31.7999992         3.28214150E-17
  -31.6200008        -1.08025738E-16
  -31.4400005        -3.52107123E-16
  -31.2600002        -6.88038351E-16
  -31.0799999        -8.92357786E-16
  -30.8999996        -7.37449966E-16
  -30.7199993        -7.45304449E-16
  -30.5400009        -2.45316708E-15
  -30.3600006        -6.59018865E-15
  -30.1800003        -9.76894957E-15
  -30.0000000        -3.97219912E-15
  -29.8199997         1.71235706E-14
  -29.6399994         4.81312005E-14
  -29.4599991         6.92649673E-14
  -29.2800007         5.91773267E-14
  -29.1000004         1.60842070E-14
  -28.9200001        -3.31058287E-14
  -28.7399998        -4.90575496E-14
  -28.5599995        -1.15415405E-14
  -28.3799992         5.83810750E-14
  -28.2000008         9.75297385E-14
  -28.0200005         1.11670859E-14
  -27.8400002        -3.09265580E-13
  -27.6599998        -9.29599171E-13
  -27.4799995        -1.73833951E-12
  -27.2999992        -2.27849835E-12
  -27.1200008        -1.73238908E-12
  -26.9400005         7.10867021E-13
  -26.7600002         5.08979621E-12
  -26.5799999         9.92351167E-12
  -26.3999996         1.22289305E-11
  -26.2199993         8.86121471E-12
  -26.0400009        -1.09857468E-12
  -25.8600006        -1.42524048E-11
  -25.6800003        -2.29130187E-11
  -25.5000000        -1.82951102E-11
  -25.3199997         4.00583689E-12
  -25.1399994         3.91228716E-11
  -24.9599991         7.21082152E-11
  -24.7800007         8.30848515E-11
  -24.6000004         5.69388425E-11
  -24.4200001        -7.01527551E-12
  -24.2399998        -9.08896777E-11
  -24.0599995        -1.62877684E-10
  -23.8799992        -1.89605470E-10
  -23.7000008        -1.50915794E-10
  -23.5200005        -5.02286997E-11
  -23.3400002         8.45026618E-11
  -23.1599998         2.09933390E-10
  -22.9799995         2.82795981E-10
  -22.7999992         2.75374501E-10
  -22.6200008         1.84902413E-10
  -22.4400005         3.33935310E-11
  -22.2600002        -1.41843939E-10
  -22.0799999        -3.03152142E-10
  -21.8999996        -4.26668950E-10
  -21.7199993        -5.09125686E-10
  -21.5400009        -5.63187164E-10
  -21.3600006        -6.02205286E-10
  -21.1800003        -6.21200091E-10
  -21.0000000        -5.84865267E-10
  -20.8199997        -4.32437697E-10
  -20.6399994        -1.02360523E-10
  -20.4599991         4.30790986E-10
  -20.2800007         1.12334964E-09
  -20.1000004         1.85125737E-09
  -19.9200001         2.43021869E-09
  -19.7399998         2.66300426E-09
  -19.5599995         2.39651143E-09
  -19.3799992         1.56628666E-09
  -19.2000008         2.12316234E-10
  -19.0200005        -1.53642732E-09
  -18.8400002        -3.49749674E-09
  -18.6599998        -5.47281376E-09
  -18.4799995        -7.27429139E-09
  -18.2999992        -8.73245121E-09
  -18.1200008        -9.69340341E-09
  -17.9400005        -1.00146904E-08
  -17.7600002        -9.56921031E-09
  -17.5799999        -8.26087732E-09
  -17.3999996        -6.04950579E-09
  -17.2199993        -2.97808023E-09
  -17.0400009         8.06574141E-10
  -16.8600006         5.04889242E-09
  -16.6800003         9.40264400E-09
  -16.5000000         1.34739464E-08
  -16.3199997         1.68826020E-08
  -16.1399994         1.93259115E-08
  -15.9600000         2.06243094E-08
  -15.7799997         2.07323740E-08
  -15.6000004         1.97122034E-08
  -15.4200001         1.76830657E-08
  -15.2399998         1.47725014E-08
  -15.0600004         1.10927942E-08
  -14.8800001         6.75290801E-09
  -14.6999998         1.89727301E-09
  -14.5200005        -3.25048410E-09
  -14.3400002        -8.36193514E-09
  -14.1599998        -1.30096804E-08
  -13.9799995        -1.67048952E-08
  -13.8000002        -1.89582821E-08
  -13.6199999        -1.93543723E-08
  -13.4399996        -1.76304162E-08
  -13.2600002        -1.37495517E-08
  -13.0799999        -7.95220956E-09
  -12.8999996        -7.64830421E-10
  -12.7200003         7.05098380E-09
  -12.5400000         1.46094825E-08
  -12.3599997         2.10494111E-08
  -12.1800003         2.56803432E-08
  -12.0000000         2.80860224E-08
  -11.8199997         2.81616082E-08
  -11.6400003         2.60875659E-08
  -11.4600000         2.22626273E-08
  -11.2799997         1.72220158E-08
  -11.1000004         1.15569989E-08
  -10.9200001         5.83882098E-09
  -10.7399998         5.45122281E-10
  -10.5600004        -4.00718925E-09
  -10.3800001        -7.70914976E-09
  -10.1999998        -1.06706519E-08
  -10.0200005        -1.31867521E-08
  -9.84000015        -1.56653517E-08
  -9.65999985        -1.85327682E-08
  -9.47999954        -2.21345946E-08
  -9.30000019        -2.66431641E-08
  -9.11999989        -3.19790843E-08
  -8.93999958        -3.77585714E-08
  -8.76000023        -4.32881748E-08
  -8.57999992        -4.76320317E-08
  -8.39999962        -4.97640258E-08
  -8.22000027        -4.87880456E-08
  -8.03999996        -4.41773551E-08
  -7.86000013        -3.59668704E-08
  -7.67999983        -2.48403946E-08
  -7.50000000        -1.20843779E-08
  -7.32000017         5.85441307E-10
  -7.13999987         1.12928191E-08
  -6.96000004         1.83222184E-08
  -6.78000021         2.04454587E-08
  -6.59999990         1.72011827E-08
  -6.42000008         9.06718167E-09
  -6.23999977        -2.53342569E-09
  -6.05999994        -1.54278155E-08
  -5.88000011        -2.70783538E-08
  -5.69999981        -3.50848701E-08
  -5.51999998        -3.76874532E-08
  -5.34000015        -3.41446409E-08
  -5.15999985        -2.48950602E-08
  -4.98000002        -1.14701697E-08
  -4.80000019         3.81223497E-09
  -4.61999989         1.83003248E-08
  -4.44000006         2.95126075E-08
  -4.26000023         3.55993599E-08
  -4.07999992         3.56775232E-08
  -3.90000010         2.99769951E-08
  -3.72000003         1.97712087E-08
  -3.53999996         7.11094517E-09
  -3.35999990        -5.57383473E-09
  -3.18000007        -1.59103344E-08
  -3.00000000        -2.19667431E-08
  -2.81999993        -2.25246950E-08
  -2.64000010        -1.72240533E-08
  -2.46000004        -6.59279786E-09
  -2.27999997         8.02228062E-09
  -2.09999990         2.46243470E-08
  -1.91999996         4.08457375E-08
  -1.74000001         5.43338672E-08
  -1.55999994         6.31976320E-08
  -1.38000000         6.64197657E-08
  -1.20000005         6.41181117E-08
  -1.01999998         5.75628434E-08
 -0.839999974         4.89238516E-08
 -0.660000026         4.08039256E-08
 -0.479999989         3.56746916E-08
 -0.300000012         3.53513023E-08
 -0.119999997         4.06192839E-08
   5.99999987E-02     5.10812335E-08
  0.239999995         6.52417143E-08
  0.419999987         8.08061884E-08
  0.600000024         9.51346166E-08
  0.779999971         1.05761245E-07
  0.959999979         1.10873259E-07
   1.13999999         1.09644994E-07
   1.32000005         1.02358392E-07
   1.50000000         9.02966093E-08
   1.67999995         7.54561995E-08
   1.86000001         6.01577383E-08
   2.03999996         4.66348666E-08
   2.22000003         3.66572621E-08
   2.40000010         3.12189705E-08
   2.57999992         3.03183683E-08
   2.75999999         3.28694796E-08
   2.94000006         3.67940096E-08
   3.11999989         3.93243305E-08
   3.29999995         3.74930096E-08
   3.48000002         2.87147639E-08
   3.66000009         1.13196732E-08
   3.83999991        -1.50987667E-08
   4.01999998        -4.96005619E-08
   4.19999981        -9.00810520E-08
   4.38000011        -1.33652733E-07
   4.55999994        -1.77134453E-07
   4.73999977        -2.17560853E-07
   4.92000008        -2.52640632E-07
   5.09999990        -2.81100569E-07
   5.28000021        -3.02853067E-07
   5.46000004        -3.18940891E-07
   5.63999987        -3.31252920E-07
   5.82000017        -3.42069683E-07
   6.00000000        -3.53554668E-07
   6.17999983        -3.67322428E-07
   6.36000013        -3.84178492E-07
   6.53999996        -4.04055186E-07
   6.71999979        -4.26104634E-07
   6.90000010        -4.48883725E-07
   7.07999992        -4.70581824E-07
   7.26000023        -4.89269951E-07
   7.44000006        -5.03162823E-07
   7.61999989        -5.10870564E-07
   7.80000019        -5.11589121E-07
   7.98000002        -5.05171272E-07
   8.15999985        -4.92047263E-07
   8.34000015        -4.73016485E-07
   8.52000046        -4.48975442E-07
   8.69999981        -4.20659632E-07
   8.88000011        -3.88450104E-07
   9.06000042        -3.52258525E-07
   9.23999977        -3.11484371E-07
   9.42000008        -2.65045401E-07
   9.60000038        -2.11503249E-07
   9.77999973        -1.49306885E-07
   9.96000004        -7.71458986E-08
   10.1400003         5.65111069E-09
   10.3199997         9.87784716E-08
   10.5000000         2.00781940E-07
   10.6800003         3.09109566E-07
   10.8599997         4.20369844E-07
   11.0400000         5.30727846E-07
   11.2200003         6.36356560E-07
   11.3999996         7.33879915E-07
   11.5799999         8.20765933E-07
   11.7600002         8.95632809E-07
   11.9399996         9.58409146E-07
   12.1199999         1.01028013E-06
   12.3000002         1.05337790E-06
   12.4799995         1.09024313E-06
   12.6599998         1.12317696E-06
   12.8400002         1.15365583E-06
   13.0200005         1.18197750E-06
   13.1999998         1.20722700E-06
   13.3800001         1.22755262E-06
   13.5600004         1.24065195E-06
   13.7399998         1.24433348E-06
   13.9200001         1.23703626E-06
   14.1000004         1.21822291E-06
   14.2799997         1.18859907E-06
   14.4600000         1.15013029E-06
   14.6400003         1.10585188E-06
   14.8199997         1.05950562E-06
   15.0000000         1.01507078E-06
   15.1800003         9.76300157E-07
   15.3599997         9.46353509E-07
   15.5400000         9.27577787E-07
   15.7200003         9.21416415E-07
   15.8999996         9.28398151E-07
   16.0799999         9.48171873E-07
   16.2600002         9.79610036E-07
   16.4400005         1.02105287E-06
   16.6200008         1.07075550E-06
   16.7999992         1.12750831E-06
   16.9799995         1.19129822E-06
   17.1599998         1.26377915E-06
   17.3400002         1.34834931E-06
   17.5200005         1.44973535E-06
   17.7000008         1.57314582E-06
   17.8799992         1.72319892E-06
   18.0599995         1.90287562E-06
   18.2399998         2.11273232E-06
   18.4200001         2.35051834E-06
   18.6000004         2.61126183E-06
   18.7800007         2.88781666E-06
   18.9599991         3.17179297E-06
   19.1399994         3.45472290E-06
   19.3199997         3.72925228E-06
   19.5000000         3.99009605E-06
   19.6800003         4.23455549E-06
   19.8600006         4.46247486E-06
   20.0400009         4.67568361E-06
   20.2199993         4.87709212E-06
   20.3999996         5.06966762E-06
   20.5799999         5.25549467E-06
   20.7600002         5.43506667E-06
   20.9400005         5.60691069E-06
   21.1200008         5.76757429E-06
   21.2999992         5.91202297E-06
   21.4799995         6.03440731E-06
   21.6599998         6.12909525E-06
   21.8400002         6.19173761E-06
   22.0200005         6.22011885E-06
   22.2000008         6.21456547E-06
   22.3799992         6.17780961E-06
   22.5599995         6.11439873E-06
   22.7399998         6.02982482E-06
   22.9200001         5.92963170E-06
   23.1000004         5.81866379E-06
   23.2800007         5.70058410E-06
   23.4599991         5.57768954E-06
   23.6399994         5.45102102E-06
   23.8199997         5.32073818E-06
   24.0000000         5.18671004E-06
   24.1800003         5.04919626E-06
   24.3600006         4.90946195E-06
   24.5400009         4.77015237E-06
   24.7199993         4.63531660E-06
   24.8999996         4.51006008E-06
   25.0799999         4.39991891E-06
   25.2600002         4.31009266E-06
   25.4400005         4.24467862E-06
   25.6200008         4.20600554E-06
   25.7999992         4.19415210E-06
   25.9799995         4.20671222E-06
   26.1599998         4.23887923E-06
   26.3400002         4.28388876E-06
   26.5200005         4.33380956E-06
   26.7000008         4.38055986E-06
   26.8799992         4.41696466E-06
   27.0599995         4.43762792E-06
   27.2399998         4.43945555E-06
   27.4200001         4.42174633E-06
   27.6000004         4.38588177E-06
   27.7800007         4.33469631E-06
   27.9599991         4.27167697E-06
   28.1399994         4.20009337E-06
   28.3199997         4.12223244E-06
   28.5000000         4.03885497E-06
   28.6800003         3.94900599E-06
   28.8600006         3.85025260E-06
   29.0400009         3.73930152E-06
   29.2199993         3.61284356E-06
   29.3999996         3.46842489E-06
   29.5799999         3.30513262E-06
   29.7600002         3.12393695E-06
   29.9400005         2.92769209E-06
   30.1200008         2.72081093E-06
   30.2999992         2.50872063E-06
   30.4799995         2.29720331E-06
   30.6599998         2.09170344E-06
   30.8400002         1.89671516E-06
   31.0200005         1.71535112E-06
   31.2000008         1.54919348E-06
   31.3799992         1.39848419E-06
   31.5599995         1.26261637E-06
   31.7399998         1.14079364E-06
   31.9200001         1.03267996E-06
   32.0999985         9.38886728E-07
   32.2799988         8.61197975E-07
   32.4599991         8.02520617E-07
   32.6399994         7.66611834E-07
   32.8199997         7.57631653E-07
   33.0000000         7.79613515E-07
   33.1800003         8.35924141E-07
   33.3600006         9.28807481E-07
   33.5400009         1.05910624E-06
   33.7200012         1.22621873E-06
   33.9000015         1.42826821E-06
   34.0800018         1.66241364E-06
   34.2599983         1.92515108E-06
   34.4399986         2.21253890E-06
   34.6199989         2.52030190E-06
   34.7999992         2.84390649E-06
   34.9799995         3.17866966E-06
   35.1599998         3.51996141E-06
   35.3400002         3.86344300E-06
   35.5200005         4.20525248E-06
   35.7000008         4.54205474E-06
   35.8800011         4.87091802E-06
   36.0600014         5.18908473E-06
   36.2400017         5.49373681E-06
   36.4199982         5.78186291E-06
   36.5999985         6.05028663E-06
   36.7799988         6.29584019E-06
   36.9599991         6.51565961E-06
   37.1399994         6.70753752E-06
   37.3199997         6.87026613E-06
   37.5000000         7.00387500E-06
   37.6800003         7.10965969E-06
   37.8600006         7.18992078E-06
   38.0400009         7.24742040E-06
   38.2200012         7.28466102E-06
   38.4000015         7.30317697E-06
   38.5800018         7.30305328E-06
   38.7599983         7.28275745E-06
   38.9399986         7.23931362E-06
   39.1199989         7.16868954E-06
   39.2999992         7.06629498E-06
   39.4799995         6.92751792E-06
   39.6599998         6.74826879E-06
   39.8400002         6.52549306E-06
   40.0200005         6.25765279E-06
   40.2000008         5.94505082E-06
   40.3800011         5.58991314E-06
   40.5600014         5.19614377E-06
   40.7400017         4.76884543E-06
   40.9199982         4.31367289E-06
   41.0999985         3.83620863E-06
   41.2799988         3.34145784E-06
   41.4599991         2.83355257E-06
   41.6399994         2.31565014E-06
   41.8199997         1.79005269E-06
   42.0000000         1.25854172E-06
   42.1800003         7.22888217E-07
   42.3600006         1.85480573E-07
   42.5400009        -3.50078551E-07
   42.7200012        -8.78559206E-07
   42.9000015        -1.39304677E-06
   43.0800018        -1.88525075E-06
   43.2599983        -2.34612776E-06
   43.4399986        -2.76669334E-06
   43.6199989        -3.13886699E-06
   43.7999992        -3.45624790E-06
   43.9799995        -3.71473493E-06
   44.1599998        -3.91291223E-06
   44.3400002        -4.05211085E-06
   44.5200005        -4.13603630E-06
   44.7000008        -4.16997727E-06
   44.8800011        -4.15969544E-06
   45.0600014        -4.11025803E-06
   45.2400017        -4.02510341E-06
   45.4199982        -3.90560353E-06
   45.5999985        -3.75122318E-06
   45.7799988        -3.56022429E-06
   45.9599991        -3.33073376E-06
   46.1399994        -3.06193647E-06
   46.3199997        -2.75519642E-06
   46.5000000        -2.41487101E-06
   46.6800003        -2.04864932E-06
   46.8600006        -1.66726193E-06
   47.0400009        -1.28352406E-06
   47.2200012        -9.10823587E-07
   47.4000015        -5.61350305E-07
   47.5800018        -2.44494856E-07
   47.7599983         3.41804522E-08
   47.9399986         2.73120349E-07
   48.1199989         4.74087699E-07
   48.2999992         6.40825192E-07
   48.4799995         7.77411572E-07
   48.6599998         8.86672069E-07
   48.8400002         9.68956897E-07
   49.0200005         1.02149511E-06
   49.2000008         1.03846867E-06
   49.3800011         1.01183366E-06
   49.5600014         9.32771798E-07
   49.7400017         7.93494621E-07
   49.9199982         5.88998944E-07
   50.0999985         3.18325959E-07
   50.2799988        -1.49818149E-08
   50.4599991        -4.03328499E-07
   50.6399994        -8.36286858E-07
   50.8199997        -1.30228239E-06
   51.0000000        -1.79037966E-06
   51.1800003        -2.29187185E-06
   51.3600006        -2.80144286E-06
   51.5400009        -3.31771116E-06
   51.7200012        -3.84305849E-06
   51.9000015        -4.38271172E-06
   52.0800018        -4.94316055E-06
   52.2599983        -5.53025802E-06
   52.4399986        -6.14742976E-06
   52.6199989        -6.79439700E-06
   52.7999992        -7.46673504E-06
   52.9799995        -8.15628573E-06
   53.1599998        -8.85225836E-06
   53.3400002        -9.54273673E-06
   53.5200005        -1.02163040E-05
   53.7000008        -1.08635431E-05
   53.8800011        -1.14782615E-05
   54.0600014        -1.20582408E-05
   54.2400017        -1.26053546E-05
   54.4199982        -1.31249290E-05
   54.5999985        -1.36243771E-05
   54.7799988        -1.41113369E-05
   54.9599991        -1.45917084E-05
   55.1399994        -1.50680326E-05
   55.3199997        -1.55385678E-05
   55.5000000        -1.59972660E-05
   55.6800003        -1.64346311E-05
   55.8600006        -1.68393308E-05
   56.0400009        -1.72002801E-05
   56.2200012        -1.75088790E-05
   56.4000015        -1.77609545E-05
   56.5800018        -1.79580366E-05
   56.7599983        -1.81075466E-05
   56.9399986        -1.82218337E-05
   57.1199989        -1.83162174E-05
   57.2999992        -1.84065120E-05
   57.4799995        -1.85066692E-05
   57.6599998        -1.86270863E-05
   57.8400002        -1.87738606E-05
   58.0200005        -1.89490420E-05
   58.2000008        -1.91516810E-05
   58.3800011        -1.93793130E-05
   58.5600014        -1.96296587E-05
   58.7400017        -1.99021288E-05
   58.9199982        -2.01989769E-05
   59.0999985        -2.05258530E-05
   59.2799988        -2.08916354E-05
   59.4599991        -2.13075255E-05
   59.6399994        -2.17855704E-05
   59.8199997        -2.23369498E-05
   60.0000000        -2.29703455E-05
   60.1800003        -2.36907235E-05
   60.3600006        -2.44986350E-05
   60.5400009        -2.53901198E-05
   60.7200012        -2.63571619E-05
   60.9000015        -2.73885580E-05
   61.0800018        -2.84711932E-05
   61.2599983        -2.95916107E-05
   61.4399986        -3.07375849E-05
   61.6199989        -3.18995299E-05
   61.7999992        -3.30713992E-05
   61.9799995        -3.42509557E-05
   62.1599998        -3.54393705E-05
   62.3400002        -3.66402928E-05
   62.5200005        -3.78586446E-05
   62.7000008        -3.90993264E-05
   62.8800011        -4.03659506E-05
   63.0600014        -4.16597941E-05
   63.2400017        -4.29790889E-05
   63.4199982        -4.43187091E-05
   63.5999985        -4.56705093E-05
   63.7799988        -4.70241357E-05
   63.9599991        -4.83683471E-05
   64.1399994        -4.96923712E-05
   64.3199997        -5.09870515E-05
   64.5000000        -5.22455557E-05
   64.6800003        -5.34635328E-05
   64.8600006        -5.46387928E-05
   65.0400009        -5.57705680E-05
   65.2200012        -5.68585419E-05
   65.4000015        -5.79017869E-05
   65.5800018        -5.88976982E-05
   65.7600021        -5.98412225E-05
   65.9400024        -6.07246366E-05
   66.1200027        -6.15379686E-05
   66.3000031        -6.22701555E-05
   66.4800034        -6.29105707E-05
   66.6600037        -6.34506723E-05
   66.8399963        -6.38854544E-05
   67.0199966        -6.42142986E-05
   67.1999969        -6.44412648E-05
   67.3799973        -6.45747423E-05
   67.5599976        -6.46265835E-05
   67.7399979        -6.46108747E-05
   67.9199982        -6.45423643E-05
   68.0999985        -6.44348038E-05
   68.2799988        -6.42993909E-05
   68.4599991        -6.41436854E-05
   68.6399994        -6.39711070E-05
   68.8199997        -6.37812700E-05
   69.0000000        -6.35708275E-05
   69.1800003        -6.33350428E-05
   69.3600006        -6.30694703E-05
   69.5400009        -6.27717600E-05
   69.7200012        -6.24430759E-05
   69.9000015        -6.20891296E-05
   70.0800018        -6.17202822E-05
   70.2600021        -6.13507800E-05
   70.4400024        -6.09970702E-05
   70.6200027        -6.06754802E-05
   70.8000031        -6.03997323E-05
   70.9800034        -6.01788634E-05
   71.1600037        -6.00159874E-05
   71.3399963        -5.99080668E-05
   71.5199966        -5.98467996E-05
   71.6999969        -5.98202241E-05
   71.8799973        -5.98150036E-05
   72.0599976        -5.98188490E-05
   72.2399979        -5.98228726E-05
   72.4199982        -5.98233564E-05
   72.5999985        -5.98226179E-05
   72.7799988        -5.98286351E-05
   72.9599991        -5.98534862E-05
   73.1399994        -5.99107007E-05
   73.3199997        -6.00122185E-05
   73.5000000        -6.01654501E-05
   73.6800003        -6.03711960E-05
   73.8600006        -6.06227950E-05
   74.0400009        -6.09066628E-05
   74.2200012        -6.12041622E-05
   74.4000015        -6.14944147E-05
   74.5800018        -6.17575788E-05
   74.7600021        -6.19778730E-05
   74.9400024        -6.21458530E-05
   75.1200027        -6.22593507E-05
   75.3000031        -6.23230735E-05
   75.4800034        -6.23467859E-05
   75.6600037        -6.23426968E-05
   75.8399963        -6.23226006E-05
   76.0199966        -6.22953594E-05
   76.1999969        -6.22650477E-05
   76.3799973        -6.22301231E-05
   76.5599976        -6.21834552E-05
   76.7399979        -6.21132858E-05
   76.9199982        -6.20049323E-05
   77.0999985        -6.18431077E-05
   77.2799988        -6.16144316E-05
   77.4599991        -6.13096854E-05
   77.6399994        -6.09254093E-05
   77.8199997        -6.04643828E-05
   78.0000000        -5.99349587E-05
   78.1800003        -5.93493496E-05
   78.3600006        -5.87212780E-05
   78.5400009        -5.80634405E-05
   78.7200012        -5.73853868E-05
   78.9000015        -5.66920062E-05
   79.0800018        -5.59829932E-05
   79.2600021        -5.52533129E-05
   79.4400024        -5.44946779E-05
   79.6200027        -5.36976440E-05
   79.8000031        -5.28539531E-05
   79.9800034        -5.19584901E-05
   80.1600037        -5.10104001E-05
   80.3399963        -5.00131828E-05
   80.5199966        -4.89737577E-05
   80.6999969        -4.79009104E-05
   80.8799973        -4.68034632E-05
   81.0599976        -4.56885464E-05
   81.2399979        -4.45603582E-05
   81.4199982        -4.34195499E-05
   81.5999985        -4.22634148E-05
   81.7799988        -4.10868670E-05
   81.9599991        -3.98840712E-05
   82.1399994        -3.86504289E-05
   82.3199997        -3.73844705E-05
   82.5000000        -3.60892300E-05
   82.6800003        -3.47728164E-05
   82.8600006        -3.34479846E-05
   83.0400009        -3.21309672E-05
   83.2200012        -3.08398376E-05
   83.4000015        -2.95927457E-05
   83.5800018        -2.84062517E-05
   83.7600021        -2.72939124E-05
   83.9400024        -2.62653048E-05
   84.1200027        -2.53255348E-05
   84.3000031        -2.44753883E-05
   84.4800034        -2.37121076E-05
   84.6600037        -2.30306141E-05
   84.8399963        -2.24248561E-05
   85.0199966        -2.18890236E-05
   85.1999969        -2.14183401E-05
   85.3799973        -2.10094131E-05
   85.5599976        -2.06601853E-05
   85.7399979        -2.03695599E-05
   85.9199982        -2.01368584E-05
   86.0999985        -1.99611150E-05
   86.2799988        -1.98403104E-05
   86.4599991        -1.97706322E-05
   86.6399994        -1.97459140E-05
   86.8199997        -1.97574682E-05
   87.0000000        -1.97943664E-05
   87.1800003        -1.98442103E-05
   87.3600006        -1.98941616E-05
   87.5400009        -1.99320111E-05
   87.7200012        -1.99470796E-05
   87.9000015        -1.99308743E-05
   88.0800018        -1.98773942E-05
   88.2600021        -1.97831505E-05
   88.4400024        -1.96467754E-05
   88.6200027        -1.94682343E-05
   88.8000031        -1.92477291E-05
   88.9800034        -1.89846432E-05
   89.1600037        -1.86767411E-05
   89.3399963        -1.83199918E-05
   89.5199966        -1.79089384E-05
   89.6999969        -1.74374836E-05
   89.8799973        -1.68997976E-05
   90.0599976        -1.62910619E-05
   90.2399979        -1.56080150E-05
   90.4199982        -1.48493118E-05
   90.5999985        -1.40157808E-05
   90.7799988        -1.31106572E-05
   90.9599991        -1.21396688E-05
   91.1399994        -1.11108329E-05
   91.3199997        -1.00338066E-05
   91.5000000        -8.91887612E-06
   91.6800003        -7.77572859E-06
   91.8600006        -6.61231388E-06
   92.0400009        -5.43406986E-06
   92.2200012        -4.24363907E-06
   92.4000015        -3.04109994E-06
   92.5800018        -1.82470103E-06
   92.7600021        -5.91968615E-07
   92.9400024         6.58963700E-07
   93.1200027         1.92807579E-06
   93.3000031         3.21260995E-06
   93.4800034         4.50696189E-06
   93.6600037         5.80340975E-06
   93.8399963         7.09351934E-06
   94.0199966         8.36981872E-06
   94.1999969         9.62724789E-06
   94.3799973         1.08640234E-05
   94.5599976         1.20818104E-05
   94.7399979         1.32852110E-05
   94.9199982         1.44807545E-05
   95.0999985         1.56755686E-05
   95.2799988         1.68759234E-05
   95.4599991         1.80858206E-05
   95.6399994         1.93058531E-05
   95.8199997         2.05325869E-05
   96.0000000         2.17586730E-05
   96.1800003         2.29737634E-05
   96.3600006         2.41660637E-05
   96.5400009         2.53241833E-05
   96.7200012         2.64388091E-05
   96.9000015         2.75038765E-05
   97.0800018         2.85170609E-05
   97.2600021         2.94796373E-05
   97.4400024         3.03958714E-05
   97.6200027         3.12719858E-05
   97.8000031         3.21148982E-05
   97.9800034         3.29308459E-05
   98.1600037         3.37241836E-05
   98.3399963         3.44965301E-05
   98.5199966         3.52465104E-05
   98.6999969         3.59699879E-05
   98.8799973         3.66607819E-05
   99.0599976         3.73115727E-05
   99.2399979         3.79148587E-05
   99.4199982         3.84638806E-05
   99.5999985         3.89535089E-05
   99.7799988         3.93810224E-05
   99.9599991         3.97466865E-05
   100.139999         4.00539757E-05
   100.320000         4.03092126E-05
   100.500000         4.05206483E-05
   100.680000         4.06970830E-05
   100.860001         4.08464111E-05
   101.040001         4.09744898E-05
   101.220001         4.10845969E-05
   101.400002         4.11775254E-05
   101.580002         4.12522058E-05
   101.760002         4.13065463E-05
   101.940002         4.13383495E-05
   102.120003         4.13461275E-05
   102.300003         4.13296548E-05
   102.480003         4.12900954E-05
   102.660004         4.12296176E-05
   102.839996         4.11505243E-05
   103.019997         4.10541470E-05
   103.199997         4.09398890E-05
   103.379997         4.08047999E-05
   103.559998         4.06437357E-05
   103.739998         4.04500606E-05
   103.919998         4.02165315E-05
   104.099998         3.99361452E-05
   104.279999         3.96025680E-05
   104.459999         3.92102265E-05
   104.639999         3.87540858E-05
   104.820000         3.82293365E-05
   105.000000         3.76311436E-05
   105.180000         3.69545633E-05
   105.360001         3.61946441E-05
   105.540001         3.53467694E-05
   105.720001         3.44072287E-05
   105.900002         3.33740172E-05
   106.080002         3.22475862E-05
   106.260002         3.10313735E-05
   106.440002         2.97318329E-05
   106.620003         2.83579393E-05
   106.800003         2.69202537E-05
   106.980003         2.54299212E-05
   107.160004         2.38977227E-05
   107.339996         2.23334318E-05
   107.519997         2.07453904E-05
   107.699997         1.91403651E-05
   107.879997         1.75235655E-05
   108.059998         1.58988751E-05
   108.239998         1.42692670E-05
   108.419998         1.26373025E-05
   108.599998         1.10055626E-05
   108.779999         9.37686400E-06
   108.959999         7.75411263E-06
   109.139999         6.13987140E-06
   109.320000         4.53573875E-06
   109.500000         2.94183269E-06
   109.680000         1.35648099E-06
   109.860001        -2.23728577E-07
   110.040001        -1.80368727E-06
   110.220001        -3.38943914E-06
   110.400002        -4.98782128E-06
   110.580002        -6.60614205E-06
   110.760002        -8.25175812E-06
   110.940002        -9.93156846E-06
   111.120003        -1.16514784E-05