  -34.5000000         0.00000000    
  -34.3195000         0.00000000    
  -34.1389999         0.00000000    
  -33.9584999         0.00000000    
  -33.7779999        -3.84017741E-22
  -33.5974998        -3.23315074E-21
  -33.4169998         2.34606819E-21
  -33.2364998         9.61805291E-20
  -33.0559998         3.56408784E-19
  -32.8754997         2.89688344E-19
  -32.6949997        -1.60642280E-18
  -32.5144997        -5.61069454E-18
  -32.3339996        -6.09254462E-18
  -32.1534996         6.34171706E-18
  -31.9729996         2.98667457E-17
  -31.7924995         4.57292806E-17
  -31.6119995         4.47405483E-17
  -31.4314995         2.66644268E-17
  -31.2509995        -1.19232937E-16
  -31.0704994        -6.81531868E-16
  -30.8899994        -1.63103711E-15
  -30.7094994        -1.54404270E-15
  -30.5289993         2.42937562E-15
  -30.3484993         1.11833718E-14
  -30.1679993         1.78535894E-14
  -29.9874992         7.09255923E-15
  -29.8069992        -3.17746046E-14
  -29.6264992        -8.13691698E-14
  -29.4459991        -8.68018629E-14
  -29.2654991         1.09608723E-14
  -29.0849991         2.01896103E-13
  -28.9044991         3.51812221E-13
  -28.7240009         2.48021655E-13
  -28.5435009        -2.27336094E-13
  -28.3630009        -8.92536099E-13
  -28.1825008        -1.22219693E-12
  -28.0020008        -6.11772839E-13
  -27.8215008         1.11195916E-12
  -27.6410007         3.25401294E-12
  -27.4605007         4.30175080E-12
  -27.2800007         2.66205894E-12
  -27.0995007        -2.17808323E-12
  -26.9190006        -8.75674880E-12
  -26.7385006        -1.37431143E-11
  -26.5580006        -1.32994744E-11
  -26.3775005        -5.16733921E-12
  -26.1970005         9.64568096E-12
  -26.0165005         2.66372254E-11
  -25.8360004         3.93228158E-11
  -25.6555004         4.17421965E-11
  -25.4750004         3.06229764E-11
  -25.2945004         6.16232326E-12
  -25.1140003        -2.86001951E-11
  -24.9335003        -6.88341745E-11
  -24.7530003        -1.08185398E-10
  -24.5725002        -1.37889075E-10
  -24.3920002        -1.45769383E-10
  -24.2115002        -1.17127558E-10
  -24.0310001        -3.91392752E-11
  -23.8505001         9.14750845E-11
  -23.6700001         2.60237804E-10
  -23.4895000         4.30585678E-10
  -23.3090000         5.47528356E-10
  -23.1285000         5.50761492E-10
  -22.9480000         3.94652394E-10
  -22.7674999         6.87682619E-11
  -22.5869999        -3.89062005E-10
  -22.4064999        -8.93705165E-10
  -22.2259998        -1.32979583E-09
  -22.0454998        -1.58093005E-09
  -21.8649998        -1.56154512E-09
  -21.6844997        -1.23967359E-09
  -21.5039997        -6.41083520E-10
  -21.3234997         1.67771338E-10
  -21.1429996         1.11134435E-09
  -20.9624996         2.13685780E-09
  -20.7819996         3.23016414E-09
  -20.6014996         4.40504033E-09
  -20.4209995         5.66725911E-09
  -20.2404995         6.96800040E-09
  -20.0599995         8.16920043E-09
  -19.8794994         9.04155328E-09
  -19.6989994         9.30393362E-09
  -19.5184994         8.69572592E-09
  -19.3379993         7.05878245E-09
  -19.1574993         4.40020642E-09
  -18.9769993         9.13377873E-10
  -18.7964993        -3.05054026E-09
  -18.6159992        -7.05153225E-09
  -18.4354992        -1.06490150E-08
  -18.2549992        -1.34849492E-08
  -18.0744991        -1.53420459E-08
  -17.8939991        -1.61669966E-08
  -17.7134991        -1.60591505E-08
  -17.5330009        -1.52331872E-08
  -17.3525009        -1.39685223E-08
  -17.1720009        -1.25581376E-08
  -16.9915009        -1.12658931E-08
  -16.8110008        -1.02955946E-08
  -16.6305008        -9.76977343E-09
  -16.4500008        -9.71375513E-09
  -16.2695007        -1.00427355E-08
  -16.0890007        -1.05550271E-08
  -15.9084997        -1.09399343E-08
  -15.7279997        -1.08093809E-08
  -15.5474997        -9.75656977E-09
  -15.3669996        -7.43430961E-09
  -15.1864996        -3.63572550E-09
  -15.0059996         1.64357239E-09
  -14.8254995         8.17790369E-09
  -14.6450005         1.55236997E-08
  -14.4645004         2.30654891E-08
  -14.2840004         3.00836867E-08
  -14.1035004         3.58325636E-08
  -13.9230003         3.96212592E-08
  -13.7425003         4.08944771E-08
  -13.5620003         3.93095512E-08
  -13.3815002         3.48028060E-08
  -13.2010002         2.76334422E-08
  -13.0205002         1.83912281E-08
  -12.8400002         7.95723754E-09
  -12.6595001        -2.58520050E-09
  -12.4790001        -1.20813430E-08
  -12.2985001        -1.94583389E-08
  -12.1180000        -2.38734774E-08
  -11.9375000        -2.48279708E-08
  -11.7570000        -2.22237873E-08
  -11.5764999        -1.63565232E-08
  -11.3959999        -7.85615129E-09
  -11.2154999         2.39827624E-09
  -11.0349998         1.33623663E-08
  -10.8544998         2.38935520E-08
  -10.6739998         3.28075700E-08
  -10.4934998         3.89463359E-08
  -10.3129997         4.12801739E-08
  -10.1324997         3.90495671E-08
  -9.95199966         3.19234523E-08
  -9.77149963         2.01280006E-08
  -9.59099960         4.49548798E-09
  -9.41049957        -1.35988394E-08
  -9.22999954        -3.24106360E-08
  -9.04950047        -5.00763555E-08
  -8.86900043        -6.48839631E-08
  -8.68850040        -7.55074581E-08
  -8.50800037        -8.11614669E-08
  -8.32750034        -8.16538872E-08
  -8.14700031        -7.73362743E-08
  -7.96649981        -6.89710191E-08
  -7.78599977        -5.75478118E-08
  -7.60550022        -4.40888641E-08
  -7.42500019        -2.94809475E-08
  -7.24450016        -1.43621737E-08
  -7.06400013         9.24162913E-10
  -6.88350010         1.63114979E-08
  -6.70300007         3.19398268E-08
  -6.52250004         4.80475855E-08
  -6.34200001         6.48384173E-08
  -6.16149998         8.23370172E-08
  -5.98099995         1.00254660E-07
  -5.80049992         1.17893556E-07
  -5.61999989         1.34121478E-07
  -5.43949986         1.47438229E-07
  -5.25899982         1.56134647E-07
  -5.07849979         1.58520336E-07
  -4.89799976         1.53179329E-07
  -4.71750021         1.39208836E-07
  -4.53700018         1.16403022E-07
  -4.35650015         8.53535980E-08
  -4.17600012         4.74474788E-08
  -3.99550009         4.74908912E-09
  -3.81500006        -4.02322797E-08
  -3.63450003        -8.48658033E-08
  -3.45400000        -1.26758934E-07
  -3.27349997        -1.64076937E-07
  -3.09299994        -1.95745585E-07
  -2.91249990        -2.21490382E-07
  -2.73200011        -2.41714332E-07
  -2.55150008        -2.57264134E-07
  -2.37100005        -2.69157852E-07
  -2.19050002        -2.78340224E-07
  -2.00999999        -2.85503120E-07
  -1.82949996        -2.90978278E-07
  -1.64900005        -2.94693734E-07
  -1.46850002        -2.96187750E-07
  -1.28799999        -2.94682650E-07
  -1.10749996        -2.89220793E-07
 -0.926999986        -2.78853150E-07
 -0.746500015        -2.62848687E-07
 -0.565999985        -2.40879729E-07
 -0.385500014        -2.13140694E-07
 -0.204999998        -1.80376432E-07
  -2.44999994E-02    -1.43819847E-07
  0.156000003        -1.05055520E-07
  0.336499989        -6.58332695E-08
  0.517000020        -2.78570838E-08
  0.697499990         7.42142259E-09
  0.878000021         3.89689454E-08
   1.05850005         6.62591830E-08
   1.23899996         8.92598635E-08
   1.41949999         1.08323484E-07
   1.60000002         1.24019579E-07
   1.78050005         1.36965397E-07
   1.96099997         1.47703616E-07
   2.14150000         1.56644376E-07
   2.32200003         1.64055294E-07
   2.50250006         1.70066400E-07
   2.68300009         1.74670376E-07
   2.86350012         1.77725184E-07
   3.04399991         1.78986937E-07
   3.22449994         1.78194384E-07
   3.40499997         1.75194586E-07
   3.58550000         1.70062890E-07
   3.76600003         1.63156713E-07
   3.94650006         1.55063958E-07
   4.12699986         1.46455150E-07
   4.30749989         1.37895299E-07
   4.48799992         1.29692992E-07
   4.66849995         1.21846909E-07
   4.84899998         1.14109490E-07
   5.02950001         1.06142224E-07
   5.21000004         9.77107888E-08
   5.39050007         8.88639704E-08
   5.57100010         8.00526863E-08
   5.75150013         7.21632816E-08
   5.93200016         6.64562307E-08
   6.11250019         6.44186002E-08
   6.29300022         6.75576075E-08
   6.47349977         7.71781927E-08
   6.65399981         9.41932257E-08
   6.83449984         1.19003396E-07
   7.01499987         1.51457996E-07
   7.19549990         1.90880826E-07
   7.37599993         2.36131740E-07
   7.55649996         2.85681097E-07
   7.73699999         3.37693450E-07
   7.91750002         3.90131589E-07
   8.09799957         4.40890091E-07
   8.27849960         4.87948796E-07
   8.45899963         5.29516797E-07
   8.63949966         5.64131028E-07
   8.81999969         5.90691286E-07
   9.00049973         6.08443656E-07
   9.18099976         6.16945840E-07
   9.36149979         6.16051238E-07
   9.54199982         6.05928562E-07
   9.72249985         5.87104353E-07
   9.90299988         5.60500496E-07
   10.0834999         5.27439681E-07
   10.2639999         4.89606975E-07
   10.4445000         4.48969530E-07
   10.6250000         4.07662554E-07
   10.8055000         3.67841039E-07
   10.9860001         3.31499649E-07
   11.1665001         3.00273001E-07
   11.3470001         2.75253171E-07
   11.5275002         2.56881805E-07
   11.7080002         2.44972341E-07
   11.8885002         2.38886344E-07
   12.0690002         2.37833845E-07
   12.2495003         2.41217833E-07
   12.4300003         2.48918610E-07
   12.6105003         2.61428710E-07
   12.7910004         2.79797632E-07
   12.9715004         3.05404058E-07
   13.1520004         3.39628144E-07
   13.3325005         3.83522064E-07
   13.5129995         4.37576375E-07
   13.6934996         5.01651073E-07
   13.8739996         5.75086574E-07
   14.0544996         6.56957582E-07
   14.2349997         7.46378930E-07
   14.4154997         8.42758766E-07
   14.5959997         9.45905811E-07
   14.7764997         1.05595814E-06
   14.9569998         1.17316620E-06
   15.1374998         1.29761645E-06
   15.3179998         1.42900046E-06
   15.4984999         1.56650253E-06
   15.6789999         1.70882993E-06
   15.8594999         1.85435351E-06
   16.0400009         2.00130535E-06
   16.2205009         2.14797797E-06
   16.4009991         2.29289913E-06
   16.5814991         2.43496788E-06
   16.7619991         2.57354895E-06
   16.9424992         2.70851524E-06
   17.1229992         2.84021780E-06
   17.3034992         2.96937765E-06
   17.4839993         3.09691268E-06
   17.6644993         3.22374694E-06
   17.8449993         3.35065397E-06
   18.0254993         3.47818786E-06
   18.2059994         3.60672880E-06
   18.3864994         3.73662147E-06
   18.5669994         3.86837064E-06
   18.7474995         4.00281715E-06
   18.9279995         4.14122678E-06
   19.1084995         4.28524572E-06
   19.2889996         4.43670388E-06
   19.4694996         4.59732064E-06
   19.6499996         4.76839159E-06
   19.8304996         4.95057566E-06
   20.0109997         5.14386420E-06
   20.1914997         5.34776291E-06
   20.3719997         5.56160876E-06
   20.5524998         5.78490881E-06
   20.7329998         6.01755028E-06
   20.9134998         6.25979601E-06
   21.0939999         6.51207620E-06
   21.2744999         6.77465096E-06
   21.4549999         7.04728473E-06
   21.6355000         7.32903391E-06
   21.8160000         7.61821593E-06
   21.9965000         7.91253478E-06
   22.1770000         8.20933201E-06
   22.3575001         8.50587639E-06
   22.5380001         8.79963955E-06
   22.7185001         9.08848324E-06
   22.8990002         9.37071673E-06
   23.0795002         9.64499304E-06
   23.2600002         9.91006073E-06
   23.4405003         1.01644764E-05
   23.6210003         1.04063620E-05
   23.8015003         1.06333400E-05
   23.9820004         1.08426948E-05
   24.1625004         1.10317360E-05
   24.3430004         1.11982463E-05
   24.5235004         1.13408978E-05
   24.7040005         1.14595268E-05
   24.8845005         1.15552148E-05
   25.0650005         1.16301762E-05
   25.2455006         1.16875090E-05
   25.4260006         1.17308255E-05
   25.6065006         1.17638419E-05
   25.7870007         1.17899754E-05
   25.9675007         1.18120506E-05
   26.1480007         1.18321777E-05
   26.3285007         1.18518501E-05
   26.5090008         1.18722364E-05
   26.6895008         1.18945554E-05
   26.8700008         1.19204369E-05
   27.0505009         1.19521173E-05
   27.2310009         1.19924434E-05
   27.4115009         1.20446430E-05
   27.5919991         1.21119019E-05
   27.7724991         1.21968005E-05
   27.9529991         1.23006821E-05
   28.1334991         1.24231028E-05
   28.3139992         1.25615052E-05
   28.4944992         1.27113035E-05
   28.6749992         1.28664587E-05
   28.8554993         1.30204708E-05
   29.0359993         1.31675652E-05
   29.2164993         1.33037202E-05
   29.3969994         1.34272450E-05
   29.5774994         1.35387127E-05
   29.7579994         1.36403260E-05
   29.9384995         1.37349170E-05
   30.1189995         1.38249161E-05
   30.2994995         1.39115309E-05
   30.4799995         1.39943222E-05
   30.6604996         1.40711891E-05
   30.8409996         1.41387109E-05
   31.0214996         1.41927239E-05
   31.2019997         1.42290100E-05
   31.3824997         1.42439221E-05
   31.5629997         1.42348472E-05
   31.7434998         1.42003637E-05
   31.9239998         1.41401388E-05
   32.1044998         1.40545699E-05
   32.2849998         1.39443573E-05
   32.4654999         1.38100913E-05
   32.6459999         1.36519693E-05
   32.8264999         1.34696202E-05
   33.0070000         1.32620453E-05
   33.1875000         1.30276530E-05
   33.3680000         1.27644307E-05
   33.5485001         1.24702810E-05
   33.7290001         1.21435251E-05
   33.9095001         1.17834597E-05
   34.0900002         1.13907827E-05
   34.2705002         1.09677203E-05
   34.4510002         1.05177678E-05
   34.6315002         1.00451352E-05
   34.8120003         9.55410724E-06
   34.9925003         9.04852277E-06
   35.1730003         8.53154143E-06
   35.3535004         8.00566613E-06
   35.5340004         7.47291460E-06
   35.7145004         6.93500897E-06
   35.8950005         6.39347991E-06
   36.0755005         5.84968848E-06
   36.2560005         5.30483339E-06
   36.4365005         4.75998377E-06
   36.6170006         4.21617096E-06
   36.7975006         3.67450480E-06
   36.9780006         3.13630380E-06
   37.1585007         2.60318848E-06
   37.3390007         2.07712492E-06
   37.5195007         1.56038504E-06
   37.7000008         1.05538470E-06
   37.8805008         5.64384266E-07
   38.0610008         8.90905838E-08
   38.2415009        -3.69709653E-07
   38.4220009        -8.12359417E-07
   38.6025009        -1.24024621E-06
   38.7830009        -1.65543906E-06
   38.9635010        -2.06019058E-06
   39.1440010        -2.45648471E-06
   39.3245010        -2.84581915E-06
   39.5050011        -3.22927644E-06
   39.6855011        -3.60778586E-06
   39.8660011        -3.98241855E-06
   40.0465012        -4.35454740E-06
   40.2270012        -4.72578722E-06
   40.4075012        -5.09770462E-06
   40.5880013        -5.47141190E-06
   40.7685013        -5.84710642E-06
   40.9490013        -6.22368816E-06
   41.1295013        -6.59849593E-06
   41.3100014        -6.96729558E-06
   41.4905014        -7.32453327E-06
   41.6710014        -7.66385892E-06
   41.8515015        -7.97882512E-06
   42.0320015        -8.26358792E-06
   42.2125015        -8.51343339E-06
   42.3930016        -8.72503188E-06
   42.5735016        -8.89643434E-06
   42.7540016        -9.02694956E-06
   42.9345016        -9.11704956E-06
   43.1150017        -9.16839053E-06
   43.2955017        -9.18390015E-06
   43.4760017        -9.16782483E-06
   43.6565018        -9.12557789E-06
   43.8370018        -9.06333480E-06
   44.0175018        -8.98743656E-06
   44.1980019        -8.90371939E-06
   44.3785019        -8.81695541E-06
   44.5589981        -8.73047702E-06
   44.7394981        -8.64603680E-06
   44.9199982        -8.56385577E-06
   45.1004982        -8.48281798E-06
   45.2809982        -8.40076063E-06
   45.4614983        -8.31483794E-06
   45.6419983        -8.22193942E-06
   45.8224983        -8.11913651E-06
   46.0029984        -8.00412181E-06
   46.1834984        -7.87560384E-06
   46.3639984        -7.73357715E-06
   46.5444984        -7.57941098E-06
   46.7249985        -7.41569738E-06
   46.9054985        -7.24582696E-06
   47.0859985        -7.07334675E-06
   47.2664986        -6.90122170E-06
   47.4469986        -6.73121531E-06
   47.6274986        -6.56357452E-06
   47.8079987        -6.39712744E-06
   47.9884987        -6.22976313E-06
   48.1689987        -6.05910191E-06
   48.3494987        -5.88310286E-06
   48.5299988        -5.70040220E-06
   48.7104988        -5.51027506E-06
   48.8909988        -5.31228534E-06
   49.0714989        -5.10578866E-06
   49.2519989        -4.88948444E-06
   49.4324989        -4.66118672E-06
   49.6129990        -4.41787870E-06
   49.7934990        -4.15602381E-06
   49.9739990        -3.87203954E-06
   50.1544991        -3.56280907E-06
   50.3349991        -3.22608776E-06
   50.5154991        -2.86071167E-06
   50.6959991        -2.46656691E-06
   50.8764992        -2.04435332E-06
   51.0569992        -1.59523802E-06
   51.2374992        -1.12050463E-06
   51.4179993        -6.21279185E-07
   51.5984993        -9.83642394E-08
   51.7789993         4.47848322E-07
   51.9594994         1.01741750E-06
   52.1399994         1.61086291E-06
   52.3204994         2.22911513E-06
   52.5009995         2.87339640E-06
   52.6814995         3.54502981E-06
   52.8619995         4.24526070E-06
   53.0424995         4.97517522E-06
   53.2229996         5.73581246E-06
   53.4034996         6.52844301E-06
   53.5839996         7.35491130E-06
   53.7644997         8.21786125E-06
   53.9449997         9.12067844E-06
   54.1254997         1.00670841E-05
   54.3059998         1.10604415E-05
   54.4864998         1.21029489E-05
   54.6669998         1.31949409E-05
   54.8474998         1.43345114E-05
   55.0279999         1.55176222E-05
   55.2084999         1.67387207E-05
   55.3889999         1.79918006E-05
   55.5695000         1.92716998E-05
   55.7500000         2.05753149E-05
   55.9305000         2.19024259E-05
   56.1110001         2.32558814E-05
   56.2915001         2.46410382E-05
   56.4720001         2.60646593E-05
   56.6525002         2.75335151E-05
   56.8330002         2.90530879E-05
   57.0135002         3.06266666E-05
   57.1940002         3.22549640E-05
   57.3745003         3.39362305E-05
   57.5550003         3.56666860E-05
   57.7355003         3.74411466E-05
   57.9160004         3.92536313E-05
   58.0965004         4.10978646E-05
   58.2770004         4.29675711E-05
   58.4575005         4.48565988E-05
   58.6380005         4.67588616E-05
   58.8185005         4.86682657E-05
   58.9990005         5.05787139E-05
   59.1795006         5.24843235E-05
   59.3600006         5.43798415E-05
   59.5405006         5.62611676E-05
   59.7210007         5.81256863E-05
   59.9015007         5.99723317E-05
   60.0820007         6.18011254E-05
   60.2625008         6.36124096E-05
   60.4430008         6.54059113E-05
   60.6235008         6.71797970E-05
   60.8040009         6.89301305E-05
   60.9845009         7.06506471E-05
   61.1650009         7.23331177E-05
   61.3455009         7.39681054E-05
   61.5260010         7.55461879E-05
   61.7065010         7.70593979E-05
   61.8870010         7.85026423E-05
   62.0675011         7.98747351E-05
   62.2480011         8.11788559E-05
   62.4285011         8.24220115E-05
   62.6090012         8.36138497E-05
   62.7895012         8.47648917E-05
   62.9700012         8.58846906E-05
   63.1505013         8.69803698E-05
   63.3310013         8.80558218E-05
   63.5115013         8.91117597E-05
   63.6920013         9.01464955E-05
   63.8725014         9.11573734E-05
   64.0530014         9.21425308E-05
   64.2334976         9.31024842E-05
   64.4140015         9.40412865E-05
   64.5944977         9.49668683E-05
   64.7750015         9.58903838E-05
   64.9554977         9.68247332E-05
   65.1360016         9.77824311E-05
   65.3164978         9.87734020E-05
   65.4970016         9.98030227E-05
   65.6774979         1.00870908E-04
   65.8580017         1.01970458E-04
   66.0384979         1.03089296E-04
   66.2190018         1.04210412E-04
   66.3994980         1.05313971E-04
   66.5800018         1.06379404E-04
   66.7604980         1.07387517E-04
   66.9410019         1.08322267E-04
   67.1214981         1.09171880E-04
   67.3020020         1.09929140E-04
   67.4824982         1.10590823E-04
   67.6630020         1.11156645E-04
   67.8434982         1.11627967E-04
   68.0240021         1.12006572E-04
   68.2044983         1.12293696E-04
   68.3850021         1.12489433E-04
   68.5654984         1.12592454E-04
   68.7460022         1.12600072E-04
   68.9264984         1.12508795E-04
   69.1070023         1.12315276E-04
   69.2874985         1.12017420E-04
   69.4680023         1.11615707E-04
   69.6484985         1.11114015E-04
   69.8290024         1.10520079E-04
   70.0094986         1.09845110E-04
   70.1900024         1.09102955E-04
   70.3704987         1.08308799E-04
   70.5510025         1.07477710E-04
   70.7314987         1.06623243E-04
   70.9120026         1.05756211E-04
   71.0924988         1.04883860E-04
   71.2730026         1.04009443E-04
   71.4534988         1.03132501E-04
   71.6340027         1.02249673E-04
   71.8144989         1.01356003E-04
   71.9950027         1.00446618E-04
   72.1754990         9.95182272E-05
   72.3560028         9.85705337E-05
   72.5364990         9.76070078E-05
   72.7170029         9.66351727E-05
   72.8974991         9.56661825E-05
   73.0780029         9.47136796E-05
   73.2584991         9.37920558E-05
   73.4390030         9.29143498E-05
   73.6194992         9.20901075E-05
   73.8000031         9.13237964E-05
   73.9804993         9.06141722E-05
   74.1610031         8.99547449E-05
   74.3414993         8.93352117E-05
   74.5220032         8.87434217E-05
   74.7024994         8.81674277E-05
   74.8830032         8.75970509E-05
   75.0634995         8.70249496E-05
   75.2440033         8.64469257E-05
   75.4244995         8.58617714E-05
   75.6050034         8.52705998E-05
   75.7854996         8.46758412E-05
   75.9660034         8.40799403E-05
   76.1464996         8.34839957E-05
   76.3270035         8.28865814E-05
   76.5074997         8.22829315E-05
   76.6880035         8.16648026E-05
   76.8684998         8.10209749E-05
   77.0490036         8.03384755E-05
   77.2294998         7.96041859E-05
   77.4100037         7.88067700E-05
   77.5904999         7.79384645E-05
   77.7710037         7.69965482E-05
   77.9514999         7.59840477E-05
   78.1320038         7.49094761E-05
   78.3125000         7.37856681E-05
   78.4929962         7.26277867E-05
   78.6735001         7.14510243E-05
   78.8539963         7.02685211E-05
   79.0345001         6.90898742E-05
   79.2149963         6.79204677E-05
   79.3955002         6.67615532E-05
   79.5759964         6.56109842E-05
   79.7565002         6.44643369E-05
   79.9369965         6.33163072E-05
   80.1175003         6.21622385E-05
   80.2979965         6.09996605E-05
   80.4785004         5.98294755E-05
   80.6589966         5.86565766E-05
   80.8395004         5.74896512E-05
   81.0199966         5.63400536E-05
   81.2005005         5.52199599E-05
   81.3809967         5.41402005E-05
   81.5615005         5.31081969E-05
   81.7419968         5.21264410E-05
   81.9225006         5.11918697E-05
   82.1029968         5.02961157E-05
   82.2835007         4.94266860E-05
   82.4639969         4.85687233E-05
   82.6445007         4.77070826E-05
   82.8249969         4.68282960E-05
   83.0055008         4.59221519E-05
   83.1859970         4.49826075E-05
   83.3665009         4.40081676E-05
   83.5469971         4.30016553E-05
   83.7275009         4.19697171E-05
   83.9079971         4.09220411E-05
   84.0885010         3.98703669E-05
   84.2689972         3.88272965E-05
   84.4495010         3.78048935E-05
   84.6299973         3.68132605E-05
   84.8105011         3.58594116E-05
   84.9909973         3.49467082E-05
   85.1715012         3.40750266E-05
   85.3519974         3.32417076E-05
   85.5325012         3.24429784E-05
   85.7129974         3.16754995E-05
   85.8935013         3.09377137E-05
   86.0739975         3.02307253E-05
   86.2545013         2.95585469E-05
   86.4349976         2.89276941E-05
   86.6155014         2.83462250E-05
   86.7959976         2.78223215E-05
   86.9765015         2.73627338E-05
   87.1569977         2.69713473E-05
   87.3375015         2.66482639E-05
   87.5179977         2.63895799E-05
   87.6985016         2.61879868E-05
   87.8789978         2.60340439E-05
   88.0595016         2.59179087E-05
   88.2399979         2.58311775E-05
   88.4205017         2.57685097E-05
   88.6009979         2.57287211E-05
   88.7815018         2.57150568E-05
   88.9619980         2.57344982E-05
   89.1425018         2.57960819E-05
   89.3229980         2.59084991E-05
   89.5035019         2.60774832E-05
   89.6839981         2.63036036E-05
   89.8645020         2.65810340E-05
   90.0449982         2.68976291E-05
   90.2255020         2.72362468E-05
   90.4059982         2.75769780E-05
   90.5865021         2.78997413E-05
   90.7669983         2.81867324E-05
   90.9475021         2.84243124E-05
   91.1279984         2.86040977E-05
   91.3085022         2.87231978E-05
   91.4889984         2.87836065E-05
   91.6695023         2.87909315E-05
   91.8499985         2.87527164E-05
   92.0305023         2.86767063E-05
   92.2109985         2.85694205E-05
   92.3915024         2.84352700E-05
   92.5719986         2.82763413E-05
   92.7525024         2.80927343E-05
   92.9329987         2.78833068E-05
   93.1135025         2.76465944E-05
   93.2939987         2.73817204E-05
   93.4745026         2.70892415E-05
   93.6549988         2.67717733E-05
   93.8355026         2.64343271E-05
   94.0159988         2.60843099E-05
   94.1965027         2.57311240E-05
   94.3769989         2.53855142E-05
   94.5575027         2.50587582E-05
   94.7379990         2.47618700E-05
   94.9185028         2.45048304E-05
   95.0989990         2.42959177E-05
   95.2795029         2.41410253E-05
   95.4599991         2.40430672E-05
   95.6405029         2.40016234E-05
   95.8209991         2.40130539E-05
   96.0015030         2.40712543E-05
   96.1819992         2.41690323E-05
   96.3625031         2.42998103E-05
   96.5429993         2.44592320E-05
   96.7235031         2.46461586E-05
   96.9039993         2.48628094E-05
   97.0845032         2.51139536E-05
   97.2649994         2.54053575E-05
   97.4455032         2.57418287E-05
   97.6259995         2.61252899E-05
   97.8065033         2.65532835E-05
   97.9869995         2.70182481E-05
   98.1675034         2.75078237E-05
   98.3479996         2.80062304E-05
   98.5285034         2.84965499E-05
   98.7089996         2.89634954E-05
   98.8895035         2.93961166E-05
   99.0699997         2.97898659E-05
   99.2505035         3.01476121E-05
   99.4309998         3.04794085E-05
   99.6115036         3.08010676E-05
   99.7919998         3.11317926E-05
   99.9725037         3.14912177E-05
   100.153000         3.18963321E-05
   100.333504         3.23588138E-05
   100.514000         3.28832211E-05
   100.694504         3.34665565E-05
   100.875000         3.40992701E-05
   101.055496         3.47675086E-05
   101.236000         3.54560652E-05
   101.416496         3.61513084E-05
   101.597000         3.68434121E-05
   101.777496         3.75275195E-05
   101.958000         3.82037324E-05
   102.138496         3.88762164E-05
   102.319000         3.95517600E-05
   102.499496         4.02381229E-05
   102.680000         4.09424138E-05
   102.860497         4.16696894E-05
   103.041000         4.24218997E-05
   103.221497         4.31973604E-05
   103.402000         4.39907017E-05
   103.582497         4.47934908E-05
   103.763000         4.55952977E-05
   103.943497         4.63850483E-05
   104.124001         4.71525091E-05
   104.304497         4.78896072E-05
   104.485001         4.85913733E-05
   104.665497         4.92563740E-05
   104.846001         4.98864865E-05
   105.026497         5.04859818E-05
   105.207001         5.10601458E-05
   105.387497         5.16136679E-05
   105.568001         5.21492948E-05
   105.748497         5.26670265E-05
   105.929001         5.31641017E-05
   106.109497         5.36356165E-05
   106.290001         5.40756118E-05
   106.470497         5.44783106E-05
   106.651001         5.48392964E-05
   106.831497         5.51565572E-05
   107.012001         5.54313228E-05
   107.192497         5.56686391E-05
   107.373001         5.58774846E-05
   107.553497         5.60703193E-05
   107.734001         5.62618734E-05
   107.914497         5.64673719E-05
   108.095001         5.67004645E-05
   108.275497         5.69712283E-05
   108.456001         5.72846511E-05
   108.636497         5.76398743E-05
   108.817001         5.80303458E-05
   108.997498         5.84447480E-05
   109.178001         5.88687108E-05
   109.358498         5.92869328E-05
   109.539001         5.96854916E-05
   109.719498         6.00539024E-05
   109.900002         6.03865410E-05
   110.080498         6.06831672E-05
   110.261002         6.09485833E-05
   110.441498         6.11914365E-05
   110.622002         6.14225719E-05
   110.802498         6.16531688E-05
   110.983002         6.18930062E-05
   111.163498         6.21488143E-05
   111.344002         6.24231834E-05
   111.524498         6.27138506E-05