  -34.5000000         0.00000000    
  -34.3195000         0.00000000    
  -34.1389999         0.00000000    
  -33.9584999        -3.53818914E-21
  -33.7779999        -2.32497755E-20
  -33.5974998        -8.66559321E-20
  -33.4169998        -2.40795947E-19
  -33.2364998        -5.53344022E-19
  -33.0559998        -1.10436387E-18
  -32.8754997        -1.95901412E-18
  -32.6949997        -3.11265604E-18
  -32.5144997        -4.41099976E-18
  -32.3339996        -5.46906385E-18
  -32.1534996        -5.63566589E-18
  -31.9729996        -4.06050348E-18
  -31.7924995         9.50931744E-20
  -31.6119995         7.30935005E-18
  -31.4314995         1.72851731E-17
  -31.2509995         2.86022181E-17
  -31.0704994         3.85940603E-17
  -30.8899994         4.35756100E-17
  -30.7094994         3.94523892E-17
  -30.5289993         2.26126943E-17
  -30.3484993        -9.11907399E-18
  -30.1679993        -5.57541769E-17
  -29.9874992        -1.14889524E-16
  -29.8069992        -1.82053797E-16
  -29.6264992        -2.51564259E-16
  -29.4459991        -3.17607074E-16
  -29.2654991        -3.75135805E-16
  -29.0849991        -4.20208863E-16
  -28.9044991        -4.49567819E-16
  -28.7240009        -4.59547720E-16
  -28.5435009        -4.44708656E-16
  -28.3630009        -3.96768841E-16
  -28.1825008        -3.04426182E-16
  -28.0020008        -1.54438736E-16
  -27.8215008         6.60349069E-17
  -27.6410007         3.66259111E-16
  -27.4605007         7.48661929E-16
  -27.2800007         1.20636275E-15
  -27.0995007         1.72219840E-15
  -26.9190006         2.26954834E-15
  -26.7385006         2.81473622E-15
  -26.5580006         3.32031177E-15
  -26.3775005         3.74829528E-15
  -26.1970005         4.06255467E-15
  -26.0165005         4.22987163E-15
  -25.8360004         4.21970977E-15
  -25.6555004         4.00310185E-15
  -25.4750004         3.55129151E-15
  -25.2945004         2.83480667E-15
  -25.1140003         1.82363081E-15
  -24.9335003         4.89031349E-16
  -24.7530003        -1.19257877E-15
  -24.5725002        -3.23382017E-15
  -24.3920002        -5.62934539E-15
  -24.2115002        -8.34924781E-15
  -24.0310001        -1.13350042E-14
  -23.8505001        -1.44999742E-14
  -23.6700001        -1.77354757E-14
  -23.4895000        -2.09215427E-14
  -23.3090000        -2.39393940E-14
  -23.1285000        -2.66810635E-14
  -22.9480000        -2.90516072E-14
  -22.7674999        -3.09612667E-14
  -22.5869999        -3.23089639E-14
  -22.4064999        -3.29629241E-14
  -22.2259998        -3.27479065E-14
  -22.0454998        -3.14483581E-14
  -21.8649998        -2.88328762E-14
  -21.6844997        -2.46971768E-14
  -21.5039997        -1.89137612E-14
  -21.3234997        -1.14705727E-14
  -21.1429996        -2.48161659E-15
  -20.9624996         7.83875799E-15
  -20.7819996         1.92320033E-14
  -20.6014996         3.14618801E-14
  -20.4209995         4.43637978E-14
  -20.2404995         5.78535023E-14
  -20.0599995         7.18865953E-14
  -19.8794994         8.63811179E-14
  -19.6989994         1.01134026E-13
  -19.5184994         1.15767422E-13
  -19.3379993         1.29731607E-13
  -19.1574993         1.42368078E-13
  -18.9769993         1.53009319E-13
  -18.7964993         1.61072815E-13
  -18.6159992         1.66107782E-13
  -18.4354992         1.67772317E-13
  -18.2549992         1.65753018E-13
  -18.0744991         1.59671308E-13
  -17.8939991         1.49034458E-13
  -17.7134991         1.33276650E-13
  -17.5330009         1.11897044E-13
  -17.3525009         8.46534553E-14
  -17.1720009         5.17326863E-14
  -16.9915009         1.38139156E-14
  -16.8110008        -2.80258401E-14
  -16.6305008        -7.25537523E-14
  -16.4500008        -1.18692857E-13
  -16.2695007        -1.65784148E-13
  -16.0890007        -2.13686206E-13
  -15.9084997        -2.62651581E-13
  -15.7279997        -3.13005752E-13
  -15.5474997        -3.64736778E-13
  -15.3669996        -4.17146406E-13
  -15.1864996        -4.68700545E-13
  -15.0059996        -5.17143457E-13
  -14.8254995        -5.59840965E-13
  -14.6450005        -5.94230069E-13
  -14.4645004        -6.18207308E-13
  -14.2840004        -6.30319527E-13
  -14.1035004        -6.29698279E-13
  -13.9230003        -6.15786718E-13
  -13.7425003        -5.87989564E-13
  -13.5620003        -5.45412240E-13
  -13.3815002        -4.86813010E-13
  -13.2010002        -4.10814964E-13
  -13.0205002        -3.16320727E-13
  -12.8400002        -2.03003155E-13
  -12.6595001        -7.17239039E-14
  -12.4790001         7.52326058E-14
  -12.2985001         2.34156173E-13
  -12.1180000         4.00113861E-13
  -11.9375000         5.67295776E-13
  -11.7570000         7.29435501E-13
  -11.5764999         8.80271930E-13
  -11.3959999         1.01404421E-12
  -11.2154999         1.12602451E-12
  -11.0349998         1.21306134E-12
  -10.8544998         1.27404998E-12
  -10.6739998         1.31018590E-12
  -10.4934998         1.32484648E-12
  -10.3129997         1.32299109E-12
  -10.1324997         1.31009092E-12
  -9.95199966         1.29075038E-12
  -9.77149963         1.26732880E-12
  -9.59099960         1.23893517E-12
  -9.41049957         1.20113132E-12
  -9.22999954         1.14652656E-12
  -9.04950047         1.06622664E-12
  -8.86900043         9.51850903E-13
  -8.68850040         7.97672150E-13
  -8.50800037         6.02369120E-13
  -8.32750034         3.69967891E-13
  -8.14700031         1.09746495E-13
  -7.96649981        -1.64885900E-13
  -7.78599977        -4.38272411E-13
  -7.60550022        -6.94760926E-13
  -7.42500019        -9.20881535E-13
  -7.24450016        -1.10707949E-12
  -7.06400013        -1.24878840E-12
  -6.88350010        -1.34677176E-12
  -6.70300007        -1.40681477E-12
  -6.52250004        -1.43891247E-12
  -6.34200001        -1.45611659E-12
  -6.16149998        -1.47317152E-12
  -5.98099995        -1.50503470E-12
  -5.80049992        -1.56536698E-12
  -5.61999989        -1.66506500E-12
  -5.43949986        -1.81096490E-12
  -5.25899982        -2.00485028E-12
  -5.07849979        -2.24289988E-12
  -4.89799976        -2.51565392E-12
  -4.71750021        -2.80849953E-12
  -4.53700018        -3.10257809E-12
  -4.35650015        -3.37594644E-12
  -4.17600012        -3.60483561E-12
  -3.99550009        -3.76488814E-12
  -3.81500006        -3.83235110E-12
  -3.63450003        -3.78529630E-12
  -3.45400000        -3.60496312E-12
  -3.27349997        -3.27729835E-12
  -3.09299994        -2.79462933E-12
  -2.91249990        -2.15728629E-12
  -2.73200011        -1.37483688E-12
  -2.55150008        -4.66550897E-13
  -2.37100005         5.39227408E-13
  -2.19050002         1.60695502E-12
  -2.00999999         2.69690997E-12
  -1.82949996         3.76897992E-12
  -1.64900005         4.78661468E-12
  -1.46850002         5.72024936E-12
  -1.28799999         6.54952351E-12
  -1.10749996         7.26386009E-12
 -0.926999986         7.86121862E-12
 -0.746500015         8.34531229E-12
 -0.565999985         8.72181147E-12
 -0.385500014         8.99440418E-12
 -0.204999998         9.16162892E-12
  -2.44999994E-02     9.21528392E-12
  0.156000003         9.14089811E-12
  0.336499989         8.92031241E-12
  0.517000020         8.53587253E-12
  0.697499990         7.97529490E-12
  0.878000021         7.23606548E-12
   1.05850005         6.32823611E-12
   1.23899996         5.27484480E-12
   1.41949999         4.10982706E-12
   1.60000002         2.87382835E-12
   1.78050005         1.60900731E-12
   1.96099997         3.54037844E-13
   2.14150000        -8.59545725E-13
   2.32200003        -2.00892319E-12
   2.50250006        -3.07952383E-12
   2.68300009        -4.06301772E-12
   2.86350012        -4.95482301E-12
   3.04399991        -5.75208891E-12
   3.22449994        -6.45294885E-12
   3.40499997        -7.05716431E-12
   3.58550000        -7.56781703E-12
   3.76600003        -7.99316863E-12
   3.94650006        -8.34775912E-12
   4.12699986        -8.65200619E-12
   4.30749989        -8.93002339E-12
   4.48799992        -9.20598407E-12
   4.66849995        -9.49978377E-12
   4.84899998        -9.82306857E-12
   5.02950001        -1.01765549E-11
   5.21000004        -1.05493071E-11
   5.39050007        -1.09201060E-11
   5.57100010        -1.12606010E-11
   5.75150013        -1.15395341E-11
   5.93200016        -1.17271288E-11
   6.11250019        -1.17988510E-11
   6.29300022        -1.17378459E-11
   6.47349977        -1.15357498E-11
   6.65399981        -1.11919068E-11
   6.83449984        -1.07113355E-11
   7.01499987        -1.01020520E-11
   7.19549990        -9.37240736E-12
   7.37599993        -8.52913486E-12
   7.55649996        -7.57657131E-12
   7.73699999        -6.51716701E-12
   7.91750002        -5.35312810E-12
   8.09799957        -4.08866387E-12
   8.27849960        -2.73215196E-12
   8.45899963        -1.29744490E-12
   8.63949966         1.96145346E-13
   8.81999969         1.72540573E-12
   9.00049973         3.26605886E-12
   9.18099976         4.79620206E-12
   9.36149979         6.29947570E-12
   9.54199982         7.76705002E-12
   9.72249985         9.19776234E-12
   9.90299988         1.05963172E-11
   10.0834999         1.19698132E-11
   10.2639999         1.33235575E-11
   10.4445000         1.46574315E-11
   10.6250000         1.59635777E-11
   10.8055000         1.72266177E-11
   10.9860001         1.84262015E-11
   11.1665001         1.95414900E-11
   11.3470001         2.05565235E-11
   11.5275002         2.14649670E-11
   11.7080002         2.22728520E-11
   11.8885002         2.29986273E-11
   12.0690002         2.36700520E-11
   12.2495003         2.43189184E-11
   12.4300003         2.49745745E-11
   12.6105003         2.56580677E-11
   12.7910004         2.63785660E-11
   12.9715004         2.71328602E-11
   13.1520004         2.79085401E-11
   13.3325005         2.86900781E-11
   13.5129995         2.94666028E-11
   13.6934996         3.02395158E-11
   13.8739996         3.10283882E-11
   14.0544996         3.18734761E-11
   14.2349997         3.28342249E-11
   14.4154997         3.39839545E-11
   14.5959997         3.54011924E-11
   14.7764997         3.71595948E-11
   14.9569998         3.93176533E-11
   15.1374998         4.19103953E-11
   15.3179998         4.49442220E-11
   15.4984999         4.83959782E-11
   15.6789999         5.22160822E-11
   15.8594999         5.63352941E-11
   16.0400009         6.06737577E-11
   16.2205009         6.51501977E-11
   16.4009991         6.96903993E-11
   16.5814991         7.42326617E-11
   16.7619991         7.87299878E-11
   16.9424992         8.31488003E-11
   17.1229992         8.74657152E-11
   17.3034992         9.16626011E-11
   17.4839993         9.57229157E-11
   17.6644993         9.96297420E-11
   17.8449993         1.03366642E-10
   18.0254993         1.06920896E-10
   18.2059994         1.10288507E-10
   18.3864994         1.13478955E-10
   18.5669994         1.16517865E-10
   18.7474995         1.19447244E-10
   18.9279995         1.22321431E-10
   19.1084995         1.25200503E-10
   19.2889996         1.28142302E-10
   19.4694996         1.31194680E-10
   19.6499996         1.34390429E-10
   19.8304996         1.37746411E-10
   20.0109997         1.41266235E-10
   20.1914997         1.44946610E-10
   20.3719997         1.48784693E-10
   20.5524998         1.52784868E-10
   20.7329998         1.56962138E-10
   20.9134998         1.61341662E-10
   21.0939999         1.65954528E-10
   21.2744999         1.70831196E-10
   21.4549999         1.75994969E-10
   21.6355000         1.81458112E-10
   21.8160000         1.87222821E-10
   21.9965000         1.93286540E-10
   22.1770000         1.99651004E-10
   22.3575001         2.06332340E-10
   22.5380001         2.13368323E-10
   22.7185001         2.20819793E-10
   22.8990002         2.28764674E-10
   23.0795002         2.37284387E-10
   23.2600002         2.46445753E-10
   23.4405003         2.56281996E-10
   23.6210003         2.66777794E-10
   23.8015003         2.77863371E-10
   23.9820004         2.89418156E-10
   24.1625004         3.01286107E-10
   24.3430004         3.13296833E-10
   24.5235004         3.25289379E-10
   24.7040005         3.37131906E-10
   24.8845005         3.48731988E-10
   25.0650005         3.60035973E-10
   25.2455006         3.71016412E-10
   25.4260006         3.81652321E-10
   25.6065006         3.91906396E-10
   25.7870007         4.01706224E-10
   25.9675007         4.10933731E-10
   26.1480007         4.19424440E-10
   26.3285007         4.26977925E-10
   26.5090008         4.33374087E-10
   26.6895008         4.38391712E-10
   26.8700008         4.41824549E-10
   27.0505009         4.43490578E-10
   27.2310009         4.43234893E-10
   27.4115009         4.40925657E-10
   27.5919991         4.36447906E-10
   27.7724991         4.29697389E-10
   27.9529991         4.20579016E-10
   28.1334991         4.09010076E-10
   28.3139992         3.94929173E-10
   28.4944992         3.78307996E-10
   28.6749992         3.59163255E-10
   28.8554993         3.37565725E-10
   29.0359993         3.13644083E-10
   29.2164993         2.87582430E-10
   29.3969994         2.59612359E-10
   29.5774994         2.30002017E-10
   29.7579994         1.99043032E-10
   29.9384995         1.67038924E-10
   30.1189995         1.34296879E-10
   30.2994995         1.01121944E-10
   30.4799995         6.78152187E-11
   30.6604996         3.46728687E-11
   30.8409996         1.98507356E-12
   31.0214996        -2.99674556E-11
   31.2019997        -6.09198178E-11
   31.3824997        -9.06327444E-11
   31.5629997        -1.18905025E-10
   31.7434998        -1.45584655E-10
   31.9239998        -1.70578759E-10
   32.1044998        -1.93857111E-10
   32.2849998        -2.15450088E-10
   32.4654999        -2.35438807E-10
   32.6459999        -2.53941229E-10
   32.8264999        -2.71094508E-10
   33.0070000        -2.87038782E-10
   33.1875000        -3.01902614E-10
   33.3680000        -3.15794085E-10
   33.5485001        -3.28795990E-10
   33.7290001        -3.40964673E-10
   33.9095001        -3.52329804E-10
   34.0900002        -3.62894270E-10
   34.2705002        -3.72631481E-10
   34.4510002        -3.81481874E-10
   34.6315002        -3.89348165E-10
   34.8120003        -3.96092464E-10
   34.9925003        -4.01536360E-10
   35.1730003        -4.05467493E-10
   35.3535004        -4.07650580E-10
   35.5340004        -4.07845008E-10
   35.7145004        -4.05824679E-10
   35.8950005        -4.01399469E-10
   36.0755005        -3.94433486E-10
   36.2560005        -3.84860338E-10
   36.4365005        -3.72690379E-10
   36.6170006        -3.58013341E-10
   36.7975006        -3.40993178E-10
   36.9780006        -3.21860316E-10
   37.1585007        -3.00899916E-10
   37.3390007        -2.78440465E-10
   37.5195007        -2.54842508E-10
   37.7000008        -2.30489100E-10
   37.8805008        -2.05778311E-10
   38.0610008        -1.81115137E-10
   38.2415009        -1.56904101E-10
   38.4220009        -1.33540012E-10
   38.6025009        -1.11396926E-10
   38.7830009        -9.08160422E-11
   38.9635010        -7.20933244E-11
   39.1440010        -5.54695664E-11
   39.3245010        -4.11228621E-11
   39.5050011        -2.91661209E-11
   39.6855011        -1.96483212E-11
   39.8660011        -1.25590796E-11
   40.0465012        -7.83338845E-12
   40.2270012        -5.35684387E-12
   40.4075012        -4.96789328E-12
   40.5880013        -6.45913791E-12
   40.7685013        -9.57733719E-12
   40.9490013        -1.40255307E-11
   41.1295013        -1.94691156E-11
   41.3100014        -2.55469257E-11
   41.4905014        -3.18889914E-11
   41.6710014        -3.81384438E-11
   41.8515015        -4.39763503E-11
   42.0320015        -4.91438834E-11
   42.2125015        -5.34615234E-11
   42.3930016        -5.68403033E-11
   42.5735016        -5.92859511E-11
   42.7540016        -6.08966766E-11
   42.9345016        -6.18542093E-11
   43.1150017        -6.24133870E-11
   43.2955017        -6.28879518E-11
   43.4760017        -6.36358813E-11
   43.6565018        -6.50422008E-11
   43.8370018        -6.74994782E-11
   44.0175018        -7.13856543E-11
   44.1980019        -7.70397982E-11
   44.3785019        -8.47385287E-11
   44.5589981        -9.46746015E-11
   44.7394981        -1.06945001E-10
   44.9199982        -1.21545649E-10
   45.1004982        -1.38379447E-10
   45.2809982        -1.57272584E-10
   45.4614983        -1.77995771E-10
   45.6419983        -2.00287759E-10
   45.8224983        -2.23873031E-10
   46.0029984        -2.48471882E-10
   46.1834984        -2.73800899E-10
   46.3639984        -2.99565955E-10
   46.5444984        -3.25451610E-10
   46.7249985        -3.51112139E-10
   46.9054985        -3.76170040E-10
   47.0859985        -4.00224714E-10
   47.2664986        -4.22869711E-10
   47.4469986        -4.43719617E-10
   47.6274986        -4.62438449E-10
   47.8079987        -4.78765083E-10
   47.9884987        -4.92529184E-10
   48.1689987        -5.03655451E-10
   48.3494987        -5.12154874E-10
   48.5299988        -5.18101340E-10
   48.7104988        -5.21605981E-10
   48.8909988        -5.22785315E-10
   49.0714989        -5.21735710E-10
   49.2519989        -5.18515231E-10
   49.4324989        -5.13137255E-10
   49.6129990        -5.05573972E-10
   49.7934990        -4.95768371E-10
   49.9739990        -4.83650453E-10
   50.1544991        -4.69153993E-10
   50.3349991        -4.52228671E-10
   50.5154991        -4.32845260E-10
   50.6959991        -4.10994933E-10
   50.8764992        -3.86683019E-10
   51.0569992        -3.59921259E-10
   51.2374992        -3.30721811E-10
   51.4179993        -2.99096498E-10
   51.5984993        -2.65063166E-10
   51.7789993        -2.28656524E-10
   51.9594994        -1.89942492E-10
   52.1399994        -1.49030344E-10
   52.3204994        -1.06077709E-10
   52.5009995        -6.12877527E-11
   52.6814995        -1.48946497E-11
   52.8619995         3.28575535E-11
   53.0424995         8.17404686E-11
   53.2229996         1.31564218E-10
   53.4034996         1.82193080E-10
   53.5839996         2.33549957E-10
   53.7644997         2.85607260E-10
   53.9449997         3.38368528E-10
   54.1254997         3.91842170E-10
   54.3059998         4.46015974E-10
   54.4864998         5.00836872E-10
   54.6669998         5.56200919E-10
   54.8474998         6.11956152E-10
   55.0279999         6.67915723E-10
   55.2084999         7.23879678E-10
   55.3889999         7.79657117E-10
   55.5695000         8.35085667E-10
   55.7500000         8.90039709E-10
   55.9305000         9.44427647E-10
   56.1110001         9.98180094E-10
   56.2915001         1.05122588E-09
   56.4720001         1.10347176E-09
   56.6525002         1.15478438E-09
   56.8330002         1.20498189E-09
   57.0135002         1.25384036E-09
   57.1940002         1.30111066E-09
   57.3745003         1.34653921E-09
   57.5550003         1.38989309E-09
   57.7355003         1.43097456E-09
   57.9160004         1.46962786E-09
   58.0965004         1.50573043E-09
   58.2770004         1.53918045E-09
   58.4575005         1.56987690E-09
   58.6380005         1.59770874E-09
   58.8185005         1.62255087E-09
   58.9990005         1.64427616E-09
   59.1795006         1.66277747E-09
   59.3600006         1.67799297E-09
   59.5405006         1.68993119E-09
   59.7210007         1.69868009E-09
   59.9015007         1.70440317E-09
   60.0820007         1.70731396E-09
   60.2625008         1.70764269E-09
   60.4430008         1.70559178E-09
   60.6235008         1.70130343E-09
   60.8040009         1.69483871E-09
   60.9845009         1.68617664E-09
   61.1650009         1.67523129E-09
   61.3455009         1.66188652E-09
   61.5260010         1.64602965E-09
   61.7065010         1.62758762E-09
   61.8870010         1.60654179E-09
   62.0675011         1.58293267E-09
   62.2480011         1.55684698E-09
   62.4285011         1.52839341E-09
   62.6090012         1.49767587E-09
   62.7895012         1.46477563E-09
   62.9700012         1.42974188E-09
   63.1505013         1.39259781E-09
   63.3310013         1.35335976E-09
   63.5115013         1.31206024E-09
   63.6920013         1.26877020E-09
   63.8725014         1.22361232E-09
   64.0530014         1.17675969E-09
   64.2334976         1.12842269E-09
   64.4140015         1.07882392E-09
   64.5944977         1.02816999E-09
   64.7750015         9.76629000E-10
   64.9554977         9.24317844E-10
   65.1360016         8.71305861E-10
   65.3164978         8.17631851E-10
   65.4970016         7.63329455E-10
   65.6774979         7.08456294E-10
   65.8580017         6.53113841E-10
   66.0384979         5.97453254E-10
   66.2190018         5.41664547E-10
   66.3994980         4.85949003E-10
   66.5800018         4.30481623E-10
   66.7604980         3.75375786E-10
   66.9410019         3.20654392E-10
   67.1214981         2.66245859E-10
   67.3020020         2.11997933E-10
   67.4824982         1.57715674E-10
   67.6630020         1.03211356E-10
   67.8434982         4.83581196E-11
   68.0240021        -6.86725806E-12
   68.2044983        -6.23619628E-11
   68.3850021        -1.17900162E-10
   68.5654984        -1.73161971E-10
   68.7460022        -2.27780864E-10
   68.9264984        -2.81396073E-10
   69.1070023        -3.33701733E-10
   69.2874985        -3.84473453E-10
   69.4680023        -4.33573788E-10
   69.6484985        -4.80932461E-10
   69.8290024        -5.26509114E-10
   70.0094986        -5.70248404E-10
   70.1900024        -6.12043527E-10
   70.3704987        -6.51712295E-10
   70.5510025        -6.88998414E-10
   70.7314987        -7.23590854E-10
   70.9120026        -7.55160101E-10
   71.0924988        -7.83399623E-10
   71.2730026        -8.08061951E-10
   71.4534988        -8.28982993E-10
   71.6340027        -8.46089754E-10
   71.8144989        -8.59392335E-10
   71.9950027        -8.68964123E-10
   72.1754990        -8.74920136E-10
   72.3560028        -8.77396267E-10
   72.5364990        -8.76536288E-10
   72.7170029        -8.72485584E-10
   72.8974991        -8.65392258E-10
   73.0780029        -8.55408855E-10
   73.2584991        -8.42694414E-10
   73.4390030        -8.27411417E-10
   73.6194992        -8.09718959E-10
   73.8000031        -7.89764087E-10
   73.9804993        -7.67674757E-10
   74.1610031        -7.43555273E-10
   74.3414993        -7.17488846E-10
   74.5220032        -6.89545809E-10
   74.7024994        -6.59792609E-10
   74.8830032        -6.28298802E-10
   75.0634995        -5.95141270E-10
   75.2440033        -5.60394786E-10
   75.4244995        -5.24117583E-10
   75.6050034        -4.86331087E-10
   75.7854996        -4.47000464E-10
   75.9660034        -4.06023104E-10
   76.1464996        -3.63230473E-10
   76.3270035        -3.18406246E-10
   76.5074997        -2.71318579E-10
   76.6880035        -2.21762220E-10
   76.8684998        -1.69602374E-10
   77.0490036        -1.14812521E-10
   77.2294998        -5.74986135E-11
   77.4100037         2.09424839E-12
   77.5904999         6.35867400E-11
   77.7710037         1.26487487E-10
   77.9514999         1.90215607E-10
   78.1320038         2.54124249E-10
   78.3125000         3.17520010E-10
   78.4929962         3.79672460E-10
   78.6735001         4.39821457E-10
   78.8539963         4.97182462E-10
   79.0345001         5.50953838E-10
   79.2149963         6.00330730E-10
   79.3955002         6.44526266E-10
   79.5759964         6.82794932E-10
   79.7565002         7.14460047E-10
   79.9369965         7.38936634E-10
   80.1175003         7.55750962E-10
   80.2979965         7.64552588E-10
   80.4785004         7.65122909E-10
   80.6589966         7.57378160E-10
   80.8395004         7.41374295E-10
   81.0199966         7.17308768E-10
   81.2005005         6.85523749E-10
   81.3809967         6.46504850E-10
   81.5615005         6.00873240E-10
   81.7419968         5.49370327E-10
   81.9225006         4.92830443E-10
   82.1029968         4.32146402E-10
   82.2835007         3.68230529E-10
   82.4639969         3.01976333E-10
   82.6445007         2.34228692E-10
   82.8249969         1.65764666E-10
   83.0055008         9.72891351E-11
   83.1859970         2.94416540E-11
   83.3665009        -3.71886098E-11
   83.5469971        -1.02046351E-10
   83.7275009        -1.64598432E-10
   83.9079971        -2.24330457E-10
   84.0885010        -2.80756057E-10
   84.2689972        -3.33433475E-10
   84.4495010        -3.81989523E-10
   84.6299973        -4.26142288E-10
   84.8105011        -4.65717243E-10
   84.9909973        -5.00654018E-10
   85.1715012        -5.30999078E-10
   85.3519974        -5.56888591E-10
   85.5325012        -5.78523118E-10
   85.7129974        -5.96140859E-10
   85.8935013        -6.09994166E-10
   86.0739975        -6.20333729E-10
   86.2545013        -6.27401464E-10
   86.4349976        -6.31432240E-10
   86.6155014        -6.32660146E-10
   86.7959976        -6.31325769E-10
   86.9765015        -6.27680519E-10
   87.1569977        -6.21982188E-10
   87.3375015        -6.14487017E-10
   87.5179977        -6.05432149E-10
   87.6985016        -5.95018090E-10
   87.8789978        -5.83392834E-10
   88.0595016        -5.70643366E-10
   88.2399979        -5.56796220E-10
   88.4205017        -5.41831247E-10
   88.6009979        -5.25702926E-10
   88.7815018        -5.08369624E-10
   88.9619980        -4.89822960E-10
   89.1425018        -4.70114170E-10
   89.3229980        -4.49372040E-10
   89.5035019        -4.27809899E-10
   89.6839981        -4.05721179E-10
   89.8645020        -3.83466425E-10
   90.0449982        -3.61452035E-10
   90.2255020        -3.40106970E-10
   90.4059982        -3.19858307E-10
   90.5865021        -3.01109776E-10
   90.7669983        -2.84221702E-10
   90.9475021        -2.69493011E-10
   91.1279984        -2.57142779E-10
   91.3085022        -2.47294213E-10
   91.4889984        -2.39956000E-10
   91.6695023        -2.35008596E-10
   91.8499985        -2.32196373E-10
   92.0305023        -2.31132655E-10
   92.2109985        -2.31316924E-10
   92.3915024        -2.32168423E-10
   92.5719986        -2.33072728E-10
   92.7525024        -2.33434855E-10
   92.9329987        -2.32730488E-10
   93.1135025        -2.30548372E-10
   93.2939987        -2.26612451E-10
   93.4745026        -2.20784752E-10
   93.6549988        -2.13044596E-10
   93.8355026        -2.03452491E-10
   94.0159988        -1.92107372E-10
   94.1965027        -1.79105855E-10
   94.3769989        -1.64514583E-10
   94.5575027        -1.48359991E-10
   94.7379990        -1.30638916E-10
   94.9185028        -1.11340430E-10
   95.0989990        -9.04766956E-11
   95.2795029        -6.81103715E-11
   95.4599991        -4.43684395E-11
   95.6405029        -1.94434312E-11
   95.8209991         6.42688723E-12
   96.0015030         3.29884245E-11
   96.1819992         6.00059516E-11
   96.3625031         8.72903694E-11
   96.5429993         1.14715362E-10
   96.7235031         1.42213755E-10
   96.9039993         1.69756043E-10
   97.0845032         1.97320757E-10
   97.2649994         2.24858757E-10
   97.4455032         2.52265764E-10
   97.6259995         2.79369500E-10
   97.8065033         3.05933806E-10
   97.9869995         3.31677491E-10
   98.1675034         3.56302821E-10
   98.3479996         3.79524245E-10
   98.5285034         4.01089495E-10
   98.7089996         4.20788848E-10
   98.8895035         4.38450387E-10
   99.0699997         4.53926952E-10
   99.2505035         4.67080041E-10
   99.4309998         4.77769213E-10
   99.6115036         4.85850971E-10
   99.7919998         4.91190755E-10
   99.9725037         4.93683816E-10
   100.153000         4.93281527E-10
   100.333504         4.90012197E-10
   100.514000         4.83992180E-10
   100.694504         4.75425921E-10
   100.875000         4.64587202E-10
   101.055496         4.51796045E-10
   101.236000         4.37386405E-10
   101.416496         4.21678054E-10
   101.597000         4.04956291E-10
   101.777496         3.87460342E-10
   101.958000         3.69385439E-10
   102.138496         3.50892149E-10
   102.319000         3.32123190E-10
   102.499496         3.13219617E-10
   102.680000         2.94336111E-10
   102.860497         2.75650613E-10
   103.041000         2.57367239E-10
   103.221497         2.39712417E-10
   103.402000         2.22927302E-10
   103.582497         2.07255754E-10
   103.763000         1.92930838E-10
   103.943497         1.80162052E-10
   104.124001         1.69121758E-10
   104.304497         1.59933095E-10
   104.485001         1.52656762E-10
   104.665497         1.47278925E-10
   104.846001         1.43699275E-10
   105.026497         1.41720247E-10
   105.207001         1.41039944E-10
   105.387497         1.41249665E-10
   105.568001         1.41838735E-10
   105.748497         1.42205969E-10
   105.929001         1.41678919E-10
   106.109497         1.39539713E-10
   106.290001         1.35054981E-10
   106.470497         1.27508545E-10
   106.651001         1.16237700E-10
   106.831497         1.00668973E-10
   107.012001         8.03551461E-11
   107.192497         5.50074777E-11
   107.373001         2.45251076E-11
   107.553497        -1.09879458E-11
   107.734001        -5.12193413E-11
   107.914497        -9.56606461E-11
   108.095001        -1.43639114E-10
   108.275497        -1.94362804E-10
   108.456001        -2.46972665E-10
   108.636497        -3.00596437E-10
   108.817001        -3.54395485E-10
   108.997498        -4.07595291E-10
   109.178001        -4.59502048E-10
   109.358498        -5.09504938E-10
   109.539001        -5.57065116E-10
   109.719498        -6.01704242E-10
   109.900002        -6.42989606E-10
   110.080498        -6.80524137E-10
   110.261002        -7.13943904E-10
   110.441498        -7.42912787E-10
   110.622002        -7.67122810E-10
   110.802498        -7.86290588E-10
   110.983002        -8.00154276E-10
   111.163498        -8.08471179E-10
   111.344002        -8.11023193E-10
   111.524498        -8.07625022E-10