  -34.5000000         0.00000000    
  -34.3199997         0.00000000    
  -34.1399994         0.00000000    
  -33.9599991         6.63416086E-24
  -33.7799988         2.69673837E-20
  -33.5999985         1.45410894E-19
  -33.4199982         4.19507052E-19
  -33.2400017         8.53848502E-19
  -33.0600014         1.19773685E-18
  -32.8800011         8.99841605E-19
  -32.7000008         3.38324263E-19
  -32.5200005         2.54999372E-18
  -32.3400002         8.31626791E-18
  -32.1599998        -3.14075433E-18
  -31.9799995        -8.68483990E-17
  -31.7999992        -2.71334246E-16
  -31.6200008        -4.01233446E-16
  -31.4400005        -6.82627293E-17
  -31.2600002         1.03804057E-15
  -31.0799999         2.37398856E-15
  -30.8999996         2.18420617E-15
  -30.7199993        -1.35731736E-15
  -30.5400009        -7.57501988E-15
  -30.3600006        -1.14444273E-14
  -30.1800003        -5.45089969E-15
  -30.0000000         1.40389621E-14
  -29.8199997         3.93446770E-14
  -29.6399994         4.94925349E-14
  -29.4599991         1.90156593E-14
  -29.2800007        -6.30718148E-14
  -29.1000004        -1.72856954E-13
  -28.9200001        -2.44149400E-13
  -28.7399998        -1.87211737E-13
  -28.5599995         6.42720943E-14
  -28.3799992         4.93415313E-13
  -28.2000008         9.58457489E-13
  -28.0200005         1.20302021E-12
  -27.8400002         9.36508900E-13
  -27.6599998        -2.79880929E-14
  -27.4799995        -1.62532238E-12
  -27.2999992        -3.44866388E-12
  -27.1200008        -4.78410497E-12
  -26.9400005        -4.79898760E-12
  -26.7600002        -2.85178933E-12
  -26.5799999         1.17406876E-12
  -26.3999996         6.64808833E-12
  -26.2199993         1.22019695E-11
  -26.0400009         1.60161970E-11
  -25.8600006         1.63234860E-11
  -25.6800003         1.19756427E-11
  -25.5000000         2.88491626E-12
  -25.3199997        -9.80762086E-12
  -25.1399994        -2.38836919E-11
  -24.9599991        -3.64544887E-11
  -24.7800007        -4.44878891E-11
  -24.6000004        -4.53227976E-11
  -24.4200001        -3.70956633E-11
  -24.2399998        -1.90726011E-11
  -24.0599995         8.08865214E-12
  -23.8799992         4.21463454E-11
  -23.7000008         7.92019575E-11
  -23.5200005         1.13827947E-10
  -23.3400002         1.39451561E-10
  -23.1599998         1.48971752E-10
  -22.9799995         1.35493491E-10
  -22.7999992         9.30097943E-11
  -22.6200008         1.68793902E-11
  -22.4400005        -9.59684762E-11
  -22.2600002        -2.47065174E-10
  -22.0799999        -4.36558956E-10
  -21.8999996        -6.63377075E-10
  -21.7199993        -9.25325427E-10
  -21.5400009        -1.21913457E-09
  -21.3600006        -1.54051139E-09
  -21.1800003        -1.88426363E-09
  -21.0000000        -2.24451213E-09
  -20.8199997        -2.61492938E-09
  -20.6399994        -2.98887781E-09
  -20.4599991        -3.35931949E-09
  -20.2800007        -3.71842956E-09
  -20.1000004        -4.05701073E-09
  -19.9200001        -4.36396386E-09
  -19.7399998        -4.62616656E-09
  -19.5599995        -4.82908558E-09
  -19.3799992        -4.95823071E-09
  -19.2000008        -5.00124386E-09
  -19.0200005        -4.95011809E-09
  -18.8400002        -4.80289764E-09
  -18.6599998        -4.56430493E-09
  -18.4799995        -4.24508606E-09
  -18.2999992        -3.86026544E-09
  -18.1200008        -3.42683948E-09
  -17.9400005        -2.96153635E-09
  -17.7600002        -2.47910137E-09
  -17.5799999        -1.99127270E-09
  -17.3999996        -1.50631241E-09
  -17.2199993        -1.02884135E-09
  -17.0400009        -5.59796876E-10
  -16.8600006        -9.65455701E-11
  -16.6800003         3.66624758E-10
  -16.5000000         8.37409864E-10
  -16.3199997         1.32372280E-09
  -16.1399994         1.83151339E-09
  -15.9600000         2.36271225E-09
  -15.7799997         2.91396551E-09
  -15.6000004         3.47669316E-09
  -15.4200001         4.03867650E-09
  -15.2399998         4.58693394E-09
  -15.0600004         5.11132026E-09
  -14.8800001         5.60806823E-09
  -14.6999998         6.08258155E-09
  -14.5200005         6.55095844E-09
  -14.3400002         7.04001568E-09
  -14.1599998         7.58575691E-09
  -13.9799995         8.23035684E-09
  -13.8000002         9.01777053E-09
  -13.6199999         9.98815430E-09
  -13.4399996         1.11714149E-08
  -13.2600002         1.25805579E-08
  -13.0799999         1.42057548E-08
  -12.8999996         1.60103362E-08
  -12.7200003         1.79297803E-08
  -12.5400000         1.98743901E-08
  -12.3599997         2.17355982E-08
  -12.1800003         2.33950797E-08
  -12.0000000         2.47351615E-08
  -11.8199997         2.56488253E-08
  -11.6400003         2.60478359E-08
  -11.4600000         2.58680455E-08
  -11.2799997         2.50717012E-08
  -11.1000004         2.36470878E-08
  -10.9200001         2.16061924E-08
  -10.7399998         1.89810407E-08
  -10.5600004         1.58193227E-08
  -10.3800001         1.21797656E-08
  -10.1999998         8.12784240E-09
  -10.0200005         3.73242104E-09
  -9.84000015        -9.35842959E-10
  -9.65999985        -5.80385917E-09
  -9.47999954        -1.07930775E-08
  -9.30000019        -1.58146811E-08
  -9.11999989        -2.07643325E-08
  -8.93999958        -2.55182240E-08
  -8.76000023        -2.99322629E-08
  -8.57999992        -3.38455770E-08
  -8.39999962        -3.70887179E-08
  -8.22000027        -3.94958484E-08
  -8.03999996        -4.09192680E-08
  -7.86000013        -4.12442631E-08
  -7.67999983        -4.04020675E-08
  -7.50000000        -3.83792731E-08
  -7.32000017        -3.52225378E-08
  -7.13999987        -3.10381978E-08
  -6.96000004        -2.59870738E-08
  -6.78000021        -2.02751735E-08
  -6.59999990        -1.41415688E-08
  -6.42000008        -7.84476129E-09
  -6.23999977        -1.64910774E-09
  -6.05999994         4.18730473E-09
  -5.88000011         9.42197342E-09
  -5.69999981         1.38339606E-08
  -5.51999998         1.72262133E-08
  -5.34000015         1.94249079E-08
  -5.15999985         2.02768558E-08
  -4.98000002         1.96463557E-08
  -4.80000019         1.74131181E-08
  -4.61999989         1.34721434E-08
  -4.44000006         7.73624276E-09
  -4.26000023         1.41038861E-10
  -4.07999992        -9.34799882E-09
  -3.90000010        -2.07275761E-08
  -3.72000003        -3.39485702E-08
  -3.53999996        -4.89092251E-08
  -3.35999990        -6.54503367E-08
  -3.18000007        -8.33536973E-08
  -3.00000000        -1.02344003E-07
  -2.81999993        -1.22094889E-07
  -2.64000010        -1.42238562E-07
  -2.46000004        -1.62378697E-07
  -2.27999997        -1.82104870E-07
  -2.09999990        -2.01007239E-07
  -1.91999996        -2.18690232E-07
  -1.74000001        -2.34784025E-07
  -1.55999994        -2.48953114E-07
  -1.38000000        -2.60902340E-07
  -1.20000005        -2.70380525E-07
  -1.01999998        -2.77181783E-07
 -0.839999974        -2.81145475E-07
 -0.660000026        -2.82154758E-07
 -0.479999989        -2.80134060E-07
 -0.300000012        -2.75046034E-07
 -0.119999997        -2.66889032E-07
   5.99999987E-02    -2.55695085E-07
  0.239999995        -2.41529648E-07
  0.419999987        -2.24492794E-07
  0.600000024        -2.04721658E-07
  0.779999971        -1.82392981E-07
  0.959999979        -1.57724344E-07
   1.13999999        -1.30973220E-07
   1.32000005        -1.02432843E-07
   1.50000000        -7.24252871E-08
   1.67999995        -4.12921146E-08
   1.86000001        -9.38498168E-09
   2.03999996         2.29445050E-08
   2.22000003         5.53526931E-08
   2.40000010         8.75112036E-08
   2.57999992         1.19112613E-07
   2.75999999         1.49875049E-07
   2.94000006         1.79546859E-07
   3.11999989         2.07908855E-07
   3.29999995         2.34775712E-07
   3.48000002         2.59994749E-07
   3.66000009         2.83442461E-07
   3.83999991         3.05021160E-07
   4.01999998         3.24655616E-07
   4.19999981         3.42294015E-07
   4.38000011         3.57911830E-07
   4.55999994         3.71520116E-07
   4.73999977         3.83174182E-07
   4.92000008         3.92980240E-07
   5.09999990         4.01097736E-07
   5.28000021         4.07732358E-07
   5.46000004         4.13124638E-07
   5.63999987         4.17531595E-07
   5.82000017         4.21206863E-07
   6.00000000         4.24382563E-07
   6.17999983         4.27256538E-07
   6.36000013         4.29983345E-07
   6.53999996         4.32672635E-07
   6.71999979         4.35390177E-07
   6.90000010         4.38163568E-07
   7.07999992         4.40988572E-07
   7.26000023         4.43837990E-07
   7.44000006         4.46669958E-07
   7.61999989         4.49438346E-07
   7.80000019         4.52100096E-07
   7.98000002         4.54620761E-07
   8.15999985         4.56973851E-07
   8.34000015         4.59134100E-07
   8.52000046         4.61065838E-07
   8.69999981         4.62706936E-07
   8.88000011         4.63954223E-07
   9.06000042         4.64654732E-07
   9.23999977         4.64605989E-07
   9.42000008         4.63566636E-07
   9.60000038         4.61275789E-07
   9.77999973         4.57477569E-07
   9.96000004         4.51944913E-07
   10.1400003         4.44500330E-07
   10.3199997         4.35028284E-07
   10.5000000         4.23481424E-07
   10.6800003         4.09881750E-07
   10.8599997         3.94318221E-07
   11.0400000         3.76941955E-07
   11.2200003         3.57961653E-07
   11.3999996         3.37636862E-07
   11.5799999         3.16271610E-07
   11.7600002         2.94206586E-07
   11.9399996         2.71813121E-07
   12.1199999         2.49488807E-07
   12.3000002         2.27658973E-07
   12.4799995         2.06780740E-07
   12.6599998         1.87352398E-07
   12.8400002         1.69921336E-07
   13.0200005         1.55087605E-07
   13.1999998         1.43502774E-07
   13.3800001         1.35857064E-07
   13.5600004         1.32859029E-07
   13.7399998         1.35210314E-07
   13.9200001         1.43579129E-07
   14.1000004         1.58576256E-07
   14.2799997         1.80739235E-07
   14.4600000         2.10522103E-07
   14.6400003         2.48294725E-07
   14.8199997         2.94345170E-07
   15.0000000         3.48887937E-07
   15.1800003         4.12073092E-07
   15.3599997         4.83997212E-07
   15.5400000         5.64718619E-07
   15.7200003         6.54270764E-07
   15.8999996         7.52679284E-07
   16.0799999         8.59970498E-07
   16.2600002         9.76176352E-07
   16.4400005         1.10133180E-06
   16.6200008         1.23546101E-06
   16.7999992         1.37856466E-06
   16.9799995         1.53060193E-06
   17.1599998         1.69148245E-06
   17.3400002         1.86106604E-06
   17.5200005         2.03917057E-06
   17.7000008         2.22558765E-06
   17.8799992         2.42010447E-06
   18.0599995         2.62251888E-06
   18.2399998         2.83265535E-06
   18.4200001         3.05036838E-06
   18.6000004         3.27554017E-06
   18.7800007         3.50807477E-06
   18.9599991         3.74788533E-06
   19.1399994         3.99488454E-06
   19.3199997         4.24897189E-06
   19.5000000         4.51001961E-06
   19.6800003         4.77786534E-06
   19.8600006         5.05229718E-06
   20.0400009         5.33304046E-06
   20.2199993         5.61975185E-06
   20.3999996         5.91201433E-06
   20.5799999         6.20933861E-06
   20.7600002         6.51116989E-06
   20.9400005         6.81690108E-06
   21.1200008         7.12588371E-06
   21.2999992         7.43744022E-06
   21.4799995         7.75086573E-06
   21.6599998         8.06543176E-06
   21.8400002         8.38038159E-06
   22.0200005         8.69492305E-06
   22.2000008         9.00823034E-06
   22.3799992         9.31943305E-06
   22.5599995         9.62762715E-06
   22.7399998         9.93187678E-06
   22.9200001         1.02312242E-05
   23.1000004         1.05247063E-05
   23.2800007         1.08113700E-05
   23.4599991         1.10902956E-05
   23.6399994         1.13606193E-05
   23.8199997         1.16215597E-05
   24.0000000         1.18724411E-05
   24.1800003         1.21127105E-05
   24.3600006         1.23419513E-05
   24.5400009         1.25598790E-05
   24.7199993         1.27663279E-05
   24.8999996         1.29612345E-05
   25.0799999         1.31446059E-05
   25.2600002         1.33164940E-05
   25.4400005         1.34769725E-05
   25.6200008         1.36261215E-05
   25.7999992         1.37640181E-05
   25.9799995         1.38907380E-05
   26.1599998         1.40063603E-05
   26.3400002         1.41109749E-05
   26.5200005         1.42046847E-05
   26.7000008         1.42876106E-05
   26.8799992         1.43598918E-05
   27.0599995         1.44216801E-05
   27.2399998         1.44731284E-05
   27.4200001         1.45143813E-05
   27.6000004         1.45455588E-05
   27.7800007         1.45667400E-05
   27.9599991         1.45779468E-05
   28.1399994         1.45791309E-05
   28.3199997         1.45701597E-05
   28.5000000         1.45508211E-05
   28.6800003         1.45208178E-05
   28.8600006         1.44797878E-05
   29.0400009         1.44273117E-05
   29.2199993         1.43629422E-05
   29.3999996         1.42862200E-05
   29.5799999         1.41967039E-05
   29.7600002         1.40939801E-05
   29.9400005         1.39776803E-05
   30.1200008         1.38474834E-05
   30.2999992         1.37031175E-05
   30.4799995         1.35443515E-05
   30.6599998         1.33709818E-05
   30.8400002         1.31828247E-05
   31.0200005         1.29797045E-05
   31.2000008         1.27614521E-05
   31.3799992         1.25279093E-05
   31.5599995         1.22789379E-05
   31.7399998         1.20144359E-05
   31.9200001         1.17343652E-05
   32.0999985         1.14387694E-05
   32.2799988         1.11277950E-05
   32.4599991         1.08016939E-05
   32.6399994         1.04608289E-05
   32.8199997         1.01056576E-05
   33.0000000         9.73671649E-06
   33.1800003         9.35459593E-06
   33.3600006         8.95991980E-06
   33.5400009         8.55333292E-06
   33.7200012         8.13549468E-06
   33.9000015         7.70708539E-06
   34.0800018         7.26882354E-06
   34.2599983         6.82148948E-06
   34.4399986         6.36594450E-06
   34.6199989         5.90315994E-06
   34.7999992         5.43421902E-06
   34.9799995         4.96032908E-06
   35.1599998         4.48279843E-06
   35.3400002         4.00302451E-06
   35.5200005         3.52245706E-06
   35.7000008         3.04256810E-06
   35.8800011         2.56482031E-06
   36.0600014         2.09063910E-06
   36.2400017         1.62139588E-06
   36.4199982         1.15839430E-06
   36.5999985         7.02874104E-07
   36.7799988         2.56010424E-07
   36.9599991        -1.81080622E-07
   37.1399994        -6.07335835E-07
   37.3199997        -1.02174931E-06
   37.5000000        -1.42337194E-06
   37.6800003        -1.81132361E-06
   37.8600006        -2.18480386E-06
   38.0400009        -2.54310703E-06
   38.2200012        -2.88563228E-06
   38.4000015        -3.21189236E-06
   38.5800018        -3.52151801E-06
   38.7599983        -3.81425775E-06
   38.9399986        -4.08997539E-06
   39.1199989        -4.34863978E-06
   39.2999992        -4.59031980E-06
   39.4799995        -4.81516781E-06
   39.6599998        -5.02340072E-06
   39.8400002        -5.21529182E-06
   40.0200005        -5.39115626E-06
   40.2000008        -5.55133647E-06
   40.3800011        -5.69620488E-06
   40.5600014        -5.82615621E-06
   40.7400017        -5.94162384E-06
   40.9199982        -6.04309025E-06
   41.0999985        -6.13109569E-06
   41.2799988        -6.20625815E-06
   41.4599991        -6.26927340E-06
   41.6399994        -6.32091633E-06
   41.8199997        -6.36202867E-06
   42.0000000        -6.39349537E-06
   42.1800003        -6.41622364E-06
   42.3600006        -6.43110479E-06
   42.5400009        -6.43898011E-06
   42.7200012        -6.44061538E-06
   42.9000015        -6.43666635E-06
   43.0800018        -6.42766508E-06
   43.2599983        -6.41399947E-06
   43.4399986        -6.39591963E-06
   43.6199989        -6.37353014E-06
   43.7999992        -6.34680373E-06
   43.9799995        -6.31559169E-06
   44.1599998        -6.27963209E-06
   44.3400002        -6.23856567E-06
   44.5200005        -6.19193725E-06
   44.7000008        -6.13919701E-06
   44.8800011        -6.07970651E-06
   45.0600014        -6.01273086E-06
   45.2400017        -5.93743971E-06
   45.4199982        -5.85291536E-06
   45.5999985        -5.75816193E-06
   45.7799988        -5.65212440E-06
   45.9599991        -5.53370683E-06
   46.1399994        -5.40179371E-06
   46.3199997        -5.25527321E-06
   46.5000000        -5.09305028E-06
   46.6800003        -4.91406263E-06
   46.8600006        -4.71729163E-06
   47.0400009        -4.50176913E-06
   47.2200012        -4.26658880E-06
   47.4000015        -4.01090256E-06
   47.5800018        -3.73393937E-06
   47.7599983        -3.43500255E-06
   47.9399986        -3.11348185E-06
   48.1199989        -2.76886203E-06
   48.2999992        -2.40072495E-06
   48.4799995        -2.00876525E-06
   48.6599998        -1.59279216E-06
   48.8400002        -1.15273588E-06
   49.0200005        -6.88647503E-07
   49.2000008        -2.00697443E-07
   49.3800011         3.10833997E-07
   49.5600014         8.45585532E-07
   49.7400017         1.40313136E-06
   49.9199982         1.98301063E-06
   50.0999985         2.58476052E-06
   50.2799988         3.20793424E-06
   50.4599991         3.85211888E-06
   50.6399994         4.51693268E-06
   50.8199997         5.20202684E-06
   51.0000000         5.90707486E-06
   51.1800003         6.63175479E-06
   51.3600006         7.37573782E-06
   51.5400009         8.13868792E-06
   51.7200012         8.92024764E-06
   51.9000015         9.72005182E-06
   52.0800018         1.05377394E-05
   52.2599983         1.13729584E-05
   52.4399986         1.22254005E-05
   52.6199989         1.30948047E-05
   52.7999992         1.39809736E-05
   52.9799995         1.48837735E-05
   53.1599998         1.58031253E-05
   53.3400002         1.67389735E-05
   53.5200005         1.76912581E-05
   53.7000008         1.86598809E-05
   53.8800011         1.96446435E-05
   54.0600014         2.06452314E-05
   54.2400017         2.16611716E-05
   54.4199982         2.26918382E-05
   54.5999985         2.37364584E-05
   54.7799988         2.47941389E-05
   54.9599991         2.58638993E-05
   55.1399994         2.69447100E-05
   55.3199997         2.80355307E-05
   55.5000000         2.91353426E-05
   55.6800003         3.02431527E-05
   55.8600006         3.13580094E-05
   56.0400009         3.24790017E-05
   56.2200012         3.36052290E-05
   56.4000015         3.47357964E-05
   56.5800018         3.58697871E-05
   56.7599983         3.70062626E-05
   56.9399986         3.81442660E-05
   57.1199989         3.92828224E-05
   57.2999992         4.04209604E-05
   57.4799995         4.15577524E-05
   57.6599998         4.26923616E-05
   57.8400002         4.38240495E-05
   58.0200005         4.49522340E-05
   58.2000008         4.60765041E-05
   58.3800011         4.71966196E-05
   58.5600014         4.83125114E-05
   58.7400017         4.94242413E-05
   58.9199982         5.05319877E-05
   59.0999985         5.16359723E-05
   59.2799988         5.27364609E-05
   59.4599991         5.38336681E-05
   59.6399994         5.49277720E-05
   59.8199997         5.60188673E-05
   60.0000000         5.71069686E-05
   60.1800003         5.81920176E-05
   60.3600006         5.92738907E-05
   60.5400009         6.03524059E-05
   60.7200012         6.14273740E-05
   60.9000015         6.24985769E-05
   61.0800018         6.35657925E-05
   61.2599983         6.46287590E-05
   61.4399986         6.56871998E-05
   61.6199989         6.67407730E-05
   61.7999992         6.77890348E-05
   61.9799995         6.88314394E-05
   62.1599998         6.98672884E-05
   62.3400002         7.08957305E-05
   62.5200005         7.19157470E-05
   62.7000008         7.29261592E-05
   62.8800011         7.39256429E-05
   63.0600014         7.49127066E-05
   63.2400017         7.58858005E-05
   63.4199982         7.68432583E-05
   63.5999985         7.77833848E-05
   63.7799988         7.87044919E-05
   63.9599991         7.96049426E-05
   64.1399994         8.04831870E-05
   64.3199997         8.13377846E-05
   64.5000000         8.21674694E-05
   64.6800003         8.29711062E-05
   64.8600006         8.37477346E-05
   65.0400009         8.44965325E-05
   65.2200012         8.52168087E-05
   65.4000015         8.59079373E-05
   65.5800018         8.65694019E-05
   65.7600021         8.72007222E-05
   65.9400024         8.78014835E-05
   66.1200027         8.83713583E-05
   66.3000031         8.89101211E-05
   66.4800034         8.94176701E-05
   66.6600037         8.98940634E-05
   66.8399963         9.03395412E-05
   67.0199966         9.07545036E-05
   67.1999969         9.11395182E-05
   67.3799973         9.14952398E-05
   67.5599976         9.18223741E-05
   67.7399979         9.21215760E-05
   67.9199982         9.23933985E-05
   68.0999985         9.26382199E-05
   68.2799988         9.28562440E-05
   68.4599991         9.30474343E-05
   68.6399994         9.32116018E-05
   68.8199997         9.33484189E-05
   69.0000000         9.34575000E-05
   69.1800003         9.35384596E-05
   69.3600006         9.35909920E-05
   69.5400009         9.36148717E-05
   69.7200012         9.36099968E-05
   69.9000015         9.35763455E-05
   70.0800018         9.35139542E-05
   70.2600021         9.34228738E-05
   70.4400024         9.33030969E-05
   70.6200027         9.31545510E-05
   70.8000031         9.29770540E-05
   70.9800034         9.27703295E-05
   71.1600037         9.25340210E-05
   71.3399963         9.22677573E-05
   71.5199966         9.19711892E-05
   71.6999969         9.16440767E-05
   71.8799973         9.12863179E-05
   72.0599976         9.08979928E-05
   72.2399979         9.04794288E-05
   72.4199982         9.00311497E-05
   72.5999985         8.95538760E-05
   72.7799988         8.90485171E-05
   72.9599991         8.85161062E-05
   73.1399994         8.79577419E-05
   73.3199997         8.73746249E-05
   73.5000000         8.67679410E-05
   73.6800003         8.61389053E-05
   73.8600006         8.54887694E-05
   74.0400009         8.48187556E-05
   74.2200012         8.41301153E-05
   74.4000015         8.34241000E-05
   74.5800018         8.27019758E-05
   74.7600021         8.19649867E-05
   74.9400024         8.12143771E-05
   75.1200027         8.04513547E-05
   75.3000031         7.96770764E-05
   75.4800034         7.88926336E-05
   75.6600037         7.80990595E-05
   75.8399963         7.72972780E-05
   76.0199966         7.64881333E-05
   76.1999969         7.56723821E-05
   76.3799973         7.48507082E-05
   76.5599976         7.40237447E-05
   76.7399979         7.31921027E-05
   76.9199982         7.23564153E-05
   77.0999985         7.15173810E-05
   77.2799988         7.06757710E-05
   77.4599991         6.98324948E-05
   77.6399994         6.89885783E-05
   77.8199997         6.81451929E-05
   78.0000000         6.73035829E-05
   78.1800003         6.64651016E-05
   78.3600006         6.56311167E-05
   78.5400009         6.48029527E-05
   78.7200012         6.39818827E-05
   78.9000015         6.31690345E-05
   79.0800018         6.23653832E-05
   79.2600021         6.15717145E-05
   79.4400024         6.07886359E-05
   79.6200027         6.00165913E-05
   79.8000031         5.92558645E-05
   79.9800034         5.85066300E-05
   80.1600037         5.77689680E-05
   80.3399963         5.70428820E-05
   80.5199966         5.63283102E-05
   80.6999969         5.56251180E-05
   80.8799973         5.49330980E-05
   81.0599976         5.42519592E-05
   81.2399979         5.35813051E-05
   81.4199982         5.29206736E-05
   81.5999985         5.22695227E-05
   81.7799988         5.16272885E-05
   81.9599991         5.09934252E-05
   82.1399994         5.03674273E-05
   82.3199997         4.97488982E-05
   82.5000000         4.91375431E-05
   82.6800003         4.85332057E-05
   82.8600006         4.79358278E-05
   83.0400009         4.73454493E-05
   83.2200012         4.67621612E-05
   83.4000015         4.61860509E-05
   83.5800018         4.56171801E-05
   83.7600021         4.50555344E-05
   83.9400024         4.45010228E-05
   84.1200027         4.39534597E-05
   84.3000031         4.34125759E-05
   84.4800034         4.28780659E-05
   84.6600037         4.23495985E-05
   84.8399963         4.18268573E-05
   85.0199966         4.13095549E-05
   85.1999969         4.07974767E-05
   85.3799973         4.02904625E-05
   85.5599976         3.97884287E-05
   85.7399979         3.92913389E-05
   85.9199982         3.87992477E-05
   86.0999985         3.83122606E-05
   86.2799988         3.78305667E-05
   86.4599991         3.73544390E-05
   86.6399994         3.68842339E-05
   86.8199997         3.64203879E-05
   87.0000000         3.59634105E-05
   87.1800003         3.55138473E-05
   87.3600006         3.50722257E-05
   87.5400009         3.46390516E-05
   87.7200012         3.42147323E-05
   87.9000015         3.37995807E-05
   88.0800018         3.33938042E-05
   88.2600021         3.29975155E-05
   88.4400024         3.26107693E-05
   88.6200027         3.22336164E-05
   88.8000031         3.18661587E-05
   88.9800034         3.15085854E-05
   89.1600037         3.11612130E-05
   89.3399963         3.08244998E-05
   89.5199966         3.04990372E-05
   89.6999969         3.01855071E-05
   89.8799973         2.98846571E-05
   90.0599976         2.95972422E-05
   90.2399979         2.93239937E-05
   90.4199982         2.90656026E-05
   90.5999985         2.88226984E-05
   90.7799988         2.85958813E-05
   90.9599991         2.83857462E-05
   91.1399994         2.81929097E-05
   91.3199997         2.80180429E-05
   91.5000000         2.78618827E-05
   91.6800003         2.77252184E-05
   91.8600006         2.76088631E-05
   92.0400009         2.75136154E-05
   92.2200012         2.74401937E-05
   92.4000015         2.73892074E-05
   92.5800018         2.73610985E-05
   92.7600021         2.73561272E-05
   92.9400024         2.73743717E-05
   93.1200027         2.74157228E-05
   93.3000031         2.74799040E-05
   93.4800034         2.75664916E-05
   93.6600037         2.76749233E-05
   93.8399963         2.78045027E-05
   94.0199966         2.79543892E-05
   94.1999969         2.81235934E-05
   94.3799973         2.83109493E-05
   94.5599976         2.85151236E-05
   94.7399979         2.87345993E-05
   94.9199982         2.89677209E-05
   95.0999985         2.92127170E-05
   95.2799988         2.94677629E-05
   95.4599991         2.97310489E-05
   95.6399994         3.00008214E-05
   95.8199997         3.02754561E-05
   96.0000000         3.05534704E-05
   96.1800003         3.08335329E-05
   96.3600006         3.11144649E-05
   96.5400009         3.13952041E-05
   96.7200012         3.16748119E-05
   96.9000015         3.19524333E-05
   97.0800018         3.22273081E-05
   97.2600021         3.24987814E-05
   97.4400024         3.27663074E-05
   97.6200027         3.30295006E-05
   97.8000031         3.32881245E-05
   97.9800034         3.35421319E-05
   98.1600037         3.37916390E-05
   98.3399963         3.40369224E-05
   98.5199966         3.42784006E-05
   98.6999969         3.45165972E-05
   98.8799973         3.47521200E-05
   99.0599976         3.49856273E-05
   99.2399979         3.52178067E-05
   99.4199982         3.54493823E-05
   99.5999985         3.56810888E-05
   99.7799988         3.59136866E-05
   99.9599991         3.61479470E-05
   100.139999         3.63846411E-05
   100.320000         3.66245404E-05
   100.500000         3.68683795E-05
   100.680000         3.71168535E-05
   100.860001         3.73705625E-05
   101.040001         3.76300268E-05
   101.220001         3.78956538E-05
   101.400002         3.81677710E-05
   101.580002         3.84465966E-05
   101.760002         3.87322980E-05
   101.940002         3.90249952E-05
   102.120003         3.93247647E-05
   102.300003         3.96316536E-05
   102.480003         3.99456549E-05
   102.660004         4.02666956E-05
   102.839996         4.05945975E-05
   103.019997         4.09290587E-05
   103.199997         4.12696500E-05
   103.379997         4.16157964E-05
   103.559998         4.19668104E-05
   103.739998         4.23219244E-05
   103.919998         4.26803490E-05
   104.099998         4.30412765E-05
   104.279999         4.34039612E-05
   104.459999         4.37677008E-05
   104.639999         4.41318734E-05
   104.820000         4.44958932E-05
   105.000000         4.48592036E-05
   105.180000         4.52212444E-05
   105.360001         4.55814261E-05
   105.540001         4.59391049E-05
   105.720001         4.62935895E-05
   105.900002         4.66441488E-05
   106.080002         4.69900297E-05
   106.260002         4.73304972E-05
   106.440002         4.76648638E-05
   106.620003         4.79925402E-05
   106.800003         4.83130425E-05
   106.980003         4.86260469E-05
   107.160004         4.89313934E-05
   107.339996         4.92291074E-05
   107.519997         4.95193999E-05
   107.699997         4.98026820E-05
   107.879997         5.00795431E-05
   108.059998         5.03507472E-05
   108.239998         5.06172037E-05
   108.419998         5.08799385E-05
   108.599998         5.11400685E-05
   108.779999         5.13987216E-05
   108.959999         5.16570290E-05
   109.139999         5.19160603E-05
   109.320000         5.21767834E-05
   109.500000         5.24400639E-05
   109.680000         5.27066622E-05
   109.860001         5.29772369E-05
   110.040001         5.32524100E-05
   110.220001         5.35327745E-05
   110.400002         5.38189779E-05
   110.580002         5.41116970E-05
   110.760002         5.44116810E-05
   110.940002         5.47197196E-05
   111.120003         5.50365876E-05