  -34.5000000       0.00000000    
  -34.3199997       0.00000000    
  -34.1399994       0.00000000    
  -33.9599991       5.91976846E-20
  -33.7799988      -1.31478766E-18
  -33.5999985      -1.14516621E-17
  -33.4199982      -4.79684817E-17
  -33.2400017      -1.37046331E-16
  -33.0600014      -2.99003980E-16
  -32.8800011      -5.20714245E-16
  -32.7000008      -7.25495154E-16
  -32.5200005      -7.61489025E-16
  -32.3400002      -4.31370666E-16
  -32.1599998       4.25960111E-16
  -31.9799995       1.81599692E-15
  -31.7999992       3.47436843E-15
  -31.6200008       4.81853200E-15
  -31.4400005       5.02165431E-15
  -31.2600002       3.23417127E-15
  -31.0799999      -1.07011421E-15
  -30.8999996      -7.69573139E-15
  -30.7199993      -1.53785828E-14
  -30.5400009      -2.15956742E-14
  -30.3600006      -2.26096658E-14
  -30.1800003      -1.37810194E-14
  -30.0000000       9.86809392E-15
  -29.8199997       5.28924438E-14
  -29.6399994       1.18540309E-13
  -29.4599991       2.07833208E-13
  -29.2800007       3.18700687E-13
  -29.1000004       4.45273484E-13
  -28.9200001       5.77448029E-13
  -28.7399998       7.00835440E-13
  -28.5599995       7.97204262E-13
  -28.3799992       8.45499885E-13
  -28.2000008       8.23441792E-13
  -28.0200005       7.09530037E-13
  -27.8400002       4.85135153E-13
  -27.6599998       1.36441558E-13
  -27.4799995      -3.43528699E-13
  -27.2999992      -9.52065250E-13
  -27.1200008      -1.67247748E-12
  -26.9400005      -2.46883742E-12
  -26.7600002      -3.28156512E-12
  -26.5799999      -4.02566305E-12
  -26.3999996      -4.59128915E-12
  -26.2199993      -4.84355741E-12
  -26.0400009      -4.61801734E-12
  -25.8600006      -3.71213737E-12
  -25.6800003      -1.87946468E-12
  -25.5000000       1.16328963E-12
  -25.3199997       5.70980980E-12
  -25.1399994       1.20228931E-11
  -24.9599991       2.02948769E-11
  -24.7800007       3.06314037E-11
  -24.6000004       4.30731804E-11
  -24.4200001       5.76526084E-11
  -24.2399998       7.44602296E-11
  -24.0599995       9.36794461E-11
  -23.8799992       1.15546912E-10
  -23.7000008       1.40216908E-10
  -23.5200005       1.67550057E-10
  -23.3400002       1.96896874E-10
  -23.1599998       2.26980879E-10
  -22.9799995       2.55977572E-10
  -22.7999992       2.81820595E-10
  -22.6200008       3.02660591E-10
  -22.4400005       3.17296606E-10
  -22.2600002       3.25355048E-10
  -22.0799999       3.27048694E-10
  -21.8999996       3.22511962E-10
  -21.7199993       3.10924203E-10
  -21.5400009       2.89809010E-10
  -21.3600006       2.54930438E-10
  -21.1800003       2.01044958E-10
  -21.0000000       1.23433694E-10
  -20.8199997       1.97539346E-11
  -20.6399994      -1.08525022E-10
  -20.4599991      -2.55831828E-10
  -20.2800007      -4.13743817E-10
  -20.1000004      -5.73580572E-10
  -19.9200001      -7.29513450E-10
  -19.7399998      -8.80974238E-10
  -19.5599995      -1.03321673E-09
  -19.3799992      -1.19546384E-09
  -19.2000008      -1.37698519E-09
  -19.0200005      -1.58235225E-09
  -18.8400002      -1.80761517E-09
  -18.6599998      -2.03897810E-09
  -18.4799995      -2.25471775E-09
  -18.2999992      -2.42986986E-09
  -18.1200008      -2.54209276E-09
  -17.9400005      -2.57656074E-09
  -17.7600002      -2.52804155E-09
  -17.5799999      -2.39938780E-09
  -17.3999996      -2.19709917E-09
  -17.2199993      -1.92583460E-09
  -17.0400009      -1.58420510E-09
  -16.8600006      -1.16366794E-09
  -16.6800003      -6.51061927E-10
  -16.5000000      -3.38240547E-11
  -16.3199997       6.94145630E-10
  -16.1399994       1.52817481E-09
  -15.9600000       2.45149767E-09
  -15.7799997       3.43700712E-09
  -15.6000004       4.45088899E-09
  -15.4200001       5.45633849E-09
  -15.2399998       6.41590336E-09
  -15.0600004       7.29210869E-09
  -14.8800001       8.04734857E-09
  -14.6999998       8.64481020E-09
  -14.5200005       9.05203379E-09
  -14.3400002       9.24744903E-09
  -14.1599998       9.22839138E-09
  -13.9799995       9.01751207E-09
  -13.8000002       8.66389716E-09
  -13.6199999       8.23616197E-09
  -13.4399996       7.80708653E-09
  -13.2600002       7.43236761E-09
  -13.0799999       7.12869141E-09
  -12.8999996       6.85755364E-09
  -12.7200003       6.52060361E-09
  -12.5400000       5.96971761E-09
  -12.3599997       5.03133624E-09
  -12.1800003       3.54081475E-09
  -12.0000000       1.37978773E-09
  -11.8199997      -1.49161627E-09
  -11.6400003      -5.01506481E-09
  -11.4600000      -9.03182062E-09
  -11.2799997      -1.32996663E-08
  -11.1000004      -1.75267694E-08
  -10.9200001      -2.14169447E-08
  -10.7399998      -2.47181475E-08
  -10.5600004      -2.72648695E-08
  -10.3800001      -2.90055588E-08
  -10.1999998      -3.00084508E-08
  -10.0200005      -3.04430792E-08
  -9.84000015      -3.05397165E-08
  -9.65999985      -3.05340464E-08
  -9.47999954      -3.06082448E-08
  -9.30000019      -3.08415231E-08
  -9.11999989      -3.11817416E-08
  -8.93999958      -3.14456692E-08
  -8.76000023      -3.13488329E-08
  -8.57999992      -3.05590753E-08
  -8.39999962      -2.87618747E-08
  -8.22000027      -2.57226951E-08
  -8.03999996      -2.13321627E-08
  -7.86000013      -1.56244973E-08
  -7.67999983      -8.76633610E-09
  -7.50000000      -1.02073594E-09
  -7.32000017       7.30291383E-09
  -7.13999987       1.58993885E-08
  -6.96000004       2.45059155E-08
  -6.78000021       3.29202479E-08
  -6.59999990       4.09972287E-08
  -6.42000008       4.86295200E-08
  -6.23999977       5.57230031E-08
  -6.05999994       6.21788914E-08
  -5.88000011       6.78917758E-08
  -5.69999981       7.27670084E-08
  -5.51999998       7.67528903E-08
  -5.34000015       7.98765356E-08
  -5.15999985       8.22681301E-08
  -4.98000002       8.41597085E-08
  -4.80000019       8.58501323E-08
  -4.61999989       8.76380710E-08
  -4.44000006       8.97349466E-08
  -4.26000023       9.21786310E-08
  -4.07999992       9.47715151E-08
  -3.90000010       9.70632925E-08
  -3.72000003       9.83886679E-08
  -3.53999996       9.79565655E-08
  -3.35999990       9.49732453E-08
  -3.18000007       8.87717846E-08
  -3.00000000       7.89175871E-08
  -2.81999993       6.52650485E-08
  -2.64000010       4.79532183E-08
  -2.46000004       2.73445817E-08
  -2.27999997       3.92655020E-09
  -2.09999990      -2.17949427E-08
  -1.91999996      -4.93787304E-08
  -1.74000001      -7.84852077E-08
  -1.55999994      -1.08857314E-07
  -1.38000000      -1.40253235E-07
  -1.20000005      -1.72352728E-07
  -1.01999998      -2.04666406E-07
 -0.839999974      -2.36476581E-07
 -0.660000026      -2.66828238E-07
 -0.479999989      -2.94574534E-07
 -0.300000012      -3.18465339E-07
 -0.119999997      -3.37256552E-07
   5.99999987E-02  -3.49813433E-07
  0.239999995      -3.55186387E-07
  0.419999987      -3.52648669E-07
  0.600000024      -3.41699518E-07
  0.779999971      -3.22048209E-07
  0.959999979      -2.93600948E-07
   1.13999999      -2.56469036E-07
   1.32000005      -2.11007688E-07
   1.50000000      -1.57878915E-07
   1.67999995      -9.81196067E-08
   1.86000001      -3.31860122E-08
   2.03999996       3.50519684E-08
   2.22000003       1.04384398E-07
   2.40000010       1.72403034E-07
   2.57999992       2.36693253E-07
   2.75999999       2.95043719E-07
   2.94000006       3.45634845E-07
   3.11999989       3.87170758E-07
   3.29999995       4.18932956E-07
   3.48000002       4.40751620E-07
   3.66000009       4.52907415E-07
   3.83999991       4.55991966E-07
   4.01999998       4.50758108E-07
   4.19999981       4.37990280E-07
   4.38000011       4.18414118E-07
   4.55999994       3.92654329E-07
   4.73999977       3.61238165E-07
   4.92000008       3.24633220E-07
   5.09999990       2.83306719E-07
   5.28000021       2.37791554E-07
   5.46000004       1.88746910E-07
   5.63999987       1.37003084E-07
   5.82000017       8.35810852E-08
   6.00000000       2.96804892E-08
   6.17999983      -2.33685853E-08
   6.36000013      -7.41876036E-08
   6.53999996      -1.21456750E-07
   6.71999979      -1.64030155E-07
   6.90000010      -2.01036741E-07
   7.07999992      -2.31943375E-07
   7.26000023      -2.56562686E-07
   7.44000006      -2.74999621E-07
   7.61999989      -2.87546413E-07
   7.80000019      -2.94549153E-07
   7.98000002      -2.96279666E-07
   8.15999985      -2.92845613E-07
   8.34000015      -2.84163548E-07
   8.52000046      -2.70002545E-07
   8.69999981      -2.50087083E-07
   8.88000011      -2.24230760E-07
   9.06000042      -1.92464654E-07
   9.23999977      -1.55124809E-07
   9.42000008      -1.12876947E-07
   9.60000038      -6.66733442E-08
   9.77999973      -1.76568786E-08
   9.96000004       3.29589049E-08
   10.1400003       8.39998222E-08
   10.3199997       1.34402441E-07
   10.5000000       1.83231720E-07
   10.6800003       2.29647014E-07
   10.8599997       2.72834740E-07
   11.0400000       3.11934684E-07
   11.2200003       3.45987871E-07
   11.3999996       3.73924507E-07
   11.5799999       3.94596782E-07
   11.7600002       4.06846198E-07
   11.9399996       4.09584175E-07
   12.1199999       4.01862309E-07
   12.3000002       3.82913356E-07
   12.4799995       3.52157599E-07
   12.6599998       3.09181956E-07
   12.8400002       2.53711249E-07
   13.0200005       1.85593237E-07
   13.1999998       1.04814838E-07
   13.3800001       1.15522107E-08
   13.5600004      -9.37576417E-08
   13.7399998      -2.10349924E-07
   13.9200001      -3.37101255E-07
   14.1000004      -4.72561567E-07
   14.2799997      -6.15058411E-07
   14.4600000      -7.62863237E-07
   14.6400003      -9.14387385E-07
   14.8199997      -1.06836342E-06
   15.0000000      -1.22396500E-06
   15.1800003      -1.38083465E-06
   15.3599997      -1.53900953E-06
   15.5400000      -1.69876239E-06
   15.7200003      -1.86040063E-06
   15.8999996      -2.02407341E-06
   16.0799999      -2.18963896E-06
   16.2600002      -2.35662424E-06
   16.4400005      -2.52428526E-06
   16.6200008      -2.69175644E-06
   16.7999992      -2.85824535E-06
   16.9799995      -3.02323519E-06
   17.1599998      -3.18664843E-06
   17.3400002      -3.34894276E-06
   17.5200005      -3.51113499E-06
   17.7000008      -3.67475195E-06
   17.8799992      -3.84173518E-06
   18.0599995      -4.01432544E-06
   18.2399998      -4.19494609E-06
   18.4200001      -4.38610914E-06
   18.6000004      -4.59035073E-06
   18.7800007      -4.81018878E-06
   18.9599991      -5.04811078E-06
   19.1399994      -5.30656871E-06
   19.3199997      -5.58798229E-06
   19.5000000      -5.89473666E-06
   19.6800003      -6.22916559E-06
   19.8600006      -6.59351463E-06
   20.0400009      -6.98987242E-06
   20.2199993      -7.42006387E-06
   20.3999996      -7.88551824E-06
   20.5799999      -8.38710912E-06
   20.7600002      -8.92500702E-06
   20.9400005      -9.49856349E-06
   21.1200008      -1.01062733E-05
   21.2999992      -1.07458482E-05
   21.4799995      -1.14144023E-05
   21.6599998      -1.21087587E-05
   21.8400002      -1.28258162E-05
   22.0200005      -1.35629380E-05
   22.2000008      -1.43182633E-05
   22.3799992      -1.50908845E-05
   22.5599995      -1.58808434E-05
   22.7399998      -1.66889404E-05
   22.9200001      -1.75164005E-05
   23.1000004      -1.83644424E-05
   23.2800007      -1.92338994E-05
   23.4599991      -2.01249131E-05
   23.6399994      -2.10368198E-05
   23.8199997      -2.19681879E-05
   24.0000000      -2.29170164E-05
   24.1800003      -2.38809862E-05
   24.3600006      -2.48576907E-05
   24.5400009      -2.58447708E-05
   24.7199993      -2.68398853E-05
   24.8999996      -2.78405605E-05
   25.0799999      -2.88439223E-05
   25.2600002      -2.98464056E-05
   25.4400005      -3.08435629E-05
   25.6200008      -3.18299608E-05
   25.7999992      -3.27992930E-05
   25.9799995      -3.37446108E-05
   26.1599998      -3.46587112E-05
   26.3400002      -3.55344928E-05
   26.5200005      -3.63653453E-05
   26.7000008      -3.71453534E-05
   26.8799992      -3.78694313E-05
   27.0599995      -3.85332823E-05
   27.2399998      -3.91332978E-05
   27.4200001      -3.96664036E-05
   27.6000004      -4.01299912E-05
   27.7800007      -4.05218634E-05
   27.9599991      -4.08403612E-05
   28.1399994      -4.10845241E-05
   28.3199997      -4.12542940E-05
   28.5000000      -4.13507223E-05
   28.6800003      -4.13761045E-05
   28.8600006      -4.13339185E-05
   29.0400009      -4.12287118E-05
   29.2199993      -4.10658176E-05
   29.3999996      -4.08510205E-05
   29.5799999      -4.05902429E-05
   29.7600002      -4.02892438E-05
   29.9400005      -3.99534620E-05
   30.1200008      -3.95879506E-05
   30.2999992      -3.91974136E-05
   30.4799995      -3.87863365E-05
   30.6599998      -3.83591287E-05
   30.8400002      -3.79203084E-05
   31.0200005      -3.74746451E-05
   31.2000008      -3.70272937E-05
   31.3799992      -3.65838969E-05
   31.5599995      -3.61506318E-05
   31.7399998      -3.57341742E-05
   31.9200001      -3.53415635E-05
   32.0999985      -3.49799520E-05
   32.2799988      -3.46561865E-05
   32.4599991      -3.43763386E-05
   32.6399994      -3.41451487E-05
   32.8199997      -3.39655780E-05
   33.0000000      -3.38384743E-05
   33.1800003      -3.37625133E-05
   33.3600006      -3.37344209E-05
   33.5400009      -3.37494494E-05
   33.7200012      -3.38020473E-05
   33.9000015      -3.38865611E-05
   34.0800018      -3.39979233E-05
   34.2599983      -3.41320592E-05
   34.4399986      -3.42861058E-05
   34.6199989      -3.44582877E-05
   34.7999992      -3.46475936E-05
   34.9799995      -3.48533467E-05
   35.1599998      -3.50747359E-05
   35.3400002      -3.53104952E-05
   35.5200005      -3.55587472E-05
   35.7000008      -3.58170400E-05
   35.8800011      -3.60825652E-05
   36.0600014      -3.63524196E-05
   36.2400017      -3.66239074E-05
   36.4199982      -3.68946785E-05
   36.5999985      -3.71627393E-05
   36.7799988      -3.74262854E-05
   36.9599991      -3.76834214E-05
   37.1399994      -3.79317898E-05
   37.3199997      -3.81682621E-05
   37.5000000      -3.83887200E-05
   37.6800003      -3.85879903E-05
   37.8600006      -3.87599539E-05
   38.0400009      -3.88977678E-05
   38.2200012      -3.89941088E-05
   38.4000015      -3.90414461E-05
   38.5800018      -3.90322166E-05
   38.7599983      -3.89588931E-05
   38.9399986      -3.88140033E-05
   39.1199989      -3.85901221E-05
   39.2999992      -3.82799371E-05
   39.4799995      -3.78764380E-05
   39.6599998      -3.73732764E-05
   39.8400002      -3.67652574E-05
   40.0200005      -3.60488993E-05
   40.2000008      -3.52229727E-05
   40.3800011      -3.42888889E-05
   40.5600014      -3.32508534E-05
   40.7400017      -3.21156949E-05
   40.9199982      -3.08924718E-05
   41.0999985      -2.95918726E-05
   41.2799988      -2.82255296E-05
   41.4599991      -2.68054464E-05
   41.6399994      -2.53435610E-05
   41.8199997      -2.38515950E-05
   42.0000000      -2.23411189E-05
   42.1800003      -2.08237871E-05
   42.3600006      -1.93115920E-05
   42.5400009      -1.78170339E-05
   42.7200012      -1.63530713E-05
   42.9000015      -1.49327861E-05
   43.0800018      -1.35688115E-05
   43.2599983      -1.22725796E-05
   43.4399986      -1.10535657E-05
   43.6199989      -9.91868365E-06
   43.7999992      -8.87197257E-06
   43.9799995      -7.91465754E-06
   44.1599998      -7.04558397E-06
   44.3400002      -6.26193332E-06
   44.5200005      -5.56007080E-06
   44.7000008      -4.93634980E-06
   44.8800011      -4.38771076E-06
   45.0600014      -3.91198682E-06
   45.2400017      -3.50789151E-06
   45.4199982      -3.17476542E-06
   45.5999985      -2.91220590E-06
   45.7799988      -2.71972272E-06
   45.9599991      -2.59654530E-06
   46.1399994      -2.54163660E-06
   46.3199997      -2.55390182E-06
   46.5000000      -2.63250104E-06
   46.6800003      -2.77714389E-06
   46.8600006      -2.98823920E-06
   47.0400009      -3.26681675E-06
   47.2200012      -3.61420916E-06
   47.4000015      -4.03155582E-06
   47.5800018      -4.51925234E-06
   47.7599983      -5.07648610E-06
   47.9399986      -5.70098382E-06
   48.1199989      -6.38903975E-06
   48.2999992      -7.13580721E-06
   48.4799995      -7.93578420E-06
   48.6599998      -8.78335049E-06
   48.8400002      -9.67322194E-06
   49.0200005      -1.06007219E-05
   49.2000008      -1.15618059E-05
   49.3800011      -1.25528786E-05
   49.5600014      -1.35704713E-05
   49.7400017      -1.46108987E-05
   49.9199982      -1.56700044E-05
   50.0999985      -1.67430480E-05
   50.2799988      -1.78247774E-05
   50.4599991      -1.89096263E-05
   50.6399994      -1.99919778E-05
   50.8199997      -2.10664184E-05
   51.0000000      -2.21279188E-05
   51.1800003      -2.31719368E-05
   51.3600006      -2.41944599E-05
   51.5400009      -2.51920192E-05
   51.7200012      -2.61617388E-05
   51.9000015      -2.71014324E-05
   52.0800018      -2.80097101E-05
   52.2599983      -2.88860629E-05
   52.4399986      -2.97308270E-05
   52.6199989      -3.05449648E-05
   52.7999992      -3.13296259E-05
   52.9799995      -3.20855324E-05
   53.1599998      -3.28122551E-05
   53.3400002      -3.35075565E-05
   53.5200005      -3.41669365E-05
   53.7000008      -3.47835121E-05
   53.8800011      -3.53482974E-05
   54.0600014      -3.58508696E-05
   54.2400017      -3.62803112E-05
   54.4199982      -3.66262066E-05
   54.5999985      -3.68796063E-05
   54.7799988      -3.70336020E-05
   54.9599991      -3.70835878E-05
   55.1399994      -3.70270318E-05
   55.3199997      -3.68629480E-05
   55.5000000      -3.65911292E-05
   55.6800003      -3.62114188E-05
   55.8600006      -3.57231474E-05
   56.0400009      -3.51248927E-05
   56.2200012      -3.44145737E-05
   56.4000015      -3.35899240E-05
   56.5800018      -3.26490590E-05
   56.7599983      -3.15911420E-05
   56.9399986      -3.04168752E-05
   57.1199989      -2.91287361E-05
   57.2999992      -2.77309100E-05
   57.4799995      -2.62289432E-05
   57.6599998      -2.46292220E-05
   57.8400002      -2.29384204E-05
   58.0200005      -2.11630086E-05
   58.2000008      -1.93089363E-05
   58.3800011      -1.73815224E-05
   58.5600014      -1.53854744E-05
   58.7400017      -1.33250451E-05
   58.9199982      -1.12041871E-05
   59.0999985      -9.02667398E-06
   59.2799988      -6.79615732E-06
   59.4599991      -4.51615688E-06
   59.6399994      -2.19005801E-06
   59.8199997       1.78870408E-07
   60.0000000       2.58736554E-06
   60.1800003       5.03198544E-06
   60.3600006       7.50885602E-06
   60.5400009       1.00134284E-05
   60.7200012       1.25403030E-05
   60.9000015       1.50831747E-05
   61.0800018       1.76349240E-05
   61.2599983       2.01878556E-05
   61.4399986       2.27339860E-05
   61.6199989       2.52653645E-05
   61.7999992       2.77743293E-05
   61.9799995       3.02536300E-05
   62.1599998       3.26964291E-05
   62.3400002       3.50962000E-05
   62.5200005       3.74465817E-05
   62.7000008       3.97412223E-05
   62.8800011       4.19737262E-05
   63.0600014       4.41376178E-05
   63.2400017       4.62264616E-05
   63.4199982       4.82338692E-05
   63.5999985       5.01535360E-05
   63.7799988       5.19790556E-05
   63.9599991       5.37036503E-05
   64.1399994       5.53197751E-05
   64.3199997       5.68187097E-05
   64.5000000       5.81902823E-05
   64.6800003       5.94228804E-05
   64.8600006       6.05037785E-05
   65.0400009       6.14199089E-05
   65.2200012       6.21588988E-05
   65.4000015       6.27103291E-05
   65.5800018       6.30668874E-05
   65.7600021       6.32253577E-05
   65.9400024       6.31871299E-05
   66.1200027       6.29581991E-05
   66.3000031       6.25487592E-05
   66.4800034       6.19723942E-05
   66.6600037       6.12451258E-05
   66.8399963       6.03845729E-05
   67.0199966       5.94092890E-05
   67.1999969       5.83384972E-05
   67.3799973       5.71920245E-05
   67.5599976       5.59904583E-05
   67.7399979       5.47552409E-05
   67.9199982       5.35084837E-05
   68.0999985       5.22724549E-05
   68.2799988       5.10685568E-05
   68.4599991       4.99161069E-05
   68.6399994       4.88310216E-05
   68.8199997       4.78247857E-05
   69.0000000       4.69040206E-05
   69.1800003       4.60707379E-05
   69.3600006       4.53234024E-05
   69.5400009       4.46585218E-05
   69.7200012       4.40723743E-05
   69.9000015       4.35625770E-05
   70.0800018       4.31288972E-05
   70.2600021       4.27732230E-05
   70.4400024       4.24986538E-05
   70.6200027       4.23078927E-05
   70.8000031       4.22014527E-05
   70.9800034       4.21761652E-05
   71.1600037       4.22243684E-05
   71.3399963       4.23341371E-05
   71.5199966       4.24904320E-05
   71.6999969       4.26769657E-05
   71.8799973       4.28782841E-05
   72.0599976       4.30815817E-05
   72.2399979       4.32777488E-05
   72.4199982       4.34614813E-05
   72.5999985       4.36303999E-05
   72.7799988       4.37834824E-05
   72.9599991       4.39192481E-05
   73.1399994       4.40340991E-05
   73.3199997       4.41213379E-05
   73.5000000       4.41709744E-05
   73.6800003       4.41704105E-05
   73.8600006       4.41057782E-05
   74.0400009       4.39635915E-05
   74.2200012       4.37323288E-05
   74.4000015       4.34036228E-05
   74.5800018       4.29728389E-05
   74.7600021       4.24390419E-05
   74.9400024       4.18044256E-05
   75.1200027       4.10734465E-05
   75.3000031       4.02518162E-05
   75.4800034       3.93456576E-05
   75.6600037       3.83608858E-05
   75.8399963       3.73027688E-05
   76.0199966       3.61757302E-05
   76.1999969       3.49832153E-05
   76.3799973       3.37276688E-05
   76.5599976       3.24105131E-05
   76.7399979       3.10323085E-05
   76.9199982       2.95930731E-05
   77.0999985       2.80929053E-05
   77.2799988       2.65328672E-05
   77.4599991       2.49159693E-05
   77.6399994       2.32481379E-05
   77.8199997       2.15388263E-05
   78.0000000       1.98010857E-05
   78.1800003       1.80509505E-05
   78.3600006       1.63062086E-05
   78.5400009       1.45847480E-05
   78.7200012       1.29028440E-05
   78.9000015       1.12737889E-05
   79.0800018       9.70716246E-06
   79.2600021       8.20895912E-06
   79.4400024       6.78248716E-06
   79.6200027       5.42982207E-06
   79.8000031       4.15343948E-06
   79.9800034       2.95758696E-06
   80.1600037       1.84910982E-06
   80.3399963       8.37489608E-07
   80.5199966      -6.58441479E-08
   80.6999969      -8.48753189E-07
   80.8799973      -1.49988659E-06
   81.0599976      -2.01010084E-06
   81.2399979      -2.37356471E-06
   81.4199982      -2.58836758E-06
   81.5999985      -2.65663539E-06
   81.7799988      -2.58421869E-06
   81.9599991      -2.38010784E-06
   82.1399994      -2.05570313E-06
   82.3199997      -1.62406434E-06
   82.5000000      -1.09920336E-06
   82.6800003      -4.95445761E-07
   82.8600006       1.73124050E-07
   83.0400009       8.93118965E-07
   83.2200012       1.65217637E-06
   83.4000015       2.43911200E-06
   83.5800018       3.24385223E-06
   83.7600021       4.05712763E-06
   83.9400024       4.86995850E-06
   84.1200027       5.67304232E-06
   84.3000031       6.45618411E-06
   84.4800034       7.20792150E-06
   84.6600037       7.91551065E-06
   84.8399963       8.56534461E-06
   85.0199966       9.14376596E-06
   85.1999969       9.63818366E-06
   85.3799973       1.00382240E-05
   85.5599976       1.03367402E-05
   85.7399979       1.05303943E-05
   85.9199982       1.06196967E-05
   86.0999985       1.06084635E-05
   86.2799988       1.05028157E-05
   86.4599991       1.03098946E-05
   86.6399994       1.00365987E-05
   86.8199997       9.68855329E-06
   87.0000000       9.26951179E-06
   87.1800003       8.78126320E-06
   87.3600006       8.22394941E-06
   87.5400009       7.59669319E-06
   87.7200012       6.89831268E-06
   87.9000015       6.12794884E-06
   88.0800018       5.28549663E-06
   88.2600021       4.37179415E-06
   88.4400024       3.38862969E-06
   88.6200027       2.33866513E-06
   88.8000031       1.22537199E-06
   88.9800034       5.30609228E-08
   89.1600037      -1.17299180E-06
   89.3399963      -2.44638909E-06
   89.5199966      -3.75951845E-06
   89.6999969      -5.10361497E-06
   89.8799973      -6.46907210E-06
   90.0599976      -7.84595704E-06
   90.2399979      -9.22466734E-06
   90.4199982      -1.05965610E-05
   90.5999985      -1.19544065E-05
   90.7799988      -1.32924879E-05
   90.9599991      -1.46063358E-05
   91.1399994      -1.58921066E-05
   91.3199997      -1.71458032E-05
   91.5000000      -1.83625616E-05
   91.6800003      -1.95362427E-05
   91.8600006      -2.06595669E-05
   92.0400009      -2.17247762E-05
   92.2200012      -2.27247965E-05
   92.4000015      -2.36546275E-05
   92.5800018      -2.45125830E-05
   92.7600021      -2.53010421E-05
   92.9400024      -2.60264751E-05
   93.1200027      -2.66985608E-05
   93.3000031      -2.73285968E-05
   93.4800034      -2.79274700E-05
   93.6600037      -2.85036222E-05
   93.8399963      -2.90615317E-05
   94.0199966      -2.96010112E-05
   94.1999969      -3.01175387E-05
   94.3799973      -3.06035290E-05
   94.5599976      -3.10502328E-05
   94.7399979      -3.14498720E-05
   94.9199982      -3.17974118E-05
   95.0999985      -3.20916915E-05
   95.2799988      -3.23355707E-05
   95.4599991      -3.25352048E-05
   95.6399994      -3.26986228E-05
   95.8199997      -3.28339884E-05
   96.0000000      -3.29480827E-05
   96.1800003      -3.30452567E-05
   96.3600006      -3.31272204E-05
   96.5400009      -3.31936208E-05
   96.7200012      -3.32432392E-05
   96.9000015      -3.32754607E-05
   97.0800018      -3.32916352E-05
   97.2600021      -3.32959389E-05
   97.4400024      -3.32954733E-05
   97.6200027      -3.32996096E-05
   97.8000031      -3.33186981E-05
   97.9800034      -3.33624412E-05
   98.1600037      -3.34383694E-05
   98.3399963      -3.35506920E-05
   98.5199966      -3.36998455E-05
   98.6999969      -3.38826940E-05
   98.8799973      -3.40933148E-05
   99.0599976      -3.43240099E-05
   99.2399979      -3.45663102E-05
   99.4199982      -3.48115500E-05
   99.5999985      -3.50509836E-05
   99.7799988      -3.52754141E-05
   99.9599991      -3.54745389E-05
   100.139999      -3.56363453E-05
   100.320000      -3.57468343E-05
   100.500000      -3.57903300E-05
   100.680000      -3.57503886E-05
   100.860001      -3.56112505E-05
   101.040001      -3.53595206E-05
   101.220001      -3.49856855E-05
   101.400002      -3.44852560E-05
   101.580002      -3.38591308E-05
   101.760002      -3.31133015E-05
   101.940002      -3.22578489E-05
   102.120003      -3.13055461E-05
   102.300003      -3.02703938E-05
   102.480003      -2.91663036E-05
   102.660004      -2.80062541E-05
   102.839996      -2.68019066E-05
   103.019997      -2.55637078E-05
   103.199997      -2.43012837E-05
   103.379997      -2.30239202E-05
   103.559998      -2.17409233E-05
   103.739998      -2.04617209E-05
   103.919998      -1.91956296E-05
   104.099998      -1.79513554E-05
   104.279999      -1.67363651E-05
   104.459999      -1.55562811E-05
   104.639999      -1.44144742E-05
   104.820000      -1.33119265E-05
   105.000000      -1.22473975E-05
   105.180000      -1.12177986E-05
   105.360001      -1.02186350E-05
   105.540001      -9.24436245E-06
   105.720001      -8.28854809E-06
   105.900002      -7.34379910E-06
   106.080002      -6.40151575E-06
   106.260002      -5.45160356E-06
   106.440002      -4.48230685E-06
   106.620003      -3.48030653E-06
   106.800003      -2.43114823E-06
   106.980003      -1.31998195E-06
   107.160004      -1.32484786E-07
   107.339996       1.14418833E-06
   107.519997       2.52061318E-06
   107.699997       4.00459157E-06
   107.879997       5.60097624E-06
   108.059998       7.31181581E-06
   108.239998       9.13669101E-06
   108.419998       1.10731307E-05
   108.599998       1.31169909E-05
   108.779999       1.52627108E-05
   108.959999       1.75034183E-05
   109.139999       1.98309517E-05
   109.320000       2.22358085E-05
   109.500000       2.47071348E-05
   109.680000       2.72328125E-05
   109.860001       2.97996503E-05
   110.040001       3.23937275E-05
   110.220001       3.50008522E-05
   110.400002       3.76071221E-05
   110.580002       4.01994948E-05
   110.760002       4.27663108E-05
   110.940002       4.52976819E-05
   111.120003       4.77856665E-05
   111.300003       5.02241528E-05
   111.480003       5.26084441E-05
   111.660004       5.49346150E-05
   111.839996       5.71987330E-05
   112.019997       5.93960867E-05
   112.199997       6.15206882E-05
   112.379997       6.35650431E-05
   112.559998       6.55203985E-05
   112.739998       6.73772884E-05
   112.919998       6.91263849E-05
   113.099998       7.07592480E-05
   113.279999       7.22690529E-05
   113.459999       7.36507864E-05
   113.639999       7.49011670E-05
   113.820000       7.60181356E-05
   114.000000       7.70002007E-05
   114.180000       7.78458052E-05
   114.360001       7.85530283E-05
   114.540001       7.91197017E-05
   114.720001       7.95439992E-05
   114.900002       7.98254987E-05
   115.080002       7.99662666E-05
   115.260002       7.99719783E-05
   115.440002       7.98525289E-05
   115.620003       7.96220847E-05
   115.800003       7.92985156E-05
   115.980003       7.89022743E-05
   116.160004       7.84548974E-05
   116.339996       7.79775000E-05
   116.519997       7.74895743E-05
   116.699997       7.70081970E-05
   116.879997       7.65477744E-05
   117.059998       7.61202973E-05
   117.239998       7.57358357E-05
   117.419998       7.54030625E-05
   117.599998       7.51295811E-05
   117.779999       7.49219180E-05
   117.959999       7.47851664E-05
   118.139999       7.47223166E-05
   118.320000       7.47336380E-05
   118.500000       7.48161328E-05
   118.680000       7.49634273E-05
   118.860001       7.51660482E-05
   119.040001       7.54122157E-05
   119.220001       7.56888621E-05
   119.400002       7.59827963E-05
   119.580002       7.62817945E-05