  -34.5000000         0.00000000    
  -34.3195000         0.00000000    
  -34.1389999         0.00000000    
  -33.9584999         0.00000000    
  -33.7779999        -3.42886478E-25
  -33.5974998        -5.03492100E-25
  -33.4169998         1.80876438E-24
  -33.2364998        -3.71167378E-24
  -33.0559998        -6.74696892E-23
  -32.8754997        -2.19218589E-22
  -32.6949997        -2.22293632E-22
  -32.5144997         4.82957610E-22
  -32.3339996         1.89957969E-21
  -32.1534996         2.21031525E-21
  -31.9729996        -1.26881781E-21
  -31.7924995        -8.26415470E-21
  -31.6119995        -1.39900492E-20
  -31.4314995        -1.34205862E-20
  -31.2509995        -1.94555627E-21
  -31.0704994         3.68004803E-20
  -30.8899994         1.29665046E-19
  -30.7094994         2.48892804E-19
  -30.5289993         2.10865269E-19
  -30.3484993        -2.80036180E-19
  -30.1679993        -1.26501703E-18
  -29.9874992        -2.02888565E-18
  -29.8069992        -1.13712602E-18
  -29.6264992         2.38538664E-18
  -29.4459991         7.18643184E-18
  -29.2654991         8.86448682E-18
  -29.0849991         2.35663240E-18
  -28.9044991        -1.27962864E-17
  -28.7240009        -2.80319664E-17
  -28.5435009        -2.76177160E-17
  -28.3630009         7.75911493E-19
  -28.1825008         5.15250936E-17
  -28.0020008         9.39221499E-17
  -27.8215008         8.34159304E-17
  -27.6410007        -8.32931338E-18
  -27.4605007        -1.60061765E-16
  -27.2800007        -2.89891759E-16
  -27.0995007        -2.85811998E-16
  -26.9190006        -7.28957481E-17
  -26.7385006         3.16968384E-16
  -26.5580006         7.20879407E-16
  -26.3775005         8.98119410E-16
  -26.1970005         6.49825942E-16
  -26.0165005        -5.17264889E-17
  -25.8360004        -9.99887454E-16
  -25.6555004        -1.80674648E-15
  -25.4750004        -2.06264127E-15
  -25.2945004        -1.53037170E-15
  -25.1140003        -2.76205400E-16
  -24.9335003         1.33276547E-15
  -24.7530003         2.76745484E-15
  -24.5725002         3.54428761E-15
  -24.3920002         3.40095820E-15
  -24.2115002         2.36205450E-15
  -24.0310001         6.78000852E-16
  -23.8505001        -1.31321172E-15
  -23.6700001        -3.31801377E-15
  -23.4895000        -5.14272412E-15
  -23.3090000        -6.65191787E-15
  -23.1285000        -7.66727786E-15
  -22.9480000        -7.88330006E-15
  -22.7674999        -6.87612368E-15
  -22.5869999        -4.24119265E-15
  -22.4064999         1.72844445E-16
  -22.2259998         6.03540071E-15
  -22.0454998         1.24446877E-14
  -21.8649998         1.80823137E-14
  -21.6844997         2.16150729E-14
  -21.5039997         2.22126970E-14
  -21.3234997         1.99478495E-14
  -21.1429996         1.58479949E-14
  -20.9624996         1.15073847E-14
  -20.7819996         8.39214325E-15
  -20.6014996         7.17043798E-15
  -20.4209995         7.44119291E-15
  -20.2404995         8.06492765E-15
  -20.0599995         7.98166600E-15
  -19.8794994         7.09579786E-15
  -19.6989994         6.70008991E-15
  -19.5184994         9.07887860E-15
  -19.3379993         1.63211712E-14
  -19.1574993         2.87909616E-14
  -18.9769993         4.39298832E-14
  -18.7964993         5.59946173E-14
  -18.6159992         5.69822171E-14
  -18.4354992         3.85403549E-14
  -18.2549992        -5.70389742E-15
  -18.0744991        -7.80996497E-14
  -17.8939991        -1.75803830E-13
  -17.7134991        -2.90794488E-13
  -17.5330009        -4.11027739E-13
  -17.3525009        -5.22407638E-13
  -17.1720009        -6.11053905E-13
  -16.9915009        -6.65344299E-13
  -16.8110008        -6.77331997E-13
  -16.6305008        -6.43391048E-13
  -16.4500008        -5.64210733E-13
  -16.2695007        -4.44417073E-13
  -16.0890007        -2.92097808E-13
  -15.9084997        -1.18317153E-13
  -15.7279997         6.35506865E-14
  -15.5474997         2.38959866E-13
  -15.3669996         3.93984894E-13
  -15.1864996         5.17597629E-13
  -15.0059996         6.03843798E-13
  -14.8254995         6.53123063E-13
  -14.6450005         6.71911149E-13
  -14.4645004         6.70778645E-13
  -14.2840004         6.61206658E-13
  -14.1035004         6.52201437E-13
  -13.9230003         6.47830802E-13
  -13.7425003         6.46466875E-13
  -13.5620003         6.41918213E-13
  -13.3815002         6.25991012E-13
  -13.2010002         5.91619256E-13
  -13.0205002         5.35631652E-13
  -12.8400002         4.60441798E-13
  -12.6595001         3.74315704E-13
  -12.4790001         2.90235067E-13
  -12.2985001         2.23632297E-13
  -12.1180000         1.89423347E-13
  -11.9375000         1.98816536E-13
  -11.7570000         2.56381369E-13
  -11.5764999         3.57883374E-13
  -11.3959999         4.89361318E-13
  -11.2154999         6.27859472E-13
  -11.0349998         7.44046914E-13
  -10.8544998         8.06636821E-13
  -10.6739998         7.88072949E-13
  -10.4934998         6.70471925E-13
  -10.3129997         4.50474239E-13
  -10.1324997         1.41626673E-13
  -9.95199966        -2.26657302E-13
  -9.77149963        -6.13712423E-13
  -9.59099960        -9.74950914E-13
  -9.41049957        -1.27022177E-12
  -9.22999954        -1.47118320E-12
  -9.04950047        -1.56598790E-12
  -8.86900043        -1.56041608E-12
  -8.68850040        -1.47561629E-12
  -8.50800037        -1.34337810E-12
  -8.32750034        -1.20018199E-12
  -8.14700031        -1.08103955E-12
  -7.96649981        -1.01379083E-12
  -7.78599977        -1.01423123E-12
  -7.60550022        -1.08254183E-12
  -7.42500019        -1.20175940E-12
  -7.24450016        -1.33920219E-12
  -7.06400013        -1.45145343E-12
  -6.88350010        -1.49268152E-12
  -6.70300007        -1.42489894E-12
  -6.52250004        -1.22782383E-12
  -6.34200001        -9.05737887E-13
  -6.16149998        -4.89350205E-13
  -5.98099995        -3.19940709E-14
  -5.80049992         3.99028331E-13
  -5.61999989         7.33979826E-13
  -5.43949986         9.12644851E-13
  -5.25899982         8.94447494E-13
  -5.07849979         6.65095258E-13
  -4.89799976         2.38902756E-13
  -4.71750021        -3.43351107E-13
  -4.53700018        -1.02056644E-12
  -4.35650015        -1.72048747E-12
  -4.17600012        -2.37050570E-12
  -3.99550009        -2.90839531E-12
  -3.81500006        -3.29119718E-12
  -3.63450003        -3.50064140E-12
  -3.45400000        -3.54402185E-12
  -3.27349997        -3.45022903E-12
  -3.09299994        -3.26153709E-12
  -2.91249990        -3.02268995E-12
  -2.73200011        -2.76954848E-12
  -2.55150008        -2.51979210E-12
  -2.37100005        -2.26790960E-12
  -2.19050002        -1.98568549E-12
  -2.00999999        -1.62808981E-12
  -1.82949996        -1.14303033E-12
  -1.64900005        -4.82595355E-13
  -1.46850002         3.86734102E-13
  -1.28799999         1.47674104E-12
  -1.10749996         2.77384105E-12
 -0.926999986         4.23909952E-12
 -0.746500015         5.81141558E-12
 -0.565999985         7.41345700E-12
 -0.385500014         8.96018242E-12
 -0.204999998         1.03694909E-11
  -2.44999994E-02     1.15740256E-11
  0.156000003         1.25320136E-11
  0.336499989         1.32343138E-11
  0.517000020         1.37050822E-11
  0.697499990         1.39947897E-11
  0.878000021         1.41664397E-11
   1.05850005         1.42781741E-11
   1.23899996         1.43667474E-11
   1.41949999         1.44362525E-11
   1.60000002         1.44552018E-11
   1.78050005         1.43625173E-11
   1.96099997         1.40808459E-11
   2.14150000         1.35337149E-11
   2.32200003         1.26625516E-11
   2.50250006         1.14399107E-11
   2.68300009         9.87636188E-12
   2.86350012         8.02008807E-12
   3.04399991         5.94975371E-12
   3.22449994         3.76222838E-12
   3.40499997         1.55756777E-12
   3.58550000        -5.76133000E-13
   3.76600003        -2.57566342E-12
   3.94650006        -4.41119884E-12
   4.12699986        -6.08892450E-12
   4.30749989        -7.64691348E-12
   4.48799992        -9.14447337E-12
   4.66849995        -1.06465938E-11
   4.84899998        -1.22063358E-11
   5.02950001        -1.38490460E-11
   5.21000004        -1.55621419E-11
   5.39050007        -1.72931842E-11
   5.57100010        -1.89568274E-11
   5.75150013        -2.04490834E-11
   5.93200016        -2.16656033E-11
   6.11250019        -2.25200136E-11
   6.29300022        -2.29586610E-11
   6.47349977        -2.29695516E-11
   6.65399981        -2.25844482E-11
   6.83449984        -2.18740390E-11
   7.01499987        -2.09374584E-11
   7.19549990        -1.98873955E-11
   7.37599993        -1.88330896E-11
   7.55649996        -1.78636290E-11
   7.73699999        -1.70342594E-11
   7.91750002        -1.63582099E-11
   8.09799957        -1.58054403E-11
   8.27849960        -1.53087317E-11
   8.45899963        -1.47761404E-11
   8.63949966        -1.41075068E-11
   8.81999969        -1.32121813E-11
   9.00049973        -1.20247258E-11
   9.18099976        -1.05155216E-11
   9.36149979        -8.69419814E-12
   9.54199982        -6.60493405E-12
   9.72249985        -4.31452096E-12
   9.90299988        -1.89534066E-12
   10.0834999         5.93019286E-13
   10.2639999         3.11988499E-12
   10.4445000         5.69412789E-12
   10.6250000         8.36723833E-12
   10.8055000         1.12280237E-11
   10.9860001         1.43900985E-11
   11.1665001         1.79735237E-11
   11.3470001         2.20836769E-11
   11.5275002         2.67907571E-11
   11.7080002         3.21133224E-11
   11.8885002         3.80092659E-11
   12.0690002         4.43756039E-11
   12.2495003         5.10579183E-11
   12.4300003         5.78670618E-11
   12.6105003         6.46011231E-11
   12.7910004         7.10687897E-11
   12.9715004         7.71117475E-11
   13.1520004         8.26227975E-11
   13.3325005         8.75571074E-11
   13.5129995         9.19342172E-11
   13.6934996         9.58292751E-11
   13.8739996         9.93531923E-11
   14.0544996         1.02624916E-10
   14.2349997         1.05741839E-10
   14.4154997         1.08754936E-10
   14.5959997         1.11655962E-10
   14.7764997         1.14380200E-10
   14.9569998         1.16824175E-10
   15.1374998         1.18874688E-10
   15.3179998         1.20440810E-10
   15.4984999         1.21482269E-10
   15.6789999         1.22027013E-10
   15.8594999         1.22175367E-10
   16.0400009         1.22088728E-10
   16.2205009         1.21966937E-10
   16.4009991         1.22017285E-10
   16.5814991         1.22422572E-10
   16.7619991         1.23313901E-10
   16.9424992         1.24753027E-10
   17.1229992         1.26727129E-10
   17.3034992         1.29156644E-10
   17.4839993         1.31912814E-10
   17.6644993         1.34841985E-10
   17.8449993         1.37791889E-10
   18.0254993         1.40635489E-10
   18.2059994         1.43288409E-10
   18.3864994         1.45717174E-10
   18.5669994         1.47936399E-10
   18.7474995         1.49995391E-10
   18.9279995         1.51958376E-10
   19.1084995         1.53882185E-10
   19.2889996         1.55798124E-10
   19.4694996         1.57702129E-10
   19.6499996         1.59554328E-10
   19.8304996         1.61286623E-10
   20.0109997         1.62815095E-10
   20.1914997         1.64053410E-10
   20.3719997         1.64924754E-10
   20.5524998         1.65372022E-10
   20.7329998         1.65365846E-10
   20.9134998         1.64910224E-10
   21.0939999         1.64043973E-10
   21.2744999         1.62837105E-10
   21.4549999         1.61381339E-10
   21.6355000         1.59775526E-10
   21.8160000         1.58109276E-10
   21.9965000         1.56448188E-10
   22.1770000         1.54823876E-10
   22.3575001         1.53230040E-10
   22.5380001         1.51625407E-10
   22.7185001         1.49942142E-10
   22.8990002         1.48098811E-10
   23.0795002         1.46016074E-10
   23.2600002         1.43633633E-10
   23.4405003         1.40924203E-10
   23.6210003         1.37902634E-10
   23.8015003         1.34626435E-10
   23.9820004         1.31187339E-10
   24.1625004         1.27695771E-10
   24.3430004         1.24260879E-10
   24.5235004         1.20971427E-10
   24.7040005         1.17880566E-10
   24.8845005         1.14997976E-10
   25.0650005         1.12290940E-10
   25.2455006         1.09694476E-10
   25.4260006         1.07129895E-10
   25.6065006         1.04528233E-10
   25.7870007         1.01853428E-10
   25.9675007         9.91202606E-11
   26.1480007         9.64003183E-11
   26.3285007         9.38158787E-11
   26.5090008         9.15221787E-11
   26.6895008         8.96835453E-11
   26.8700008         8.84495741E-11
   27.0505009         8.79345624E-11
   27.2310009         8.82033474E-11
   27.4115009         8.92623545E-11
   27.5919991         9.10569814E-11
   27.7724991         9.34757619E-11
   27.9529991         9.63636670E-11
   28.1334991         9.95441507E-11
   28.3139992         1.02847647E-10
   28.4944992         1.06139444E-10
   28.6749992         1.09338032E-10
   28.8554993         1.12417707E-10
   29.0359993         1.15392959E-10
   29.2164993         1.18289323E-10
   29.3969994         1.21109608E-10
   29.5774994         1.23805480E-10
   29.7579994         1.26263347E-10
   29.9384995         1.28307504E-10
   30.1189995         1.29720373E-10
   30.2994995         1.30273958E-10
   30.4799995         1.29765337E-10
   30.6604996         1.28047933E-10
   30.8409996         1.25051428E-10
   31.0214996         1.20786783E-10
   31.2019997         1.15336282E-10
   31.3824997         1.08833810E-10
   31.5629997         1.01439981E-10
   31.7434998         9.33212396E-11
   31.9239998         8.46338208E-11
   32.1044998         7.55147750E-11
   32.2849998         6.60772617E-11
   32.4654999         5.64083745E-11
   32.6459999         4.65705460E-11
   32.8264999         3.66071791E-11
   33.0070000         2.65546994E-11
   33.1875000         1.64595403E-11
   33.3680000         6.39442145E-12
   33.5485001        -3.53261777E-12
   33.7290001        -1.31817482E-11
   33.9095001        -2.23989872E-11
   34.0900002        -3.10422764E-11
   34.2705002        -3.90065341E-11
   34.4510002        -4.62400812E-11
   34.6315002        -5.27457765E-11
   34.8120003        -5.85704471E-11
   34.9925003        -6.37849704E-11
   35.1730003        -6.84652543E-11
   35.3535004        -7.26771351E-11
   35.5340004        -7.64693170E-11
   35.7145004        -7.98723518E-11
   35.8950005        -8.29013802E-11
   36.0755005        -8.55608917E-11
   36.2560005        -8.78474862E-11
   36.4365005        -8.97530036E-11
   36.6170006        -9.12665291E-11
   36.7975006        -9.23783064E-11
   36.9780006        -9.30863026E-11
   37.1585007        -9.34062480E-11
   37.3390007        -9.33823296E-11
   37.5195007        -9.30951080E-11
   37.7000008        -9.26610247E-11
   37.8805008        -9.22204188E-11
   38.0610008        -9.19159540E-11
   38.2415009        -9.18675275E-11
   38.4220009        -9.21514531E-11
   38.6025009        -9.27934951E-11
   38.7830009        -9.37775066E-11
   38.9635010        -9.50639845E-11
   39.1440010        -9.66115868E-11
   39.3245010        -9.83907122E-11
   39.5050011        -1.00385936E-10
   39.6855011        -1.02587397E-10
   39.8660011        -1.04977901E-10
   40.0465012        -1.07523532E-10
   40.2270012        -1.10170040E-10
   40.4075012        -1.12846704E-10
   40.5880013        -1.15471688E-10
   40.7685013        -1.17956755E-10
   40.9490013        -1.20206678E-10
   41.1295013        -1.22117830E-10
   41.3100014        -1.23575900E-10
   41.4905014        -1.24459262E-10
   41.6710014        -1.24647181E-10
   41.8515015        -1.24033700E-10
   42.0320015        -1.22544225E-10
   42.2125015        -1.20150487E-10
   42.3930016        -1.16880047E-10
   42.5735016        -1.12819046E-10
   42.7540016        -1.08103720E-10
   42.9345016        -1.02904595E-10
   43.1150017        -9.74039807E-11
   43.2955017        -9.17728255E-11
   43.4760017        -8.61501426E-11
   43.6565018        -8.06290243E-11
   43.8370018        -7.52506113E-11
   44.0175018        -7.00042940E-11
   44.1980019        -6.48356507E-11
   44.3785019        -5.96591734E-11
   44.5589981        -5.43765345E-11
   44.7394981        -4.88997211E-11
   44.9199982        -4.31741240E-11
   45.1004982        -3.71979877E-11
   45.2809982        -3.10301992E-11
   45.4614983        -2.47819976E-11
   45.6419983        -1.85944090E-11
   45.8224983        -1.26039786E-11
   46.0029984        -6.90843389E-12
   46.1834984        -1.54084113E-12
   46.3639984         3.54046458E-12
   46.5444984         8.44220093E-12
   46.7249985         1.33140114E-11
   46.9054985         1.83159165E-11
   47.0859985         2.35867870E-11
   47.2664986         2.92186414E-11
   47.4469986         3.52424132E-11
   47.6274986         4.16253663E-11
   47.8079987         4.82803068E-11
   47.9884987         5.50842913E-11
   48.1689987         6.19024970E-11
   48.3494987         6.86154189E-11
   48.5299988         7.51436760E-11
   48.7104988         8.14686374E-11
   48.8909988         8.76452522E-11
   49.0714989         9.38039993E-11
   49.2519989         1.00142165E-10
   49.4324989         1.06905360E-10
   49.6129990         1.14361930E-10
   49.7934990         1.22775984E-10
   49.9739990         1.32383729E-10
   50.1544991         1.43376880E-10
   50.3349991         1.55894075E-10
   50.5154991         1.70018763E-10
   50.6959991         1.85779905E-10
   50.8764992         2.03152634E-10
   51.0569992         2.22057511E-10
   51.2374992         2.42359161E-10
   51.4179993         2.63869177E-10
   51.5984993         2.86354107E-10
   51.7789993         3.09551024E-10
   51.9594994         3.33187283E-10
   52.1399994         3.57002178E-10
   52.3204994         3.80763698E-10
   52.5009995         4.04276307E-10
   52.6814995         4.27379687E-10
   52.8619995         4.49937282E-10
   53.0424995         4.71821471E-10
   53.2229996         4.92897445E-10
   53.4034996         5.13013465E-10
   53.5839996         5.31999278E-10
   53.7644997         5.49675805E-10
   53.9449997         5.65874070E-10
   54.1254997         5.80461734E-10
   54.3059998         5.93372462E-10
   54.4864998         6.04633066E-10
   54.6669998         6.14382822E-10
   54.8474998         6.22877971E-10
   55.0279999         6.30479613E-10
   55.2084999         6.37619457E-10
   55.3889999         6.44751197E-10
   55.5695000         6.52288723E-10
   55.7500000         6.60549060E-10
   55.9305000         6.69709399E-10
   56.1110001         6.79788281E-10
   56.2915001         6.90659308E-10
   56.4720001         7.02088998E-10
   56.6525002         7.13791637E-10
   56.8330002         7.25484062E-10
   57.0135002         7.36932071E-10
   57.1940002         7.47972073E-10
   57.3745003         7.58511420E-10
   57.5550003         7.68507480E-10
   57.7355003         7.77934217E-10
   57.9160004         7.86747945E-10
   58.0965004         7.94855959E-10
   58.2770004         8.02104272E-10
   58.4575005         8.08282330E-10
   58.6380005         8.13143664E-10
   58.8185005         8.16443191E-10
   58.9990005         8.17976631E-10
   59.1795006         8.17614754E-10
   59.3600006         8.15328638E-10
   59.5405006         8.11190781E-10
   59.7210007         8.05363443E-10
   59.9015007         7.98069277E-10
   60.0820007         7.89554921E-10
   60.2625008         7.80054132E-10
   60.4430008         7.69758479E-10
   60.6235008         7.58804741E-10
   60.8040009         7.47275242E-10
   60.9845009         7.35212169E-10
   61.1650009         7.22645443E-10
   61.3455009         7.09610148E-10
   61.5260010         6.96165681E-10
   61.7065010         6.82392087E-10
   61.8870010         6.68379518E-10
   62.0675011         6.54208854E-10
   62.2480011         6.39933107E-10
   62.4285011         6.25566876E-10
   62.6090012         6.11087292E-10
   62.7895012         5.96444005E-10
   62.9700012         5.81575510E-10
   63.1505013         5.66428404E-10
   63.3310013         5.50972157E-10
   63.5115013         5.35215372E-10
   63.6920013         5.19211452E-10
   63.8725014         5.03060260E-10
   64.0530014         4.86899909E-10
   64.2334976         4.70892936E-10
   64.4140015         4.55201793E-10
   64.5944977         4.39965481E-10
   64.7750015         4.25276842E-10
   64.9554977         4.11164491E-10
   65.1360016         3.97584216E-10
   65.3164978         3.84421356E-10
   65.4970016         3.71502745E-10
   65.6774979         3.58617080E-10
   65.8580017         3.45545509E-10
   66.0384979         3.32088579E-10
   66.2190018         3.18092719E-10
   66.3994980         3.03465419E-10
   66.5800018         2.88179175E-10
   66.7604980         2.72261796E-10
   66.9410019         2.55784588E-10
   67.1214981         2.38848163E-10
   67.3020020         2.21572885E-10
   67.4824982         2.04093464E-10
   67.6630020         1.86554203E-10
   67.8434982         1.69101511E-10
   68.0240021         1.51871890E-10
   68.2044983         1.34979389E-10
   68.3850021         1.18503568E-10
   68.5654984         1.02484819E-10
   68.7460022         8.69309971E-11
   68.9264984         7.18306109E-11
   69.1070023         5.71728047E-11
   69.2874985         4.29666649E-11
   69.4680023         2.92570586E-11
   69.6484985         1.61296376E-11
   69.8290024         3.70605066E-12
   70.0094986        -7.87351347E-12
   70.1900024        -1.84771122E-11
   70.3704987        -2.80118480E-11
   70.5510025        -3.64521607E-11
   70.7314987        -4.38558981E-11
   70.9120026        -5.03668877E-11
   71.0924988        -5.61979317E-11
   71.2730026        -6.16033613E-11
   71.4534988        -6.68396935E-11
   71.6340027        -7.21268670E-11
   71.8144989        -7.76084891E-11
   71.9950027        -8.33216690E-11
   72.1754990        -8.91776791E-11
   72.3560028        -9.49617607E-11
   72.5364990        -1.00355814E-10
   72.7170029        -1.04986561E-10
   72.8974991        -1.08491369E-10
   73.0780029        -1.10589572E-10
   73.2584991        -1.11139466E-10
   73.4390030        -1.10171067E-10
   73.6194992        -1.07878727E-10
   73.8000031        -1.04582960E-10
   73.9804993        -1.00669251E-10
   74.1610031        -9.65202640E-11
   74.3414993        -9.24568894E-11
   74.5220032        -8.87004220E-11
   74.7024994        -8.53602952E-11
   74.8830032        -8.24467508E-11
   75.0634995        -7.99032299E-11
   75.2440033        -7.76523845E-11
   75.4244995        -7.56420759E-11
   75.6050034        -7.38869035E-11
   75.7854996        -7.24947255E-11
   75.9660034        -7.16756376E-11
   76.1464996        -7.17307533E-11
   76.3270035        -7.30258562E-11
   76.5074997        -7.59507318E-11
   76.6880035        -8.08702619E-11
   76.8684998        -8.80717374E-11
   77.0490036        -9.77179934E-11
   77.2294998        -1.09814269E-10
   77.4100037        -1.24197833E-10
   77.5904999        -1.40555317E-10
   77.7710037        -1.58465394E-10
   77.9514999        -1.77454842E-10
   78.1320038        -1.97054248E-10
   78.3125000        -2.16837784E-10
   78.4929962        -2.36440340E-10
   78.6735001        -2.55552163E-10
   78.8539963        -2.73902401E-10
   79.0345001        -2.91239977E-10
   79.2149963        -3.07322279E-10
   79.3955002        -3.21917104E-10
   79.5759964        -3.34811262E-10
   79.7565002        -3.45821094E-10
   79.9369965        -3.54804686E-10
   80.1175003        -3.61664254E-10
   80.2979965        -3.66347147E-10
   80.4785004        -3.68843484E-10
   80.6589966        -3.69184266E-10
   80.8395004        -3.67443742E-10
   81.0199966        -3.63743730E-10
   81.2005005        -3.58260255E-10
   81.3809967        -3.51225465E-10
   81.5615005        -3.42924883E-10
   81.7419968        -3.33683914E-10
   81.9225006        -3.23848642E-10
   82.1029968        -3.13763376E-10
   82.2835007        -3.03748221E-10
   82.4639969        -2.94084840E-10
   82.6445007        -2.85002133E-10
   82.8249969        -2.76664913E-10
   83.0055008        -2.69161193E-10
   83.1859970        -2.62489225E-10
   83.3665009        -2.56549504E-10
   83.5469971        -2.51153848E-10
   83.7275009        -2.46053122E-10
   83.9079971        -2.40987591E-10
   84.0885010        -2.35745784E-10
   84.2689972        -2.30217415E-10
   84.4495010        -2.24423619E-10
   84.6299973        -2.18510321E-10
   84.8105011        -2.12709378E-10
   84.9909973        -2.07276224E-10
   85.1715012        -2.02423245E-10
   85.3519974        -1.98267111E-10
   85.5325012        -1.94804867E-10
   85.7129974        -1.91917593E-10
   85.8935013        -1.89401425E-10
   86.0739975        -1.87010296E-10
   86.2545013        -1.84501303E-10
   86.4349976        -1.81671678E-10
   86.6155014        -1.78383114E-10
   86.7959976        -1.74573189E-10
   86.9765015        -1.70255671E-10
   87.1569977        -1.65512479E-10
   87.3375015        -1.60477756E-10
   87.5179977        -1.55313762E-10
   87.6985016        -1.50177371E-10
   87.8789978        -1.45183782E-10
   88.0595016        -1.40372755E-10
   88.2399979        -1.35692776E-10
   88.4205017        -1.31010841E-10
   88.6009979        -1.26150632E-10
   88.7815018        -1.20953372E-10
   88.9619980        -1.15337871E-10
   89.1425018        -1.09342133E-10
   89.3229980        -1.03128908E-10
   89.5035019        -9.69516481E-11
   89.6839981        -9.10953604E-11
   89.8645020        -8.58087629E-11
   90.0449982        -8.12541145E-11
   90.2255020        -7.74843176E-11
   90.4059982        -7.44500642E-11
   90.5865021        -7.20278281E-11
   90.7669983        -7.00547884E-11
   90.9475021        -6.83596998E-11
   91.1279984        -6.67828987E-11
   91.3085022        -6.51865090E-11
   91.4889984        -6.34586550E-11
   91.6695023        -6.15160770E-11
   91.8499985        -5.93079683E-11
   92.0305023        -5.68196740E-11
   92.2109985        -5.40731210E-11
   92.3915024        -5.11182451E-11
   92.5719986        -4.80164380E-11
   92.7525024        -4.48161092E-11
   92.9329987        -4.15311084E-11
   93.1135025        -3.81301171E-11
   93.2939987        -3.45430178E-11
   93.4745026        -3.06839762E-11
   93.6549988        -2.64817977E-11
   93.8355026        -2.19020097E-11
   94.0159988        -1.69492718E-11
   94.1965027        -1.16493863E-11
   94.3769989        -6.01841146E-12
   94.5575027        -3.56534768E-14
   94.7379990         6.36159962E-12
   94.9185028         1.32587743E-11
   95.0989990         2.07263200E-11
   95.2795029         2.87830784E-11
   95.4599991         3.73784337E-11
   95.6405029         4.64050326E-11
   95.8209991         5.57374528E-11
   96.0015030         6.52827445E-11
   96.1819992         7.50193935E-11
   96.3625031         8.50102697E-11
   96.5429993         9.53829446E-11
   96.7235031         1.06283128E-10
   96.9039993         1.17820614E-10
   97.0845032         1.30022756E-10
   97.2649994         1.42814413E-10
   97.4455032         1.56026136E-10
   97.6259995         1.69430150E-10
   97.8065033         1.82787133E-10
   97.9869995         1.95892622E-10
   98.1675034         2.08605910E-10
   98.3479996         2.20856847E-10
   98.5285034         2.32632927E-10
   98.7089996         2.43952497E-10
   98.8895035         2.54836430E-10
   99.0699997         2.65282907E-10
   99.2505035         2.75246798E-10
   99.4309998         2.84624158E-10
   99.6115036         2.93240349E-10
   99.7919998         3.00847319E-10
   99.9725037         3.07137399E-10
   100.153000         3.11780296E-10
   100.333504         3.14485188E-10
   100.514000         3.15073884E-10
   100.694504         3.13546217E-10
   100.875000         3.10115295E-10
   101.055496         3.05195702E-10
   101.236000         2.99346131E-10
   101.416496         2.93181895E-10
   101.597000         2.87281671E-10
   101.777496         2.82113860E-10
   101.958000         2.77998680E-10
   102.138496         2.75109380E-10
   102.319000         2.73503026E-10
   102.499496         2.73166767E-10
   102.680000         2.74062689E-10
   102.860497         2.76160261E-10
   103.041000         2.79451434E-10
   103.221497         2.83948032E-10
   103.402000         2.89666430E-10
   103.582497         2.96606406E-10
   103.763000         3.04728826E-10
   103.943497         3.13934767E-10
   104.124001         3.24047705E-10
   104.304497         3.34802075E-10
   104.485001         3.45837636E-10
   104.665497         3.56709773E-10
   104.846001         3.66916164E-10
   105.026497         3.75946774E-10
   105.207001         3.83346133E-10
   105.387497         3.88777288E-10
   105.568001         3.92066296E-10
   105.748497         3.93213739E-10
   105.929001         3.92369082E-10
   106.109497         3.89775046E-10
   106.290001         3.85702387E-10
   106.470497         3.80395243E-10
   106.651001         3.74040632E-10
   106.831497         3.66766534E-10
   107.012001         3.58658298E-10
   107.192497         3.49781815E-10
   107.373001         3.40200729E-10
   107.553497         3.29981847E-10
   107.734001         3.19191312E-10
   107.914497         3.07886994E-10
   108.095001         2.96112551E-10
   108.275497         2.83897433E-10
   108.456001         2.71261374E-10
   108.636497         2.58225191E-10
   108.817001         2.44817472E-10
   108.997498         2.31080918E-10
   109.178001         2.17074136E-10
   109.358498         2.02869527E-10
   109.539001         1.88552868E-10
   109.719498         1.74223122E-10
   109.900002         1.59995781E-10
   110.080498         1.46003251E-10
   110.261002         1.32389696E-10
   110.441498         1.19296809E-10
   110.622002         1.06841279E-10
   110.802498         9.50905119E-11
   110.983002         8.40486430E-11
   111.163498         7.36620070E-11
   111.344002         6.38446934E-11
   111.524498         5.45166030E-11