  -34.5000000         0.00000000    
  -34.3195000         0.00000000    
  -34.1389999         0.00000000    
  -33.9584999        -3.33080955E-22
  -33.7779999        -2.07066552E-21
  -33.5974998        -7.22336924E-21
  -33.4169998        -1.86683743E-20
  -33.2364998        -3.98853793E-20
  -33.0559998        -7.44280184E-20
  -32.8754997        -1.24688210E-19
  -32.6949997        -1.89388158E-19
  -32.5144997        -2.59844210E-19
  -32.3339996        -3.16388700E-19
  -32.1534996        -3.27706134E-19
  -31.9729996        -2.56096333E-19
  -31.7924995        -6.99825171E-20
  -31.6119995         2.38531411E-19
  -31.4314995         6.37104382E-19
  -31.2509995         1.04582110E-18
  -31.0704994         1.34604702E-18
  -30.8899994         1.40738939E-18
  -30.7094994         1.12754137E-18
  -30.5289993         4.73226668E-19
  -30.3484993        -4.92436594E-19
  -30.1679993        -1.60850585E-18
  -29.9874992        -2.64513976E-18
  -29.8069992        -3.35717269E-18
  -29.6264992        -3.54777930E-18
  -29.4459991        -3.12577905E-18
  -29.2654991        -2.14644353E-18
  -29.0849991        -8.35614236E-19
  -28.9044991         3.92324656E-19
  -28.7240009         9.10254672E-19
  -28.5435009        -1.57824394E-19
  -28.3630009        -3.98392930E-18
  -28.1825008        -1.20777427E-17
  -28.0020008        -2.62986045E-17
  -27.8215008        -4.87978560E-17
  -27.6410007        -8.18522281E-17
  -27.4605007        -1.27575854E-16
  -27.2800007        -1.87554204E-16
  -27.0995007        -2.62495987E-16
  -26.9190006        -3.52007173E-16
  -26.7385006        -4.54516980E-16
  -26.5580006        -5.67266700E-16
  -26.3775005        -6.86193514E-16
  -26.1970005        -8.05616054E-16
  -26.0165005        -9.17791856E-16
  -25.8360004        -1.01267659E-15
  -25.6555004        -1.07822985E-15
  -25.4750004        -1.10140499E-15
  -25.2945004        -1.06950530E-15
  -25.1140003        -9.71165202E-16
  -24.9335003        -7.96195618E-16
  -24.7530003        -5.34094190E-16
  -24.5725002        -1.71971591E-16
  -24.3920002         3.06495140E-16
  -24.2115002         9.19473746E-16
  -24.0310001         1.68235852E-15
  -23.8505001         2.60171379E-15
  -23.6700001         3.67110305E-15
  -23.4895000         4.87202679E-15
  -23.3090000         6.18081255E-15
  -23.1285000         7.57834364E-15
  -22.9480000         9.05605868E-15
  -22.7674999         1.06116745E-14
  -22.5869999         1.22323569E-14
  -22.4064999         1.38706727E-14
  -22.2259998         1.54256677E-14
  -22.0454998         1.67428530E-14
  -21.8649998         1.76410925E-14
  -21.6844997         1.79617673E-14
  -21.5039997         1.76229304E-14
  -21.3234997         1.66540908E-14
  -21.1429996         1.51912123E-14
  -20.9624996         1.34262015E-14
  -20.7819996         1.15238968E-14
  -20.6014996         9.53542004E-15
  -20.4209995         7.34116171E-15
  -20.2404995         4.64681343E-15
  -20.0599995         1.03668384E-15
  -19.8794994        -3.93373324E-15
  -19.6989994        -1.06386118E-14
  -19.5184994        -1.93085497E-14
  -19.3379993        -3.00000876E-14
  -19.1574993        -4.26014340E-14
  -18.9769993        -5.68467392E-14
  -18.7964993        -7.23054835E-14
  -18.6159992        -8.83321465E-14
  -18.4354992        -1.03993874E-13
  -18.2549992        -1.18030382E-13
  -18.0744991        -1.28914606E-13
  -17.8939991        -1.35062195E-13
  -17.7134991        -1.35180915E-13
  -17.5330009        -1.28679809E-13
  -17.3525009        -1.16002531E-13
  -17.1720009        -9.87443566E-14
  -16.9915009        -7.94653243E-14
  -16.8110008        -6.12083761E-14
  -16.6305008        -4.68393601E-14
  -16.4500008        -3.83877602E-14
  -16.2695007        -3.65701528E-14
  -16.0890007        -4.06123567E-14
  -15.9084997        -4.83837620E-14
  -15.7279997        -5.67612838E-14
  -15.5474997        -6.20932274E-14
  -15.3669996        -6.06425378E-14
  -15.1864996        -4.89514469E-14
  -15.0059996        -2.41365816E-14
  -14.8254995         1.58256993E-14
  -14.6450005         7.17789679E-14
  -14.4645004         1.43040324E-13
  -14.2840004         2.27128199E-13
  -14.1035004         3.19716448E-13
  -13.9230003         4.14970386E-13
  -13.7425003         5.06327293E-13
  -13.5620003         5.87627061E-13
  -13.3815002         6.54338996E-13
  -13.2010002         7.04524872E-13
  -13.0205002         7.39194784E-13
  -12.8400002         7.61871686E-13
  -12.6595001         7.77414049E-13
  -12.4790001         7.90396123E-13
  -12.2985001         8.03492472E-13
  -12.1180000         8.16313705E-13
  -11.9375000         8.24991388E-13
  -11.7570000         8.22575786E-13
  -11.5764999         8.00080217E-13
  -11.3959999         7.47880436E-13
  -11.2154999         6.57162638E-13
  -11.0349998         5.21188778E-13
  -10.8544998         3.36279426E-13
  -10.6739998         1.02506687E-13
  -10.4934998        -1.75891447E-13
  -10.3129997        -4.90376565E-13
  -10.1324997        -8.28310565E-13
  -9.95199966        -1.17357426E-12
  -9.77149963        -1.50767745E-12
  -9.59099960        -1.81131466E-12
  -9.41049957        -2.06624735E-12
  -9.22999954        -2.25724452E-12
  -9.04950047        -2.37376720E-12
  -8.86900043        -2.41109520E-12
  -8.68850040        -2.37070715E-12
  -8.50800037        -2.25988932E-12
  -8.32750034        -2.09072018E-12
  -8.14700031        -1.87869663E-12
  -7.96649981        -1.64126286E-12
  -7.78599977        -1.39643614E-12
  -7.60550022        -1.16157919E-12
  -7.42500019        -9.52248154E-13
  -7.24450016        -7.81022274E-13
  -7.06400013        -6.56249144E-13
  -6.88350010        -5.80793334E-13
  -6.70300007        -5.50992086E-13
  -6.52250004        -5.56127301E-13
  -6.34200001        -5.78715298E-13
  -6.16149998        -5.95830622E-13
  -5.98099995        -5.81478225E-13
  -5.80049992        -5.09810185E-13
  -5.61999989        -3.58745070E-13
  -5.43949986        -1.13400771E-13
  -5.25899982         2.31293608E-13
  -5.07849979         6.69319743E-13
  -4.89799976         1.18388090E-12
  -4.71750021         1.74927098E-12
  -4.53700018         2.33394727E-12
  -4.35650015         2.90431850E-12
  -4.17600012         3.42863671E-12
  -3.99550009         3.88051960E-12
  -3.81500006         4.24167732E-12
  -3.63450003         4.50353166E-12
  -3.45400000         4.66755194E-12
  -3.27349997         4.74416470E-12
  -3.09299994         4.75032817E-12
  -2.91249990         4.70595915E-12
  -2.73200011         4.62980609E-12
  -2.55150008         4.53536731E-12
  -2.37100005         4.42776892E-12
  -2.19050002         4.30219011E-12
  -2.00999999         4.14435933E-12
  -1.82949996         3.93315805E-12
  -1.64900005         3.64492507E-12
  -1.46850002         3.25876652E-12
  -1.28799999         2.76179101E-12
  -1.10749996         2.15325978E-12
 -0.926999986         1.44674344E-12
 -0.746500015         6.69701111E-13
 -0.565999985        -1.39552500E-13
 -0.385500014        -9.37099465E-13
 -0.204999998        -1.68009573E-12
  -2.44999994E-02    -2.33369010E-12
  0.156000003        -2.87707033E-12
  0.336499989        -3.30746563E-12
  0.517000020        -3.64127608E-12
  0.697499990        -3.91195193E-12
  0.878000021        -4.16475448E-12
   1.05850005        -4.44920056E-12
   1.23899996        -4.81054042E-12
   1.41949999        -5.28182923E-12
   1.60000002        -5.87816297E-12
   1.78050005        -6.59410981E-12
   1.96099997        -7.40462466E-12
   2.14150000        -8.26887690E-12
   2.32200003        -9.13580583E-12
   2.50250006        -9.95003472E-12
   2.68300009        -1.06568218E-11
   2.86350012        -1.12055174E-11
   3.04399991        -1.15514187E-11
   3.22449994        -1.16566435E-11
   3.40499997        -1.14907519E-11
   3.58550000        -1.10318256E-11
   3.76600003        -1.02682975E-11
   3.94650006        -9.20116067E-12
   4.12699986        -7.84599729E-12
   4.30749989        -6.23376220E-12
   4.48799992        -4.40959378E-12
   4.66849995        -2.42928399E-12
   4.84899998        -3.53700223E-13
   5.02950001         1.75802537E-12
   5.21000004         3.85518267E-12
   5.39050007         5.90077509E-12
   5.57100010         7.87442247E-12
   5.75150013         9.77212582E-12
   5.93200016         1.16029851E-11
   6.11250019         1.33829831E-11
   6.29300022         1.51269934E-11
   6.47349977         1.68397830E-11
   6.65399981         1.85076971E-11
   6.83449984         2.00926931E-11
   7.01499987         2.15302099E-11
   7.19549990         2.27321998E-11
   7.37599993         2.35954051E-11
   7.55649996         2.40140477E-11
   7.73699999         2.38947057E-11
   7.91750002         2.31704933E-11
   8.09799957         2.18113878E-11
   8.27849960         1.98283646E-11
   8.45899963         1.72703588E-11
   8.63949966         1.42148134E-11
   8.81999969         1.07541120E-11
   9.00049973         6.98155336E-12
   9.18099976         2.98018207E-12
   9.36149979        -1.18263960E-12
   9.54199982        -5.45406168E-12
   9.72249985        -9.78902289E-12
   9.90299988        -1.41405906E-11
   10.0834999        -1.84509977E-11
   10.2639999        -2.26464663E-11
   10.4445000        -2.66375307E-11
   10.6250000        -3.03248052E-11
   10.8055000        -3.36081579E-11
   10.9860001        -3.63965073E-11
   11.1665001        -3.86152083E-11
   11.3470001        -4.02092942E-11
   11.5275002        -4.11422077E-11
   11.7080002        -4.13914493E-11
   11.8885002        -4.09434049E-11
   12.0690002        -3.97902059E-11
   12.2495003        -3.79304019E-11
   12.4300003        -3.53742140E-11
   12.6105003        -3.21520484E-11
   12.7910004        -2.83239075E-11
   12.9715004        -2.39861690E-11
   13.1520004        -1.92729634E-11
   13.3325005        -1.43505078E-11
   13.5129995        -9.40463506E-12
   13.6934996        -4.62377272E-12
   13.8739996        -1.81354687E-13
   14.0544996         3.77874078E-12
   14.2349997         7.15034065E-12
   14.4154997         9.86515123E-12
   14.5959997         1.18859506E-11
   14.7764997         1.31948116E-11
   14.9569998         1.37803284E-11
   15.1374998         1.36274499E-11
   15.3179998         1.27127718E-11
   15.4984999         1.10067276E-11
   15.6789999         8.48186191E-12
   15.8594999         5.12477300E-12
   16.0400009         9.48547989E-13
   16.2205009        -3.99819761E-12
   16.4009991        -9.62753835E-12
   16.5814991        -1.58152519E-11
   16.7619991        -2.24087415E-11
   16.9424992        -2.92387815E-11
   17.1229992        -3.61313444E-11
   17.3034992        -4.29184188E-11
   17.4839993        -4.94458571E-11
   17.6644993        -5.55790101E-11
   17.8449993        -6.12064496E-11
   18.0254993        -6.62433441E-11
   18.2059994        -7.06350048E-11
   18.3864994        -7.43601639E-11
   18.5669994        -7.74334624E-11
   18.7474995        -7.99053115E-11
   18.9279995        -8.18572779E-11
   19.1084995        -8.33926816E-11
   19.2889996        -8.46220177E-11
   19.4694996        -8.56451576E-11
   19.6499996        -8.65338287E-11
   19.8304996        -8.73172368E-11
   20.0109997        -8.79742459E-11
   20.1914997        -8.84346762E-11
   20.3719997        -8.85882062E-11
   20.5524998        -8.83006238E-11
   20.7329998        -8.74327971E-11
   20.9134998        -8.58592294E-11
   21.0939999        -8.34829844E-11
   21.2744999        -8.02443459E-11
   21.4549999        -7.61225111E-11
   21.6355000        -7.11319267E-11
   21.8160000        -6.53135879E-11
   21.9965000        -5.87251497E-11
   22.1770000        -5.14310330E-11
   22.3575001        -4.34956966E-11
   22.5380001        -3.49815697E-11
   22.7185001        -2.59501830E-11
   22.8990002        -1.64683666E-11
   23.0795002        -6.61663042E-12
   23.2600002         3.50254114E-12
   23.4405003         1.37562097E-11
   23.6210003         2.39773947E-11
   23.8015003         3.39654173E-11
   23.9820004         4.34926192E-11
   24.1625004         5.23158600E-11
   24.3430004         6.01939332E-11
   24.5235004         6.69052314E-11
   24.7040005         7.22640905E-11
   24.8845005         7.61328986E-11
   25.0650005         7.84257173E-11
   25.2455006         7.91050489E-11
   25.4260006         7.81716289E-11
   25.6065006         7.56510132E-11
   25.7870007         7.15801446E-11
   25.9675007         6.59980751E-11
   26.1480007         5.89431420E-11
   26.3285007         5.04566042E-11
   26.5090008         4.05913358E-11
   26.6895008         2.94233353E-11
   26.8700008         1.70633212E-11
   27.0505009         3.66380580E-12
   27.2310009        -1.05774495E-11
   27.4115009        -2.54195866E-11
   27.5919991        -4.05848306E-11
   27.7724991        -5.57656803E-11
   27.9529991        -7.06335546E-11
   28.1334991        -8.48458179E-11
   28.3139992        -9.80518652E-11
   28.4944992        -1.09899902E-10
   28.6749992        -1.20043350E-10
   28.8554993        -1.28148978E-10
   29.0359993        -1.33905623E-10
   29.2164993        -1.37033204E-10
   29.3969994        -1.37290027E-10
   29.5774994        -1.34480038E-10
   29.7579994        -1.28457078E-10
   29.9384995        -1.19129359E-10
   30.1189995        -1.06463609E-10
   30.2994995        -9.04888733E-11
   30.4799995        -7.13021517E-11
   30.6604996        -4.90713754E-11
   30.8409996        -2.40378255E-11
   31.0214996         3.48842613E-12
   31.2019997         3.31370001E-11
   31.3824997         6.44953049E-11
   31.5629997         9.71321981E-11
   31.7434998         1.30625524E-10
   31.9239998         1.64589689E-10
   32.1044998         1.98698016E-10
   32.2849998         2.32696695E-10
   32.4654999         2.66407174E-10
   32.6459999         2.99716973E-10
   32.8264999         3.32563171E-10
   33.0070000         3.64909991E-10
   33.1875000         3.96727928E-10
   33.3680000         4.27977986E-10
   33.5485001         4.58603988E-10
   33.7290001         4.88533658E-10
   33.9095001         5.17686671E-10
   34.0900002         5.45985757E-10
   34.2705002         5.73366687E-10
   34.4510002         5.99782057E-10
   34.6315002         6.25197505E-10
   34.8120003         6.49580556E-10
   34.9925003         6.72883693E-10
   35.1730003         6.95028535E-10
   35.3535004         7.15893900E-10
   35.5340004         7.35313532E-10
   35.7145004         7.53082541E-10
   35.8950005         7.68972885E-10
   36.0755005         7.82752474E-10
   36.2560005         7.94204258E-10
   36.4365005         8.03138778E-10
   36.6170006         8.09399880E-10
   36.7975006         8.12862222E-10
   36.9780006         8.13422052E-10
   37.1585007         8.10988388E-10
   37.3390007         8.05475797E-10
   37.5195007         7.96803235E-10
   37.7000008         7.84902143E-10
   37.8805008         7.69728059E-10
   38.0610008         7.51276485E-10
   38.2415009         7.29594107E-10
   38.4220009         7.04785175E-10
   38.6025009         6.77008671E-10
   38.7830009         6.46468823E-10
   38.9635010         6.13400331E-10
   39.1440010         5.78055326E-10
   39.3245010         5.40693212E-10
   39.5050011         5.01577446E-10
   39.6855011         4.60979616E-10
   39.8660011         4.19187574E-10
   40.0465012         3.76516152E-10
   40.2270012         3.33313654E-10
   40.4075012         2.89963359E-10
   40.5880013         2.46876297E-10
   40.7685013         2.04476575E-10
   40.9490013         1.63180011E-10
   41.1295013         1.23372090E-10
   41.3100014         8.53859899E-11
   41.4905014         4.94873205E-11
   41.6710014         1.58654825E-11
   41.8515015        -1.53658909E-11
   42.0320015        -4.41625729E-11
   42.2125015        -7.05358896E-11
   42.3930016        -9.45354559E-11
   42.5735016        -1.16229415E-10
   42.7540016        -1.35685435E-10
   42.9345016        -1.52954135E-10
   43.1150017        -1.68056777E-10
   43.2955017        -1.80979273E-10
   43.4760017        -1.91672372E-10
   43.6565018        -2.00057346E-10
   43.8370018        -2.06034592E-10
   44.0175018        -2.09494103E-10
   44.1980019        -2.10325632E-10
   44.3785019        -2.08426082E-10
   44.5589981        -2.03704623E-10
   44.7394981        -1.96085079E-10
   44.9199982        -1.85506804E-10
   45.1004982        -1.71924891E-10
   45.2809982        -1.55310792E-10
   45.4614983        -1.35654793E-10
   45.6419983        -1.12969960E-10
   45.8224983        -8.72981271E-11
   46.0029984        -5.87166982E-11
   46.1834984        -2.73443438E-11
   46.3639984         6.65247545E-12
   46.5444984         4.30556042E-11
   46.7249985         8.15922746E-11
   46.9054985         1.21933894E-10
   47.0859985         1.63698846E-10
   47.2664986         2.06459128E-10
   47.4469986         2.49751830E-10
   47.6274986         2.93097574E-10
   47.8079987         3.36021572E-10
   47.9884987         3.78076376E-10
   48.1689987         4.18863860E-10
   48.3494987         4.58049210E-10
   48.5299988         4.95368357E-10
   48.7104988         5.30623545E-10
   48.8909988         5.63671498E-10
   49.0714989         5.94403193E-10
   49.2519989         6.22721597E-10
   49.4324989         6.48520349E-10
   49.6129990         6.71670497E-10
   49.7934990         6.92015278E-10
   49.9739990         7.09376169E-10
   50.1544991         7.23568816E-10
   50.3349991         7.34423466E-10
   50.5154991         7.41805783E-10
   50.6959991         7.45631612E-10
   50.8764992         7.45873363E-10
   51.0569992         7.42555351E-10
   51.2374992         7.35739580E-10
   51.4179993         7.25506544E-10
   51.5984993         7.11934123E-10
   51.7789993         6.95079716E-10
   51.9594994         6.74969580E-10
   52.1399994         6.51595611E-10
   52.3204994         6.24920227E-10
   52.5009995         5.94885807E-10
   52.6814995         5.61426239E-10
   52.8619995         5.24475241E-10
   53.0424995         4.83971696E-10
   53.2229996         4.39859343E-10
   53.4034996         3.92083588E-10
   53.5839996         3.40586975E-10
   53.7644997         2.85304835E-10
   53.9449997         2.26165822E-10
   54.1254997         1.63092068E-10
   54.3059998         9.60048707E-11
   54.4864998         2.48284657E-11
   54.6669998        -5.05041148E-11
   54.8474998        -1.30046293E-10
   55.0279999        -2.13834589E-10
   55.2084999        -3.01884490E-10
   55.3889999        -3.94187127E-10
   55.5695000        -4.90704311E-10
   55.7500000        -5.91361293E-10
   55.9305000        -6.96039226E-10
   56.1110001        -8.04563527E-10
   56.2915001        -9.16691723E-10
   56.4720001        -1.03210340E-09
   56.6525002        -1.15039123E-09
   56.8330002        -1.27105670E-09
   57.0135002        -1.39351219E-09
   57.1940002        -1.51708657E-09
   57.3745003        -1.64103475E-09
   57.5550003        -1.76455650E-09
   57.7355003        -1.88681404E-09
   57.9160004        -2.00695682E-09
   58.0965004        -2.12414952E-09
   58.2770004        -2.23759922E-09
   58.4575005        -2.34658581E-09
   58.6380005        -2.45048337E-09
   58.8185005        -2.54877675E-09
   58.9990005        -2.64106337E-09
   59.1795006        -2.72704170E-09
   59.3600006        -2.80648993E-09
   59.5405006        -2.87923285E-09
   59.7210007        -2.94510860E-09
   59.9015007        -3.00394176E-09
   60.0820007        -3.05552894E-09
   60.2625008        -3.09964276E-09
   60.4430008        -3.13604942E-09
   60.6235008        -3.16454085E-09
   60.8040009        -3.18496918E-09
   60.9845009        -3.19727178E-09
   61.1650009        -3.20148863E-09
   61.3455009        -3.19775673E-09
   61.5260010        -3.18629212E-09
   61.7065010        -3.16736104E-09
   61.8870010        -3.14124993E-09
   62.0675011        -3.10823389E-09
   62.2480011        -3.06856140E-09
   62.4285011        -3.02244829E-09
   62.6090012        -2.97008040E-09
   62.7895012        -2.91162938E-09
   62.9700012        -2.84726531E-09
   63.1505013        -2.77717893E-09
   63.3310013        -2.70159073E-09
   63.5115013        -2.62075384E-09
   63.6920013        -2.53495980E-09
   63.8725014        -2.44452814E-09
   64.0530014        -2.34979791E-09
   64.2334976        -2.25112151E-09
   64.4140015        -2.14885509E-09
   64.5944977        -2.04335771E-09
   64.7750015        -1.93499217E-09
   64.9554977        -1.82413484E-09
   65.1360016        -1.71118342E-09
   65.3164978        -1.59656754E-09
   65.4970016        -1.48075807E-09
   65.6774979        -1.36426581E-09
   65.8580017        -1.24763488E-09
   66.0384979        -1.13143017E-09
   66.2190018        -1.01621711E-09
   66.3994980        -9.02545039E-10
   66.5800018        -7.90931320E-10
   66.7604980        -6.81851964E-10
   66.9410019        -5.75739678E-10
   67.1214981        -4.72983097E-10
   67.3020020        -3.73927694E-10
   67.4824982        -2.78872980E-10
   67.6630020        -1.88063926E-10
   67.8434982        -1.01677840E-10
   68.0240021        -1.98022293E-11
   68.2044983         5.75809331E-11
   68.3850021         1.30615324E-10
   68.5654984         1.99571540E-10
   68.7460022         2.64840344E-10
   68.9264984         3.26910526E-10
   69.1070023         3.86330440E-10
   69.2874985         4.43665049E-10
   69.4680023         4.99449260E-10
   69.6484985         5.54144564E-10
   69.8290024         6.08110340E-10
   70.0094986         6.61590116E-10
   70.1900024         7.14713788E-10
   70.3704987         7.67515773E-10
   70.5510025         8.19961765E-10
   70.7314987         8.71984374E-10
   70.9120026         9.23509103E-10
   71.0924988         9.74483161E-10
   71.2730026         1.02488196E-09
   71.4534988         1.07471199E-09
   71.6340027         1.12399945E-09
   71.8144989         1.17277232E-09
   71.9950027         1.22104149E-09
   72.1754990         1.26878086E-09
   72.3560028         1.31591260E-09
   72.5364990         1.36229139E-09
   72.7170029         1.40770418E-09
   72.8974991         1.45186263E-09
   73.0780029         1.49441615E-09
   73.2584991         1.53496349E-09
   73.4390030         1.57307489E-09
   73.6194992         1.60832170E-09
   73.8000031         1.64030645E-09
   73.9804993         1.66869274E-09
   74.1610031         1.69322745E-09
   74.3414993         1.71375403E-09
   74.5220032         1.73020931E-09
   74.7024994         1.74260573E-09
   74.8830032         1.75100634E-09
   75.0634995         1.75548320E-09
   75.2440033         1.75608883E-09
   75.4244995         1.75283255E-09
   75.6050034         1.74566994E-09
   75.7854996         1.73451342E-09
   75.9660034         1.71925796E-09
   76.1464996         1.69981207E-09
   76.3270035         1.67612979E-09
   76.5074997         1.64823533E-09
   76.6880035         1.61623226E-09
   76.8684998         1.58029756E-09
   77.0490036         1.54066460E-09
   77.2294998         1.49759627E-09
   77.4100037         1.45136214E-09
   77.5904999         1.40221723E-09
   77.7710037         1.35039524E-09
   77.9514999         1.29610533E-09
   78.1320038         1.23953858E-09
   78.3125000         1.18087962E-09
   78.4929962         1.12031084E-09
   78.6735001         1.05801889E-09
   78.8539963         9.94194949E-10
   79.0345001         9.29040012E-10
   79.2149963         8.62764915E-10
   79.3955002         7.95603194E-10
   79.5759964         7.27817862E-10
   79.7565002         6.59714172E-10
   79.9369965         5.91644567E-10
   80.1175003         5.24006116E-10
   80.2979965         4.57231975E-10
   80.4785004         3.91771754E-10
   80.6589966         3.28071487E-10
   80.8395004         2.66553668E-10
   81.0199966         2.07599507E-10
   81.2005005         1.51540086E-10
   81.3809967         9.86510457E-11
   81.5615005         4.91537644E-11
   81.7419968         3.21945899E-12
   81.9225006        -3.90261677E-11
   82.1029968        -7.74992154E-11
   82.2835007        -1.12154182E-10
   82.4639969        -1.42983569E-10
   82.6445007        -1.70016112E-10
   82.8249969        -1.93315655E-10
   83.0055008        -2.12978760E-10
   83.1859970        -2.29131977E-10
   83.3665009        -2.41928116E-10
   83.5469971        -2.51542787E-10
   83.7275009        -2.58170485E-10
   83.9079971        -2.62018962E-10
   84.0885010        -2.63302824E-10
   84.2689972        -2.62235678E-10
   84.4495010        -2.59021748E-10
   84.6299973        -2.53849886E-10
   84.8105011        -2.46889925E-10
   84.9909973        -2.38292969E-10
   85.1715012        -2.28192132E-10
   85.3519974        -2.16706653E-10
   85.5325012        -2.03941697E-10
   85.7129974        -1.89987748E-10
   85.8935013        -1.74914652E-10
   86.0739975        -1.58767319E-10
   86.2545013        -1.41559431E-10
   86.4349976        -1.23271601E-10
   86.6155014        -1.03854661E-10
   86.7959976        -8.32381733E-11
   86.9765015        -6.13478018E-11
   87.1569977        -3.81254507E-11
   87.3375015        -1.35536643E-11
   87.5179977         1.23218293E-11
   87.6985016         3.93771474E-11
   87.8789978         6.74026668E-11
   88.0595016         9.61059080E-11
   88.2399979         1.25124258E-10
   88.4205017         1.54042820E-10
   88.6009979         1.82414125E-10
   88.7815018         2.09776030E-10
   88.9619980         2.35664405E-10
   89.1425018         2.59622407E-10
   89.3229980         2.81205947E-10
   89.5035019         2.99989644E-10
   89.6839981         3.15576176E-10
   89.8645020         3.27612604E-10
   90.0449982         3.35812350E-10
   90.2255020         3.39981349E-10
   90.4059982         3.40042661E-10
   90.5865021         3.36051298E-10
   90.7669983         3.28195943E-10
   90.9475021         3.16782156E-10
   91.1279984         3.02198211E-10
   91.3085022         2.84872431E-10
   91.4889984         2.65229144E-10
   91.6695023         2.43652543E-10
   91.8499985         2.20468574E-10
   92.0305023         1.95945787E-10
   92.2109985         1.70313263E-10
   92.3915024         1.43790702E-10
   92.5719986         1.16617521E-10
   92.7525024         8.90742341E-11
   92.9329987         6.14847409E-11
   93.1135025         3.41971763E-11
   93.2939987         7.54862492E-12
   93.4745026        -1.81837653E-11
   93.6549988        -4.28279218E-11
   93.8355026        -6.63465324E-11
   94.0159988        -8.88466245E-11
   94.1965027        -1.10558895E-10
   94.3769989        -1.31795713E-10
   94.5575027        -1.52895183E-10
   94.7379990        -1.74165612E-10
   94.9185028        -1.95842134E-10
   95.0989990        -2.18061152E-10
   95.2795029        -2.40862663E-10
   95.4599991        -2.64205102E-10
   95.6405029        -2.87994628E-10
   95.8209991        -3.12113280E-10
   96.0015030        -3.36438516E-10
   96.1819992        -3.60849600E-10
   96.3625031        -3.85222798E-10
   96.5429993        -4.09419637E-10
   96.7235031        -4.33273140E-10
   96.9039993        -4.56584631E-10
   97.0845032        -4.79126849E-10
   97.2649994        -5.00661068E-10
   97.4455032        -5.20956611E-10
   97.6259995        -5.39814138E-10
   97.8065033        -5.57082713E-10
   97.9869995        -5.72670134E-10
   98.1675034        -5.86545257E-10
   98.3479996        -5.98734062E-10
   98.5285034        -6.09311435E-10
   98.7089996        -6.18391172E-10
   98.8895035        -6.26109331E-10
   99.0699997        -6.32610186E-10
   99.2505035        -6.38027020E-10
   99.4309998        -6.42465081E-10
   99.6115036        -6.45984211E-10
   99.7919998        -6.48591847E-10
   99.9725037        -6.50239085E-10
   100.153000        -6.50830945E-10
   100.333504        -6.50242304E-10
   100.514000        -6.48343101E-10
   100.694504        -6.45024312E-10
   100.875000        -6.40221376E-10
   101.055496        -6.33927855E-10
   101.236000        -6.26202701E-10
   101.416496        -6.17162155E-10
   101.597000        -6.06964257E-10
   101.777496        -5.95789196E-10
   101.958000        -5.83821824E-10
   102.138496        -5.71237446E-10
   102.319000        -5.58197821E-10
   102.499496        -5.44855883E-10
   102.680000        -5.31367339E-10
   102.860497        -5.17904719E-10
   103.041000        -5.04670139E-10
   103.221497        -4.91899244E-10
   103.402000        -4.79851492E-10
   103.582497        -4.68787120E-10
   103.763000        -4.58934724E-10
   103.943497        -4.50454785E-10
   104.124001        -4.43408477E-10
   104.304497        -4.37743841E-10
   104.485001        -4.33301700E-10
   104.665497        -4.29842550E-10
   104.846001        -4.27089669E-10
   105.026497        -4.24773300E-10
   105.207001        -4.22669733E-10
   105.387497        -4.20618651E-10
   105.568001        -4.18518470E-10
   105.748497        -4.16299939E-10
   105.929001        -4.13887535E-10
   106.109497        -4.11155582E-10
   106.290001        -4.07901463E-10
   106.470497        -4.03834161E-10
   106.651001        -3.98594713E-10
   106.831497        -3.91793348E-10
   107.012001        -3.83063359E-10
   107.192497        -3.72110953E-10
   107.373001        -3.58755164E-10
   107.553497        -3.42947643E-10
   107.734001        -3.24763272E-10
   107.914497        -3.04378106E-10
   108.095001        -2.82031537E-10
   108.275497        -2.57992822E-10
   108.456001        -2.32533437E-10
   108.636497        -2.05918588E-10
   108.817001        -1.78414117E-10
   108.997498        -1.50304491E-10
   109.178001        -1.21916324E-10
   109.358498        -9.36346486E-11
   109.539001        -6.59045873E-11
   109.719498        -3.92133062E-11
   109.900002        -1.40537850E-11
   110.080498         9.12375123E-12
   110.261002         2.99636323E-11
   110.441498         4.82437874E-11
   110.622002         6.38991082E-11
   110.802498         7.70178227E-11
   110.983002         8.78200637E-11
   111.163498         9.66167701E-11
   111.344002         1.03763373E-10
   111.524498         1.09616129E-10