  -34.5000000         0.00000000    
  -34.3199997         0.00000000    
  -34.1399994         0.00000000    
  -33.9599991         0.00000000    
  -33.7799988        -5.49993392E-26
  -33.5999985        -5.32326889E-25
  -33.4199982        -2.40386823E-24
  -33.2400017        -5.76048834E-24
  -33.0600014        -6.66024060E-24
  -32.8800011         9.38783368E-24
  -32.7000008         8.08249907E-23
  -32.5200005         2.49949934E-22
  -32.3400002         4.35608840E-22
  -32.1599998         2.86462708E-22
  -31.9799995        -6.63962388E-22
  -31.7999992        -2.42752448E-21
  -31.6200008        -4.00683421E-21
  -31.4400005        -3.06603198E-21
  -31.2600002         4.67422720E-21
  -31.0799999         2.47287066E-20
  -30.8999996         5.47858457E-20
  -30.7199993         6.28017235E-20
  -30.5400009        -2.61513781E-20
  -30.3600006        -2.77595817E-19
  -30.1800003        -5.95551688E-19
  -30.0000000        -5.75305719E-19
  -29.8199997         3.58575222E-19
  -29.6399994         2.30356917E-18
  -29.4599991         4.00612504E-18
  -29.2800007         2.78198955E-18
  -29.1000004        -3.65426722E-18
  -28.9200001        -1.36983773E-17
  -28.7399998        -1.94072222E-17
  -28.5599995        -9.18174120E-18
  -28.3799992         2.26512823E-17
  -28.2000008         6.39066440E-17
  -28.0200005         8.10466667E-17
  -27.8400002         3.43791880E-17
  -27.6599998        -8.89776347E-17
  -27.4799995        -2.42672478E-16
  -27.2999992        -3.18413290E-16
  -27.1200008        -1.93552150E-16
  -26.9400005         1.80826221E-16
  -26.7600002         6.98048587E-16
  -26.5799999         1.08429302E-15
  -26.3999996         9.98451204E-16
  -26.2199993         2.23415925E-16
  -26.0400009        -1.14029502E-15
  -25.8600006        -2.59986345E-15
  -25.6800003        -3.40002964E-15
  -25.5000000        -2.84436649E-15
  -25.3199997        -6.80153110E-16
  -25.1399994         2.64695509E-15
  -24.9599991         6.03057685E-15
  -24.7800007         8.07067900E-15
  -24.6000004         7.64263175E-15
  -24.4200001         4.42139848E-15
  -24.2399998        -8.91936705E-16
  -24.0599995        -6.77468301E-15
  -23.8799992        -1.14547205E-14
  -23.7000008        -1.36058775E-14
  -23.5200005        -1.28467124E-14
  -23.3400002        -9.79594705E-15
  -23.1599998        -5.63791652E-15
  -22.9799995        -1.39326554E-15
  -22.7999992         2.73734791E-15
  -22.6200008         7.57425840E-15
  -22.4400005         1.44959169E-14
  -22.2600002         2.44115234E-14
  -22.0799999         3.65858772E-14
  -21.8999996         4.79089933E-14
  -21.7199993         5.31226267E-14
  -21.5400009         4.61694620E-14
  -21.3600006         2.23345444E-14
  -21.1800003        -1.95870660E-14
  -21.0000000        -7.60080814E-14
  -20.8199997        -1.38815866E-13
  -20.6399994        -1.97270396E-13
  -20.4599991        -2.40930648E-13
  -20.2800007        -2.62551265E-13
  -20.1000004        -2.59865426E-13
  -19.9200001        -2.35617624E-13
  -19.7399998        -1.95931541E-13
  -19.5599995        -1.47758094E-13
  -19.3799992        -9.64581876E-14
  -19.2000008        -4.44113571E-14
  -19.0200005         8.97950639E-15
  -18.8400002         6.61435628E-14
  -18.6599998         1.29733870E-13
  -18.4799995         2.01300158E-13
  -18.2999992         2.80726614E-13
  -18.1200008         3.66454453E-13
  -17.9400005         4.56124504E-13
  -17.7600002         5.47084025E-13
  -17.5799999         6.36317062E-13
  -17.3999996         7.19683698E-13
  -17.2199993         7.90799934E-13
  -17.0400009         8.40202311E-13
  -16.8600006         8.55528484E-13
  -16.6800003         8.23176922E-13
  -16.5000000         7.31360014E-13
  -16.3199997         5.73842894E-13
  -16.1399994         3.53173382E-13
  -15.9600000         8.22250593E-14
  -15.7799997        -2.16720061E-13
  -15.6000004        -5.15275431E-13
  -15.4200001        -7.83807427E-13
  -15.2399998        -9.96522092E-13
  -15.0600004        -1.13552071E-12
  -14.8800001        -1.19303233E-12
  -14.6999998        -1.17166942E-12
  -14.5200005        -1.08303308E-12
  -14.3400002        -9.45180024E-13
  -14.1599998        -7.79414131E-13
  -13.9799995        -6.06763609E-13
  -13.8000002        -4.44527553E-13
  -13.6199999        -3.03437532E-13
  -13.4399996        -1.86073311E-13
  -13.2600002        -8.71066457E-14
  -13.0799999         4.45898769E-15
  -12.8999996         1.01440788E-13
  -12.7200003         2.13920597E-13
  -12.5400000         3.45171970E-13
  -12.3599997         4.89130112E-13
  -12.1800003         6.30139333E-13
  -12.0000000         7.45175243E-13
  -11.8199997         8.08235748E-13
  -11.6400003         7.96104285E-13
  -11.4600000         6.94325240E-13
  -11.2799997         5.02043502E-13
  -11.1000004         2.34428687E-13
  -10.9200001        -7.80809133E-14
  -10.7399998        -3.93737370E-13
  -10.5600004        -6.65796303E-13
  -10.3800001        -8.49742368E-13
  -10.1999998        -9.09921552E-13
  -10.0200005        -8.24463382E-13
  -9.84000015        -5.88092671E-13
  -9.65999985        -2.12997060E-13
  -9.47999954         2.71881394E-13
  -9.30000019         8.22922785E-13
  -9.11999989         1.38539679E-12
  -8.93999958         1.89876804E-12
  -8.76000023         2.30371191E-12
  -8.57999992         2.55025081E-12
  -8.39999962         2.60570818E-12
  -8.22000027         2.46078570E-12
  -8.03999996         2.13212607E-12
  -7.86000013         1.66031002E-12
  -7.67999983         1.10314644E-12
  -7.50000000         5.25279852E-13
  -7.32000017        -1.39420632E-14
  -7.13999987        -4.71711212E-13
  -6.96000004        -8.29466270E-13
  -6.78000021        -1.09498792E-12
  -6.59999990        -1.29818270E-12
  -6.42000008        -1.48143119E-12
  -6.23999977        -1.68696318E-12
  -6.05999994        -1.94452050E-12
  -5.88000011        -2.26246539E-12
  -5.69999981        -2.62429466E-12
  -5.51999998        -2.99094300E-12
  -5.34000015        -3.30765580E-12
  -5.15999985        -3.51332114E-12
  -4.98000002        -3.55003483E-12
  -4.80000019        -3.37124512E-12
  -4.61999989        -2.94758922E-12
  -4.44000006        -2.27024302E-12
  -4.26000023        -1.35196292E-12
  -4.07999992        -2.26151359E-13
  -3.90000010         1.05590103E-12
  -3.72000003         2.42933299E-12
  -3.53999996         3.82148653E-12
  -3.35999990         5.15882259E-12
  -3.18000007         6.37447126E-12
  -3.00000000         7.41558030E-12
  -2.81999993         8.24925284E-12
  -2.64000010         8.86576576E-12
  -2.46000004         9.27783284E-12
  -2.27999997         9.51555761E-12
  -2.09999990         9.61765910E-12
  -1.91999996         9.62081543E-12
  -1.74000001         9.54967355E-12
  -1.55999994         9.41004566E-12
  -1.38000000         9.18699491E-12
  -1.20000005         8.84812276E-12
  -1.01999998         8.35105422E-12
 -0.839999974         7.65314288E-12
 -0.660000026         6.72121473E-12
 -0.479999989         5.53955449E-12
 -0.300000012         4.11505075E-12
 -0.119999997         2.47903824E-12
   5.99999987E-02     6.85897953E-13
  0.239999995        -1.19146587E-12
  0.419999987        -3.06895893E-12
  0.600000024        -4.86089554E-12
  0.779999971        -6.49085863E-12
  0.959999979        -7.90213468E-12
   1.13999999        -9.06558769E-12
   1.32000005        -9.98283140E-12
   1.50000000        -1.06833214E-11
   1.67999995        -1.12154487E-11
   1.86000001        -1.16334789E-11
   2.03999996        -1.19834863E-11
   2.22000003        -1.22919062E-11
   2.40000010        -1.25595836E-11
   2.57999992        -1.27623953E-11
   2.75999999        -1.28576099E-11
   2.94000006        -1.27937522E-11
   3.11999989        -1.25211707E-11
   3.29999995        -1.20013435E-11
   3.48000002        -1.12138710E-11
   3.66000009        -1.01612191E-11
   3.83999991        -8.87157275E-12
   4.01999998        -7.39972233E-12
   4.19999981        -5.82548896E-12
   4.38000011        -4.24852384E-12
   4.55999994        -2.77896304E-12
   4.73999977        -1.52413347E-12
   4.92000008        -5.73164508E-13
   5.09999990         1.75380086E-14
   5.28000021         2.34076864E-13
   5.46000004         1.07183739E-13
   5.63999987        -2.95281188E-13
   5.82000017        -8.84350536E-13
   6.00000000        -1.57124053E-12
   6.17999983        -2.28851443E-12
   6.36000013        -3.00530889E-12
   6.53999996        -3.73236858E-12
   6.71999979        -4.51531000E-12
   6.90000010        -5.41813512E-12
   7.07999992        -6.50152545E-12
   7.26000023        -7.80177225E-12
   7.44000006        -9.31517277E-12
   7.61999989        -1.09910744E-11
   7.80000019        -1.27340144E-11
   7.98000002        -1.44139258E-11
   8.15999985        -1.58821237E-11
   8.34000015        -1.69907456E-11
   8.52000046        -1.76129129E-11
   8.69999981        -1.76611226E-11
   8.88000011        -1.71009682E-11
   9.06000042        -1.59577074E-11
   9.23999977        -1.43143396E-11
   9.42000008        -1.23011072E-11
   9.60000038        -1.00781883E-11
   9.77999973        -7.81436634E-12
   9.96000004        -5.66493163E-12
   10.1400003        -3.75208588E-12
   10.3199997        -2.15038794E-12
   10.5000000        -8.79843778E-13
   10.6800003         9.20528912E-14
   10.8599997         8.38667785E-13
   11.0400000         1.45431844E-12
   11.2200003         2.03037327E-12
   11.3999996         2.63197146E-12
   11.5799999         3.28170390E-12
   11.7600002         3.95396649E-12
   11.9399996         4.58128587E-12
   12.1199999         5.07015263E-12
   12.3000002         5.32235801E-12
   12.4799995         5.25645846E-12
   12.6599998         4.82469143E-12
   12.8400002         4.02319237E-12
   13.0200005         2.89348363E-12
   13.1999998         1.51571030E-12
   13.3800001        -4.71914877E-15
   13.5600004        -1.55515423E-12
   13.7399998        -3.03457650E-12
   13.9200001        -4.36939287E-12
   14.1000004        -5.52368177E-12
   14.2799997        -6.50151894E-12
   14.4600000        -7.34220237E-12
   14.6400003        -8.10988256E-12
   14.8199997        -8.87956462E-12
   15.0000000        -9.72190731E-12
   15.1800003        -1.06882437E-11
   15.3599997        -1.17978500E-11
   15.5400000        -1.30299365E-11
   15.7200003        -1.43230046E-11
   15.8999996        -1.55831129E-11
   16.0799999        -1.67003963E-11
   16.2600002        -1.75702577E-11
   16.4400005        -1.81133754E-11
   16.6200008        -1.82894828E-11
   16.7999992        -1.81012427E-11
   16.9799995        -1.75892564E-11
   17.1599998        -1.68210740E-11
   17.3400002        -1.58789353E-11
   17.5200005        -1.48486223E-11
   17.7000008        -1.38111892E-11
   17.8799992        -1.28362928E-11
   18.0599995        -1.19769932E-11
   18.2399998        -1.12657331E-11
   18.4200001        -1.07140703E-11
   18.6000004        -1.03167822E-11
   18.7800007        -1.00612617E-11
   18.9599991        -9.93942428E-12
   19.1399994        -9.95878900E-12
   19.3199997        -1.01486016E-11
   19.5000000        -1.05592072E-11
   19.6800003        -1.12540983E-11
   19.8600006        -1.22978667E-11
   20.0400009        -1.37430449E-11
   20.2199993        -1.56191674E-11
   20.3999996        -1.79265162E-11
   20.5799999        -2.06358142E-11
   20.7600002        -2.36930562E-11
   20.9400005        -2.70280690E-11
   21.1200008        -3.05642803E-11
   21.2999992        -3.42264828E-11
   21.4799995        -3.79442762E-11
   21.6599998        -4.16505858E-11
   21.8400002        -4.52772229E-11
   22.0200005        -4.87499069E-11
   22.2000008        -5.19862417E-11
   22.3799992        -5.48982006E-11
   22.5599995        -5.73980065E-11
   22.7399998        -5.94056471E-11
   22.9200001        -6.08547865E-11
   23.1000004        -6.16960025E-11
   23.2800007        -6.18971541E-11
   23.4599991        -6.14428924E-11
   23.6399994        -6.03335784E-11
   23.8199997        -5.85845816E-11
   24.0000000        -5.62252536E-11
   24.1800003        -5.32969328E-11
   24.3600006        -4.98499853E-11
   24.5400009        -4.59411502E-11
   24.7199993        -4.16317258E-11
   24.8999996        -3.69883291E-11
   25.0799999        -3.20836968E-11
   25.2600002        -2.69971701E-11
   25.4400005        -2.18131381E-11
   25.6200008        -1.66160384E-11
   25.7999992        -1.14851887E-11
   25.9799995        -6.48963565E-12
   26.1599998        -1.68651237E-12
   26.3400002         2.87815865E-12
   26.5200005         7.16613661E-12
   26.7000008         1.11447240E-11
   26.8799992         1.47860890E-11
   27.0599995         1.80701877E-11
   27.2399998         2.09892832E-11
   27.4200001         2.35534890E-11
   27.6000004         2.57939260E-11
   27.7800007         2.77632292E-11
   27.9599991         2.95314953E-11
   28.1399994         3.11782856E-11
   28.3199997         3.27828216E-11
   28.5000000         3.44144088E-11
   28.6800003         3.61268168E-11
   28.8600006         3.79593093E-11
   29.0400009         3.99443326E-11
   29.2199993         4.21204287E-11
   29.3999996         4.45453570E-11
   29.5799999         4.73041398E-11
   29.7600002         5.05084446E-11
   29.9400005         5.42865232E-11
   30.1200008         5.87660476E-11
   30.2999992         6.40561978E-11
   30.4799995         7.02337424E-11
   30.6599998         7.73354228E-11
   30.8400002         8.53595250E-11
   31.0200005         9.42717016E-11
   31.2000008         1.04014172E-10
   31.3799992         1.14515619E-10
   31.5599995         1.25699715E-10
   31.7399998         1.37493197E-10
   31.9200001         1.49832730E-10
   32.0999985         1.62670169E-10
   32.2799988         1.75974083E-10
   32.4599991         1.89728261E-10
   32.6399994         2.03924433E-10
   32.8199997         2.18552079E-10
   33.0000000         2.33588010E-10
   33.1800003         2.48987941E-10
   33.3600006         2.64682248E-10
   33.5400009         2.80578921E-10
   33.7200012         2.96569935E-10
   33.9000015         3.12541659E-10
   34.0800018         3.28383210E-10
   34.2599983         3.43992890E-10
   34.4399986         3.59278607E-10
   34.6199989         3.74155817E-10
   34.7999992         3.88541310E-10
   34.9799995         4.02349293E-10
   35.1599998         4.15488977E-10
   35.3400002         4.27865826E-10
   35.5200005         4.39387332E-10
   35.7000008         4.49968618E-10
   35.8800011         4.59538296E-10
   36.0600014         4.68038441E-10
   36.2400017         4.75424367E-10
   36.4199982         4.81659601E-10
   36.5999985         4.86711615E-10
   36.7799988         4.90552099E-10
   36.9599991         4.93159957E-10
   37.1399994         4.94530028E-10
   37.3199997         4.94682462E-10
   37.5000000         4.93670271E-10
   37.6800003         4.91583274E-10
   37.8600006         4.88544150E-10
   38.0400009         4.84699614E-10
   38.2200012         4.80207096E-10
   38.4000015         4.75220696E-10
   38.5800018         4.69876915E-10
   38.7599983         4.64285388E-10
   38.9399986         4.58521360E-10
   39.1199989         4.52624438E-10
   39.2999992         4.46600729E-10
   39.4799995         4.40430359E-10
   39.6599998         4.34075137E-10
   39.8400002         4.27490016E-10
   40.0200005         4.20632806E-10
   40.2000008         4.13472451E-10
   40.3800011         4.05994460E-10
   40.5600014         3.98203082E-10
   40.7400017         3.90120769E-10
   40.9199982         3.81782606E-10
   41.0999985         3.73227171E-10
   41.2799988         3.64483527E-10
   41.4599991         3.55557556E-10
   41.6399994         3.46420975E-10
   41.8199997         3.37009143E-10
   42.0000000         3.27229382E-10
   42.1800003         3.16980608E-10
   42.3600006         3.06180137E-10
   42.5400009         2.94789221E-10
   42.7200012         2.82830981E-10
   42.9000015         2.70395040E-10
   43.0800018         2.57628197E-10
   43.2599983         2.44716136E-10
   43.4399986         2.31858782E-10
   43.6199989         2.19248425E-10
   43.7999992         2.07050349E-10
   43.9799995         1.95391203E-10
   44.1599998         1.84351215E-10
   44.3400002         1.73962705E-10
   44.5200005         1.64211880E-10
   44.7000008         1.55043353E-10
   44.8800011         1.46368334E-10
   45.0600014         1.38073691E-10
   45.2400017         1.30033179E-10
   45.4199982         1.22120009E-10
   45.5999985         1.14219849E-10
   45.7799988         1.06243521E-10
   45.9599991         9.81365961E-11
   46.1399994         8.98822891E-11
   46.3199997         8.14962473E-11
   46.5000000         7.30137964E-11
   46.6800003         6.44713172E-11
   46.8600006         5.58888422E-11
   47.0400009         4.72575520E-11
   47.2200012         3.85362367E-11
   47.4000015         2.96573460E-11
   47.5800018         2.05389108E-11
   47.7599983         1.11002648E-11
   47.9399986         1.27873363E-12
   48.1199989        -8.95629231E-12
   48.2999992        -1.95913667E-11
   48.4799995        -3.05630452E-11
   48.6599998        -4.17597242E-11
   48.8400002        -5.30343686E-11
   49.0200005        -6.42268044E-11
   49.2000008        -7.51935111E-11
   49.3800011        -8.58374066E-11
   49.5600014        -9.61322064E-11
   49.7400017        -1.06133290E-10
   49.9199982        -1.15975528E-10
   50.0999985        -1.25854965E-10
   50.2799988        -1.36002209E-10
   50.4599991        -1.46648985E-10
   50.6399994        -1.57996546E-10
   50.8199997        -1.70189071E-10
   51.0000000        -1.83299737E-10
   51.1800003        -1.97331124E-10
   51.3600006        -2.12231899E-10
   51.5400009        -2.27924263E-10
   51.7200012        -2.44337356E-10
   51.9000015        -2.61434180E-10
   52.0800018        -2.79228279E-10
   52.2599983        -2.97784908E-10
   52.4399986        -3.17209203E-10
   52.6199989        -3.37624317E-10
   52.7999992        -3.59149988E-10
   52.9799995        -3.81879334E-10
   53.1599998        -4.05861789E-10
   53.3400002        -4.31090358E-10
   53.5200005        -4.57495902E-10
   53.7000008        -4.84946305E-10
   53.8800011        -5.13255827E-10
   54.0600014        -5.42199563E-10
   54.2400017        -5.71533543E-10
   54.4199982        -6.01015682E-10
   54.5999985        -6.30424490E-10
   54.7799988        -6.59573340E-10
   54.9599991        -6.88319512E-10
   55.1399994        -7.16565252E-10
   55.3199997        -7.44255602E-10
   55.5000000        -7.71368247E-10
   55.6800003        -7.97900690E-10
   55.8600006        -8.23855095E-10
   56.0400009        -8.49227022E-10
   56.2200012        -8.74003259E-10
   56.4000015        -8.98165597E-10
   56.5800018        -9.21705545E-10
   56.7599983        -9.44638257E-10
   56.9399986        -9.67011138E-10
   57.1199989        -9.88905069E-10
   57.2999992        -1.01041819E-09
   57.4799995        -1.03164755E-09
   57.6599998        -1.05266518E-09
   57.8400002        -1.07350107E-09
   58.0200005        -1.09413290E-09
   58.2000008        -1.11448650E-09
   58.3800011        -1.13444321E-09
   58.5600014        -1.15385301E-09
   58.7400017        -1.17255028E-09
   58.9199982        -1.19036281E-09
   59.0999985        -1.20712118E-09
   59.2799988        -1.22265853E-09
   59.4599991        -1.23680843E-09
   59.6399994        -1.24940025E-09
   59.8199997        -1.26025679E-09
   60.0000000        -1.26919830E-09
   60.1800003        -1.27605104E-09
   60.3600006        -1.28065447E-09
   60.5400009        -1.28286992E-09
   60.7200012        -1.28258015E-09
   60.9000015        -1.27968991E-09
   61.0800018        -1.27412214E-09
   61.2599983        -1.26582334E-09
   61.4399986        -1.25477717E-09
   61.6199989        -1.24102151E-09
   61.7999992        -1.22466826E-09
   61.9799995        -1.20591548E-09
   62.1599998        -1.18504528E-09
   62.3400002        -1.16241228E-09
   62.5200005        -1.13841780E-09
   62.7000008        -1.11348153E-09
   62.8800011        -1.08801312E-09
   63.0600014        -1.06238773E-09
   63.2400017        -1.03692566E-09
   63.4199982        -1.01188047E-09
   63.5999985        -9.87431803E-10
   63.7799988        -9.63688795E-10
   63.9599991        -9.40697409E-10
   64.1399994        -9.18458032E-10
   64.3199997        -8.96946517E-10
   64.5000000        -8.76135164E-10
   64.6800003        -8.56011984E-10
   64.8600006        -8.36587077E-10
   65.0400009        -8.17891199E-10
   65.2200012        -7.99955380E-10
   65.4000015        -7.82778453E-10
   65.5800018        -7.66286701E-10
   65.7600021        -7.50298212E-10
   65.9400024        -7.34497685E-10
   66.1200027        -7.18436921E-10
   66.3000031        -7.01561143E-10
   66.4800034        -6.83259171E-10
   66.6600037        -6.62930044E-10
   66.8399963        -6.40047904E-10
   67.0199966        -6.14217954E-10
   67.1999969        -5.85212212E-10
   67.3799973        -5.52984658E-10
   67.5599976        -5.17662690E-10
   67.7399979        -4.79525308E-10
   67.9199982        -4.38964337E-10
   68.0999985        -3.96441768E-10
   68.2799988        -3.52439244E-10
   68.4599991        -3.07412651E-10
   68.6399994        -2.61753896E-10
   68.8199997        -2.15766183E-10
   69.0000000        -1.69661396E-10
   69.1800003        -1.23578481E-10
   69.3600006        -7.76189252E-11
   69.5400009        -3.18978073E-11
   69.7200012         1.34088504E-11
   69.9000015         5.80252409E-11
   70.0800018         1.01561301E-10
   70.2600021         1.43528384E-10
   70.4400024         1.83387097E-10
   70.6200027         2.20618177E-10
   70.8000031         2.54803706E-10
   70.9800034         2.85702295E-10
   71.1600037         3.13296861E-10
   71.3399963         3.37810308E-10
   71.5199966         3.59675789E-10
   71.6999969         3.79475396E-10
   71.8799973         3.97849531E-10
   72.0599976         4.15400603E-10
   72.2399979         4.32603314E-10
   72.4199982         4.49739357E-10
   72.5999985         4.66863714E-10
   72.7799988         4.83811824E-10
   72.9599991         5.00238073E-10
   73.1399994         5.15684162E-10
   73.3199997         5.29659483E-10
   73.5000000         5.41724166E-10
   73.6800003         5.51559964E-10
   73.8600006         5.59021274E-10
   74.0400009         5.64154168E-10
   74.2200012         5.67188074E-10
   74.4000015         5.68497249E-10
   74.5800018         5.68539160E-10
   74.7600021         5.67781100E-10
   74.9400024         5.66631575E-10
   75.1200027         5.65381131E-10
   75.3000031         5.64173208E-10
   75.4800034         5.63005698E-10
   75.6600037         5.61758473E-10
   75.8399963         5.60245794E-10
   76.0199966         5.58280477E-10
   76.1999969         5.55737789E-10
   76.3799973         5.52610790E-10
   76.5599976         5.49046697E-10
   76.7399979         5.45358703E-10
   76.9199982         5.42010825E-10
   77.0999985         5.39574385E-10
   77.2799988         5.38659672E-10
   77.4599991         5.39832345E-10
   77.6399994         5.43528944E-10
   77.8199997         5.49984225E-10
   78.0000000         5.59182034E-10
   78.1800003         5.70846370E-10
   78.3600006         5.84469084E-10
   78.5400009         5.99373273E-10
   78.7200012         6.14804929E-10
   78.9000015         6.30032415E-10
   79.0800018         6.44438669E-10
   79.2600021         6.57586319E-10
   79.4400024         6.69250433E-10
   79.6200027         6.79403422E-10
   79.8000031         6.88168633E-10
   79.9800034         6.95745683E-10
   80.1600037         7.02326586E-10
   80.3399963         7.08023196E-10
   80.5199966         7.12812587E-10
   80.6999969         7.16518289E-10
   80.8799973         7.18822835E-10
   81.0599976         7.19316384E-10
   81.2399979         7.17565951E-10
   81.4199982         7.13196335E-10
   81.5999985         7.05969116E-10
   81.7799988         6.95839331E-10
   81.9599991         6.82984724E-10
   82.1399994         6.67793987E-10
   82.3199997         6.50823617E-10
   82.5000000         6.32725483E-10
   82.6800003         6.14161166E-10
   82.8600006         5.95716976E-10
   83.0400009         5.77835946E-10
   83.2200012         5.60773372E-10
   83.4000015         5.44584211E-10
   83.5800018         5.29140842E-10
   83.7600021         5.14180976E-10
   83.9400024         4.99369435E-10
   84.1200027         4.84367213E-10
   84.3000031         4.68894201E-10
   84.4800034         4.52772625E-10
   84.6600037         4.35946085E-10
   84.8399963         4.18472645E-10
   85.0199966         4.00497080E-10
   85.1999969         3.82208071E-10
   85.3799973         3.63790637E-10
   85.5599976         3.45383305E-10
   85.7399979         3.27046917E-10
   85.9199982         3.08752579E-10
   86.0999985         2.90387880E-10
   86.2799988         2.71784012E-10
   86.4599991         2.52753568E-10
   86.6399994         2.33133152E-10
   86.8199997         2.12821635E-10
   87.0000000         1.91806376E-10
   87.1800003         1.70172113E-10
   87.3600006         1.48094606E-10
   87.5400009         1.25817148E-10
   87.7200012         1.03618426E-10
   87.9000015         8.17739904E-11
   88.0800018         6.05171399E-11
   88.2600021         4.00071781E-11
   88.4400024         2.03077468E-11
   88.6200027         1.38259554E-12
   88.8000031        -1.68908030E-11
   88.9800034        -3.46900321E-11
   89.1600037        -5.22028427E-11
   89.3399963        -6.95787941E-11
   89.5199966        -8.68842914E-11
   89.6999969        -1.04070322E-10
   89.8799973        -1.20962976E-10
   90.0599976        -1.37274914E-10
   90.2399979        -1.52642052E-10
   90.4199982        -1.66676131E-10
   90.5999985        -1.79023033E-10
   90.7799988        -1.89417787E-10
   90.9599991        -1.97719507E-10
   91.1399994        -2.03927042E-10
   91.3199997        -2.08168441E-10
   91.5000000        -2.10669551E-10
   91.6800003        -2.11712314E-10
   91.8600006        -2.11586818E-10
   92.0400009        -2.10548343E-10
   92.2200012        -2.08784101E-10
   92.4000015        -2.06394457E-10
   92.5800018        -2.03393857E-10
   92.7600021        -1.99731856E-10
   92.9400024        -1.95333777E-10
   93.1200027        -1.90153782E-10
   93.3000031        -1.84227036E-10
   93.4800034        -1.77711693E-10
   93.6600037        -1.70904749E-10
   93.8399963        -1.64230088E-10
   94.0199966        -1.58196664E-10
   94.1999969        -1.53338592E-10
   94.3799973        -1.50145313E-10
   94.5599976        -1.49000118E-10
   94.7399979        -1.50131366E-10
   94.9199982        -1.53592972E-10
   95.0999985        -1.59268279E-10
   95.2799988        -1.66903727E-10
   95.4599991        -1.76158893E-10
   95.6399994        -1.86668181E-10
   95.8199997        -1.98097511E-10
   96.0000000        -2.10188783E-10
   96.1800003        -2.22781876E-10
   96.3600006        -2.35814201E-10
   96.5400009        -2.49298610E-10
   96.7200012        -2.63285060E-10
   96.9000015        -2.77817130E-10
   97.0800018        -2.92885494E-10
   97.2600021        -3.08393533E-10
   97.4400024        -3.24138494E-10
   97.6200027        -3.39816092E-10
   97.8000031        -3.55049184E-10
   97.9800034        -3.69436176E-10
   98.1600037        -3.82609444E-10
   98.3399963        -3.94291932E-10
   98.5199966        -4.04338951E-10
   98.6999969        -4.12759243E-10
   98.8799973        -4.19710655E-10
   99.0599976        -4.25474711E-10
   99.2399979        -4.30416092E-10
   99.4199982        -4.34931285E-10
   99.5999985        -4.39394077E-10
   99.7799988        -4.44106418E-10
   99.9599991        -4.49259852E-10
   100.139999        -4.54916049E-10
   100.320000        -4.61010591E-10
   100.500000        -4.67379524E-10
   100.680000        -4.73802386E-10
   100.860001        -4.80050444E-10
   101.040001        -4.85932405E-10
   101.220001        -4.91328422E-10
   101.400002        -4.96204355E-10
   101.580002        -5.00612718E-10
   101.760002        -5.04675302E-10
   101.940002        -5.08555031E-10
   102.120003        -5.12420162E-10
   102.300003        -5.16405918E-10
   102.480003        -5.20582299E-10
   102.660004        -5.24934596E-10
   102.839996        -5.29361444E-10
   103.019997        -5.33690259E-10
   103.199997        -5.37706324E-10
   103.379997        -5.41187706E-10
   103.559998        -5.43939505E-10
   103.739998        -5.45821000E-10
   103.919998        -5.46765078E-10
   104.099998        -5.46786394E-10
   104.279999        -5.45980650E-10
   104.459999        -5.44510437E-10
   104.639999        -5.42578371E-10
   104.820000        -5.40391454E-10
   105.000000        -5.38119216E-10
   105.180000        -5.35856415E-10
   105.360001        -5.33599720E-10
   105.540001        -5.31240607E-10
   105.720001        -5.28583122E-10
   105.900002        -5.25374300E-10
   106.080002        -5.21346299E-10
   106.260002        -5.16261589E-10
   106.440002        -5.09953191E-10
   106.620003        -5.02353437E-10
   106.800003        -4.93512398E-10
   106.980003        -4.83594886E-10
   107.160004        -4.72863859E-10
   107.339996        -4.61644084E-10
   107.519997        -4.50278315E-10
   107.699997        -4.39073694E-10
   107.879997        -4.28254099E-10
   108.059998        -4.17922308E-10
   108.239998        -4.08039852E-10
   108.419998        -3.98431371E-10
   108.599998        -3.88814009E-10
   108.779999        -3.78849285E-10
   108.959999        -3.68207909E-10
   109.139999        -3.56636276E-10
   109.320000        -3.44007822E-10
   109.500000        -3.30344113E-10
   109.680000        -3.15807130E-10
   109.860001        -3.00657166E-10
   110.040001        -2.85196144E-10
   110.220001        -2.69707229E-10
   110.400002        -2.54409854E-10
   110.580002        -2.39434195E-10
   110.760002        -2.24821869E-10
   110.940002        -2.10543291E-10
   111.120003        -1.96524214E-10