  -34.5000000       0.00000000    
  -34.3199997       0.00000000    
  -34.1399994       0.00000000    
  -33.9599991      -2.13701764E-28
  -33.7799988      -2.16066118E-25
  -33.5999985       5.63024267E-24
  -33.4199982       1.90475877E-23
  -33.2400017      -6.47413349E-23
  -33.0600014      -4.36485145E-22
  -32.8800011      -8.87757860E-22
  -32.7000008      -7.23458909E-22
  -32.5200005      -5.37902289E-23
  -32.3400002       6.58675480E-22
  -32.1599998       5.99029740E-21
  -31.9799995       2.55661930E-20
  -31.7999992       5.18730714E-20
  -31.6200008       3.27898757E-20
  -31.4400005      -9.85877733E-20
  -31.2600002      -3.08812760E-19
  -31.0799999      -3.71435425E-19
  -30.8999996       1.15302386E-20
  -30.7199993       8.40960925E-19
  -30.5400009       1.51427147E-18
  -30.3600006       1.04706135E-18
  -30.1800003      -1.06418544E-18
  -30.0000000      -3.90942970E-18
  -29.8199997      -5.10512382E-18
  -29.6399994      -2.10931222E-18
  -29.4599991       5.62602510E-18
  -29.2800007       1.50521543E-17
  -29.1000004       1.98363718E-17
  -28.9200001       1.30276124E-17
  -28.7399998      -8.78209136E-18
  -28.5599995      -4.16384754E-17
  -28.3799992      -7.28228900E-17
  -28.2000008      -8.33630041E-17
  -28.0200005      -5.47155424E-17
  -27.8400002       2.17770715E-17
  -27.6599998       1.35804978E-16
  -27.4799995       2.53771547E-16
  -27.2999992       3.23442840E-16
  -27.1200008       2.89348731E-16
  -26.9400005       1.16143543E-16
  -26.7600002      -1.87943508E-16
  -26.5799999      -5.58265757E-16
  -26.3999996      -8.80496625E-16
  -26.2199993      -1.01942236E-15
  -26.0400009      -8.63292539E-16
  -25.8600006      -3.69477624E-16
  -25.6800003       4.05789636E-16
  -25.5000000       1.30719450E-15
  -25.3199997       2.11361931E-15
  -25.1399994       2.59650814E-15
  -24.9599991       2.58458191E-15
  -24.7800007       2.01259433E-15
  -24.6000004       9.37156512E-16
  -24.4200001      -4.85002278E-16
  -24.2399998      -2.04680789E-15
  -24.0599995      -3.54946488E-15
  -23.8799992      -4.84949402E-15
  -23.7000008      -5.88085150E-15
  -23.5200005      -6.64979859E-15
  -23.3400002      -7.20968017E-15
  -23.1599998      -7.62678207E-15
  -22.9799995      -7.94680636E-15
  -22.7999992      -8.16765241E-15
  -22.6200008      -8.22107902E-15
  -22.4400005      -7.96551986E-15
  -22.2600002      -7.19360349E-15
  -22.0799999      -5.65796282E-15
  -21.8999996      -3.11665434E-15
  -21.7199993       6.05617599E-16
  -21.5400009       5.55072930E-15
  -21.3600006       1.15695815E-14
  -21.1800003       1.82904043E-14
  -21.0000000       2.51267309E-14
  -20.8199997       3.13307662E-14
  -20.6399994       3.60869646E-14
  -20.4599991       3.86281956E-14
  -20.2800007       3.83488407E-14
  -20.1000004       3.48901172E-14
  -19.9200001       2.81838135E-14
  -19.7399998       1.84586081E-14
  -19.5599995       6.22705758E-15
  -19.3799992      -7.72476938E-15
  -19.2000008      -2.23353372E-14
  -19.0200005      -3.62656004E-14
  -18.8400002      -4.79255544E-14
  -18.6599998      -5.55598658E-14
  -18.4799995      -5.74029214E-14
  -18.2999992      -5.18822893E-14
  -18.1200008      -3.78237277E-14
  -17.9400005      -1.46048877E-14
  -17.7600002       1.77783288E-14
  -17.5799999       5.87315298E-14
  -17.3999996       1.07137443E-13
  -17.2199993       1.61440956E-13
  -17.0400009       2.19706794E-13
  -16.8600006       2.79640731E-13
  -16.6800003       3.38596691E-13
  -16.5000000       3.93610302E-13
  -16.3199997       4.41496720E-13
  -16.1399994       4.79027300E-13
  -15.9600000       5.03167332E-13
  -15.7799997       5.11324002E-13
  -15.6000004       5.01551925E-13
  -15.4200001       4.72668833E-13
  -15.2399998       4.24271729E-13
  -15.0600004       3.56672808E-13
  -14.8800001       2.70799984E-13
  -14.6999998       1.68106184E-13
  -14.5200005       5.05164995E-14
  -14.3400002      -7.95865449E-14
  -14.1599998      -2.19358860E-13
  -13.9799995      -3.65502252E-13
  -13.8000002      -5.14303552E-13
  -13.6199999      -6.61714769E-13
  -13.4399996      -8.03459892E-13
  -13.2600002      -9.35162212E-13
  -13.0799999      -1.05248026E-12
  -12.8999996      -1.15126149E-12
  -12.7200003      -1.22772192E-12
  -12.5400000      -1.27865535E-12
  -12.3599997      -1.30165561E-12
  -12.1800003      -1.29531238E-12
  -12.0000000      -1.25932413E-12
  -11.8199997      -1.19449524E-12
  -11.6400003      -1.10259751E-12
  -11.4600000      -9.86133701E-13
  -11.2799997      -8.48056922E-13
  -11.1000004      -6.91507886E-13
  -10.9200001      -5.19619449E-13
  -10.7399998      -3.35391545E-13
  -10.5600004      -1.41634913E-13
  -10.3800001       5.90480965E-14
  -10.1999998       2.64256959E-13
  -10.0200005       4.71768458E-13
  -9.84000015       6.79480886E-13
  -9.65999985       8.85321276E-13
  -9.47999954       1.08712139E-12
  -9.30000019       1.28247651E-12
  -9.11999989       1.46863164E-12
  -8.93999958       1.64242806E-12
  -8.76000023       1.80034514E-12
  -8.57999992       1.93863892E-12
  -8.39999962       2.05356218E-12
  -8.22000027       2.14161523E-12
  -8.03999996       2.19978116E-12
  -7.86000013       2.22568882E-12
  -7.67999983       2.21771104E-12
  -7.50000000       2.17501342E-12
  -7.32000017       2.09758838E-12
  -7.13999987       1.98631216E-12
  -6.96000004       1.84299993E-12
  -6.78000021       1.67041934E-12
  -6.59999990       1.47220452E-12
  -6.42000008       1.25259807E-12
  -6.23999977       1.01607080E-12
  -6.05999994       7.66859720E-13
  -5.88000011       5.08542427E-13
  -5.69999981       2.43755808E-13
  -5.51999998      -2.58808833E-14
  -5.34000015      -2.99626778E-13
  -5.15999985      -5.77313208E-13
  -4.98000002      -8.58957924E-13
  -4.80000019      -1.14437463E-12
  -4.61999989      -1.43287259E-12
  -4.44000006      -1.72308034E-12
  -4.26000023      -2.01290720E-12
  -4.07999992      -2.29968692E-12
  -3.90000010      -2.58040551E-12
  -3.72000003      -2.85202027E-12
  -3.53999996      -3.11175673E-12
  -3.35999990      -3.35733936E-12
  -3.18000007      -3.58709221E-12
  -3.00000000      -3.79984889E-12
  -2.81999993      -3.99473423E-12
  -2.64000010      -4.17076920E-12
  -2.46000004      -4.32647277E-12
  -2.27999997      -4.45949744E-12
  -2.09999990      -4.56635641E-12
  -1.91999996      -4.64244268E-12
  -1.74000001      -4.68223073E-12
  -1.55999994      -4.67968763E-12
  -1.38000000      -4.62879561E-12
  -1.20000005      -4.52404737E-12
  -1.01999998      -4.36082333E-12
 -0.839999974      -4.13558510E-12
 -0.660000026      -3.84596651E-12
 -0.479999989      -3.49077386E-12
 -0.300000012      -3.07005072E-12
 -0.119999997      -2.58524127E-12
   5.99999987E-02  -2.03942419E-12
  0.239999995      -1.43750951E-12
  0.419999987      -7.86329389E-13
  0.600000024      -9.44838961E-14
  0.779999971       6.28035709E-13
  0.959999979       1.37046700E-12
   1.13999999       2.12186800E-12
   1.32000005       2.87173367E-12
   1.50000000       3.61031821E-12
   1.67999995       4.32879557E-12
   1.86000001       5.01916564E-12
   2.03999996       5.67409834E-12
   2.22000003       6.28669903E-12
   2.40000010       6.85049456E-12
   2.57999992       7.35948889E-12
   2.75999999       7.80843966E-12
   2.94000006       8.19316316E-12
   3.11999989       8.51086909E-12
   3.29999995       8.76036830E-12
   3.48000002       8.94217599E-12
   3.66000009       9.05844236E-12
   3.83999991       9.11276696E-12
   4.01999998       9.10982401E-12
   4.19999981       9.05486536E-12
   4.38000011       8.95313598E-12
   4.55999994       8.80918342E-12
   4.73999977       8.62630800E-12
   4.92000008       8.40618200E-12
   5.09999990       8.14888261E-12
   5.28000021       7.85322155E-12
   5.46000004       7.51742418E-12
   5.63999987       7.13990759E-12
   5.82000017       6.71998351E-12
   6.00000000       6.25831938E-12
   6.17999983       5.75705846E-12
   6.36000013       5.21961164E-12
   6.53999996       4.65028927E-12
   6.71999979       4.05382932E-12
   6.90000010       3.43504717E-12
   7.07999992       2.79856498E-12
   7.26000023       2.14870049E-12
   7.44000006       1.48945580E-12
   7.61999989       8.24505666E-13
   7.80000019       1.57294018E-13
   7.98000002      -5.08830337E-13
   8.15999985      -1.17040069E-12
   8.34000015      -1.82341273E-12
   8.52000046      -2.46296082E-12
   8.69999981      -3.08281460E-12
   8.88000011      -3.67527536E-12
   9.06000042      -4.23138304E-12
   9.23999977      -4.74141039E-12
   9.42000008      -5.19570368E-12
   9.60000038      -5.58565867E-12
   9.77999973      -5.90439676E-12
   9.96000004      -6.14739856E-12
   10.1400003      -6.31239765E-12
   10.3199997      -6.39911431E-12
   10.5000000      -6.40864835E-12
   10.6800003      -6.34283815E-12
   10.8599997      -6.20373024E-12
   11.0400000      -5.99335121E-12
   11.2200003      -5.71375499E-12
   11.3999996      -5.36725829E-12
   11.5799999      -4.95686088E-12
   11.7600002      -4.48682064E-12
   11.9399996      -3.96311152E-12
   12.1199999      -3.39380433E-12
   12.3000002      -2.78930373E-12
   12.4799995      -2.16220141E-12
   12.6599998      -1.52684451E-12
   12.8400002      -8.98429172E-13
   13.0200005      -2.91761786E-13
   13.1999998       2.79811683E-13
   13.3800001       8.05702022E-13
   13.5600004       1.27866099E-12
   13.7399998       1.69481605E-12
   13.9200001       2.05322977E-12
   14.1000004       2.35495000E-12
   14.2799997       2.60193082E-12
   14.4600000       2.79607414E-12
   14.6400003       2.93868944E-12
   14.8199997       3.03040839E-12
   15.0000000       3.07152394E-12
   15.1800003       3.06251921E-12
   15.3599997       3.00467832E-12
   15.5400000       2.90049582E-12
   15.7200003       2.75379502E-12
   15.8999996       2.56969424E-12
   16.0799999       2.35426630E-12
   16.2600002       2.11438896E-12
   16.4400005       1.85757334E-12
   16.6200008       1.59184081E-12
   16.7999992       1.32581272E-12
   16.9799995       1.06877788E-12
   17.1599998       8.30490787E-13
   17.3400002       6.20772964E-13
   17.5200005       4.49000727E-13
   17.7000008       3.23593799E-13
   17.8799992       2.51535202E-13
   18.0599995       2.38308478E-13
   18.2399998       2.88079321E-13
   18.4200001       4.04180568E-13
   18.6000004       5.89646604E-13
   18.7800007       8.47601882E-13
   18.9599991       1.18143125E-12
   19.1399994       1.59456779E-12
   19.3199997       2.09025093E-12
   19.5000000       2.67108124E-12
   19.6800003       3.33863774E-12
   19.8600006       4.09315984E-12
   20.0400009       4.93324565E-12
   20.2199993       5.85565190E-12
   20.3999996       6.85484178E-12
   20.5799999       7.92293574E-12
   20.7600002       9.04951721E-12
   20.9400005       1.02222701E-11
   21.1200008       1.14278708E-11
   21.2999992       1.26534330E-11
   21.4799995       1.38884104E-11
   21.6599998       1.51262822E-11
   21.8400002       1.63660231E-11
   22.0200005       1.76123352E-11
   22.2000008       1.88751757E-11
   22.3799992       2.01681588E-11
   22.5599995       2.15063922E-11
   22.7399998       2.29043694E-11
   22.9200001       2.43744053E-11
   23.1000004       2.59260009E-11
   23.2800007       2.75659860E-11
   23.4599991       2.92992158E-11
   23.6399994       3.11293595E-11
   23.8199997       3.30591735E-11
   24.0000000       3.50903091E-11
   24.1800003       3.72224057E-11
   24.3600006       3.94520840E-11
   24.5400009       4.17718256E-11
   24.7199993       4.41694008E-11
   24.8999996       4.66274346E-11
   25.0799999       4.91236739E-11
   25.2600002       5.16314248E-11
   25.4400005       5.41200834E-11
   25.6200008       5.65560064E-11
   25.7999992       5.89034446E-11
   25.9799995       6.11257711E-11
   26.1599998       6.31870667E-11
   26.3400002       6.50535389E-11
   26.5200005       6.66952049E-11
   26.7000008       6.80869458E-11
   26.8799992       6.92093535E-11
   27.0599995       7.00484185E-11
   27.2399998       7.05950923E-11
   27.4200001       7.08444206E-11
   27.6000004       7.07943704E-11
   27.7800007       7.04453995E-11
   27.9599991       6.98000407E-11
   28.1399994       6.88629223E-11
   28.3199997       6.76408651E-11
   28.5000000       6.61427441E-11
   28.6800003       6.43790507E-11
   28.8600006       6.23610052E-11
   29.0400009       6.00997099E-11
   29.2199993       5.76056113E-11
   29.3999996       5.48883612E-11
   29.5799999       5.19565502E-11
   29.7600002       4.88183036E-11
   29.9400005       4.54813132E-11
   30.1200008       4.19529828E-11
   30.2999992       3.82400153E-11
   30.4799995       3.43481632E-11
   30.6599998       3.02823981E-11
   30.8400002       2.60474836E-11
   31.0200005       2.16490818E-11
   31.2000008       1.70956582E-11
   31.3799992       1.23995293E-11
   31.5599995       7.57804410E-12
   31.7399998       2.65353494E-12
   31.9200001      -2.34764421E-12
   32.0999985      -7.39671605E-12
   32.2799988      -1.24639856E-11
   32.4599991      -1.75200427E-11
   32.6399994      -2.25361899E-11
   32.8199997      -2.74843360E-11
   33.0000000      -3.23357556E-11
   33.1800003      -3.70608336E-11
   33.3600006      -4.16281419E-11
   33.5400009      -4.60054772E-11
   33.7200012      -5.01605875E-11
   33.9000015      -5.40632365E-11
   34.0800018      -5.76867651E-11
   34.2599983      -6.10095585E-11
   34.4399986      -6.40158968E-11
   34.6199989      -6.66956906E-11
   34.7999992      -6.90445479E-11
   34.9799995      -7.10628917E-11
   35.1599998      -7.27550797E-11
   35.3400002      -7.41289877E-11
   35.5200005      -7.51949891E-11
   35.7000008      -7.59655047E-11
   35.8800011      -7.64545371E-11
   36.0600014      -7.66775671E-11
   36.2400017      -7.66518654E-11
   36.4199982      -7.63972913E-11
   36.5999985      -7.59371316E-11
   36.7799988      -7.52980941E-11
   36.9599991      -7.45101758E-11
   37.1399994      -7.36050526E-11
   37.3199997      -7.26138039E-11
   37.5000000      -7.15641019E-11
   37.6800003      -7.04780401E-11
   37.8600006      -6.93703775E-11
   38.0400009      -6.82482751E-11
   38.2200012      -6.71128500E-11
   38.4000015      -6.59607716E-11
   38.5800018      -6.47867454E-11
   38.7599983      -6.35858241E-11
   38.9399986      -6.23540594E-11
   39.1199989      -6.10892656E-11
   39.2999992      -5.97902353E-11
   39.4799995      -5.84561705E-11
   39.6599998      -5.70858361E-11
   39.8400002      -5.56773308E-11
   40.0200005      -5.42284447E-11
   40.2000008      -5.27372729E-11
   40.3800011      -5.12030522E-11
   40.5600014      -4.96268270E-11
   40.7400017      -4.80123129E-11
   40.9199982      -4.63660603E-11
   41.0999985      -4.46978878E-11
   41.2799988      -4.30211283E-11
   41.4599991      -4.13522931E-11
   41.6399994      -3.97104433E-11
   41.8199997      -3.81157571E-11
   42.0000000      -3.65876288E-11
   42.1800003      -3.51425521E-11
   42.3600006      -3.37919935E-11
   42.5400009      -3.25412197E-11
   42.7200012      -3.13887319E-11
   42.9000015      -3.03270811E-11
   43.0800018      -2.93440411E-11
   43.2599983      -2.84239264E-11
   43.4399986      -2.75490464E-11
   43.6199989      -2.67001074E-11
   43.7999992      -2.58561627E-11
   43.9799995      -2.49944752E-11
   44.1599998      -2.40906652E-11
   44.3400002      -2.31187153E-11
   44.5200005      -2.20524987E-11
   44.7000008      -2.08671171E-11
   44.8800011      -1.95402739E-11
   45.0600014      -1.80531094E-11
   45.2400017      -1.63904723E-11
   45.4199982      -1.45398554E-11
   45.5999985      -1.24899474E-11
   45.7799988      -1.02286686E-11
   45.9599991      -7.74201883E-12
   46.1399994      -5.01356292E-12
   46.3199997      -2.02493534E-12
   46.5000000       1.24306934E-12
   46.6800003       4.80881914E-12
   46.8600006       8.68837988E-12
   47.0400009       1.28940357E-11
   47.2200012       1.74333308E-11
   47.4000015       2.23082768E-11
   47.5800018       2.75152106E-11
   47.7599983       3.30448412E-11
   47.9399986       3.88830738E-11
   48.1199989       4.50116715E-11
   48.2999992       5.14099145E-11
   48.4799995       5.80563132E-11
   48.6599998       6.49293327E-11
   48.8400002       7.20076360E-11
   49.0200005       7.92689664E-11
   49.2000008       8.66881011E-11
   49.3800011       9.42335168E-11
   49.5600014       1.01864996E-10
   49.7400017       1.09531759E-10
   49.9199982       1.17172383E-10
   50.0999985       1.24717556E-10
   50.2799988       1.32093447E-10
   50.4599991       1.39227463E-10
   50.6399994       1.46053017E-10
   50.8199997       1.52513599E-10
   51.0000000       1.58565480E-10
   51.1800003       1.64178282E-10
   51.3600006       1.69333991E-10
   51.5400009       1.74025364E-10
   51.7200012       1.78253995E-10
   51.9000015       1.82028184E-10
   52.0800018       1.85361310E-10
   52.2599983       1.88270954E-10
   52.4399986       1.90777394E-10
   52.6199989       1.92902860E-10
   52.7999992       1.94670988E-10
   52.9799995       1.96106062E-10
   53.1599998       1.97231675E-10
   53.3400002       1.98071393E-10
   53.5200005       1.98647154E-10
   53.7000008       1.98979347E-10
   53.8800011       1.99085262E-10
   54.0600014       1.98978792E-10
   54.2400017       1.98669706E-10
   54.4199982       1.98163305E-10
   54.5999985       1.97461242E-10
   54.7799988       1.96562572E-10
   54.9599991       1.95466338E-10
   55.1399994       1.94173122E-10
   55.3199997       1.92687741E-10
   55.5000000       1.91020630E-10
   55.6800003       1.89188748E-10
   55.8600006       1.87215465E-10
   56.0400009       1.85130244E-10
   56.2200012       1.82968349E-10
   56.4000015       1.80770537E-10
   56.5800018       1.78582760E-10
   56.7599983       1.76456336E-10
   56.9399986       1.74448067E-10
   57.1199989       1.72618669E-10
   57.2999992       1.71031994E-10
   57.4799995       1.69752171E-10
   57.6599998       1.68840719E-10
   57.8400002       1.68352984E-10
   58.0200005       1.68334971E-10
   58.2000008       1.68821096E-10
   58.3800011       1.69831690E-10
   58.5600014       1.71373332E-10
   58.7400017       1.73438972E-10
   58.9199982       1.76008860E-10
   59.0999985       1.79053300E-10
   59.2799988       1.82535279E-10
   59.4599991       1.86412469E-10
   59.6399994       1.90640462E-10
   59.8199997       1.95173405E-10
   60.0000000       1.99966516E-10
   60.1800003       2.04975245E-10
   60.3600006       2.10155643E-10
   60.5400009       2.15462981E-10
   60.7200012       2.20851046E-10
   60.9000015       2.26271765E-10
   61.0800018       2.31676012E-10
   61.2599983       2.37014630E-10
   61.4399986       2.42240256E-10
   61.6199989       2.47310172E-10
   61.7999992       2.52187632E-10
   61.9799995       2.56842686E-10
   62.1599998       2.61252270E-10
   62.3400002       2.65398897E-10
   62.5200005       2.69268358E-10
   62.7000008       2.72848272E-10
   62.8800011       2.76125456E-10
   63.0600014       2.79085172E-10
   63.2400017       2.81710322E-10
   63.4199982       2.83982282E-10
   63.5999985       2.85882040E-10
   63.7799988       2.87391028E-10
   63.9599991       2.88493257E-10
   64.1399994       2.89175461E-10
   64.3199997       2.89427593E-10
   64.5000000       2.89243129E-10
   64.6800003       2.88617519E-10
   64.8600006       2.87548929E-10
   65.0400009       2.86037277E-10
   65.2200012       2.84085061E-10
   65.4000015       2.81697748E-10
   65.5800018       2.78885082E-10
   65.7600021       2.75662659E-10
   65.9400024       2.72052741E-10
   66.1200027       2.68084416E-10
   66.3000031       2.63793820E-10
   66.4800034       2.59222088E-10
   66.6600037       2.54413240E-10
   66.8399963       2.49410353E-10
   67.0199966       2.44253506E-10
   67.1999969       2.38976922E-10
   67.3799973       2.33608605E-10
   67.5599976       2.28169927E-10
   67.7399979       2.22678667E-10
   67.9199982       2.17150450E-10
   68.0999985       2.11601223E-10
   68.2799988       2.06049053E-10
   68.4599991       2.00513980E-10
   68.6399994       1.95017572E-10
   68.8199997       1.89579311E-10
   69.0000000       1.84214019E-10
   69.1800003       1.78927498E-10
   69.3600006       1.73712905E-10
   69.5400009       1.68548522E-10
   69.7200012       1.63398586E-10
   69.9000015       1.58214386E-10
   70.0800018       1.52940355E-10
   70.2600021       1.47519261E-10
   70.4400024       1.41899451E-10
   70.6200027       1.36040526E-10
   70.8000031       1.29918326E-10
   70.9800034       1.23526328E-10
   71.1600037       1.16873788E-10
   71.3399963       1.09983300E-10
   71.5199966       1.02885894E-10
   71.6999969       9.56154045E-11
   71.8799973       8.82043119E-11
   72.0599976       8.06808786E-11
   72.2399979       7.30694047E-11
   72.4199982       6.53898116E-11
   72.5999985       5.76592801E-11
   72.7799988       4.98947481E-11
   72.9599991       4.21129694E-11
   73.1399994       3.43318290E-11
   73.3199997       2.65686882E-11
   73.5000000       1.88397995E-11
   73.6800003       1.11589826E-11
   73.8600006       3.53585195E-12
   74.0400009      -4.02506544E-12
   74.2200012      -1.15247248E-11
   74.4000015      -1.89697130E-11
   74.5800018      -2.63722585E-11
   74.7600021      -3.37490487E-11
   74.9400024      -4.11197291E-11
   75.1200027      -4.85045615E-11
   75.3000031      -5.59221731E-11
   75.4800034      -6.33858868E-11
   75.6600037      -7.09021453E-11
   75.8399963      -7.84670245E-11
   76.0199966      -8.60657101E-11
   76.1999969      -9.36707933E-11
   76.3799973      -1.01242889E-10
   76.5599976      -1.08730809E-10
   76.7399979      -1.16073477E-10
   76.9199982      -1.23203253E-10
   77.0999985      -1.30049568E-10
   77.2799988      -1.36544734E-10
   77.4599991      -1.42629061E-10
   77.6399994      -1.48256324E-10
   77.8199997      -1.53397975E-10
   78.0000000      -1.58044605E-10
   78.1800003      -1.62205499E-10
   78.3600006      -1.65903680E-10
   78.5400009      -1.69171246E-10
   78.7200012      -1.72042103E-10
   78.9000015      -1.74547043E-10
   79.0800018      -1.76710743E-10
   79.2600021      -1.78551313E-10
   79.4400024      -1.80084433E-10
   79.6200027      -1.81327148E-10
   79.8000031      -1.82303714E-10
   79.9800034      -1.83049589E-10
   80.1600037      -1.83612334E-10
   80.3399963      -1.84050802E-10
   80.5199966      -1.84430304E-10
   80.6999969      -1.84816273E-10
   80.8799973      -1.85267870E-10
   81.0599976      -1.85830157E-10
   81.2399979      -1.86530139E-10
   81.4199982      -1.87374172E-10
   81.5999985      -1.88348712E-10
   81.7799988      -1.89424393E-10
   81.9599991      -1.90562469E-10
   82.1399994      -1.91722777E-10
   82.3199997      -1.92871746E-10
   82.5000000      -1.93988811E-10
   82.6800003      -1.95069919E-10
   82.8600006      -1.96128239E-10
   83.0400009      -1.97190694E-10
   83.2200012      -1.98292285E-10
   83.4000015      -1.99469302E-10
   83.5800018      -2.00751665E-10
   83.7600021      -2.02159303E-10
   83.9400024      -2.03698489E-10
   84.1200027      -2.05363754E-10
   84.3000031      -2.07140444E-10
   84.4800034      -2.09009657E-10
   84.6600037      -2.10952977E-10
   84.8399963      -2.12955875E-10
   85.0199966      -2.15010801E-10
   85.1999969      -2.17116811E-10
   85.3799973      -2.19279622E-10
   85.5599976      -2.21508867E-10
   85.7399979      -2.23815730E-10
   85.9199982      -2.26210092E-10
   86.0999985      -2.28697894E-10
   86.2799988      -2.31279371E-10
   86.4599991      -2.33948139E-10
   86.6399994      -2.36690861E-10
   86.8199997      -2.39488568E-10
   87.0000000      -2.42318193E-10
   87.1800003      -2.45154064E-10
   87.3600006      -2.47970394E-10
   87.5400009      -2.50742482E-10
   87.7200012      -2.53448096E-10
   87.9000015      -2.56067556E-10
   88.0800018      -2.58583960E-10
   88.2600021      -2.60982985E-10
   88.4400024      -2.63252531E-10
   88.6200027      -2.65382466E-10
   88.8000031      -2.67363853E-10
   88.9800034      -2.69188338E-10
   89.1600037      -2.70846595E-10
   89.3399963      -2.72326300E-10
   89.5199966      -2.73609913E-10
   89.6999969      -2.74672951E-10
   89.8799973      -2.75483164E-10
   90.0599976      -2.76001194E-10
   90.2399979      -2.76183326E-10
   90.4199982      -2.75985346E-10
   90.5999985      -2.75367562E-10
   90.7799988      -2.74299194E-10
   90.9599991      -2.72762063E-10
   91.1399994      -2.70752698E-10
   91.3199997      -2.68281203E-10
   91.5000000      -2.65369893E-10
   91.6800003      -2.62049105E-10
   91.8600006      -2.58352922E-10
   92.0400009      -2.54315596E-10
   92.2200012      -2.49967047E-10
   92.4000015      -2.45332393E-10
   92.5800018      -2.40431314E-10
   92.7600021      -2.35279796E-10
   92.9400024      -2.29893646E-10
   93.1200027      -2.24291669E-10
   93.3000031      -2.18498858E-10
   93.4800034      -2.12548146E-10
   93.6600037      -2.06479694E-10
   93.8399963      -2.00338940E-10
   94.0199966      -1.94171415E-10
   94.1999969      -1.88017907E-10
   94.3799973      -1.81908655E-10
   94.5599976      -1.75859119E-10
   94.7399979      -1.69868397E-10
   94.9199982      -1.63919822E-10
   95.0999985      -1.57983918E-10
   95.2799988      -1.52023102E-10
   95.4599991      -1.45997145E-10
   95.6399994      -1.39867160E-10
   95.8199997      -1.33598618E-10
   96.0000000      -1.27162461E-10
   96.1800003      -1.20535429E-10
   96.3600006      -1.13698627E-10
   96.5400009      -1.06636686E-10
   96.7200012      -9.93369692E-11
   96.9000015      -9.17895482E-11
   97.0800018      -8.39877265E-11
   97.2600021      -7.59291449E-11
   97.4400024      -6.76172660E-11
   97.6200027      -5.90627061E-11
   97.8000031      -5.02840929E-11
   97.9800034      -4.13087897E-11
   98.1600037      -3.21728026E-11
   98.3399963      -2.29197130E-11
   98.5199966      -1.35985572E-11
   98.6999969      -4.26121985E-12
   98.8799973       5.04082670E-12
   99.0599976       1.42598234E-11
   99.2399979       2.33539160E-11
   99.4199982       3.22891679E-11
   99.5999985       4.10395398E-11
   99.7799988       4.95859048E-11
   99.9599991       5.79148639E-11
   100.139999       6.60172542E-11
   100.320000       7.38876321E-11
   100.500000       8.15252657E-11
   100.680000       8.89352827E-11
   100.860001       9.61309782E-11
   101.040001       1.03134945E-10
   101.220001       1.09978547E-10
   101.400002       1.16700066E-10
   101.580002       1.23341240E-10
   101.760002       1.29941835E-10
   101.940002       1.36535686E-10
   102.120003       1.43146842E-10
   102.300003       1.49787432E-10
   102.480003       1.56458166E-10
   102.660004       1.63149536E-10
   102.839996       1.69844167E-10
   103.019997       1.76520437E-10
   103.199997       1.83154741E-10
   103.379997       1.89723737E-10
   103.559998       1.96205899E-10
   103.739998       2.02581424E-10
   103.919998       2.08832479E-10
   104.099998       2.14941315E-10
   104.279999       2.20888849E-10
   104.459999       2.26652780E-10
   104.639999       2.32206435E-10
   104.820000       2.37517894E-10
   105.000000       2.42551451E-10
   105.180000       2.47269899E-10
   105.360001       2.51637627E-10
   105.540001       2.55625215E-10
   105.720001       2.59212124E-10
   105.900002       2.62389083E-10
   106.080002       2.65158562E-10
   106.260002       2.67534189E-10
   106.440002       2.69538558E-10
   106.620003       2.71201839E-10
   106.800003       2.72560391E-10
   106.980003       2.73655570E-10
   107.160004       2.74533507E-10
   107.339996       2.75244216E-10
   107.519997       2.75840961E-10
   107.699997       2.76377560E-10
   107.879997       2.76905499E-10
   108.059998       2.77470463E-10
   108.239998       2.78109230E-10
   108.419998       2.78848861E-10
   108.599998       2.79706591E-10
   108.779999       2.80692136E-10
   108.959999       2.81811435E-10
   109.139999       2.83070373E-10
   109.320000       2.84477580E-10
   109.500000       2.86045548E-10
   109.680000       2.87789376E-10
   109.860001       2.89723856E-10
   110.040001       2.91858343E-10
   110.220001       2.94192809E-10
   110.400002       2.96713071E-10
   110.580002       2.99388042E-10
   110.760002       3.02168846E-10
   110.940002       3.04990005E-10
   111.120003       3.07772946E-10
   111.300003       3.10431847E-10
   111.480003       3.12880527E-10
   111.660004       3.15038384E-10
   111.839996       3.16835946E-10
   112.019997       3.18216592E-10
   112.199997       3.19135551E-10
   112.379997       3.19555826E-10
   112.559998       3.19441890E-10
   112.739998       3.18752913E-10
   112.919998       3.17438326E-10
   113.099998       3.15436205E-10
   113.279999       3.12675469E-10
   113.459999       3.09082537E-10
   113.639999       3.04590575E-10
   113.820000       2.99149289E-10
   114.000000       2.92734448E-10
   114.180000       2.85354157E-10
   114.360001       2.77050105E-10
   114.540001       2.67895262E-10
   114.720001       2.57986882E-10
   114.900002       2.47437015E-10
   115.080002       2.36362041E-10
   115.260002       2.24873842E-10
   115.440002       2.13071921E-10
   115.620003       2.01039754E-10
   115.800003       1.88845203E-10
   115.980003       1.76542669E-10
   116.160004       1.64178768E-10
   116.339996       1.51797547E-10
   116.519997       1.39446621E-10
   116.699997       1.27179878E-10
   116.879997       1.15057470E-10
   117.059998       1.03143417E-10
   117.239998       9.15008763E-11
   117.419998       8.01861910E-11
   117.599998       6.92441313E-11
   117.779999       5.87035281E-11
   117.959999       4.85770209E-11
   118.139999       3.88617610E-11
   118.320000       2.95436973E-11
   118.500000       2.06025370E-11
   118.680000       1.20174313E-11
   118.860001       3.77238778E-12
   119.040001      -4.13856839E-12
   119.220001      -1.17100210E-11
   119.400002      -1.89241747E-11
   119.580002      -2.57527402E-11