  -34.5000000       0.00000000    
  -34.3199997       0.00000000    
  -34.1399994       0.00000000    
  -33.9599991       4.00874803E-18
  -33.7799988       2.21175308E-17
  -33.5999985       6.49710137E-17
  -33.4199982       1.31845496E-16
  -33.2400017       2.00987631E-16
  -33.0600014       2.31780031E-16
  -32.8800011       1.80997547E-16
  -32.7000008       2.53864691E-17
  -32.5200005      -2.21851614E-16
  -32.3400002      -5.08499924E-16
  -32.1599998      -7.52344246E-16
  -31.9799995      -8.51710528E-16
  -31.7999992      -6.88213793E-16
  -31.6200008      -1.21159288E-16
  -31.4400005       1.01568525E-15
  -31.2600002       2.89632477E-15
  -31.0799999       5.64342689E-15
  -30.8999996       9.21284787E-15
  -30.7199993       1.32205656E-14
  -30.5400009       1.67353094E-14
  -30.3600006       1.80943314E-14
  -30.1800003       1.48332732E-14
  -30.0000000       3.83329122E-15
  -29.8199997      -1.82408952E-14
  -29.6399994      -5.42112233E-14
  -29.4599991      -1.05453020E-13
  -29.2800007      -1.70924242E-13
  -29.1000004      -2.46384754E-13
  -28.9200001      -3.24081013E-13
  -28.7399998      -3.93153446E-13
  -28.5599995      -4.40882465E-13
  -28.3799992      -4.54657416E-13
  -28.2000008      -4.24378875E-13
  -28.0200005      -3.44892463E-13
  -27.8400002      -2.17721837E-13
  -27.6599998      -5.08476453E-14
  -27.4799995       1.44380926E-13
  -27.2999992       3.57647099E-13
  -27.1200008       5.80498865E-13
  -26.9400005       7.99641169E-13
  -26.7600002       9.87937163E-13
  -26.5799999       1.11027517E-12
  -26.3999996       1.15912271E-12
  -26.2199993       1.20567087E-12
  -26.0400009       1.41215143E-12
  -25.8600006       1.94474645E-12
  -25.6800003       2.79232475E-12
  -25.5000000       3.60954474E-12
  -25.3199997       3.76510368E-12
  -25.1399994       2.68517153E-12
  -24.9599991       3.44954778E-13
  -24.7800007      -2.46041642E-12
  -24.6000004      -4.42045922E-12
  -24.4200001      -4.60646582E-12
  -24.2399998      -3.48967730E-12
  -24.0599995      -3.32588666E-12
  -23.8799992      -7.35978986E-12
  -23.7000008      -1.79709962E-11
  -23.5200005      -3.46396245E-11
  -23.3400002      -5.29656388E-11
  -23.1599998      -6.56546414E-11
  -22.9799995      -6.54925281E-11
  -22.7999992      -4.92877544E-11
  -22.6200008      -2.10496863E-11
  -22.4400005       7.38203595E-12
  -22.2600002       1.93472044E-11
  -22.0799999      -2.08799707E-13
  -21.8999996      -5.67227688E-11
  -21.7199993      -1.39609699E-10
  -21.5400009      -2.21079793E-10
  -21.3600006      -2.62635497E-10
  -21.1800003      -2.28874433E-10
  -21.0000000      -1.04501761E-10
  -20.8199997       9.24958235E-11
  -20.6399994       3.08873843E-10
  -20.4599991       4.69355110E-10
  -20.2800007       5.02765385E-10
  -20.1000004       3.72097131E-10
  -19.9200001       9.58006036E-11
  -19.7399998      -2.50660437E-10
  -19.5599995      -5.56666768E-10
  -19.3799992      -7.15294601E-10
  -19.2000008      -6.64342914E-10
  -19.0200005      -4.12227669E-10
  -18.8400002      -3.66094620E-11
  -18.6599998       3.45292128E-10
  -18.4799995       6.23392393E-10
  -18.2999992       7.39054207E-10
  -18.1200008       7.07673475E-10
  -17.9400005       6.08744721E-10
  -17.7600002       5.46320489E-10
  -17.5799999       5.95940686E-10
  -17.3999996       7.60988050E-10
  -17.2199993       9.58811142E-10
  -17.0400009       1.04531150E-09
  -16.8600006       8.70455041E-10
  -16.6800003       3.42934958E-10
  -16.5000000      -5.23550314E-10
  -16.3199997      -1.60384672E-09
  -16.1399994      -2.69978018E-09
  -15.9600000      -3.60838270E-09
  -15.7799997      -4.19005808E-09
  -15.6000004      -4.40518155E-09
  -15.4200001      -4.30117320E-09
  -15.2399998      -3.95555988E-09
  -15.0600004      -3.40312467E-09
  -14.8800001      -2.58547694E-09
  -14.6999998      -1.35334399E-09
  -14.5200005       4.71728767E-10
  -14.3400002       2.99797098E-09
  -14.1599998       6.16770368E-09
  -13.9799995       9.70841896E-09
  -13.8000002       1.31561002E-08
  -13.6199999       1.59475153E-08
  -13.4399996       1.75509118E-08
  -13.2600002       1.75901995E-08
  -13.0799999       1.59215361E-08
  -12.8999996       1.26410402E-08
  -12.7200003       8.02918887E-09
  -12.5400000       2.46072429E-09
  -12.3599997      -3.68060671E-09
  -12.1800003      -1.00493995E-08
  -12.0000000      -1.63353047E-08
  -11.8199997      -2.22221210E-08
  -11.6400003      -2.73421250E-08
  -11.4600000      -3.12625197E-08
  -11.2799997      -3.35262591E-08
  -11.1000004      -3.37421859E-08
  -10.9200001      -3.16922950E-08
  -10.7399998      -2.74111560E-08
  -10.5600004      -2.12012274E-08
  -10.3800001      -1.35747023E-08
  -10.1999998      -5.14395149E-09
  -10.0200005       3.49685680E-09
  -9.84000015       1.18569625E-08
  -9.65999985       1.95787191E-08
  -9.47999954       2.64170641E-08
  -9.30000019       3.21944249E-08
  -9.11999989       3.67611719E-08
  -8.93999958       3.99803994E-08
  -8.76000023       4.17376214E-08
  -8.57999992       4.19618900E-08
  -8.39999962       4.06415808E-08
  -8.22000027       3.78250924E-08
  -8.03999996       3.36083161E-08
  -7.86000013       2.81199366E-08
  -7.67999983       2.15173390E-08
  -7.50000000       1.40003671E-08
  -7.32000017       5.83911586E-09
  -7.13999987      -2.59911070E-09
  -6.96000004      -1.08453593E-08
  -6.78000021      -1.83661424E-08
  -6.59999990      -2.46476208E-08
  -6.42000008      -2.93103568E-08
  -6.23999977      -3.22160503E-08
  -6.05999994      -3.35178107E-08
  -5.88000011      -3.36170238E-08
  -5.69999981      -3.30235430E-08
  -5.51999998      -3.21595195E-08
  -5.34000015      -3.11799297E-08
  -5.15999985      -2.98863796E-08
  -4.98000002      -2.77784356E-08
  -4.80000019      -2.42313920E-08
  -4.61999989      -1.87363316E-08
  -4.44000006      -1.11118768E-08
  -4.26000023      -1.61091196E-09
  -4.07999992       9.10980091E-09
  -3.90000010       2.01342480E-08
  -3.72000003       3.04840029E-08
  -3.53999996       3.92955997E-08
  -3.35999990       4.59265834E-08
  -3.18000007       4.99736608E-08
  -3.00000000       5.12219174E-08
  -2.81999993       4.95655250E-08
  -2.64000010       4.49441409E-08
  -2.46000004       3.73259930E-08
  -2.27999997       2.67446474E-08
  -2.09999990       1.33694478E-08
  -1.91999996      -2.43019005E-09
  -1.74000001      -2.00698942E-08
  -1.55999994      -3.88099330E-08
  -1.38000000      -5.78798485E-08
  -1.20000005      -7.66222499E-08
  -1.01999998      -9.45916483E-08
 -0.839999974      -1.11557142E-07
 -0.660000026      -1.27399602E-07
 -0.479999989      -1.41945534E-07
 -0.300000012      -1.54813904E-07
 -0.119999997      -1.65349334E-07
   5.99999987E-02  -1.72675598E-07
  0.239999995      -1.75848839E-07
  0.419999987      -1.74047344E-07
  0.600000024      -1.66725613E-07
  0.779999971      -1.53686429E-07
  0.959999979      -1.35066216E-07
   1.13999999      -1.11264903E-07
   1.32000005      -8.28653413E-08
   1.50000000      -5.05757143E-08
   1.67999995      -1.52063837E-08
   1.86000001       2.23303545E-08
   2.03999996       6.10218578E-08
   2.22000003       9.97831435E-08
   2.40000010       1.37527579E-07
   2.57999992       1.73278892E-07
   2.75999999       2.06300840E-07
   2.94000006       2.36198886E-07
   3.11999989       2.62941001E-07
   3.29999995       2.86760354E-07
   3.48000002       3.07945612E-07
   3.66000009       3.26578458E-07
   3.83999991       3.42318032E-07
   4.01999998       3.54331320E-07
   4.19999981       3.61420490E-07
   4.38000011       3.62320350E-07
   4.55999994       3.56064703E-07
   4.73999977       3.42289866E-07
   4.92000008       3.21363302E-07
   5.09999990       2.94294011E-07
   5.28000021       2.62458798E-07
   5.46000004       2.27237791E-07
   5.63999987       1.89674267E-07
   5.82000017       1.50256312E-07
   6.00000000       1.08879398E-07
   6.17999983       6.49959375E-08
   6.36000013       1.79099136E-08
   6.53999996      -3.28675789E-08
   6.71999979      -8.73093597E-08
   6.90000010      -1.44710739E-07
   7.07999992      -2.03735965E-07
   7.26000023      -2.62664031E-07
   7.44000006      -3.19752729E-07
   7.61999989      -3.73594219E-07
   7.80000019      -4.23339458E-07
   7.98000002      -4.68721566E-07
   8.15999985      -5.09888025E-07
   8.34000015      -5.47120408E-07
   8.52000046      -5.80553149E-07
   8.69999981      -6.09992753E-07
   8.88000011      -6.34894093E-07
   9.06000042      -6.54496660E-07
   9.23999977      -6.68078542E-07
   9.42000008      -6.75248600E-07
   9.60000038      -6.76182765E-07
   9.77999973      -6.71710552E-07
   9.96000004      -6.63188302E-07
   10.1400003      -6.52151414E-07
   10.3199997      -6.39815653E-07
   10.5000000      -6.26566305E-07
   10.6800003      -6.11605799E-07
   10.8599997      -5.92896697E-07
   11.0400000      -5.67453185E-07
   11.2200003      -5.31920762E-07
   11.3999996      -4.83294286E-07
   11.5799999      -4.19580317E-07
   11.7600002      -3.40235317E-07
   11.9399996      -2.46276926E-07
   12.1199999      -1.40053118E-07
   12.3000002      -2.47347209E-08
   12.4799995       9.63435838E-08
   12.6599998       2.20334456E-07
   12.8400002       3.45362537E-07
   13.0200005       4.70719954E-07
   13.1999998       5.96725556E-07
   13.3800001       7.24298786E-07
   13.5600004       8.54387508E-07
   13.7399998       9.87431008E-07
   13.9200001       1.12302075E-06
   14.1000004       1.25983604E-06
   14.2799997       1.39583085E-06
   14.4600000       1.52856990E-06
   14.6400003       1.65558095E-06
   14.8199997       1.77463187E-06
   15.0000000       1.88389402E-06
   15.1800003       1.98201474E-06
   15.3599997       2.06814934E-06
   15.5400000       2.14199486E-06
   15.7200003       2.20383663E-06
   15.8999996       2.25459644E-06
   16.0799999       2.29583748E-06
   16.2600002       2.32968523E-06
   16.4400005       2.35862944E-06
   16.6200008       2.38520875E-06
   16.7999992       2.41162888E-06
   16.9799995       2.43941486E-06
   17.1599998       2.46922627E-06
   17.3400002       2.50094672E-06
   17.5200005       2.53407916E-06
   17.7000008       2.56836574E-06
   17.8799992       2.60444062E-06
   18.0599995       2.64428422E-06
   18.2399998       2.69128986E-06
   18.4200001       2.74987315E-06
   18.6000004       2.82470091E-06
   18.7800007       2.91974698E-06
   18.9599991       3.03743218E-06
   19.1399994       3.17806825E-06
   19.3199997       3.33976163E-06
   19.5000000       3.51879157E-06
   19.6800003       3.71038368E-06
   19.8600006       3.90970445E-06
   20.0400009       4.11285282E-06
   20.2199993       4.31761600E-06
   20.3999996       4.52381482E-06
   20.5799999       4.73315640E-06
   20.7600002       4.94863616E-06
   20.9400005       5.17365970E-06
   21.1200008       5.41111149E-06
   21.2999992       5.66259723E-06
   21.4799995       5.92802553E-06
   21.6599998       6.20558012E-06
   21.8400002       6.49204458E-06
   22.0200005       6.78336255E-06
   22.2000008       7.07529807E-06
   22.3799992       7.36403945E-06
   22.5599995       7.64661854E-06
   22.7399998       7.92105675E-06
   22.9200001       8.18622539E-06
   23.1000004       8.44148872E-06
   23.2800007       8.68622556E-06
   23.4599991       8.91942545E-06
   23.6399994       9.13945769E-06
   23.8199997       9.34410127E-06
   24.0000000       9.53080325E-06
   24.1800003       9.69708617E-06
   24.3600006       9.84097642E-06
   24.5400009       9.96137260E-06
   24.7199993       1.00582665E-05
   24.8999996       1.01327851E-05
   25.0799999       1.01870546E-05
   25.2600002       1.02238810E-05
   25.4400005       1.02462973E-05
   25.6200008       1.02570557E-05
   25.7999992       1.02581844E-05
   25.9799995       1.02507429E-05
   26.1599998       1.02347876E-05
   26.3400002       1.02096246E-05
   26.5200005       1.01741898E-05
   26.7000008       1.01274882E-05
   26.8799992       1.00689285E-05
   27.0599995       9.99852818E-06
   27.2399998       9.91692650E-06
   27.4200001       9.82528036E-06
   27.6000004       9.72504949E-06
   27.7800007       9.61776459E-06
   27.9599991       9.50481626E-06
   28.1399994       9.38733319E-06
   28.3199997       9.26619487E-06
   28.5000000       9.14216616E-06
   28.6800003       9.01612202E-06
   28.8600006       8.88926570E-06
   29.0400009       8.76324157E-06
   29.2199993       8.64007870E-06
   29.3999996       8.52198900E-06
   29.5799999       8.41105248E-06
   29.7600002       8.30890531E-06
   29.9400005       8.21645972E-06
   30.1200008       8.13369479E-06
   30.2999992       8.05952914E-06
   30.4799995       7.99177997E-06
   30.6599998       7.92721858E-06
   30.8400002       7.86176315E-06
   31.0200005       7.79080528E-06
   31.2000008       7.70961651E-06
   31.3799992       7.61374167E-06
   31.5599995       7.49930268E-06
   31.7399998       7.36310994E-06
   31.9200001       7.20262642E-06
   32.0999985       7.01582621E-06
   32.2799988       6.80100675E-06
   32.4599991       6.55663780E-06
   32.6399994       6.28128055E-06
   32.8199997       5.97361213E-06
   33.0000000       5.63255571E-06
   33.1800003       5.25757105E-06
   33.3600006       4.84909970E-06
   33.5400009       4.40910026E-06
   33.7200012       3.94156041E-06
   33.9000015       3.45277931E-06
   34.0800018       2.95130917E-06
   34.2599983       2.44748935E-06
   34.4399986       1.95262419E-06
   34.6199989       1.47796641E-06
   34.7999992       1.03369564E-06
   34.9799995       6.28072030E-07
   35.1599998       2.66898638E-07
   35.3400002      -4.66251429E-08
   35.5200005      -3.11627872E-07
   35.7000008      -5.28952569E-07
   35.8800011      -7.00330247E-07
   36.0600014      -8.27571796E-07
   36.2400017      -9.12036967E-07
   36.4199982      -9.54535835E-07
   36.5999985      -9.55728865E-07
   36.7799988      -9.16895260E-07
   36.9599991      -8.40805399E-07
   37.1399994      -7.32433534E-07
   37.3199997      -5.99273676E-07
   37.5000000      -4.51169740E-07
   37.6800003      -2.99679840E-07
   37.8600006      -1.57089346E-07
   38.0400009      -3.52374450E-08
   38.2200012       5.56699540E-08
   38.4000015       1.08025297E-07
   38.5800018       1.17388204E-07
   38.7599983       8.24775555E-08
   38.9399986       4.57769600E-09
   39.1199989      -1.13525523E-07
   39.2999992      -2.68760317E-07
   39.4799995      -4.58824786E-07
   39.6599998      -6.82733912E-07
   39.8400002      -9.40743689E-07
   40.0200005      -1.23367249E-06
   40.2000008      -1.56185115E-06
   40.3800011      -1.92398966E-06
   40.5600014      -2.31627382E-06
   40.7400017      -2.73193018E-06
   40.9199982      -3.16138448E-06
   41.0999985      -3.59302430E-06
   41.2799988      -4.01446141E-06
   41.4599991      -4.41401789E-06
   41.6399994      -4.78210541E-06
   41.8199997      -5.11217650E-06
   42.0000000      -5.40104338E-06
   42.1800003      -5.64852144E-06
   42.3600006      -5.85656835E-06
   42.5400009      -6.02819227E-06
   42.7200012      -6.16643138E-06
   42.9000015      -6.27356803E-06
   43.0800018      -6.35066408E-06
   43.2599983      -6.39741029E-06
   43.4399986      -6.41229326E-06
   43.6199989      -6.39304608E-06
   43.7999992      -6.33736045E-06
   43.9799995      -6.24375753E-06
   44.1599998      -6.11242876E-06
   44.3400002      -5.94582480E-06
   44.5200005      -5.74878595E-06
   44.7000008      -5.52816755E-06
   44.8800011      -5.29204499E-06
   45.0600014      -5.04870559E-06
   45.2400017      -4.80565632E-06
   45.4199982      -4.56884482E-06
   45.5999985      -4.34217873E-06
   45.7799988      -4.12736199E-06
   45.9599991      -3.92403717E-06
   46.1399994      -3.73017815E-06
   46.3199997      -3.54267149E-06
   46.5000000      -3.35798040E-06
   46.6800003      -3.17276977E-06
   46.8600006      -2.98437794E-06
   47.0400009      -2.79108872E-06
   47.2200012      -2.59220883E-06
   47.4000015      -2.38800476E-06
   47.5800018      -2.17952697E-06
   47.7599983      -1.96833048E-06
   47.9399986      -1.75608579E-06
   48.1199989      -1.54412112E-06
   48.2999992      -1.33303433E-06
   48.4799995      -1.12255066E-06
   48.6599998      -9.11782422E-07
   48.8400002      -6.99891984E-07
   49.0200005      -4.86951876E-07
   49.2000008      -2.74684851E-07
   49.3800011      -6.67331790E-08
   49.5600014       1.31693767E-07
   49.7400017       3.14709979E-07
   49.9199982       4.76874902E-07
   50.0999985       6.14156875E-07
   50.2799988       7.24439133E-07
   50.4599991       8.07453546E-07
   50.6399994       8.64235631E-07
   50.8199997       8.96359325E-07
   51.0000000       9.05230365E-07
   51.1800003       8.91680315E-07
   51.3600006       8.55996234E-07
   51.5400009       7.98352346E-07
   51.7200012       7.19506602E-07
   51.9000015       6.21449260E-07
   52.0800018       5.07697166E-07
   52.2599983       3.83076667E-07
   52.4399986       2.52911803E-07
   52.6199989       1.21916699E-07
   52.7999992      -6.89485535E-09
   52.9799995      -1.32884551E-07
   53.1599998      -2.57862780E-07
   53.3400002      -3.85605176E-07
   53.5200005      -5.21051732E-07
   53.7000008      -6.69505994E-07
   53.8800011      -8.36021002E-07
   54.0600014      -1.02511433E-06
   54.2400017      -1.24066491E-06
   54.4199982      -1.48594495E-06
   54.5999985      -1.76373032E-06
   54.7799988      -2.07643484E-06
   54.9599991      -2.42633678E-06
   55.1399994      -2.81579605E-06
   55.3199997      -3.24741677E-06
   55.5000000      -3.72402997E-06
   55.6800003      -4.24843847E-06
   55.8600006      -4.82292216E-06
   56.0400009      -5.44865907E-06
   56.2200012      -6.12516669E-06
   56.4000015      -6.84995894E-06
   56.5800018      -7.61846150E-06
   56.7599983      -8.42426107E-06
   56.9399986      -9.25962740E-06
   57.1199989      -1.01162595E-05
   57.2999992      -1.09860857E-05
   57.4799995      -1.18619546E-05
   57.6599998      -1.27380217E-05
   57.8400002      -1.36097506E-05
   58.0200005      -1.44735495E-05
   58.2000008      -1.53262827E-05
   58.3800011      -1.61648859E-05
   58.5600014      -1.69862651E-05
   58.7400017      -1.77875409E-05
   58.9199982      -1.85664212E-05
   59.0999985      -1.93214837E-05
   59.2799988      -2.00521972E-05
   59.4599991      -2.07586709E-05
   59.6399994      -2.14413340E-05
   59.8199997      -2.21007613E-05
   60.0000000      -2.27378714E-05
   60.1800003      -2.33544361E-05
   60.3600006      -2.39537676E-05
   60.5400009      -2.45413776E-05
   60.7200012      -2.51252804E-05
   60.9000015      -2.57158827E-05
   61.0800018      -2.63253551E-05
   61.2599983      -2.69666216E-05
   61.4399986      -2.76520914E-05
   61.6199989      -2.83923600E-05
   61.7999992      -2.91951546E-05
   61.9799995      -3.00647007E-05
   62.1599998      -3.10016403E-05
   62.3400002      -3.20034669E-05
   62.5200005      -3.30652292E-05
   62.7000008      -3.41803207E-05
   62.8800011      -3.53411997E-05
   63.0600014      -3.65399792E-05
   63.2400017      -3.77690376E-05
   63.4199982      -3.90215137E-05
   63.5999985      -4.02919213E-05
   63.7799988      -4.15765207E-05
   63.9599991      -4.28733692E-05
   64.1399994      -4.41818593E-05
   64.3199997      -4.55017580E-05
   64.5000000      -4.68320613E-05
   64.6800003      -4.81700772E-05
   64.8600006      -4.95109343E-05
   65.0400009      -5.08478770E-05
   65.2200012      -5.21731417E-05
   65.4000015      -5.34793471E-05
   65.5800018      -5.47608797E-05
   65.7600021      -5.60151093E-05
   65.9400024      -5.72430108E-05
   66.1200027      -5.84488771E-05
   66.3000031      -5.96393147E-05
   66.4800034      -6.08214796E-05
   66.6600037      -6.20010032E-05
   66.8399963      -6.31801886E-05
   67.0199966      -6.43570020E-05
   67.1999969      -6.55250406E-05
   67.3799973      -6.66745254E-05
   67.5599976      -6.77940479E-05
   67.7399979      -6.88724322E-05
   67.9199982      -6.99004086E-05
   68.0999985      -7.08716398E-05
   68.2799988      -7.17829898E-05
   68.4599991      -7.26341241E-05
   68.6399994      -7.34265268E-05
   68.8199997      -7.41622134E-05
   69.0000000      -7.48424864E-05
   69.1800003      -7.54668581E-05
   69.3600006      -7.60325856E-05
   69.5400009      -7.65350123E-05
   69.7200012      -7.69685430E-05
   69.9000015      -7.73282518E-05
   70.0800018      -7.76113448E-05
   70.2600021      -7.78182948E-05
   70.4400024      -7.79533948E-05
   70.6200027      -7.80244081E-05
   70.8000031      -7.80417176E-05
   70.9800034      -7.80169794E-05
   71.1600037      -7.79616093E-05
   71.3399963      -7.78852336E-05
   71.5199966      -7.77945461E-05
   71.6999969      -7.76925663E-05
   71.8799973      -7.75788067E-05
   72.0599976      -7.74502332E-05
   72.2399979      -7.73027277E-05
   72.4199982      -7.71328632E-05
   72.5999985      -7.69392282E-05
   72.7799988      -7.67231395E-05
   72.9599991      -7.64884971E-05
   73.1399994      -7.62408963E-05
   73.3199997      -7.59862523E-05
   73.5000000      -7.57292582E-05
   73.6800003      -7.54719003E-05
   73.8600006      -7.52123015E-05
   74.0400009      -7.49441751E-05
   74.2200012      -7.46569203E-05
   74.4000015      -7.43366327E-05
   74.5800018      -7.39676834E-05
   74.7600021      -7.35346694E-05
   74.9400024      -7.30242900E-05
   75.1200027      -7.24266574E-05
   75.3000031      -7.17358562E-05
   75.4800034      -7.09498854E-05
   75.6600037      -7.00700693E-05
   75.8399963      -6.91002424E-05
   76.0199966      -6.80458252E-05
   76.1999969      -6.69129222E-05
   76.3799973      -6.57076816E-05
   76.5599976      -6.44358879E-05
   76.7399979      -6.31032017E-05
   76.9199982      -6.17157712E-05
   77.0999985      -6.02813197E-05
   77.2799988      -5.88101393E-05
   77.4599991      -5.73155885E-05
   77.6399994      -5.58138636E-05
   77.8199997      -5.43229544E-05
   78.0000000      -5.28609744E-05
   78.1800003      -5.14443745E-05
   78.3600006      -5.00862880E-05
   78.5400009      -4.87954167E-05
   78.7200012      -4.75755733E-05
   78.9000015      -4.64259101E-05
   79.0800018      -4.53417524E-05
   79.2600021      -4.43159261E-05
   79.4400024      -4.33403220E-05
   79.6200027      -4.24073078E-05
   79.8000031      -4.15106879E-05
   79.9800034      -4.06460276E-05
   80.1600037      -3.98104530E-05
   80.3399963      -3.90021087E-05
   80.5199966      -3.82196886E-05
   80.6999969      -3.74622541E-05
   80.8799973      -3.67292196E-05
   81.0599976      -3.60204976E-05
   81.2399979      -3.53364885E-05
   81.4199982      -3.46779125E-05
   81.5999985      -3.40455808E-05
   81.7799988      -3.34402503E-05
   81.9599991      -3.28626702E-05
   82.1399994      -3.23138229E-05
   82.3199997      -3.17951526E-05
   82.5000000      -3.13086166E-05
   82.6800003      -3.08565250E-05
   82.8600006      -3.04411642E-05
   83.0400009      -3.00644169E-05
   83.2200012      -2.97274892E-05
   83.4000015      -2.94307629E-05
   83.5800018      -2.91737233E-05
   83.7600021      -2.89548843E-05
   83.9400024      -2.87717394E-05
   84.1200027      -2.86207614E-05
   84.3000031      -2.84975176E-05
   84.4800034      -2.83968147E-05
   84.6600037      -2.83128120E-05
   84.8399963      -2.82390320E-05
   85.0199966      -2.81683297E-05
   85.1999969      -2.80929999E-05
   85.3799973      -2.80051445E-05
   85.5599976      -2.78974130E-05
   85.7399979      -2.77638974E-05
   85.9199982      -2.76008486E-05
   86.0999985      -2.74068989E-05
   86.2799988      -2.71826902E-05
   86.4599991      -2.69300162E-05
   86.6399994      -2.66508432E-05
   86.8199997      -2.63464990E-05
   87.0000000      -2.60172346E-05
   87.1800003      -2.56621606E-05
   87.3600006      -2.52794198E-05
   87.5400009      -2.48665256E-05
   87.7200012      -2.44208386E-05
   87.9000015      -2.39401415E-05
   88.0800018      -2.34232866E-05
   88.2600021      -2.28707358E-05
   88.4400024      -2.22847448E-05
   88.6200027      -2.16691278E-05
   88.8000031      -2.10285743E-05
   88.9800034      -2.03678173E-05
   89.1600037      -1.96908768E-05
   89.3399963      -1.90005521E-05
   89.5199966      -1.82981839E-05
   89.6999969      -1.75836012E-05
   89.8799973      -1.68551887E-05
   90.0599976      -1.61100706E-05
   90.2399979      -1.53445071E-05
   90.4199982      -1.45545200E-05
   90.5999985      -1.37366587E-05
   90.7799988      -1.28887377E-05
   90.9599991      -1.20102677E-05
   91.1399994      -1.11025010E-05
   91.3199997      -1.01681435E-05
   91.5000000      -9.21087576E-06
   91.6800003      -8.23487244E-06
   91.8600006      -7.24434585E-06
   92.0400009      -6.24306267E-06
   92.2200012      -5.23379231E-06
   92.4000015      -4.21769892E-06
   92.5800018      -3.19391074E-06
   92.7600021      -2.15948489E-06
   92.9400024      -1.10991914E-06
   93.1200027      -4.00991453E-08
   93.3000031       1.05458412E-06
   93.4800034       2.17725187E-06
   93.6600037       3.32892500E-06
   93.8399963       4.50830930E-06
   94.0199966       5.71194641E-06
   94.1999969       6.93470429E-06
   94.3799973       8.17062028E-06
   94.5599976       9.41414146E-06
   94.7399979       1.06616162E-05
   94.9199982       1.19127599E-05
   95.0999985       1.31716370E-05
   95.2799988       1.44467540E-05
   95.4599991       1.57501108E-05
   95.6399994       1.70954045E-05
   95.8199997       1.84958262E-05
   96.0000000       1.99620408E-05
   96.1800003       2.15007985E-05
   96.3600006       2.31144131E-05
   96.5400009       2.48011511E-05
   96.7200012       2.65563431E-05
   96.9000015       2.83740574E-05
   97.0800018       3.02488588E-05
   97.2600021       3.21772568E-05
   97.4400024       3.41583946E-05
   97.6200027       3.61936727E-05
   97.8000031       3.82852595E-05
   97.9800034       4.04340317E-05
   98.1600037       4.26374390E-05
   98.3399963       4.48880419E-05
   98.5199966       4.71729873E-05
   98.6999969       4.94744527E-05
   98.8799973       5.17708650E-05
   99.0599976       5.40383990E-05
   99.2399979       5.62526329E-05
   99.4199982       5.83901237E-05
   99.5999985       6.04298439E-05
   99.7799988       6.23543019E-05
   99.9599991       6.41502484E-05
   100.139999       6.58086428E-05
   100.320000       6.73238683E-05
   100.500000       6.86924832E-05
   100.680000       6.99115699E-05
   100.860001       7.09773522E-05
   101.040001       7.18841111E-05
   101.220001       7.26235885E-05
   101.400002       7.31851105E-05
   101.580002       7.35560970E-05
   101.760002       7.37234295E-05
   101.940002       7.36752045E-05
   102.120003       7.34029018E-05
   102.300003       7.29033636E-05
   102.480003       7.21801480E-05
   102.660004       7.12438050E-05
   102.839996       7.01109966E-05
   103.019997       6.88028231E-05
   103.199997       6.73426184E-05
   103.379997       6.57538258E-05
   103.559998       6.40581056E-05
   103.739998       6.22740044E-05
   103.919998       6.04161869E-05
   104.099998       5.84954396E-05
   104.279999       5.65193914E-05
   104.459999       5.44939612E-05
   104.639999       5.24251045E-05
   104.820000       5.03204574E-05
   105.000000       4.81902716E-05
   105.180000       4.60473566E-05
   105.360001       4.39060423E-05
   105.540001       4.17803967E-05
   105.720001       3.96822834E-05
   105.900002       3.76195603E-05
   106.080002       3.55948978E-05
   106.260002       3.36052653E-05
   106.440002       3.16422993E-05
   106.620003       2.96934850E-05
   106.800003       2.77441177E-05
   106.980003       2.57796910E-05
   107.160004       2.37881359E-05
   107.339996       2.17614343E-05
   107.519997       1.96961373E-05
   107.699997       1.75927507E-05
   107.879997       1.54543159E-05
   108.059998       1.32847636E-05
   108.239998       1.10874544E-05
   108.419998       8.86427461E-06
   108.599998       6.61523291E-06
   108.779999       4.33855530E-06
   108.959999       2.03107356E-06
   109.139999      -3.11021466E-07
   109.320000      -2.69112184E-06
   109.500000      -5.11094959E-06
   109.680000      -7.56929057E-06
   109.860001      -1.00610168E-05
   110.040001      -1.25766928E-05
   110.220001      -1.51028780E-05
   110.400002      -1.76230933E-05
   110.580002      -2.01192906E-05
   110.760002      -2.25735894E-05
   110.940002      -2.49701188E-05
   111.120003      -2.72966645E-05
   111.300003      -2.95457812E-05
   111.480003      -3.17149024E-05
   111.660004      -3.38053796E-05
   111.839996      -3.58204561E-05
   112.019997      -3.77627766E-05
   112.199997      -3.96321957E-05
   112.379997      -4.14246097E-05
   112.559998      -4.31321496E-05
   112.739998      -4.47446182E-05
   112.919998      -4.62515745E-05
   113.099998      -4.76445457E-05
   113.279999      -4.89188096E-05
   113.459999      -5.00745300E-05
   113.639999      -5.11172220E-05
   113.820000      -5.20575340E-05
   114.000000      -5.29103781E-05
   114.180000      -5.36933803E-05
   114.360001      -5.44248542E-05
   114.540001      -5.51215453E-05
   114.720001      -5.57964740E-05
   114.900002      -5.64573638E-05
   115.080002      -5.71058990E-05
   115.260002      -5.77378669E-05
   115.440002      -5.83441324E-05
   115.620003      -5.89123556E-05
   115.800003      -5.94292542E-05
   115.980003      -5.98830848E-05
   116.160004      -6.02659857E-05
   116.339996      -6.05754722E-05
   116.519997      -6.08147857E-05
   116.699997      -6.09920244E-05
   116.879997      -6.11182477E-05
   117.059998      -6.12053555E-05
   117.239998      -6.12644144E-05
   117.419998      -6.13048396E-05
   117.599998      -6.13343946E-05
   117.779999      -6.13596276E-05
   117.959999      -6.13861848E-05
   118.139999      -6.14188466E-05
   118.320000      -6.14610326E-05
   118.500000      -6.15141544E-05
   118.680000      -6.15770914E-05
   118.860001      -6.16459511E-05
   119.040001      -6.17141486E-05
   119.220001      -6.17728729E-05
   119.400002      -6.18117992E-05
   119.580002      -6.18199774E-05