  -34.5000000         0.00000000    
  -34.3195000         0.00000000    
  -34.1389999         0.00000000    
  -33.9584999         9.93977282E-18
  -33.7779999         5.65346582E-17
  -33.5974998         1.72940358E-16
  -33.4169998         3.70029969E-16
  -33.2364998         6.04777024E-16
  -33.0559998         7.68290912E-16
  -32.8754997         7.07475111E-16
  -32.6949997         2.76180492E-16
  -32.5144997        -6.03088941E-16
  -32.3339996        -1.88819018E-15
  -32.1534996        -3.38884838E-15
  -31.9729996        -4.75944806E-15
  -31.7924995        -5.50352500E-15
  -31.6119995        -4.97884061E-15
  -31.4314995        -2.39492573E-15
  -31.2509995         3.19864311E-15
  -31.0704994         1.29217595E-14
  -30.8899994         2.80361993E-14
  -30.7094994         4.98172501E-14
  -30.5289993         7.92451974E-14
  -30.3484993         1.16459915E-13
  -30.1679993         1.60001461E-13
  -29.9874992         2.05987273E-13
  -29.8069992         2.47514086E-13
  -29.6264992         2.74663078E-13
  -29.4459991         2.75479319E-13
  -29.2654991         2.38164848E-13
  -29.0849991         1.54462529E-13
  -28.9044991         2.38064861E-14
  -28.7240009        -1.42650093E-13
  -28.5435009        -3.19379695E-13
  -28.3630009        -4.66454349E-13
  -28.1825008        -5.32907052E-13
  -28.0020008        -4.63383618E-13
  -27.8215008        -2.07140362E-13
  -27.6410007         2.72160116E-13
  -27.4605007         9.87680315E-13
  -27.2800007         1.92349457E-12
  -27.0995007         3.03268196E-12
  -26.9190006         4.23901235E-12
  -26.7385006         5.44015701E-12
  -26.5580006         6.51089686E-12
  -26.3775005         7.30869445E-12
  -26.1970005         7.68818256E-12
  -26.0165005         7.52809707E-12
  -25.8360004         6.75963062E-12
  -25.6555004         5.36740140E-12
  -25.4750004         3.33602438E-12
  -25.2945004         5.55149568E-13
  -25.1140003        -3.23899956E-12
  -24.9335003        -8.37290653E-12
  -24.7530003        -1.49461225E-11
  -24.5725002        -2.24632275E-11
  -24.3920002        -2.96883247E-11
  -24.2115002        -3.50376603E-11
  -24.0310001        -3.75509970E-11
  -23.8505001        -3.79938546E-11
  -23.6700001        -3.92577117E-11
  -23.4895000        -4.53338721E-11
  -23.3090000        -5.88948126E-11
  -23.1285000        -7.86065449E-11
  -22.9480000        -9.79984774E-11
  -22.7674999        -1.07341601E-10
  -22.5869999        -9.84249141E-11
  -22.4064999        -7.01143310E-11
  -22.2259998        -3.14004343E-11
  -22.0454998         6.93211981E-13
  -21.8649998         8.48220452E-12
  -21.6844997        -1.66706388E-11
  -21.5039997        -6.71452408E-11
  -21.3234997        -1.18617019E-10
  -21.1429996        -1.37709233E-10
  -20.9624996        -9.52435630E-11
  -20.7819996         2.02182073E-11
  -20.6014996         1.94287655E-10
  -20.4209995         3.87859800E-10
  -20.2404995         5.47713930E-10
  -20.0599995         6.23392171E-10
  -19.8794994         5.84710724E-10
  -19.6989994         4.33567821E-10
  -19.5184994         2.05112524E-10
  -19.3379993        -4.31917453E-11
  -19.1574993        -2.51228816E-10
  -18.9769993        -3.76745274E-10
  -18.7964993        -4.07164663E-10
  -18.6159992        -3.56147556E-10
  -18.4354992        -2.45748005E-10
  -18.2549992        -8.36075792E-11
  -18.0744991         1.50548005E-10
  -17.8939991         4.97620278E-10
  -17.7134991         9.89859639E-10
  -17.5330009         1.61139069E-09
  -17.3525009         2.26876984E-09
  -17.1720009         2.79021983E-09
  -16.9915009         2.96043012E-09
  -16.8110008         2.58154986E-09
  -16.6305008         1.53853430E-09
  -16.4500008        -1.55432139E-10
  -16.2695007        -2.34941133E-09
  -16.0890007        -4.78273821E-09
  -15.9084997        -7.13892412E-09
  -15.7279997        -9.10671538E-09
  -15.5474997        -1.04302629E-08
  -15.3669996        -1.09367448E-08
  -15.1864996        -1.05387929E-08
  -15.0059996        -9.21789134E-09
  -14.8254995        -7.00153180E-09
  -14.6450005        -3.94923605E-09
  -14.4645004        -1.58566507E-10
  -14.2840004         4.20841095E-09
  -14.1035004         8.89174601E-09
  -13.9230003         1.35170861E-08
  -13.7425003         1.76187829E-08
  -13.5620003         2.07101394E-08
  -13.3815002         2.23843593E-08
  -13.2010002         2.24095000E-08
  -13.0205002         2.07768664E-08
  -12.8400002         1.76797759E-08
  -12.6595001         1.34309506E-08
  -12.4790001         8.35613534E-09
  -12.2985001         2.71266676E-09
  -12.1180000        -3.33107208E-09
  -11.9375000        -9.64913838E-09
  -11.7570000        -1.60692650E-08
  -11.5764999        -2.22842349E-08
  -11.3959999        -2.78043419E-08
  -11.2154999        -3.19758264E-08
  -11.0349998        -3.40687087E-08
  -10.8544998        -3.34181856E-08
  -10.6739998        -2.95890938E-08
  -10.4934998        -2.25233574E-08
  -10.3129997        -1.26272948E-08
  -10.1324997        -7.64154628E-10
  -9.95199966         1.18599139E-08
  -9.77149963         2.38947386E-08
  -9.59099960         3.40774413E-08
  -9.41049957         4.14317718E-08
  -9.22999954         4.53863898E-08
  -9.04950047         4.57989628E-08
  -8.86900043         4.29095941E-08
  -8.68850040         3.72638027E-08
  -8.50800037         2.96347427E-08
  -8.32750034         2.09474784E-08
  -8.14700031         1.21874448E-08
  -7.96649981         4.27718483E-09
  -7.78599977        -2.07014939E-09
  -7.60550022        -6.48354526E-09
  -7.42500019        -9.00520636E-09
  -7.24450016        -1.00683781E-08
  -7.06400013        -1.03846300E-08
  -6.88350010        -1.07744320E-08
  -6.70300007        -1.19861481E-08
  -6.52250004        -1.45392045E-08
  -6.34200001        -1.86102476E-08
  -6.16149998        -2.39719160E-08
  -5.98099995        -2.99956895E-08
  -5.80049992        -3.57331977E-08
  -5.61999989        -4.00808027E-08
  -5.43949986        -4.20070698E-08
  -5.25899982        -4.07938892E-08
  -5.07849979        -3.62287480E-08
  -4.89799976        -2.86982083E-08
  -4.71750021        -1.91638225E-08
  -4.53700018        -9.03206043E-09
  -4.35650015         5.66358870E-11
  -4.17600012         6.49694876E-09
  -3.99550009         9.02432173E-09
  -3.81500006         7.01979941E-09
  -3.63450003         7.45374429E-10
  -3.45400000        -8.58146443E-09
  -3.27349997        -1.89498781E-08
  -3.09299994        -2.79653634E-08
  -2.91249990        -3.34239658E-08
  -2.73200011        -3.38917232E-08
  -2.55150008        -2.91120532E-08
  -2.37100005        -2.01168824E-08
  -2.19050002        -9.01497721E-09
  -2.00999999         1.47282242E-09
  -1.82949996         8.60442828E-09
  -1.64900005         1.01979163E-08
  -1.46850002         5.09136910E-09
  -1.28799999        -6.59753585E-09
  -1.10749996        -2.34578152E-08
 -0.926999986        -4.30247944E-08
 -0.746500015        -6.22299865E-08
 -0.565999985        -7.79632856E-08
 -0.385500014        -8.76143318E-08
 -0.204999998        -8.94691965E-08
  -2.44999994E-02    -8.28952693E-08
  0.156000003        -6.83235726E-08
  0.336499989        -4.70931454E-08
  0.517000020        -2.12269740E-08
  0.697499990         6.82763979E-09
  0.878000021         3.45024560E-08
   1.05850005         5.94683058E-08
   1.23899996         8.00218913E-08
   1.41949999         9.54100514E-08
   1.60000002         1.05973058E-07
   1.78050005         1.13025060E-07
   1.96099997         1.18479704E-07
   2.14150000         1.24327386E-07
   2.32200003         1.32122437E-07
   2.50250006         1.42621630E-07
   2.68300009         1.55647342E-07
   2.86350012         1.70172882E-07
   3.04399991         1.84580188E-07
   3.22449994         1.97024349E-07
   3.40499997         2.05838091E-07
   3.58550000         2.09900094E-07
   3.76600003         2.08880721E-07
   3.94650006         2.03285836E-07
   4.12699986         1.94270456E-07
   4.30749989         1.83274238E-07
   4.48799992         1.71604626E-07
   4.66849995         1.60110517E-07
   4.84899998         1.49034236E-07
   5.02950001         1.38035048E-07
   5.21000004         1.26302837E-07
   5.39050007         1.12674883E-07
   5.57100010         9.57280264E-08
   5.75150013         7.38924797E-08
   5.93200016         4.56583926E-08
   6.11250019         9.89748727E-09
   6.29300022        -3.37684334E-08
   6.47349977        -8.46869170E-08
   6.65399981        -1.41107336E-07
   6.83449984        -2.00368433E-07
   7.01499987        -2.59280711E-07
   7.19549990        -3.14584327E-07
   7.37599993        -3.63374681E-07
   7.55649996        -4.03442669E-07
   7.73699999        -4.33520711E-07
   7.91750002        -4.53427845E-07
   8.09799957        -4.64081012E-07
   8.27849960        -4.67329187E-07
   8.45899963        -4.65607656E-07
   8.63949966        -4.61490401E-07
   8.81999969        -4.57277650E-07
   9.00049973        -4.54747948E-07
   9.18099976        -4.55113963E-07
   9.36149979        -4.59110339E-07
   9.54199982        -4.67082401E-07
   9.72249985        -4.78981576E-07
   9.90299988        -4.94275184E-07
   10.0834999        -5.11868677E-07
   10.2639999        -5.30148611E-07
   10.4445000        -5.47177194E-07
   10.6250000        -5.60962633E-07
   10.8055000        -5.69679798E-07
   10.9860001        -5.71756800E-07
   11.1665001        -5.65841162E-07
   11.3470001        -5.50736161E-07
   11.5275002        -5.25395365E-07
   11.7080002        -4.88984767E-07
   11.8885002        -4.40942301E-07
   12.0690002        -3.80947540E-07
   12.2495003        -3.08785786E-07
   12.4300003        -2.24190174E-07
   12.6105003        -1.26792017E-07
   12.7910004        -1.62627494E-08
   12.9715004         1.07384544E-07
   13.1520004         2.43468861E-07
   13.3325005         3.90434366E-07
   13.5129995         5.45835917E-07
   13.6934996         7.06487924E-07
   13.8739996         8.68700113E-07
   14.0544996         1.02855745E-06
   14.2349997         1.18226637E-06
   14.4154997         1.32660398E-06
   14.5959997         1.45944375E-06
   14.7764997         1.58020339E-06
   14.9569998         1.68999713E-06
   15.1374998         1.79132985E-06
   15.3179998         1.88735521E-06
   15.4984999         1.98092653E-06
   15.6789999         2.07378253E-06
   15.8594999         2.16614626E-06
   16.0400009         2.25682516E-06
   16.2205009         2.34370282E-06
   16.4009991         2.42440842E-06
   16.5814991         2.49697359E-06
   16.7619991         2.56038152E-06
   16.9424992         2.61497576E-06
   17.1229992         2.66268989E-06
   17.3034992         2.70701730E-06
   17.4839993         2.75264097E-06
   17.6644993         2.80474342E-06
   17.8449993         2.86813861E-06
   18.0254993         2.94648635E-06
   18.2059994         3.04180435E-06
   18.3864994         3.15434750E-06
   18.5669994         3.28275132E-06
   18.7474995         3.42426529E-06
   18.9279995         3.57498152E-06
   19.1084995         3.73011198E-06
   19.2889996         3.88447643E-06
   19.4694996         4.03328704E-06
   19.6499996         4.17315277E-06
   19.8304996         4.30298860E-06
   20.0109997         4.42448118E-06
   20.1914997         4.54189694E-06
   20.3719997         4.66126312E-06
   20.5524998         4.78920947E-06
   20.7329998         4.93178277E-06
   20.9134998         5.09350684E-06
   21.0939999         5.27676139E-06
   21.2744999         5.48149410E-06
   21.4549999         5.70528391E-06
   21.6355000         5.94380163E-06
   21.8160000         6.19168713E-06
   21.9965000         6.44373722E-06
   22.1770000         6.69608653E-06
   22.3575001         6.94700293E-06
   22.5380001         7.19701393E-06
   22.7185001         7.44832687E-06
   22.8990002         7.70381575E-06
   23.0795002         7.96591939E-06
   23.2600002         8.23577284E-06
   23.4405003         8.51268214E-06
   23.6210003         8.79387699E-06
   23.8015003         9.07452704E-06
   23.9820004         9.34803484E-06
   24.1625004         9.60671787E-06
   24.3430004         9.84291000E-06
   24.5235004         1.00503094E-05
   24.7040005         1.02251606E-05
   24.8845005         1.03668253E-05
   25.0650005         1.04775072E-05
   25.2455006         1.05612198E-05
   25.4260006         1.06224052E-05
   25.6065006         1.06646958E-05
   25.7870007         1.06901407E-05
   25.9675007         1.06989855E-05
   26.1480007         1.06898897E-05
   26.3285007         1.06604266E-05
   26.5090008         1.06077878E-05
   26.6895008         1.05296604E-05
   26.8700008         1.04251922E-05
   27.0505009         1.02957838E-05
   27.2310009         1.01454352E-05
   27.4115009         9.98040105E-06
   27.5919991         9.80821460E-06
   27.7724991         9.63640377E-06
   27.9529991         9.47134686E-06
   28.1334991         9.31755403E-06
   28.3139992         9.17745001E-06
   28.4944992         9.05144043E-06
   28.6749992         8.93807282E-06
   28.8554993         8.83421217E-06
   29.0359993         8.73535191E-06
   29.2164993         8.63624700E-06
   29.3969994         8.53185065E-06
   29.5774994         8.41831479E-06
   29.7579994         8.29367764E-06
   29.9384995         8.15795647E-06
   30.1189995         8.01262195E-06
   30.2994995         7.85974044E-06
   30.4799995         7.70116822E-06
   30.6604996         7.53804625E-06
   30.8409996         7.37058281E-06
   31.0214996         7.19799709E-06
   31.2019997         7.01846511E-06
   31.3824997         6.82912241E-06
   31.5629997         6.62623506E-06
   31.7434998         6.40570170E-06
   31.9239998         6.16378338E-06
   32.1044998         5.89779984E-06
   32.2849998         5.60653962E-06
   32.4654999         5.29023828E-06
   32.6459999         4.95030690E-06
   32.8264999         4.58908335E-06
   33.0070000         4.20982087E-06
   33.1875000         3.81687505E-06
   33.3680000         3.41584109E-06
   33.5485001         3.01338810E-06
   33.7290001         2.61673858E-06
   33.9095001         2.23302800E-06
   34.0900002         1.86884949E-06
   34.2705002         1.53019243E-06
   34.4510002         1.22267147E-06
   34.6315002         9.51726861E-07
   34.8120003         7.22489290E-07
   34.9925003         5.39226050E-07
   35.1730003         4.04622796E-07
   35.3535004         3.19237017E-07
   35.5340004         2.81386150E-07
   35.7145004         2.87439349E-07
   35.8950005         3.32306769E-07
   36.0755005         4.09870893E-07
   36.2560005         5.13310169E-07
   36.4365005         6.35371464E-07
   36.6170006         7.68731240E-07
   36.7975006         9.06407536E-07
   36.9780006         1.04204651E-06
   37.1585007         1.16985848E-06
   37.3390007         1.28420686E-06
   37.5195007         1.37907762E-06
   37.7000008         1.44787668E-06
   37.8805008         1.48377296E-06
   38.0610008         1.48057302E-06
   38.2415009         1.43369004E-06
   38.4220009         1.34075196E-06
   38.6025009         1.20155664E-06
   38.7830009         1.01748333E-06
   38.9635010         7.90715433E-07
   39.1440010         5.23657548E-07
   39.3245010         2.18698645E-07
   39.5050011        -1.21753985E-07
   39.6855011        -4.95156883E-07
   39.8660011        -8.98707640E-07
   40.0465012        -1.32909770E-06
   40.2270012        -1.78202390E-06
   40.4075012        -2.25149029E-06
   40.5880013        -2.72917373E-06
   40.7685013        -3.20425966E-06
   40.9490013        -3.66403970E-06
   41.1295013        -4.09520180E-06
   41.3100014        -4.48541823E-06
   41.4905014        -4.82474070E-06
   41.6710014        -5.10645032E-06
   41.8515015        -5.32735430E-06
   42.0320015        -5.48766775E-06
   42.2125015        -5.59066802E-06
   42.3930016        -5.64211723E-06
   42.5735016        -5.64933498E-06
   42.7540016        -5.61989873E-06
   42.9345016        -5.56020768E-06
   43.1150017        -5.47438322E-06
   43.2955017        -5.36395373E-06
   43.4760017        -5.22850678E-06
   43.6565018        -5.06705555E-06
   43.8370018        -4.87955049E-06
   44.0175018        -4.66801976E-06
   44.1980019        -4.43702993E-06
   44.3785019        -4.19354501E-06
   44.5589981        -3.94639483E-06
   44.7394981        -3.70551879E-06
   44.9199982        -3.48100912E-06
   45.1004982        -3.28191391E-06
   45.2809982        -3.11490908E-06
   45.4614983        -2.98314626E-06
   45.6419983        -2.88569163E-06
   45.8224983        -2.81783196E-06
   46.0029984        -2.77218851E-06
   46.1834984        -2.74020545E-06
   46.3639984        -2.71354270E-06
   46.5444984        -2.68502572E-06
   46.7249985        -2.64912433E-06
   46.9054985        -2.60216120E-06
   47.0859985        -2.54239399E-06
   47.2664986        -2.46992568E-06
   47.4469986        -2.38625535E-06
   47.6274986        -2.29334182E-06
   47.8079987        -2.19232834E-06
   47.9884987        -2.08240340E-06
   48.1689987        -1.96032397E-06
   48.3494987        -1.82091458E-06
   48.5299988        -1.65843255E-06
   48.7104988        -1.46833418E-06
   48.8909988        -1.24888732E-06
   49.0714989        -1.00225975E-06
   49.2519989        -7.34966989E-07
   49.4324989        -4.57683683E-07
   49.6129990        -1.84449604E-07
   49.7934990         6.87824624E-08
   49.9739990         2.86230232E-07
   50.1544991         4.54725296E-07
   50.3349991         5.65938251E-07
   50.5154991         6.17685316E-07
   50.6959991         6.13838495E-07
   50.8764992         5.62851881E-07
   51.0569992         4.75421274E-07
   51.2374992         3.62015157E-07
   51.4179993         2.30921458E-07
   51.5984993         8.70567050E-08
   51.7789993        -6.84650416E-08
   51.9594994        -2.38153376E-07
   52.1399994        -4.27336090E-07
   52.3204994        -6.42744226E-07
   52.5009995        -8.90516901E-07
   52.6814995        -1.17404261E-06
   52.8619995        -1.49226503E-06
   53.0424995        -1.83913107E-06
   53.2229996        -2.20450011E-06
   53.4034996        -2.57626061E-06
   53.5839996        -2.94298411E-06
   53.7644997        -3.29630643E-06
   53.9449997        -3.63248955E-06
   54.1254997        -3.95296502E-06
   54.3059998        -4.26396400E-06
   54.4864998        -4.57537226E-06
   54.6669998        -4.89898184E-06
   54.8474998        -5.24627558E-06
   55.0279999        -5.62611876E-06
   55.2084999        -6.04292472E-06
   55.3889999        -6.49590766E-06
   55.5695000        -6.97973019E-06
   55.7500000        -7.48632419E-06
   55.9305000        -8.00721864E-06
   56.1110001        -8.53550227E-06
   56.2915001        -9.06693731E-06
   56.4720001        -9.60017042E-06
   56.6525002        -1.01363621E-05
   56.8330002        -1.06786729E-05
   57.0135002        -1.12316720E-05
   57.1940002        -1.18005983E-05
   57.3745003        -1.23902473E-05
   57.5550003        -1.30035733E-05
   57.7355003        -1.36404205E-05
   57.9160004        -1.42968911E-05
   58.0965004        -1.49657099E-05
   58.2770004        -1.56374608E-05
   58.4575005        -1.63023196E-05
   58.6380005        -1.69516388E-05
   58.8185005        -1.75792284E-05
   58.9990005        -1.81821924E-05
   59.1795006        -1.87614496E-05
   59.3600006        -1.93219621E-05
   59.5405006        -1.98723974E-05
   59.7210007        -2.04240405E-05
   59.9015007        -2.09889968E-05
   60.0820007        -2.15781038E-05
   60.2625008        -2.21993541E-05
   60.4430008        -2.28572553E-05
   60.6235008        -2.35533644E-05
   60.8040009        -2.42874630E-05
   60.9845009        -2.50587600E-05
   61.1650009        -2.58666096E-05
   61.3455009        -2.67106898E-05
   61.5260010        -2.75908478E-05
   61.7065010        -2.85072038E-05
   61.8870010        -2.94603287E-05
   62.0675011        -3.04514288E-05
   62.2480011        -3.14821518E-05
   62.4285011        -3.25539440E-05
   62.6090012        -3.36671765E-05
   62.7895012        -3.48206086E-05
   62.9700012        -3.60113045E-05
   63.1505013        -3.72350587E-05
   63.3310013        -3.84868690E-05
   63.5115013        -3.97610820E-05
   63.6920013        -4.10510984E-05
   63.8725014        -4.23491510E-05
   64.0530014        -4.36463197E-05
   64.2334976        -4.49332074E-05
   64.4140015        -4.62009011E-05
   64.5944977        -4.74420776E-05
   64.7750015        -4.86515237E-05
   64.9554977        -4.98263835E-05
   65.1360016        -5.09661040E-05
   65.3164978        -5.20725989E-05
   65.4970016        -5.31504229E-05
   65.6774979        -5.42067319E-05
   65.8580017        -5.52504098E-05
   66.0384979        -5.62903733E-05
   66.2190018        -5.73334328E-05
   66.3994980        -5.83823494E-05
   66.5800018        -5.94350786E-05
   66.7604980        -6.04853267E-05
   66.9410019        -6.15241879E-05
   67.1214981        -6.25421599E-05
   67.3020020        -6.35309261E-05
   67.4824982        -6.44844913E-05
   67.6630020        -6.53997558E-05
   67.8434982        -6.62766324E-05
   68.0240021        -6.71176094E-05
   68.2044983        -6.79266814E-05
   68.3850021        -6.87076899E-05
   68.5654984        -6.94622358E-05
   68.7460022        -7.01881145E-05
   68.9264984        -7.08787629E-05
   69.1070023        -7.15242713E-05
   69.2874985        -7.21133620E-05
   69.4680023        -7.26359140E-05
   69.6484985        -7.30850370E-05
   69.8290024        -7.34582572E-05
   70.0094986        -7.37579685E-05
   70.1900024        -7.39912648E-05
   70.3704987        -7.41693439E-05
   70.5510025        -7.43064011E-05
   70.7314987        -7.44176068E-05
   70.9120026        -7.45164143E-05
   71.0924988        -7.46114965E-05
   71.2730026        -7.47045196E-05
   71.4534988        -7.47893064E-05
   71.6340027        -7.48530947E-05
   71.8144989        -7.48792881E-05
   71.9950027        -7.48509920E-05
   72.1754990        -7.47542435E-05
   72.3560028        -7.45805373E-05
   72.5364990        -7.43284327E-05
   72.7170029        -7.40040050E-05
   72.8974991        -7.36204238E-05
   73.0780029        -7.31961190E-05
   73.2584991        -7.27518927E-05
   73.4390030        -7.23070989E-05
   73.6194992        -7.18759911E-05
   73.8000031        -7.14652488E-05
   73.9804993        -7.10731983E-05
   74.1610031        -7.06908540E-05
   74.3414993        -7.03042533E-05
   74.5220032        -6.98971708E-05
   74.7024994        -6.94537957E-05
   74.8830032        -6.89611770E-05
   75.0634995        -6.84113038E-05
   75.2440033        -6.78027645E-05
   75.4244995        -6.71413582E-05
   75.6050034        -6.64393010E-05
   75.7854996        -6.57126366E-05
   75.9660034        -6.49774593E-05
   76.1464996        -6.42460363E-05
   76.3270035        -6.35239121E-05
   76.5074997        -6.28088819E-05
   76.6880035        -6.20919236E-05
   76.8684998        -6.13593875E-05
   77.0490036        -6.05958448E-05
   77.2294998        -5.97868784E-05
   77.4100037        -5.89215961E-05
   77.5904999        -5.79945772E-05
   77.7710037        -5.70070151E-05
   77.9514999        -5.59666150E-05
   78.1320038        -5.48860444E-05
   78.3125000        -5.37802152E-05
   78.4929962        -5.26631266E-05
   78.6735001        -5.15453103E-05
   78.8539963        -5.04327036E-05
   79.0345001        -4.93269254E-05
   79.2149963        -4.82266660E-05
   79.3955002        -4.71292915E-05
   79.5759964        -4.60323099E-05
   79.7565002        -4.49344989E-05
   79.9369965        -4.38369461E-05
   80.1175003        -4.27440900E-05
   80.2979965        -4.16644143E-05
   80.4785004        -4.06103791E-05
   80.6589966        -3.95971583E-05
   80.8395004        -3.86403844E-05
   81.0199966        -3.77534925E-05
   81.2005005        -3.69456611E-05
   81.3809967        -3.62207829E-05
   81.5615005        -3.55776938E-05
   81.7419968        -3.50110786E-05
   81.9225006        -3.45127373E-05
   82.1029968        -3.40727784E-05
   82.2835007        -3.36809208E-05
   82.4639969        -3.33278986E-05
   82.6445007        -3.30068360E-05
   82.8249969        -3.27140770E-05
   83.0055008        -3.24490684E-05
   83.1859970        -3.22130727E-05
   83.3665009        -3.20072832E-05
   83.5469971        -3.18310631E-05
   83.7275009        -3.16810838E-05
   83.9079971        -3.15515063E-05
   84.0885010        -3.14348290E-05
   84.2689972        -3.13227865E-05
   84.4495010        -3.12069606E-05
   84.6299973        -3.10791438E-05
   84.8105011        -3.09318202E-05
   84.9909973        -3.07590781E-05
   85.1715012        -3.05577196E-05
   85.3519974        -3.03281086E-05
   85.5325012        -3.00741722E-05
   85.7129974        -2.98024424E-05
   85.8935013        -2.95205664E-05
   86.0739975        -2.92359509E-05
   86.2545013        -2.89549735E-05
   86.4349976        -2.86827926E-05
   86.6155014        -2.84233247E-05
   86.7959976        -2.81790544E-05
   86.9765015        -2.79505948E-05
   87.1569977        -2.77363652E-05
   87.3375015        -2.75327366E-05
   87.5179977        -2.73347141E-05
   87.6985016        -2.71368499E-05
   87.8789978        -2.69338852E-05
   88.0595016        -2.67208798E-05
   88.2399979        -2.64929768E-05
   88.4205017        -2.62453359E-05
   88.6009979        -2.59736134E-05
   88.7815018        -2.56748135E-05
   88.9619980        -2.53480157E-05
   89.1425018        -2.49942714E-05
   89.3229980        -2.46154159E-05
   89.5035019        -2.42122587E-05
   89.6839981        -2.37829572E-05
   89.8645020        -2.33223382E-05
   90.0449982        -2.28223616E-05
   90.2255020        -2.22733197E-05
   90.4059982        -2.16651479E-05
   90.5865021        -2.09884147E-05
   90.7669983        -2.02350056E-05
   90.9475021        -1.93987271E-05
   91.1279984        -1.84759465E-05
   91.3085022        -1.74661000E-05
   91.4889984        -1.63716431E-05
   91.6695023        -1.51971899E-05
   91.8499985        -1.39480408E-05
   92.0305023        -1.26287014E-05
   92.2109985        -1.12420330E-05
   92.3915024        -9.78931439E-06
   92.5719986        -8.27093754E-06
   92.7525024        -6.68719349E-06
   92.9329987        -5.03871297E-06
   93.1135025        -3.32663262E-06
   93.2939987        -1.55285602E-06
   93.4745026         2.79226498E-07
   93.6549988         2.16366084E-06
   93.8355026         4.09111135E-06
   94.0159988         6.04899878E-06
   94.1965027         8.02291106E-06
   94.3769989         9.99890653E-06
   94.5575027         1.19658525E-05
   94.7379990         1.39169069E-05
   94.9185028         1.58497787E-05
   95.0989990         1.77659858E-05
   95.2795029         1.96696401E-05
   95.4599991         2.15661530E-05
   95.6405029         2.34609288E-05
   95.8209991         2.53579292E-05
   96.0015030         2.72581929E-05
   96.1819992         2.91586839E-05
   96.3625031         3.10522082E-05
   96.5429993         3.29287177E-05
   96.7235031         3.47779023E-05
   96.9039993         3.65921624E-05
   97.0845032         3.83687875E-05
   97.2649994         4.01107282E-05
   97.4455032         4.18257841E-05
   97.6259995         4.35248221E-05
   97.8065033         4.52196873E-05
   97.9869995         4.69211300E-05
   98.1675034         4.86368481E-05
   98.3479996         5.03696247E-05
   98.5285034         5.21158217E-05
   98.7089996         5.38648164E-05
   98.8895035         5.56000014E-05
   99.0699997         5.73013822E-05
   99.2505035         5.89490992E-05
   99.4309998         6.05266141E-05
   99.6115036         6.20225474E-05
   99.7919998         6.34305907E-05
   99.9725037         6.47481065E-05
   100.153000         6.59741054E-05
   100.333504         6.71075541E-05
   100.514000         6.81461970E-05
   100.694504         6.90857632E-05
   100.875000         6.99194861E-05
   101.055496         7.06379433E-05
   101.236000         7.12295951E-05
   101.416496         7.16821378E-05
   101.597000         7.19845630E-05
   101.777496         7.21290126E-05
   101.958000         7.21117030E-05
   102.138496         7.19325035E-05
   102.319000         7.15935748E-05
   102.499496         7.10980021E-05
   102.680000         7.04491977E-05
   102.860497         6.96512579E-05
   103.041000         6.87098145E-05
   103.221497         6.76326454E-05
   103.402000         6.64295439E-05
   103.582497         6.51116861E-05
   103.763000         6.36910336E-05
   103.943497         6.21802392E-05
   104.124001         6.05930036E-05
   104.304497         5.89443516E-05
   104.485001         5.72501995E-05
   104.665497         5.55261104E-05
   104.846001         5.37856176E-05
   105.026497         5.20388348E-05
   105.207001         5.02917937E-05
   105.387497         4.85465425E-05
   105.568001         4.68014587E-05
   105.748497         4.50514781E-05
   105.929001         4.32882080E-05
   106.109497         4.15004761E-05
   106.290001         3.96756368E-05
   106.470497         3.78016484E-05
   106.651001         3.58691614E-05
   106.831497         3.38727077E-05
   107.012001         3.18103230E-05
   107.192497         2.96819544E-05
   107.373001         2.74873873E-05
   107.553497         2.52247919E-05
   107.734001         2.28904009E-05
   107.914497         2.04791413E-05
   108.095001         1.79856379E-05
   108.275497         1.54050849E-05
   108.456001         1.27339654E-05
   108.636497         9.97093230E-06
   108.817001         7.11806342E-06
   108.997498         4.18221543E-06
   109.178001         1.17579009E-06
   109.358498        -1.88376271E-06
   109.539001        -4.97583187E-06
   109.719498        -8.07924516E-06
   109.900002        -1.11745503E-05
   110.080498        -1.42451281E-05
   110.261002        -1.72770233E-05
   110.441498        -2.02579849E-05
   110.622002        -2.31764861E-05
   110.802498        -2.60210345E-05
   110.983002        -2.87798193E-05
   111.163498        -3.14403223E-05
   111.344002        -3.39888647E-05
   111.524498        -3.64105363E-05