  -34.5000000         0.00000000    
  -34.3195000         0.00000000    
  -34.1389999         0.00000000    
  -33.9584999         8.12619115E-26
  -33.7779999         3.13276724E-20
  -33.5974998         3.17496011E-19
  -33.4169998         1.64456596E-18
  -33.2364998         5.76730217E-18
  -33.0559998         1.52094675E-17
  -32.8754997         3.15939584E-17
  -32.6949997         5.22315588E-17
  -32.5144997         6.59442215E-17
  -32.3339996         5.07195553E-17
  -32.1534996        -2.19772889E-17
  -31.9729996        -1.70914070E-16
  -31.7924995        -3.78713619E-16
  -31.6119995        -5.71134146E-16
  -31.4314995        -6.21367382E-16
  -31.2509995        -3.80211279E-16
  -31.0704994         2.83092652E-16
  -30.8899994         1.42307623E-15
  -30.7094994         2.90980551E-15
  -30.5289993         4.29710995E-15
  -30.3484993         4.84024738E-15
  -30.1679993         3.85782215E-15
  -29.9874992         1.31195938E-15
  -29.8069992        -2.01468459E-15
  -29.6264992        -5.42009522E-15
  -29.4459991        -1.00678201E-14
  -29.2654991        -2.00802780E-14
  -29.0849991        -4.07959663E-14
  -28.9044991        -7.34636622E-14
  -28.7240009        -1.08725637E-13
  -28.5435009        -1.23853591E-13
  -28.3630009        -8.82925189E-14
  -28.1825008         2.21460915E-14
  -28.0020008         2.07953189E-13
  -27.8215008         4.34510609E-13
  -27.6410007         6.34086696E-13
  -27.4605007         7.22740769E-13
  -27.2800007         6.27028486E-13
  -27.0995007         3.11833892E-13
  -26.9190006        -1.99489026E-13
  -26.7385006        -8.20891044E-13
  -26.5580006        -1.42391014E-12
  -26.3775005        -1.88907787E-12
  -26.1970005        -2.18383276E-12
  -26.0165005        -2.43925778E-12
  -25.8360004        -2.97324036E-12
  -25.6555004        -4.20377665E-12
  -25.4750004        -6.43390679E-12
  -25.2945004        -9.56733998E-12
  -25.1140003        -1.28954382E-11
  -24.9335003        -1.51239958E-11
  -24.7530003        -1.47372201E-11
  -24.5725002        -1.06328679E-11
  -24.3920002        -2.77849076E-12
  -24.2115002         7.45605314E-12
  -24.0310001         1.75549523E-11
  -23.8505001         2.47127648E-11
  -23.6700001         2.69811881E-11
  -23.4895000         2.41807650E-11
  -23.3090000         1.80852885E-11
  -23.1285000         1.16955915E-11
  -22.9480000         7.87762130E-12
  -22.7674999         8.01701067E-12
  -22.5869999         1.14195901E-11
  -22.4064999         1.58792198E-11
  -22.2259998         1.92507659E-11
  -22.0454998         2.12776446E-11
  -21.8649998         2.46399064E-11
  -21.6844997         3.44041601E-11
  -21.5039997         5.57378969E-11
  -21.3234997         9.06289419E-11
  -21.1429996         1.35017178E-10
  -20.9624996         1.77839549E-10
  -20.7819996         2.02869180E-10
  -20.6014996         1.93084479E-10
  -20.4209995         1.36107403E-10
  -20.2404995         2.85838350E-11
  -20.0599995        -1.22346827E-10
  -19.8794994        -3.01123848E-10
  -19.6989994        -4.88326768E-10
  -19.5184994        -6.65327904E-10
  -19.3379993        -8.16399393E-10
  -19.1574993        -9.26818233E-10
  -18.9769993        -9.77719461E-10
  -18.7964993        -9.40690859E-10
  -18.6159992        -7.76199438E-10
  -18.4354992        -4.39113662E-10
  -18.2549992         1.08071795E-10
  -18.0744991         8.77189488E-10
  -17.8939991         1.83718851E-09
  -17.7134991         2.90417157E-09
  -17.5330009         3.94332034E-09
  -17.3525009         4.78371120E-09
  -17.1720009         5.24298516E-09
  -16.9915009         5.15607645E-09
  -16.8110008         4.40171943E-09
  -16.6305008         2.92221913E-09
  -16.4500008         7.34887873E-10
  -16.2695007        -2.06392192E-09
  -16.0890007        -5.30036415E-09
  -15.9084997        -8.72939232E-09
  -15.7279997        -1.20470363E-08
  -15.5474997        -1.49114925E-08
  -15.3669996        -1.69754983E-08
  -15.1864996        -1.79295601E-08
  -15.0059996        -1.75508763E-08
  -14.8254995        -1.57481406E-08
  -14.6450005        -1.25901982E-08
  -14.4645004        -8.30828029E-09
  -14.2840004        -3.26766258E-09
  -14.1035004         2.08703343E-09
  -13.9230003         7.30068628E-09
  -13.7425003         1.19742838E-08
  -13.5620003         1.58141447E-08
  -13.3815002         1.86548910E-08
  -13.2010002         2.04561577E-08
  -13.0205002         2.12806341E-08
  -12.8400002         2.12644089E-08
  -12.6595001         2.05888657E-08
  -12.4790001         1.94577279E-08
  -12.2985001         1.80771025E-08
  -12.1180000         1.66335425E-08
  -11.9375000         1.52672222E-08
  -11.7570000         1.40430823E-08
  -11.5764999         1.29291067E-08
  -11.3959999         1.17934498E-08
  -11.2154999         1.04287263E-08
  -11.0349998         8.60260219E-09
  -10.8544998         6.12281026E-09
  -10.6739998         2.89667867E-09
  -10.4934998        -1.03517950E-09
  -10.3129997        -5.50338175E-09
  -10.1324997        -1.02509725E-08
  -9.95199966        -1.49958410E-08
  -9.77149963        -1.94907965E-08
  -9.59099960        -2.35594158E-08
  -9.41049957        -2.70964797E-08
  -9.22999954        -3.00373806E-08
  -9.04950047        -3.23140696E-08
  -8.86900043        -3.38205837E-08
  -8.68850040        -3.44060425E-08
  -8.50800037        -3.38998234E-08
  -8.32750034        -3.21582903E-08
  -8.14700031        -2.91121758E-08
  -7.96649981        -2.47931542E-08
  -7.78599977        -1.93279970E-08
  -7.60550022        -1.29042608E-08
  -7.42500019        -5.72543479E-09
  -7.24450016         2.02119876E-09
  -7.06400013         1.01665867E-08
  -6.88350010         1.85296987E-08
  -6.70300007         2.68699250E-08
  -6.52250004         3.48479006E-08
  -6.34200001         4.20197601E-08
  -6.16149998         4.78770588E-08
  -5.98099995         5.19255110E-08
  -5.80049992         5.37788658E-08
  -5.61999989         5.32370166E-08
  -5.43949986         5.03231448E-08
  -5.25899982         4.52703190E-08
  -5.07849979         3.84663217E-08
  -4.89799976         3.03786365E-08
  -4.71750021         2.14841744E-08
  -4.53700018         1.22205321E-08
  -4.35650015         2.96215030E-09
  -4.17600012        -5.98754069E-09
  -3.99550009        -1.44017545E-08
  -3.81500006        -2.21433663E-08
  -3.63450003        -2.91841626E-08
  -3.45400000        -3.56179548E-08
  -3.27349997        -4.16499617E-08
  -3.09299994        -4.75494595E-08
  -2.91249990        -5.35659765E-08
  -2.73200011        -5.98264336E-08
  -2.55150008        -6.62433948E-08
  -2.37100005        -7.24670386E-08
  -2.19050002        -7.79028184E-08
  -2.00999999        -8.17966139E-08
  -1.82949996        -8.33669773E-08
  -1.64900005        -8.19485564E-08
  -1.46850002        -7.71080124E-08
  -1.28799999        -6.87047219E-08
  -1.10749996        -5.68878136E-08
 -0.926999986        -4.20408881E-08
 -0.746500015        -2.46989860E-08
 -0.565999985        -5.46404122E-09
 -0.385500014         1.50619996E-08
 -0.204999998         3.63189407E-08
  -2.44999994E-02     5.78079593E-08
  0.156000003         7.90966155E-08
  0.336499989         9.98161553E-08
  0.517000020         1.19653706E-07
  0.697499990         1.38338038E-07
  0.878000021         1.55617059E-07
   1.05850005         1.71227214E-07
   1.23899996         1.84860042E-07
   1.41949999         1.96134934E-07
   1.60000002         2.04588076E-07
   1.78050005         2.09685012E-07
   1.96099997         2.10858204E-07
   2.14150000         2.07562792E-07
   2.32200003         1.99337890E-07
   2.50250006         1.85858028E-07
   2.68300009         1.66962309E-07
   2.86350012         1.42656944E-07
   3.04399991         1.13096149E-07
   3.22449994         7.85547911E-08
   3.40499997         3.94083308E-08
   3.58550000        -3.86892962E-09
   3.76600003        -5.06857347E-08
   3.94650006        -1.00305456E-07
   4.12699986        -1.51823571E-07
   4.30749989        -2.04168614E-07
   4.48799992        -2.56136786E-07
   4.66849995        -3.06460095E-07
   4.84899998        -3.53896439E-07
   5.02950001        -3.97320832E-07
   5.21000004        -4.35796096E-07
   5.39050007        -4.68604441E-07
   5.57100010        -4.95231859E-07
   5.75150013        -5.15311285E-07
   5.93200016        -5.28541989E-07
   6.11250019        -5.34611559E-07
   6.29300022        -5.33146874E-07
   6.47349977        -5.23710469E-07
   6.65399981        -5.05843104E-07
   6.83449984        -4.79138237E-07
   7.01499987        -4.43322818E-07
   7.19549990        -3.98319486E-07
   7.37599993        -3.44275918E-07
   7.55649996        -2.81562194E-07
   7.73699999        -2.10748738E-07
   7.91750002        -1.32582784E-07
   8.09799957        -4.79734403E-08
   8.27849960         4.20152944E-08
   8.45899963         1.36173753E-07
   8.63949966         2.33172074E-07
   8.81999969         3.31606259E-07
   9.00049973         4.30057554E-07
   9.18099976         5.27145062E-07
   9.36149979         6.21547827E-07
   9.54199982         7.11982295E-07
   9.72249985         7.97137318E-07
   9.90299988         8.75591638E-07
   10.0834999         9.45750003E-07
   10.2639999         1.00583554E-06
   10.4445000         1.05396020E-06
   10.6250000         1.08826760E-06
   10.8055000         1.10711630E-06
   10.9860001         1.10925248E-06
   11.1665001         1.09392283E-06
   11.3470001         1.06089919E-06
   11.5275002         1.01041519E-06
   11.7080002         9.43049088E-07
   11.8885002         8.59599652E-07
   12.0690002         7.60995249E-07
   12.2495003         6.48253945E-07
   12.4300003         5.22476455E-07
   12.6105003         3.84834806E-07
   12.7910004         2.36512946E-07
   12.9715004         7.85831489E-08
   13.1520004        -8.81707578E-08
   13.3325005        -2.63434828E-07
   13.5129995        -4.47491999E-07
   13.6934996        -6.41244412E-07
   13.8739996        -8.46113210E-07
   14.0544996        -1.06383538E-06
   14.2349997        -1.29621151E-06
   14.4154997        -1.54486315E-06
   14.5959997        -1.81105725E-06
   14.7764997        -2.09562086E-06
   14.9569998        -2.39894348E-06
   15.1374998        -2.72104103E-06
   15.3179998        -3.06164065E-06
   15.4984999        -3.42026351E-06
   15.6789999        -3.79628432E-06
   15.8594999        -4.18896980E-06
   16.0400009        -4.59750618E-06
   16.2205009        -5.02101875E-06
   16.4009991        -5.45857665E-06
   16.5814991        -5.90917534E-06
   16.7619991        -6.37166340E-06
   16.9424992        -6.84462475E-06
   17.1229992        -7.32621857E-06
   17.3034992        -7.81402468E-06
   17.4839993        -8.30493354E-06
   17.6644993        -8.79514391E-06
   17.8449993        -9.28027839E-06
   18.0254993        -9.75560943E-06
   18.2059994        -1.02163640E-05
   18.3864994        -1.06580328E-05
   18.5669994        -1.10766432E-05
   18.7474995        -1.14689510E-05
   18.9279995        -1.18325570E-05
   19.1084995        -1.21659377E-05
   19.2889996        -1.24684548E-05
   19.4694996        -1.27403364E-05
   19.6499996        -1.29826640E-05
   19.8304996        -1.31973538E-05
   20.0109997        -1.33871217E-05
   20.1914997        -1.35554046E-05
   20.3719997        -1.37062334E-05
   20.5524998        -1.38440610E-05
   20.7329998        -1.39735566E-05
   20.9134998        -1.40994152E-05
   21.0939999        -1.42261943E-05
   21.2744999        -1.43582129E-05
   21.4549999        -1.44995092E-05
   21.6355000        -1.46538132E-05
   21.8160000        -1.48245472E-05
   21.9965000        -1.50147698E-05
   22.1770000        -1.52270986E-05
   22.3575001        -1.54635945E-05
   22.5380001        -1.57256345E-05
   22.7185001        -1.60138152E-05
   22.8990002        -1.63279037E-05
   23.0795002        -1.66668451E-05
   23.2600002        -1.70288422E-05
   23.4405003        -1.74114721E-05
   23.6210003        -1.78118171E-05
   23.8015003        -1.82266303E-05
   23.9820004        -1.86524849E-05
   24.1625004        -1.90859282E-05
   24.3430004        -1.95236444E-05
   24.5235004        -1.99625920E-05
   24.7040005        -2.04001444E-05
   24.8845005        -2.08341971E-05
   25.0650005        -2.12632331E-05
   25.2455006        -2.16863518E-05
   25.4260006        -2.21032460E-05
   25.6065006        -2.25141703E-05
   25.7870007        -2.29198831E-05
   25.9675007        -2.33216433E-05
   26.1480007        -2.37212025E-05
   26.3285007        -2.41208527E-05
   26.5090008        -2.45234041E-05
   26.6895008        -2.49321292E-05
   26.8700008        -2.53505605E-05
   27.0505009        -2.57822030E-05
   27.2310009        -2.62301273E-05
   27.4115009        -2.66965890E-05
   27.5919991        -2.71826830E-05
   27.7724991        -2.76881692E-05
   27.9529991        -2.82114434E-05
   28.1334991        -2.87496732E-05
   28.3139992        -2.92990408E-05
   28.4944992        -2.98550021E-05
   28.6749992        -3.04125315E-05
   28.8554993        -3.09662937E-05
   29.0359993        -3.15107682E-05
   29.2164993        -3.20403342E-05
   29.3969994        -3.25493529E-05
   29.5774994        -3.30323273E-05
   29.7579994        -3.34840515E-05
   29.9384995        -3.38998143E-05
   30.1189995        -3.42755557E-05
   30.2994995        -3.46079942E-05
   30.4799995        -3.48946487E-05
   30.6604996        -3.51338495E-05
   30.8409996        -3.53247051E-05
   31.0214996        -3.54671320E-05
   31.2019997        -3.55619377E-05
   31.3824997        -3.56109485E-05
   31.5629997        -3.56171586E-05
   31.7434998        -3.55848060E-05
   31.9239998        -3.55193588E-05
   32.1044998        -3.54273179E-05
   32.2849998        -3.53159267E-05
   32.4654999        -3.51927702E-05
   32.6459999        -3.50653681E-05
   32.8264999        -3.49408147E-05
   33.0070000        -3.48254980E-05
   33.1875000        -3.47249152E-05
   33.3680000        -3.46435845E-05
   33.5485001        -3.45849840E-05
   33.7290001        -3.45515255E-05
   33.9095001        -3.45445260E-05
   34.0900002        -3.45641638E-05
   34.2705002        -3.46094494E-05
   34.4510002        -3.46782617E-05
   34.6315002        -3.47674541E-05
   34.8120003        -3.48730500E-05
   34.9925003        -3.49905713E-05
   35.1730003        -3.51154158E-05
   35.3535004        -3.52432871E-05
   35.5340004        -3.53705800E-05
   35.7145004        -3.54946933E-05
   35.8950005        -3.56142227E-05
   36.0755005        -3.57289791E-05
   36.2560005        -3.58399084E-05
   36.4365005        -3.59488113E-05
   36.6170006        -3.60580452E-05
   36.7975006        -3.61701022E-05
   36.9780006        -3.62872270E-05
   37.1585007        -3.64110892E-05
   37.3390007        -3.65425185E-05
   37.5195007        -3.66813765E-05
   37.7000008        -3.68265282E-05
   37.8805008        -3.69758927E-05
   38.0610008        -3.71265669E-05
   38.2415009        -3.72749273E-05
   38.4220009        -3.74167248E-05
   38.6025009        -3.75471354E-05
   38.7830009        -3.76607168E-05
   38.9635010        -3.77513534E-05
   39.1440010        -3.78122277E-05
   39.3245010        -3.78358454E-05
   39.5050011        -3.78141995E-05
   39.6855011        -3.77390970E-05
   39.8660011        -3.76026146E-05
   40.0465012        -3.73976254E-05
   40.2270012        -3.71183269E-05
   40.4075012        -3.67606626E-05
   40.5880013        -3.63225809E-05
   40.7685013        -3.58041289E-05
   40.9490013        -3.52073803E-05
   41.1295013        -3.45362751E-05
   41.3100014        -3.37964120E-05
   41.4905014        -3.29948198E-05
   41.6710014        -3.21397129E-05
   41.8515015        -3.12401971E-05
   42.0320015        -3.03059551E-05
   42.2125015        -2.93468511E-05
   42.3930016        -2.83725458E-05
   42.5735016        -2.73921596E-05
   42.7540016        -2.64140072E-05
   42.9345016        -2.54454790E-05
   43.1150017        -2.44930616E-05
   43.2955017        -2.35624557E-05
   43.4760017        -2.26587217E-05
   43.6565018        -2.17864053E-05
   43.8370018        -2.09496066E-05
   44.0175018        -2.01519597E-05
   44.1980019        -1.93965716E-05
   44.3785019        -1.86859670E-05
   44.5589981        -1.80220723E-05
   44.7394981        -1.74062661E-05
   44.9199982        -1.68394581E-05
   45.1004982        -1.63221866E-05
   45.2809982        -1.58546463E-05
   45.4614983        -1.54366844E-05
   45.6419983        -1.50677452E-05
   45.8224983        -1.47468618E-05
   46.0029984        -1.44727173E-05
   46.1834984        -1.42438412E-05
   46.3639984        -1.40589027E-05
   46.5444984        -1.39170443E-05
   46.7249985        -1.38181686E-05
   46.9054985        -1.37630714E-05
   47.0859985        -1.37533916E-05
   47.2664986        -1.37913548E-05
   47.4469986        -1.38793912E-05
   47.6274986        -1.40197099E-05
   47.8079987        -1.42139079E-05
   47.9884987        -1.44627011E-05
   48.1689987        -1.47658011E-05
   48.3494987        -1.51219056E-05
   48.5299988        -1.55287689E-05
   48.7104988        -1.59833162E-05
   48.8909988        -1.64817466E-05
   49.0714989        -1.70196436E-05
   49.2519989        -1.75920904E-05
   49.4324989        -1.81938249E-05
   49.6129990        -1.88194153E-05
   49.7934990        -1.94634595E-05
   49.9739990        -2.01207404E-05
   50.1544991        -2.07862959E-05
   50.3349991        -2.14553656E-05
   50.5154991        -2.21232112E-05
   50.6959991        -2.27848632E-05
   50.8764992        -2.34348445E-05
   51.0569992        -2.40669924E-05
   51.2374992        -2.46744203E-05
   51.4179993        -2.52496811E-05
   51.5984993        -2.57850970E-05
   51.7789993        -2.62732519E-05
   51.9594994        -2.67075302E-05
   52.1399994        -2.70826131E-05
   52.3204994        -2.73948735E-05
   52.5009995        -2.76425726E-05
   52.6814995        -2.78258703E-05
   52.8619995        -2.79466476E-05
   53.0424995        -2.80081513E-05
   53.2229996        -2.80145887E-05
   53.4034996        -2.79706601E-05
   53.5839996        -2.78810985E-05
   53.7644997        -2.77502659E-05
   53.9449997        -2.75818147E-05
   54.1254997        -2.73784117E-05
   54.3059998        -2.71415938E-05
   54.4864998        -2.68716885E-05
   54.6669998        -2.65678882E-05
   54.8474998        -2.62283975E-05
   55.0279999        -2.58506752E-05
   55.2084999        -2.54317038E-05
   55.3889999        -2.49682471E-05
   55.5695000        -2.44570510E-05
   55.7500000        -2.38950142E-05
   55.9305000        -2.32792681E-05
   56.1110001        -2.26073153E-05
   56.2915001        -2.18771602E-05
   56.4720001        -2.10875369E-05
   56.6525002        -2.02382034E-05
   56.8330002        -1.93302167E-05
   57.0135002        -1.83661432E-05
   57.1940002        -1.73501066E-05
   57.3745003        -1.62876113E-05
   57.5550003        -1.51851573E-05
   57.7355003        -1.40497114E-05
   57.9160004        -1.28881602E-05
   58.0965004        -1.17068403E-05
   58.2770004        -1.05112222E-05
   58.4575005        -9.30580973E-06
   58.6380005        -8.09414814E-06
   58.8185005        -6.87894726E-06
   58.9990005        -5.66218660E-06
   59.1795006        -4.44522084E-06
   59.3600006        -3.22883557E-06
   59.5405006        -2.01333069E-06
   59.7210007        -7.98631220E-07
   59.9015007         4.15550687E-07
   60.0820007         1.62950596E-06
   60.2625008         2.84337330E-06
   60.4430008         4.05702804E-06
   60.6235008         5.27008615E-06
   60.8040009         6.48197101E-06
   60.9845009         7.69200506E-06
   61.1650009         8.89942294E-06
   61.3455009         1.01032947E-05
   61.5260010         1.13023198E-05
   61.7065010         1.24945909E-05
   61.8870010         1.36774288E-05
   62.0675011         1.48473728E-05
   62.2480011         1.60003783E-05
   62.4285011         1.71322263E-05
   62.6090012         1.82389595E-05
   62.7895012         1.93172673E-05
   62.9700012         2.03646614E-05
   63.1505013         2.13794028E-05
   63.3310013         2.23602474E-05
   63.5115013         2.33060873E-05
   63.6920013         2.42156857E-05
   63.8725014         2.50875619E-05
   64.0530014         2.59200806E-05
   64.2334976         2.67116757E-05
   64.4140015         2.74611230E-05
   64.5944977         2.81677203E-05
   64.7750015         2.88313240E-05
   64.9554977         2.94522724E-05
   65.1360016         3.00311822E-05
   65.3164978         3.05688009E-05
   65.4970016         3.10658870E-05
   65.6774979         3.15231846E-05
   65.8580017         3.19414867E-05
   66.0384979         3.23216300E-05
   66.2190018         3.26644986E-05
   66.3994980         3.29709001E-05
   66.5800018         3.32414384E-05
   66.7604980         3.34764700E-05
   66.9410019         3.36761623E-05
   67.1214981         3.38407408E-05
   67.3020020         3.39708786E-05
   67.4824982         3.40680599E-05
   67.6630020         3.41348568E-05
   67.8434982         3.41748892E-05
   68.0240021         3.41925079E-05
   68.2044983         3.41922641E-05
   68.3850021         3.41782070E-05
   68.5654984         3.41533487E-05
   68.7460022         3.41192826E-05
   68.9264984         3.40761617E-05
   69.1070023         3.40229562E-05
   69.2874985         3.39579456E-05
   69.4680023         3.38792597E-05
   69.6484985         3.37854399E-05
   69.8290024         3.36757694E-05
   70.0094986         3.35504628E-05
   70.1900024         3.34106589E-05
   70.3704987         3.32582240E-05
   70.5510025         3.30954899E-05
   70.7314987         3.29249851E-05
   70.9120026         3.27491325E-05
   71.0924988         3.25700494E-05
   71.2730026         3.23894346E-05
   71.4534988         3.22084925E-05
   71.6340027         3.20279905E-05
   71.8144989         3.18483435E-05
   71.9950027         3.16697806E-05
   72.1754990         3.14924655E-05
   72.3560028         3.13166711E-05
   72.5364990         3.11428303E-05
   72.7170029         3.09715870E-05
   72.8974991         3.08038107E-05
   73.0780029         3.06404909E-05
   73.2584991         3.04826917E-05
   73.4390030         3.03314027E-05
   73.6194992         3.01873933E-05
   73.8000031         3.00510219E-05
   73.9804993         2.99220410E-05
   74.1610031         2.97994866E-05
   74.3414993         2.96816615E-05
   74.5220032         2.95663158E-05
   74.7024994         2.94509900E-05
   74.8830032         2.93334706E-05
   75.0634995         2.92123041E-05
   75.2440033         2.90871540E-05
   75.4244995         2.89589880E-05
   75.6050034         2.88299780E-05
   75.7854996         2.87031635E-05
   75.9660034         2.85819406E-05
   76.1464996         2.84694597E-05
   76.3270035         2.83681093E-05
   76.5074997         2.82790406E-05
   76.6880035         2.82018882E-05
   76.8684998         2.81346311E-05
   77.0490036         2.80735931E-05
   77.2294998         2.80135937E-05
   77.4100037         2.79482192E-05
   77.5904999         2.78702173E-05
   77.7710037         2.77720028E-05
   77.9514999         2.76462251E-05
   78.1320038         2.74863341E-05
   78.3125000         2.72870420E-05
   78.4929962         2.70446089E-05
   78.6735001         2.67568976E-05
   78.8539963         2.64231967E-05
   79.0345001         2.60439065E-05
   79.2149963         2.56201783E-05
   79.3955002         2.51536039E-05
   79.5759964         2.46460659E-05
   79.7565002         2.40997124E-05
   79.9369965         2.35170319E-05
   80.1175003         2.29009511E-05
   80.2979965         2.22549297E-05
   80.4785004         2.15829969E-05
   80.6589966         2.08897472E-05
   80.8395004         2.01803778E-05
   81.0199966         1.94606619E-05
   81.2005005         1.87369405E-05
   81.3809967         1.80160023E-05
   81.5615005         1.73047920E-05
   81.7419968         1.66099853E-05
   81.9225006         1.59373594E-05
   82.1029968         1.52911743E-05
   82.2835007         1.46736211E-05
   82.4639969         1.40845486E-05
   82.6445007         1.35215396E-05
   82.8249969         1.29803420E-05
   83.0055008         1.24555872E-05
   83.1859970         1.19416218E-05
   83.3665009         1.14332743E-05
   83.5469971         1.09264092E-05
   83.7275009         1.04181981E-05
   83.9079971         9.90714580E-06
   84.0885010         9.39295387E-06
   84.2689972         8.87633996E-06
   84.4495010         8.35890205E-06
   84.6299973         7.84302756E-06
   84.8105011         7.33182787E-06
   84.9909973         6.82901191E-06
   85.1715012         6.33866330E-06
   85.3519974         5.86493024E-06
   85.5325012         5.41167219E-06
   85.7129974         4.98215877E-06
   85.8935013         4.57888473E-06
   86.0739975         4.20353490E-06
   86.2545013         3.85707426E-06
   86.4349976         3.53987161E-06
   86.6155014         3.25181782E-06
   86.7959976         2.99233898E-06
   86.9765015         2.76032915E-06
   87.1569977         2.55403552E-06
   87.3375015         2.37095901E-06
   87.5179977         2.20785955E-06
   87.6985016         2.06089430E-06
   87.8789978         1.92589118E-06
   88.0595016         1.79869437E-06
   88.2399979         1.67550854E-06
   88.4205017         1.55315035E-06
   88.6009979         1.42915735E-06
   88.7815018         1.30175215E-06
   88.9619980         1.16968397E-06
   89.1425018         1.03201785E-06
   89.3229980         8.87908527E-07
   89.5035019         7.36406548E-07
   89.6839981         5.76303876E-07
   89.8645020         4.06032285E-07
   90.0449982         2.23626230E-07
   90.2255020         2.67651661E-08
   90.4059982        -1.87058831E-07
   90.5865021        -4.20263660E-07
   90.7669983        -6.74788396E-07
   90.9475021        -9.51696165E-07
   91.1279984        -1.25084546E-06
   91.3085022        -1.57073237E-06
   91.4889984        -1.90857895E-06
   91.6695023        -2.26067368E-06
   91.8499985        -2.62291746E-06
   92.0305023        -2.99145518E-06
   92.2109985        -3.36325093E-06
   92.3915024        -3.73646526E-06
   92.5719986        -4.11052361E-06
   92.7525024        -4.48584296E-06
   92.9329987        -4.86326235E-06
   93.1135025        -5.24330881E-06
   93.2939987        -5.62549030E-06
   93.4745026        -6.00780731E-06
   93.6549988        -6.38663369E-06
   93.8355026        -6.75701949E-06
   94.0159988        -7.11337225E-06
   94.1965027        -7.45035413E-06
   94.3769989        -7.76379602E-06
   94.5575027        -8.05141644E-06
   94.7379990        -8.31319176E-06
   94.9185028        -8.55130838E-06
   95.0989990        -8.76974445E-06
   95.2795029        -8.97362224E-06
   95.4599991        -9.16849422E-06
   95.6405029        -9.35976732E-06
   95.8209991        -9.55236010E-06
   96.0015030        -9.75063904E-06
   96.1819992        -9.95857226E-06
   96.3625031        -1.01799778E-05
   96.5429993        -1.04187702E-05
   96.7235031        -1.06790894E-05
   96.9039993        -1.09653056E-05
   97.0845032        -1.12819116E-05
   97.2649994        -1.16333385E-05
   97.4455032        -1.20237282E-05
   97.6259995        -1.24566659E-05
   97.8065033        -1.29348709E-05
   97.9869995        -1.34598295E-05
   98.1675034        -1.40314287E-05
   98.3479996        -1.46476441E-05
   98.5285034        -1.53043784E-05
   98.7089996        -1.59955198E-05
   98.8895035        -1.67132384E-05
   99.0699997        -1.74484685E-05
   99.2505035        -1.81914729E-05
   99.4309998        -1.89323528E-05
   99.6115036        -1.96613928E-05
   99.7919998        -2.03692107E-05
   99.9725037        -2.10467188E-05
   100.153000        -2.16850076E-05
   100.333504        -2.22752533E-05
   100.514000        -2.28087538E-05
   100.694504        -2.32770926E-05
   100.875000        -2.36723954E-05
   101.055496        -2.39875990E-05
   101.236000        -2.42166097E-05
   101.416496        -2.43543527E-05
   101.597000        -2.43967388E-05
   101.777496        -2.43406848E-05
   101.958000        -2.41842663E-05
   102.138496        -2.39271139E-05
   102.319000        -2.35709813E-05
   102.499496        -2.31203230E-05
   102.680000        -2.25826861E-05
   102.860497        -2.19687154E-05
   103.041000        -2.12916693E-05
   103.221497        -2.05665128E-05
   103.402000        -1.98087600E-05
   103.582497        -1.90333321E-05
   103.763000        -1.82536405E-05
   103.943497        -1.74810339E-05
   104.124001        -1.67246380E-05
   104.304497        -1.59914471E-05
   104.485001        -1.52865632E-05
   104.665497        -1.46134043E-05
   104.846001        -1.39738358E-05
   105.026497        -1.33682261E-05
   105.207001        -1.27954863E-05
   105.387497        -1.22531756E-05
   105.568001        -1.17376958E-05
   105.748497        -1.12445514E-05
   105.929001        -1.07685710E-05
   106.109497        -1.03040220E-05
   106.290001        -9.84456346E-06
   106.470497        -9.38306766E-06
   106.651001        -8.91145191E-06
   106.831497        -8.42065128E-06
   107.012001        -7.90087597E-06
   107.192497        -7.34218111E-06
   107.373001        -6.73527074E-06
   107.553497        -6.07237826E-06
   107.734001        -5.34799801E-06
   107.914497        -4.55935196E-06
   108.095001        -3.70645330E-06
   108.275497        -2.79184883E-06
   108.456001        -1.82008625E-06
   108.636497        -7.97038240E-07
   108.817001         2.70826547E-07
   108.997498         1.37714392E-06
   109.178001         2.51631423E-06
   109.358498         3.68410315E-06
   109.539001         4.87813213E-06
   109.719498         6.09820745E-06
   109.900002         7.34641753E-06
   110.080498         8.62691104E-06
   110.261002         9.94533093E-06
   110.441498         1.13079677E-05
   110.622002         1.27207486E-05
   110.802498         1.41882610E-05
   110.983002         1.57130253E-05
   111.163498         1.72951350E-05
   111.344002         1.89323455E-05
   111.524498         2.06205132E-05