  -34.5000000       0.00000000    
  -34.3199997       0.00000000    
  -34.1399994       0.00000000    
  -33.9599991      -1.18132347E-21
  -33.7799988      -7.39336536E-21
  -33.5999985      -2.55552991E-20
  -33.4199982      -6.37446706E-20
  -33.2400017      -1.26722299E-19
  -33.0600014      -2.10203034E-19
  -32.8800011      -2.96654730E-19
  -32.7000008      -3.55898233E-19
  -32.5200005      -3.52594085E-19
  -32.3400002      -2.59759011E-19
  -32.1599998      -7.35819612E-20
  -31.9799995       1.78462098E-19
  -31.7999992       4.45095186E-19
  -31.6200008       6.80093889E-19
  -31.4400005       8.89575156E-19
  -31.2600002       1.18034269E-18
  -31.0799999       1.77690328E-18
  -30.8999996       2.97020871E-18
  -30.7199993       4.97595171E-18
  -30.5400009       7.71154925E-18
  -30.3600006       1.05388815E-17
  -30.1800003       1.20642415E-17
  -30.0000000       1.01364367E-17
  -29.8199997       2.19818264E-18
  -29.6399994      -1.39644664E-17
  -29.4599991      -3.92934051E-17
  -29.2800007      -7.28281112E-17
  -29.1000004      -1.11808548E-16
  -28.9200001      -1.52483520E-16
  -28.7399998      -1.91066056E-16
  -28.5599995      -2.24292869E-16
  -28.3799992      -2.49774981E-16
  -28.2000008      -2.67034125E-16
  -28.0200005      -2.79682444E-16
  -27.8400002      -2.97494224E-16
  -27.6599998      -3.35628123E-16
  -27.4799995      -4.09004046E-16
  -27.2999992      -5.23104467E-16
  -27.1200008      -6.65967690E-16
  -26.9400005      -8.06758119E-16
  -26.7600002      -9.03075718E-16
  -26.5799999      -9.14340303E-16
  -26.3999996      -8.15494840E-16
  -26.2199993      -6.05207053E-16
  -26.0400009      -3.04682860E-16
  -25.8600006       5.42614203E-17
  -25.6800003       4.49667663E-16
  -25.5000000       8.90844985E-16
  -25.3199997       1.42785922E-15
  -25.1399994       2.13644283E-15
  -24.9599991       3.07533629E-15
  -24.7800007       4.23008974E-15
  -24.6000004       5.47150038E-15
  -24.4200001       6.55781420E-15
  -24.2399998       7.19429805E-15
  -24.0599995       7.13914266E-15
  -23.8799992       6.32265287E-15
  -23.7000008       4.93528363E-15
  -23.5200005       3.44067303E-15
  -23.3400002       2.48245833E-15
  -23.1599998       2.68044889E-15
  -22.9799995       4.35557047E-15
  -22.7999992       7.27407501E-15
  -22.6200008       1.05339567E-14
  -22.4400005       1.26978955E-14
  -22.2600002       1.21936170E-14
  -22.0799999       7.88003136E-15
  -21.8999996      -4.25065115E-16
  -21.7199993      -1.16834820E-14
  -21.5400009      -2.37884866E-14
  -21.3600006      -3.41237658E-14
  -21.1800003      -4.03612589E-14
  -21.0000000      -4.12267774E-14
  -20.8199997      -3.69562711E-14
  -20.6399994      -2.92584391E-14
  -20.4599991      -2.07635761E-14
  -20.2800007      -1.41275465E-14
  -20.1000004      -1.11094537E-14
  -19.9200001      -1.19903070E-14
  -19.7399998      -1.55992230E-14
  -19.5599995      -1.99780801E-14
  -19.3799992      -2.34239169E-14
  -19.2000008      -2.54341988E-14
  -19.0200005      -2.70641985E-14
  -18.8400002      -3.04321523E-14
  -18.6599998      -3.75035289E-14
  -18.4799995      -4.86794205E-14
  -18.2999992      -6.19058163E-14
  -18.1200008      -7.28887911E-14
  -17.9400005      -7.65397945E-14
  -17.7600002      -6.91683784E-14
  -17.5799999      -5.04551709E-14
  -17.3999996      -2.41362716E-14
  -17.2199993       3.24173061E-15
  -17.0400009       2.53159141E-14
  -16.8600006       3.95604095E-14
  -16.6800003       4.99573968E-14
  -16.5000000       6.71404122E-14
  -16.3199997       1.05294273E-13
  -16.1399994       1.76366734E-13
  -15.9600000       2.83397356E-13
  -15.7799997       4.15483457E-13
  -15.6000004       5.46732852E-13
  -15.4200001       6.40457468E-13
  -15.2399998       6.58133216E-13
  -15.0600004       5.70849032E-13
  -14.8800001       3.69739748E-13
  -14.6999998       7.18032066E-14
  -14.5200005      -2.81297202E-13
  -14.3400002      -6.31644964E-13
  -14.1599998      -9.18435250E-13
  -13.9799995      -1.09227124E-12
  -13.8000002      -1.12599415E-12
  -13.6199999      -1.01891011E-12
  -13.4399996      -7.93637020E-13
  -13.2600002      -4.87367091E-13
  -13.0799999      -1.41114307E-13
  -12.8999996       2.09185303E-13
  -12.7200003       5.37009185E-13
  -12.5400000       8.24353715E-13
  -12.3599997       1.05713170E-12
  -12.1800003       1.21976268E-12
  -12.0000000       1.29207560E-12
  -11.8199997       1.25065995E-12
  -11.6400003       1.07499665E-12
  -11.4600000       7.56697168E-13
  -11.2799997       3.08700792E-13
  -11.1000004      -2.29156158E-13
  -10.9200001      -7.91014932E-13
  -10.7399998      -1.29326378E-12
  -10.5600004      -1.64891636E-12
  -10.3800001      -1.78482880E-12
  -10.1999998      -1.65751592E-12
  -10.0200005      -1.26364327E-12
  -9.84000015      -6.42725402E-13
  -9.65999985       1.28372695E-13
  -9.47999954       9.47613949E-13
  -9.30000019       1.70367474E-12
  -9.11999989       2.29210856E-12
  -8.93999958       2.62867983E-12
  -8.76000023       2.65777005E-12
  -8.57999992       2.35511589E-12
  -8.39999962       1.72577078E-12
  -8.22000027       7.99231991E-13
  -8.03999996      -3.75713322E-13
  -7.86000013      -1.73433316E-12
  -7.67999983      -3.19667448E-12
  -7.50000000      -4.66659090E-12
  -7.32000017      -6.03141625E-12
  -7.13999987      -7.16511355E-12
  -6.96000004      -7.93689680E-12
  -6.78000021      -8.22559122E-12
  -6.59999990      -7.93775115E-12
  -6.42000008      -7.02606116E-12
  -6.23999977      -5.50376151E-12
  -6.05999994      -3.45144247E-12
  -5.88000011      -1.01373499E-12
  -5.69999981       1.61475217E-12
  -5.51999998       4.21311337E-12
  -5.34000015       6.56420838E-12
  -5.15999985       8.48633750E-12
  -4.98000002       9.86037467E-12
  -4.80000019       1.06463224E-11
  -4.61999989       1.08849414E-11
  -4.44000006       1.06830551E-11
  -4.26000023       1.01854358E-11
  -4.07999992       9.53922445E-12
  -3.90000010       8.85910442E-12
  -3.72000003       8.20123310E-12
  -3.53999996       7.55196860E-12
  -3.35999990       6.83430352E-12
  -3.18000007       5.93132271E-12
  -3.00000000       4.72241907E-12
  -2.81999993       3.12506531E-12
  -2.64000010       1.13285997E-12
  -2.46000004      -1.15968433E-12
  -2.27999997      -3.55328527E-12
  -2.09999990      -5.76453642E-12
  -1.91999996      -7.46900111E-12
  -1.74000001      -8.35915885E-12
  -1.55999994      -8.20562108E-12
  -1.38000000      -6.90878171E-12
  -1.20000005      -4.52999660E-12
  -1.01999998      -1.29558625E-12
 -0.839999974       2.42750980E-12
 -0.660000026       6.17971386E-12
 -0.479999989       9.47149650E-12
 -0.300000012       1.18485681E-11
 -0.119999997       1.29479335E-11
   5.99999987E-02   1.25355533E-11
  0.239999995       1.05217710E-11
  0.419999987       6.95651653E-12
  0.600000024       2.01121541E-12
  0.779999971      -4.04393923E-12
  0.959999979      -1.08611904E-11
   1.13999999      -1.80329120E-11
   1.32000005      -2.51095793E-11
   1.50000000      -3.16235337E-11
   1.67999995      -3.71227320E-11
   1.86000001      -4.12136887E-11
   2.03999996      -4.36064726E-11
   2.22000003      -4.41510266E-11
   2.40000010      -4.28542653E-11
   2.57999992      -3.98715783E-11
   2.75999999      -3.54734610E-11
   2.94000006      -2.99948989E-11
   3.11999989      -2.37789857E-11
   3.29999995      -1.71280247E-11
   3.48000002      -1.02718658E-11
   3.66000009      -3.35865233E-12
   3.83999991       3.53231420E-12
   4.01999998       1.03626005E-11
   4.19999981       1.71002552E-11
   4.38000011       2.36887541E-11
   4.55999994       3.00263113E-11
   4.73999977       3.59583266E-11
   4.92000008       4.12816933E-11
   5.09999990       4.57585324E-11
   5.28000021       4.91369653E-11
   5.46000004       5.11780930E-11
   5.63999987       5.16891252E-11
   5.82000017       5.05608680E-11
   6.00000000       4.78041738E-11
   6.17999983       4.35757472E-11
   6.36000013       3.81831580E-11
   6.53999996       3.20611905E-11
   6.71999979       2.57191681E-11
   6.90000010       1.96680536E-11
   7.07999992       1.43427509E-11
   7.26000023       1.00382281E-11
   7.44000006       6.87494766E-12
   7.61999989       4.80201816E-12
   7.80000019       3.63626512E-12
   7.98000002       3.12687896E-12
   8.15999985       3.02772868E-12
   8.34000015       3.15797540E-12
   8.52000046       3.43354945E-12
   8.69999981       3.86065095E-12
   8.88000011       4.49285357E-12
   9.06000042       5.36594640E-12
   9.23999977       6.43286899E-12
   9.42000008       7.52219901E-12
   9.60000038       8.33993725E-12
   9.77999973       8.51826335E-12
   9.96000004       7.70308210E-12
   10.1400003       5.65602686E-12
   10.3199997       2.34235764E-12
   10.5000000      -2.02376635E-12
   10.6800003      -6.99481879E-12
   10.8599997      -1.19692260E-11
   11.0400000      -1.63205248E-11
   11.2200003      -1.95484670E-11
   11.3999996      -2.14152741E-11
   11.5799999      -2.20310298E-11
   11.7600002      -2.18617676E-11
   11.9399996      -2.16529225E-11
   12.1199999      -2.22822472E-11
   12.3000002      -2.45757390E-11
   12.4799995      -2.91295876E-11
   12.6599998      -3.61802116E-11
   12.8400002      -4.55503309E-11
   13.0200005      -5.66786618E-11
   13.1999998      -6.87217991E-11
   13.3800001      -8.07003908E-11
   13.5600004      -9.16578480E-11
   13.7399998      -1.00800826E-10
   13.9200001      -1.07599235E-10
   14.1000004      -1.11833771E-10
   14.2799997      -1.13589381E-10
   14.4600000      -1.13200269E-10
   14.6400003      -1.11159276E-10
   14.8199997      -1.08006389E-10
   15.0000000      -1.04213679E-10
   15.1800003      -1.00085225E-10
   15.3599997      -9.56876384E-11
   15.5400000      -9.08276301E-11
   15.7200003      -8.50863963E-11
   15.8999996      -7.79133286E-11
   16.0799999      -6.87677137E-11
   16.2600002      -5.72845694E-11
   16.4400005      -4.34268767E-11
   16.6200008      -2.75837859E-11
   16.7999992      -1.05811722E-11
   16.9799995       6.40971954E-12
   17.1599998       2.20525681E-11
   17.3400002       3.50781904E-11
   17.5200005       4.45123695E-11
   17.7000008       4.98453015E-11
   17.8799992       5.11001588E-11
   18.0599995       4.87867212E-11
   18.2399998       4.37563562E-11
   18.4200001       3.69967321E-11
   18.6000004       2.94261282E-11
   18.7800007       2.17304091E-11
   18.9599991       1.42857514E-11
   19.1399994       7.17370391E-12
   19.3199997       2.68084979E-13
   19.5000000      -6.63591924E-12
   19.6800003      -1.37007697E-11
   19.8600006      -2.09636909E-11
   20.0400009      -2.83120038E-11
   20.2199993      -3.55142825E-11
   20.3999996      -4.22782191E-11
   20.5799999      -4.83187136E-11
   20.7600002      -5.34041561E-11
   20.9400005      -5.73759408E-11
   21.1200008      -6.01449029E-11
   21.2999992      -6.16758311E-11
   21.4799995      -6.19788040E-11
   21.6599998      -6.11203588E-11
   21.8400002      -5.92480232E-11
   22.0200005      -5.66230639E-11
   22.2000008      -5.36453937E-11
   22.3799992      -5.08424934E-11
   22.5599995      -4.88171031E-11
   22.7399998      -4.81540502E-11
   22.9200001      -4.92959770E-11
   23.1000004      -5.24119463E-11
   23.2800007      -5.73086058E-11
   23.4599991      -6.33814876E-11
   23.6399994      -6.96548166E-11
   23.8199997      -7.48875476E-11
   24.0000000      -7.77333337E-11
   24.1800003      -7.69272701E-11
   24.3600006      -7.14667353E-11
   24.5400009      -6.07444858E-11
   24.7199993      -4.46309309E-11
   24.8999996      -2.34859319E-11
   25.0799999       1.89262169E-12
   25.2600002       3.03715109E-11
   25.4400005       6.06229858E-11
   25.6200008       9.12748488E-11
   25.7999992       1.21059759E-10
   25.9799995       1.48931867E-10
   26.1599998       1.74151873E-10
   26.3400002       1.96319808E-10
   26.5200005       2.15354137E-10
   26.7000008       2.31421798E-10
   26.8799992       2.44828907E-10
   27.0599995       2.55896415E-10
   27.2399998       2.64839262E-10
   27.4200001       2.71690032E-10
   27.6000004       2.76276724E-10
   27.7800007       2.78281426E-10
   27.9599991       2.77360357E-10
   28.1399994       2.73291362E-10
   28.3199997       2.66116906E-10
   28.5000000       2.56220795E-10
   28.6800003       2.44323090E-10
   28.8600006       2.31373185E-10
   29.0400009       2.18368948E-10
   29.2199993       2.06143047E-10
   29.3999996       1.95179040E-10
   29.5799999       1.85502586E-10
   29.7600002       1.76693035E-10
   29.9400005       1.68012770E-10
   30.1200008       1.58634064E-10
   30.2999992       1.47893281E-10
   30.4799995       1.35519013E-10
   30.6599998       1.21749028E-10
   30.8400002       1.07319889E-10
   31.0200005       9.33095962E-11
   31.2000008       8.08747444E-11
   31.3799992       7.09568862E-11
   31.5599995       6.40218989E-11
   31.7399998       5.99020486E-11
   31.9200001       5.77747780E-11
   32.0999985       5.62881998E-11
   32.2799988       5.37948679E-11
   32.4599991       4.86434053E-11
   32.6399994       3.94776226E-11
   32.8199997       2.54784527E-11
   33.0000000       6.50140618E-12
   33.1800003      -1.69002156E-11
   33.3600006      -4.35830400E-11
   33.5400009      -7.19996562E-11
   33.7200012      -1.00450176E-10
   33.9000015      -1.27325483E-10
   34.0800018      -1.51328561E-10
   34.2599983      -1.71615819E-10
   34.4399986      -1.87854801E-10
   34.6199989      -2.00204672E-10
   34.7999992      -2.09206930E-10
   34.9799995      -2.15635690E-10
   35.1599998      -2.20319790E-10
   35.3400002      -2.23967483E-10
   35.5200005      -2.27045216E-10
   35.7000008      -2.29701577E-10
   35.8800011      -2.31761402E-10
   36.0600014      -2.32772177E-10
   36.2400017      -2.32081937E-10
   36.4199982      -2.28932207E-10
   36.5999985      -2.22540375E-10
   36.7799988      -2.12178428E-10
   36.9599991      -1.97239169E-10
   37.1399994      -1.77304393E-10
   37.3199997      -1.52211424E-10
   37.5000000      -1.22121327E-10
   37.6800003      -8.75671757E-11
   37.8600006      -4.94757083E-11
   38.0400009      -9.14237956E-12
   38.2200012       3.18519933E-11
   38.4000015       7.17773271E-11
   38.5800018       1.08944506E-10
   38.7599983       1.41909692E-10
   38.9399986       1.69666212E-10
   39.1199989       1.91776359E-10
   39.2999992       2.08396772E-10
   39.4799995       2.20185342E-10
   39.6599998       2.28090782E-10
   39.8400002       2.33082026E-10
   40.0200005       2.35848535E-10
   40.2000008       2.36580366E-10
   40.3800011       2.34872427E-10
   40.5600014       2.29794878E-10
   40.7400017       2.20141100E-10
   40.9199982       2.04790879E-10
   41.0999985       1.83124890E-10
   41.2799988       1.55382832E-10
   41.4599991       1.22852312E-10
   41.6399994       8.78289177E-11
   41.8199997       5.33025429E-11
   42.0000000       2.24384365E-11
   42.1800003      -2.06398548E-12
   42.3600006      -1.85627329E-11
   42.5400009      -2.68657718E-11
   42.7200012      -2.83161342E-11
   42.9000015      -2.55185404E-11
   43.0800018      -2.17564907E-11
   43.2599983      -2.02315924E-11
   43.4399986      -2.32980198E-11
   43.6199989      -3.18745377E-11
   43.7999992      -4.51864761E-11
   43.9799995      -6.09104434E-11
   44.1599998      -7.56973303E-11
   44.3400002      -8.59650406E-11
   44.5200005      -8.87733567E-11
   44.7000008      -8.25688407E-11
   44.8800011      -6.76244824E-11
   45.0600014      -4.60537199E-11
   45.2400017      -2.13978019E-11
   45.4199982       2.11572058E-12
   45.5999985       2.04643073E-11
   45.7799988       3.06553324E-11
   45.9599991       3.12959381E-11
   46.1399994       2.27805726E-11
   46.3199997       7.06833377E-12
   46.5000000      -1.28820010E-11
   46.6800003      -3.38683907E-11
   46.8600006      -5.31960448E-11
   47.0400009      -6.92442076E-11
   47.2200012      -8.17080292E-11
   47.4000015      -9.14732734E-11
   47.5800018      -1.00179511E-10
   47.7599983      -1.09605623E-10
   47.9399986      -1.21060301E-10
   48.1199989      -1.34948122E-10
   48.2999992      -1.50623111E-10
   48.4799995      -1.66557240E-10
   48.6599998      -1.80760018E-10
   48.8400002      -1.91317143E-10
   49.0200005      -1.96898775E-10
   49.2000008      -1.97093189E-10
   49.3800011      -1.92492022E-10
   49.5600014      -1.84509338E-10
   49.7400017      -1.74995574E-10
   49.9199982      -1.65769592E-10
   50.0999985      -1.58194916E-10
   50.2799988      -1.52916360E-10
   50.4599991      -1.49832272E-10
   50.6399994      -1.48290644E-10
   50.8199997      -1.47438131E-10
   51.0000000      -1.46605450E-10
   51.1800003      -1.45611440E-10
   51.3600006      -1.44887061E-10
   51.5400009      -1.45398485E-10
   51.7200012      -1.48400278E-10
   51.9000015      -1.55099961E-10
   52.0800018      -1.66344036E-10
   52.2599983      -1.82410864E-10
   52.4399986      -2.02957762E-10
   52.6199989      -2.27139862E-10
   52.7999992      -2.53834953E-10
   52.9799995      -2.81920765E-10
   53.1599998      -3.10525106E-10
   53.3400002      -3.39172163E-10
   53.5200005      -3.67808561E-10
   53.7000008      -3.96719074E-10
   53.8800011      -4.26337743E-10
   54.0600014      -4.57058752E-10
   54.2400017      -4.89046803E-10
   54.4199982      -5.22101362E-10
   54.5999985      -5.55586521E-10
   54.7799988      -5.88428195E-10
   54.9599991      -6.19169438E-10
   55.1399994      -6.46103171E-10
   55.3199997      -6.67452205E-10
   55.5000000      -6.81619594E-10
   55.6800003      -6.87454038E-10
   55.8600006      -6.84490020E-10
   56.0400009      -6.73085532E-10
   56.2200012      -6.54405308E-10
   56.4000015      -6.30228536E-10
   56.5800018      -6.02594807E-10
   56.7599983      -5.73368852E-10
   56.9399986      -5.43830481E-10
   57.1199989      -5.14394971E-10
   57.2999992      -4.84554008E-10
   57.4799995      -4.53071830E-10
   57.6599998      -4.18413831E-10
   57.8400002      -3.79286186E-10
   58.0200005      -3.35167505E-10
   58.2000008      -2.86673046E-10
   58.3800011      -2.35647640E-10
   58.5600014      -1.84932278E-10
   58.7400017      -1.37851230E-10
   58.9199982      -9.75214978E-11
   59.0999985      -6.61709021E-11
   59.2799988      -4.46009375E-11
   59.4599991      -3.19534330E-11
   59.6399994      -2.58226530E-11
   59.8199997      -2.26965530E-11
   60.0000000      -1.86360025E-11
   60.1800003      -1.00426932E-11
   60.3600006       5.65853094E-12
   60.5400009       2.95673416E-11
   60.7200012       6.11708115E-11
   60.9000015       9.85639140E-11
   61.0800018       1.38935988E-10
   61.2599983       1.79215795E-10
   61.4399986       2.16696772E-10
   61.6199989       2.49506527E-10
   61.7999992       2.76812101E-10
   61.9799995       2.98756547E-10
   62.1599998       3.16140614E-10
   62.3400002       3.30043715E-10
   62.5200005       3.41415340E-10
   62.7000008       3.50832779E-10
   62.8800011       3.58448105E-10
   63.0600014       3.64115599E-10
   63.2400017       3.67674224E-10
   63.4199982       3.69274056E-10
   63.5999985       3.69656111E-10
   63.7799988       3.70230402E-10
   63.9599991       3.73014786E-10
   64.1399994       3.80402987E-10
   64.3199997       3.94793698E-10
   64.5000000       4.18216878E-10
   64.6800003       4.52032245E-10
   64.8600006       4.96735764E-10
   65.0400009       5.51971358E-10
   65.2200012       6.16605489E-10
   65.4000015       6.89006241E-10
   65.5800018       7.67269026E-10
   65.7600021       8.49482706E-10
   65.9400024       9.33932154E-10
   66.1200027       1.01914743E-09
   66.3000031       1.10389475E-09
   66.4800034       1.18705035E-09
   66.6600037       1.26740762E-09
   66.8399963       1.34348310E-09
   67.0199966       1.41341738E-09
   67.1999969       1.47500445E-09
   67.3799973       1.52580304E-09
   67.5599976       1.56342594E-09
   67.7399979       1.58591329E-09
   67.9199982       1.59206814E-09
   68.0999985       1.58180113E-09
   68.2799988       1.55621904E-09
   68.4599991       1.51761581E-09
   68.6399994       1.46915902E-09
   68.8199997       1.41445988E-09
   69.0000000       1.35698208E-09
   69.1800003       1.29950339E-09
   69.3600006       1.24366728E-09
   69.5400009       1.18982313E-09
   69.7200012       1.13710230E-09
   69.9000015       1.08379283E-09
   70.0800018       1.02792008E-09
   70.2600021       9.67813607E-10
   70.4400024       9.02663111E-10
   70.6200027       8.32776570E-10
   70.8000031       7.59603658E-10
   70.9800034       6.85404067E-10
   71.1600037       6.12728202E-10
   71.3399963       5.43746492E-10
   71.5199966       4.79695728E-10
   71.6999969       4.20530277E-10
   71.8799973       3.64914488E-10
   72.0599976       3.10561854E-10
   72.2399979       2.54784277E-10
   72.4199982       1.95182093E-10
   72.5999985       1.30202155E-10
   72.7799988       5.94544483E-11
   72.9599991      -1.62197408E-11
   73.1399994      -9.50356183E-11
   73.3199997      -1.74663381E-10
   73.5000000      -2.52685733E-10
   73.6800003      -3.26978944E-10
   73.8600006      -3.95937505E-10
   74.0400009      -4.58484084E-10
   74.2200012      -5.14013276E-10
   74.4000015      -5.62274505E-10
   74.5800018      -6.03307404E-10
   74.7600021      -6.37477959E-10
   74.9400024      -6.65580702E-10
   75.1200027      -6.88959056E-10
   75.3000031      -7.09556414E-10
   75.4800034      -7.29760585E-10
   75.6600037      -7.52048646E-10
   75.8399963      -7.78505704E-10
   76.0199966      -8.10271905E-10
   76.1999969      -8.47146409E-10
   76.3799973      -8.87396989E-10
   76.5599976      -9.27940003E-10
   76.7399979      -9.64806679E-10
   76.9199982      -9.93815918E-10
   77.0999985      -1.01132913E-09
   77.2799988      -1.01491615E-09
   77.4599991      -1.00377906E-09
   77.6399994      -9.78885750E-10
   77.8199997      -9.42782741E-10
   78.0000000      -8.99147090E-10
   78.1800003      -8.52143245E-10
   78.3600006      -8.05768452E-10
   78.5400009      -7.63282049E-10
   78.7200012      -7.26805061E-10
   78.9000015      -6.97164992E-10
   79.0800018      -6.73969436E-10
   79.2600021      -6.55855203E-10
   79.4400024      -6.40860254E-10
   79.6200027      -6.26820817E-10
   79.8000031      -6.11738604E-10
   79.9800034      -5.94086669E-10
   80.1600037      -5.72954073E-10
   80.3399963      -5.48108892E-10
   80.5199966      -5.19883192E-10
   80.6999969      -4.88993013E-10
   80.8799973      -4.56295252E-10
   81.0599976      -4.22551383E-10
   81.2399979      -3.88226229E-10
   81.4199982      -3.53364837E-10
   81.5999985      -3.17559951E-10
   81.7799988      -2.79989643E-10
   81.9599991      -2.39568004E-10
   82.1399994      -1.95164593E-10
   82.3199997      -1.45913226E-10
   82.5000000      -9.15379023E-11
   82.6800003      -3.26325494E-11
   82.8600006       2.91884433E-11
   83.0400009       9.13558187E-11
   83.2200012       1.50664703E-10
   83.4000015       2.03793898E-10
   83.5800018       2.47946386E-10
   83.7600021       2.81456941E-10
   83.9400024       3.04199166E-10
   84.1200027       3.17701615E-10
   84.3000031       3.24894500E-10
   84.4800034       3.29530958E-10
   84.6600037       3.35384387E-10
   84.8399963       3.45418860E-10
   85.0199966       3.61107949E-10
   85.1999969       3.82084836E-10
   85.3799973       4.06199879E-10
   85.5599976       4.30007974E-10
   85.7399979       4.49524418E-10
   85.9199982       4.61103267E-10
   86.0999985       4.62201721E-10
   86.2799988       4.51876314E-10
   86.4599991       4.30923519E-10
   86.6399994       4.01653627E-10
   86.8199997       3.67386538E-10
   87.0000000       3.31796063E-10
   87.1800003       2.98256364E-10
   87.3600006       2.69306855E-10
   87.5400009       2.46364290E-10
   87.7200012       2.29681357E-10
   87.9000015       2.18578725E-10
   88.0800018       2.11841558E-10
   88.2600021       2.08166109E-10
   88.4400024       2.06532222E-10
   88.6200027       2.06420686E-10
   88.8000031       2.07796544E-10
   88.9800034       2.10923640E-10
   89.1600037       2.16053009E-10
   89.3399963       2.23090532E-10
   89.5199966       2.31342098E-10
   89.6999969       2.39385817E-10
   89.8799973       2.45122644E-10
   90.0599976       2.45996307E-10
   90.2399979       2.39343795E-10
   90.4199982       2.22827118E-10
   90.5999985       1.94841671E-10
   90.7799988       1.54839697E-10
   90.9599991       1.03469323E-10
   91.1399994       4.25093571E-11
   91.3199997      -2.53958868E-11
   91.5000000      -9.71401570E-11
   91.6800003      -1.69625244E-10
   91.8600006      -2.40195197E-10
   92.0400009      -3.06947884E-10
   92.2200012      -3.68874292E-10
   92.4000015      -4.25798868E-10
   92.5800018      -4.78153461E-10
   92.7600021      -5.26646227E-10
   92.9400024      -5.71919956E-10
   93.1200027      -6.14322204E-10
   93.3000031      -6.53839594E-10
   93.4800034      -6.90243029E-10
   93.6600037      -7.23370919E-10
   93.8399963      -7.53447249E-10
   94.0199966      -7.81293474E-10
   94.1999969      -8.08333622E-10
   94.3799973      -8.36340830E-10
   94.5599976      -8.66997307E-10
   94.7399979      -9.01361319E-10
   94.9199982      -9.39427203E-10
   95.0999985      -9.79893167E-10
   95.2799988      -1.02023612E-09
   95.4599991      -1.05709375E-09
   95.6399994      -1.08688092E-09
   95.8199997      -1.10650134E-09
   96.0000000      -1.11398502E-09
   96.1800003      -1.10889353E-09
   96.3600006      -1.09238085E-09
   96.5400009      -1.06688092E-09
   96.7200012      -1.03551279E-09
   96.9000015      -1.00130704E-09
   97.0800018      -9.66473568E-10
   97.2600021      -9.31876243E-10
   97.4400024      -8.96829555E-10
   97.6200027      -8.59277982E-10
   97.8000031      -8.16314238E-10
   97.9800034      -7.64932895E-10
   98.1600037      -7.02825798E-10
   98.3399963      -6.29088448E-10
   98.5199966      -5.44615242E-10
   98.6999969      -4.52112792E-10
   98.8799973      -3.55711266E-10
   99.0599976      -2.60234251E-10
   99.2399979      -1.70325629E-10
   99.4199982      -8.96012639E-11
   99.5999985      -2.00624014E-11
   99.7799988       3.81173079E-11
   99.9599991       8.64342140E-11
   100.139999       1.27537494E-10
   100.320000       1.64549499E-10
   100.500000       2.00338870E-10
   100.680000       2.36941550E-10
   100.860001       2.75193979E-10
   101.040001       3.14662851E-10
   101.220001       3.53829244E-10
   101.400002       3.90494165E-10
   101.580002       4.22288982E-10
   101.760002       4.47207771E-10
   101.940002       4.64028371E-10
   102.120003       4.72591188E-10
   102.300003       4.73837691E-10
   102.480003       4.69660144E-10
   102.660004       4.62584221E-10
   102.839996       4.55319810E-10
   103.019997       4.50326915E-10
   103.199997       4.49445647E-10
   103.379997       4.53673293E-10
   103.559998       4.63154959E-10
   103.739998       4.77361040E-10
   103.919998       4.95425423E-10
   104.099998       5.16486798E-10
   104.279999       5.39968736E-10
   104.459999       5.65673342E-10
   104.639999       5.93635419E-10
   104.820000       6.23848473E-10
   105.000000       6.55889509E-10
   105.180000       6.88675339E-10
   105.360001       7.20364879E-10
   105.540001       7.48551332E-10
   105.720001       7.70627784E-10
   105.900002       7.84309395E-10
   106.080002       7.88090870E-10
   106.260002       7.81579690E-10
   106.440002       7.65560115E-10
   106.620003       7.41755157E-10
   106.800003       7.12406911E-10
   106.980003       6.79716061E-10
   107.160004       6.45356157E-10
   107.339996       6.10186401E-10
   107.519997       5.74245373E-10
   107.699997       5.37020317E-10
   107.879997       4.97854702E-10
   108.059998       4.56453042E-10
   108.239998       4.13183210E-10
   108.419998       3.69227288E-10
   108.599998       3.26435906E-10
   108.779999       2.86986490E-10
   108.959999       2.52930288E-10
   109.139999       2.25767169E-10
   109.320000       2.06130876E-10
   109.500000       1.93676686E-10
   109.680000       1.87191276E-10
   109.860001       1.84874213E-10
   110.040001       1.84709067E-10
   110.220001       1.84840018E-10
   110.400002       1.83845814E-10
   110.580002       1.80845949E-10
   110.760002       1.75508205E-10
   110.940002       1.67923064E-10
   111.120003       1.58474095E-10
   111.300003       1.47715423E-10
   111.480003       1.36306050E-10
   111.660004       1.24947636E-10
   111.839996       1.14344922E-10
   112.019997       1.05131862E-10
   112.199997       9.77849607E-11
   112.379997       9.25322735E-11
   112.559998       8.93321667E-11
   112.739998       8.78967524E-11
   112.919998       8.78318598E-11
   113.099998       8.87919460E-11
   113.279999       9.06780415E-11
   113.459999       9.37669178E-11
   113.639999       9.87283311E-11
   113.820000       1.06505200E-10
   114.000000       1.18029281E-10
   114.180000       1.33845338E-10
   114.360001       1.53726504E-10
   114.540001       1.76417186E-10
   114.720001       1.99573774E-10
   114.900002       2.19993565E-10
   115.080002       2.34082975E-10
   115.260002       2.38476849E-10
   115.440002       2.30640396E-10
   115.620003       2.09333884E-10
   115.800003       1.74813108E-10
   115.980003       1.28707003E-10
   116.160004       7.36735534E-11
   116.339996       1.28315093E-11
   116.519997      -5.08129025E-11
   116.699997      -1.14842323E-10
   116.879997      -1.77735437E-10
   117.059998      -2.38883080E-10
   117.239998      -2.98388370E-10
   117.419998      -3.56672775E-10
   117.599998      -4.14024176E-10
   117.779999      -4.70238459E-10
   117.959999      -5.24436161E-10
   118.139999      -5.75089476E-10
   118.320000      -6.20251073E-10
   118.500000      -6.57910337E-10
   118.680000      -6.86371404E-10
   118.860001      -7.04551695E-10
   119.040001      -7.12131631E-10
   119.220001      -7.09540537E-10
   119.400002      -6.97777391E-10
   119.580002      -6.78066658E-10