  -34.5000000         0.00000000    
  -34.3195000         0.00000000    
  -34.1389999         0.00000000    
  -33.9584999         0.00000000    
  -33.7779999         2.37727573E-25
  -33.5974998         9.41403037E-25
  -33.4169998         2.44908849E-24
  -33.2364998        -3.01651733E-24
  -33.0559998        -4.81628171E-23
  -32.8754997        -1.84569496E-22
  -32.6949997        -4.36759896E-22
  -32.5144997        -6.94703073E-22
  -32.3339996        -3.35923328E-22
  -32.1534996         2.66679495E-21
  -31.9729996         1.20934484E-20
  -31.7924995         2.93777363E-20
  -31.6119995         4.15844277E-20
  -31.4314995         1.01014925E-20
  -31.2509995        -1.11487455E-19
  -31.0704994        -3.07426612E-19
  -30.8899994        -4.21384416E-19
  -30.7094994        -1.98590090E-19
  -30.5289993         4.67232142E-19
  -30.3484993         1.26047498E-18
  -30.1679993         1.56803335E-18
  -29.9874992         1.16732793E-18
  -29.8069992         7.84145559E-19
  -29.6264992         1.27270268E-18
  -29.4459991         1.27456094E-18
  -29.2654991        -4.10662170E-18
  -29.0849991        -1.96098947E-17
  -28.9044991        -4.04716379E-17
  -28.7240009        -4.47904306E-17
  -28.5435009        -5.94097143E-19
  -28.3630009         1.05712822E-16
  -28.1825008         2.32953622E-16
  -28.0020008         2.74870026E-16
  -27.8215008         1.08403535E-16
  -27.6410007        -3.03213840E-16
  -27.4605007        -8.11651375E-16
  -27.2800007        -1.08002609E-15
  -27.0995007        -7.33724344E-16
  -26.9190006         3.73534992E-16
  -26.7385006         1.92734427E-15
  -26.5580006         3.14143281E-15
  -26.3775005         3.06708788E-15
  -26.1970005         1.13261254E-15
  -26.0165005        -2.36308746E-15
  -25.8360004        -6.12892585E-15
  -25.6555004        -8.30714265E-15
  -25.4750004        -7.32467082E-15
  -25.2945004        -2.76989515E-15
  -25.1140003         4.19038592E-15
  -24.9335003         1.11487163E-14
  -24.7530003         1.54570384E-14
  -24.5725002         1.54182019E-14
  -24.3920002         1.10475382E-14
  -24.2115002         3.96822061E-15
  -24.0310001        -3.55134254E-15
  -23.8505001        -9.92765389E-15
  -23.6700001        -1.52104298E-14
  -23.4895000        -2.10220787E-14
  -23.3090000        -2.93410654E-14
  -23.1285000        -4.06105169E-14
  -22.9480000        -5.21303785E-14
  -22.7674999        -5.77554294E-14
  -22.5869999        -4.94774137E-14
  -22.4064999        -2.06475529E-14
  -22.2259998         3.02713211E-14
  -22.0454998         9.70367721E-14
  -21.8649998         1.65487199E-13
  -21.6844997         2.16489451E-13
  -21.5039997         2.31242027E-13
  -21.3234997         1.97072881E-13
  -21.1429996         1.11486300E-13
  -20.9624996        -1.71332014E-14
  -20.7819996        -1.72294199E-13
  -20.6014996        -3.34196321E-13
  -20.4209995        -4.84229952E-13
  -20.2404995        -6.07215721E-13
  -20.0599995        -6.90867611E-13
  -19.8794994        -7.23731730E-13
  -19.6989994        -6.93904407E-13
  -19.5184994        -5.90482687E-13
  -19.3379993        -4.08049842E-13
  -19.1574993        -1.52398886E-13
  -18.9769993         1.55608247E-13
  -18.7964993         4.80867841E-13
  -18.6159992         7.80445370E-13
  -18.4354992         1.01387648E-12
  -18.2549992         1.15365465E-12
  -18.0744991         1.19188394E-12
  -17.8939991         1.14054339E-12
  -17.7134991         1.02544134E-12
  -17.5330009         8.76454725E-13
  -17.3525009         7.17939814E-13
  -17.1720009         5.62825448E-13
  -16.9915009         4.12089254E-13
  -16.8110008         2.58990773E-13
  -16.6305008         9.55570258E-14
  -16.4500008        -8.18294542E-14
  -16.2695007        -2.70115744E-13
  -16.0890007        -4.61095626E-13
  -15.9084997        -6.45300762E-13
  -15.7279997        -8.15566581E-13
  -15.5474997        -9.67828790E-13
  -15.3669996        -1.09840750E-12
  -15.1864996        -1.19941394E-12
  -15.0059996        -1.25560478E-12
  -14.8254995        -1.24586517E-12
  -14.6450005        -1.15030186E-12
  -14.4645004        -9.60620364E-13
  -14.2840004        -6.88904337E-13
  -14.1035004        -3.69735872E-13
  -13.9230003        -5.32246468E-14
  -13.7425003         2.09234797E-13
  -13.5620003         3.81005530E-13
  -13.3815002         4.51546352E-13
  -13.2010002         4.38690940E-13
  -13.0205002         3.81690420E-13
  -12.8400002         3.28688465E-13
  -12.6595001         3.23925132E-13
  -12.4790001         3.98772839E-13
  -12.2985001         5.67795485E-13
  -12.1180000         8.28346127E-13
  -11.9375000         1.16128710E-12
  -11.7570000         1.53148707E-12
  -11.5764999         1.88880270E-12
  -11.3959999         2.17167430E-12
  -11.2154999         2.31528403E-12
  -11.0349998         2.26439527E-12
  -10.8544998         1.98845888E-12
  -10.6739998         1.49461422E-12
  -10.4934998         8.33732443E-13
  -10.3129997         9.59734476E-14
  -10.1324997        -6.04902955E-13
  -9.95199966        -1.15581221E-12
  -9.77149963        -1.47144504E-12
  -9.59099960        -1.51677835E-12
  -9.41049957        -1.31811109E-12
  -9.22999954        -9.58693953E-13
  -9.04950047        -5.59604717E-13
  -8.86900043        -2.51131472E-13
  -8.68850040        -1.42756670E-13
  -8.50800037        -2.99694514E-13
  -8.32750034        -7.31051504E-13
  -8.14700031        -1.39048744E-12
  -7.96649981        -2.18683318E-12
  -7.78599977        -3.00061321E-12
  -7.60550022        -3.70306693E-12
  -7.42500019        -4.17557048E-12
  -7.24450016        -4.32813160E-12
  -7.06400013        -4.11508067E-12
  -6.88350010        -3.54490265E-12
  -6.70300007        -2.68069833E-12
  -6.52250004        -1.62917639E-12
  -6.34200001        -5.19235750E-13
  -6.16149998         5.25159831E-13
  -5.98099995         1.41073026E-12
  -5.80049992         2.09233455E-12
  -5.61999989         2.57784614E-12
  -5.43949986         2.92002750E-12
  -5.25899982         3.19858116E-12
  -5.07849979         3.49767069E-12
  -4.89799976         3.88449646E-12
  -4.71750021         4.39343614E-12
  -4.53700018         5.01822498E-12
  -4.35650015         5.71251163E-12
  -4.17600012         6.39703871E-12
  -3.99550009         6.97065886E-12
  -3.81500006         7.32230162E-12
  -3.63450003         7.34239926E-12
  -3.45400000         6.93398767E-12
  -3.27349997         6.02474320E-12
  -3.09299994         4.58056336E-12
  -2.91249990         2.61889599E-12
  -2.73200011         2.17382481E-13
  -2.55150008        -2.48774959E-12
  -2.37100005        -5.31694393E-12
  -2.19050002        -8.07507186E-12
  -2.00999999        -1.05851465E-11
  -1.82949996        -1.27184660E-11
  -1.64900005        -1.44125215E-11
  -1.46850002        -1.56725778E-11
  -1.28799999        -1.65585323E-11
  -1.10749996        -1.71629187E-11
 -0.926999986        -1.75869753E-11
 -0.746500015        -1.79198410E-11
 -0.565999985        -1.82229006E-11
 -0.385500014        -1.85192556E-11
 -0.204999998        -1.87881377E-11
  -2.44999994E-02    -1.89649216E-11
  0.156000003        -1.89484661E-11
  0.336499989        -1.86169379E-11
  0.517000020        -1.78514217E-11
  0.697499990        -1.65637972E-11
  0.878000021        -1.47228445E-11
   1.05850005        -1.23714450E-11
   1.23899996        -9.62863209E-12
   1.41949999        -6.67301847E-12
   1.60000002        -3.70903221E-12
   1.78050005        -9.23028797E-13
   1.96099997         1.55922692E-12
   2.14150000         3.70089853E-12
   2.32200003         5.55858571E-12
   2.50250006         7.26132912E-12
   2.68300009         8.97124996E-12
   2.86350012         1.08398594E-11
   3.04399991         1.29747159E-11
   3.22449994         1.54254786E-11
   3.40499997         1.81893233E-11
   3.58550000         2.12273948E-11
   3.76600003         2.44812868E-11
   3.94650006         2.78815200E-11
   4.12699986         3.13473830E-11
   4.30749989         3.47835476E-11
   4.48799992         3.80810626E-11
   4.66849995         4.11271329E-11
   4.84899998         4.38222202E-11
   5.02950001         4.60977680E-11
   5.21000004         4.79263955E-11
   5.39050007         4.93196629E-11
   5.57100010         5.03133750E-11
   5.75150013         5.09464172E-11
   5.93200016         5.12410218E-11
   6.11250019         5.11919430E-11
   6.29300022         5.07681536E-11
   6.47349977         4.99257094E-11
   6.65399981         4.86259574E-11
   6.83449984         4.68508947E-11
   7.01499987         4.46090664E-11
   7.19549990         4.19286619E-11
   7.37599993         3.88416070E-11
   7.55649996         3.53665500E-11
   7.73699999         3.14999728E-11
   7.91750002         2.72214907E-11
   8.09799957         2.25112047E-11
   8.27849960         1.73707992E-11
   8.45899963         1.18368145E-11
   8.63949966         5.97837795E-12
   8.81999969        -1.20507947E-13
   9.00049973        -6.38579164E-12
   9.18099976        -1.27732911E-11
   9.36149979        -1.92749757E-11
   9.54199982        -2.59105168E-11
   9.72249985        -3.27107195E-11
   9.90299988        -3.97026266E-11
   10.0834999        -4.69029676E-11
   10.2639999        -5.43197466E-11
   10.4445000        -6.19563637E-11
   10.6250000        -6.98106017E-11
   10.8055000        -7.78657069E-11
   10.9860001        -8.60770691E-11
   11.1665001        -9.43612688E-11
   11.3470001        -1.02597188E-10
   11.5275002        -1.10640531E-10
   11.7080002        -1.18349691E-10
   11.8885002        -1.25613756E-10
   12.0690002        -1.32372904E-10
   12.2495003        -1.38623488E-10
   12.4300003        -1.44406542E-10
   12.6105003        -1.49782187E-10
   12.7910004        -1.54798702E-10
   12.9715004        -1.59466537E-10
   13.1520004        -1.63745795E-10
   13.3325005        -1.67552222E-10
   13.5129995        -1.70780223E-10
   13.6934996        -1.73336095E-10
   13.8739996        -1.75170919E-10
   14.0544996        -1.76304277E-10
   14.2349997        -1.76833034E-10
   14.4154997        -1.76927029E-10
   14.5959997        -1.76814660E-10
   14.7764997        -1.76763507E-10
   14.9569998        -1.77057133E-10
   15.1374998        -1.77966544E-10
   15.3179998        -1.79717602E-10
   15.4984999        -1.82459006E-10
   15.6789999        -1.86238483E-10
   15.8594999        -1.91001076E-10
   16.0400009        -1.96611519E-10
   16.2205009        -2.02898448E-10
   16.4009991        -2.09703699E-10
   16.5814991        -2.16918775E-10
   16.7619991        -2.24492869E-10
   16.9424992        -2.32409286E-10
   17.1229992        -2.40641868E-10
   17.3034992        -2.49108234E-10
   17.4839993        -2.57639299E-10
   17.6644993        -2.65974021E-10
   17.8449993        -2.73782608E-10
   18.0254993        -2.80705403E-10
   18.2059994        -2.86399154E-10
   18.3864994        -2.90576951E-10
   18.5669994        -2.93035651E-10
   18.7474995        -2.93669006E-10
   18.9279995        -2.92470353E-10
   19.1084995        -2.89525098E-10
   19.2889996        -2.85001606E-10
   19.4694996        -2.79137824E-10
   19.6499996        -2.72226325E-10
   19.8304996        -2.64593292E-10
   20.0109997        -2.56569516E-10
   20.1914997        -2.48456922E-10
   20.3719997        -2.40494208E-10
   20.5524998        -2.32835334E-10
   20.7329998        -2.25547081E-10
   20.9134998        -2.18628157E-10
   21.0939999        -2.12043202E-10
   21.2744999        -2.05757994E-10
   21.4549999        -1.99763900E-10
   21.6355000        -1.94084096E-10
   21.8160000        -1.88766197E-10
   21.9965000        -1.83871113E-10
   22.1770000        -1.79465540E-10
   22.3575001        -1.75622350E-10
   22.5380001        -1.72418829E-10
   22.7185001        -1.69929376E-10
   22.8990002        -1.68200620E-10
   23.0795002        -1.67220737E-10
   23.2600002        -1.66890654E-10
   23.4405003        -1.67016914E-10
   23.6210003        -1.67334924E-10
   23.8015003        -1.67561826E-10
   23.9820004        -1.67463821E-10
   24.1625004        -1.66920630E-10
   24.3430004        -1.65964742E-10
   24.5235004        -1.64785394E-10
   24.7040005        -1.63695793E-10
   24.8845005        -1.63069391E-10
   25.0650005        -1.63264305E-10
   25.2455006        -1.64551164E-10
   25.4260006        -1.67063599E-10
   25.6065006        -1.70782041E-10
   25.7870007        -1.75552295E-10
   25.9675007        -1.81134635E-10
   26.1480007        -1.87263968E-10
   26.3285007        -1.93710714E-10
   26.5090008        -2.00323522E-10
   26.6895008        -2.07048170E-10
   26.8700008        -2.13926155E-10
   27.0505009        -2.21071952E-10
   27.2310009        -2.28640912E-10
   27.4115009        -2.36786285E-10
   27.5919991        -2.45613224E-10
   27.7724991        -2.55135774E-10
   27.9529991        -2.65244882E-10
   28.1334991        -2.75696743E-10
   28.3139992        -2.86127205E-10
   28.4944992        -2.96089875E-10
   28.6749992        -3.05107550E-10
   28.8554993        -3.12727344E-10
   29.0359993        -3.18564453E-10
   29.2164993        -3.22331856E-10
   29.3969994        -3.23858357E-10
   29.5774994        -3.23098909E-10
   29.7579994        -3.20141386E-10
   29.9384995        -3.15211107E-10
   30.1189995        -3.08667564E-10
   30.2994995        -3.00990621E-10
   30.4799995        -2.92749436E-10
   30.6604996        -2.84559681E-10
   30.8409996        -2.77028900E-10
   31.0214996        -2.70701211E-10
   31.2019997        -2.66009853E-10
   31.3824997        -2.63244593E-10
   31.5629997        -2.62541350E-10
   31.7434998        -2.63896738E-10
   31.9239998        -2.67200762E-10
   32.1044998        -2.72284278E-10
   32.2849998        -2.78966877E-10
   32.4654999        -2.87093099E-10
   32.6459999        -2.96551006E-10
   32.8264999        -3.07265768E-10
   33.0070000        -3.19173771E-10
   33.1875000        -3.32179895E-10
   33.3680000        -3.46110474E-10
   33.5485001        -3.60671881E-10
   33.7290001        -3.75427245E-10
   33.9095001        -3.89800997E-10
   34.0900002        -4.03119260E-10
   34.2705002        -4.14678680E-10
   34.4510002        -4.23837271E-10
   34.6315002        -4.30103841E-10
   34.8120003        -4.33207664E-10
   34.9925003        -4.33132419E-10
   35.1730003        -4.30110281E-10
   35.3535004        -4.24578400E-10
   35.5340004        -4.17108986E-10
   35.7145004        -4.08328954E-10
   35.8950005        -3.98835798E-10
   36.0755005        -3.89123705E-10
   36.2560005        -3.79524967E-10
   36.4365005        -3.70176112E-10
   36.6170006        -3.61014246E-10
   36.7975006        -3.51805474E-10
   36.9780006        -3.42201600E-10
   37.1585007        -3.31814881E-10
   37.3390007        -3.20296234E-10
   37.5195007        -3.07402936E-10
   37.7000008        -2.93045976E-10
   37.8805008        -2.77309231E-10
   38.0610008        -2.60435812E-10
   38.2415009        -2.42787707E-10
   38.4220009        -2.24781582E-10
   38.6025009        -2.06814454E-10
   38.7830009        -1.89194702E-10
   38.9635010        -1.72093992E-10
   39.1440010        -1.55529936E-10
   39.3245010        -1.39383685E-10
   39.5050011        -1.23446905E-10
   39.6855011        -1.07486464E-10
   39.8660011        -9.13159270E-11
   40.0465012        -7.48638790E-11
   40.2270012        -5.82230167E-11
   40.4075012        -4.16716765E-11
   40.5880013        -2.56538037E-11
   40.7685013        -1.07141162E-11
   40.9490013         2.60670261E-12
   41.1295013         1.38950778E-11
   41.3100014         2.29721485E-11
   41.4905014         2.99540809E-11
   41.6710014         3.52423785E-11
   41.8515015         3.94432507E-11
   42.0320015         4.32367406E-11
   42.2125015         4.72319857E-11
   42.3930016         5.18422805E-11
   42.5735016         5.72070134E-11
   42.7540016         6.31745281E-11
   42.9345016         6.93403668E-11
   43.1150017         7.51335452E-11
   43.2955017         7.99280572E-11
   43.4760017         8.31613667E-11
   43.6565018         8.44365827E-11
   43.8370018         8.35876299E-11
   44.0175018         8.06958736E-11
   44.1980019         7.60555716E-11
   44.3785019         7.00994332E-11
   44.5589981         6.33002609E-11
   44.7394981         5.60780450E-11
   44.9199982         4.87253189E-11
   45.1004982         4.13685752E-11
   45.2809982         3.39717802E-11
   45.4614983         2.63762727E-11
   45.6419983         1.83692384E-11
   45.8224983         9.76615403E-12
   46.0029984         4.81583957E-13
   46.1834984        -9.42779275E-12
   46.3639984        -1.97621416E-11
   46.5444984        -3.02155280E-11
   46.7249985        -4.04333476E-11
   46.9054985        -5.00726162E-11
   47.0859985        -5.88398219E-11
   47.2664986        -6.65093675E-11
   47.4469986        -7.29239308E-11
   47.6274986        -7.79966716E-11
   47.8079987        -8.17196311E-11
   47.9884987        -8.41732378E-11
   48.1689987        -8.55268356E-11
   48.3494987        -8.60127802E-11
   48.5299988        -8.58760146E-11
   48.7104988        -8.53104254E-11
   48.8909988        -8.44061973E-11
   49.0714989        -8.31254510E-11
   49.2519989        -8.13156695E-11
   49.4324989        -7.87483759E-11
   49.6129990        -7.51669699E-11
   49.7934990        -7.03277991E-11
   49.9739990        -6.40246189E-11
   50.1544991        -5.61017691E-11
   50.3349991        -4.64603495E-11
   50.5154991        -3.50630011E-11
   50.6959991        -2.19355766E-11
   50.8764992        -7.15941672E-12
   51.0569992         9.14516639E-12
   51.2374992         2.68471669E-11
   51.4179993         4.58381180E-11
   51.5984993         6.60634117E-11
   51.7789993         8.75416684E-11
   51.9594994         1.10366299E-10
   52.1399994         1.34683972E-10
   52.3204994         1.60650604E-10
   52.5009995         1.88367100E-10
   52.6814995         2.17814544E-10
   52.8619995         2.48805782E-10
   53.0424995         2.80975243E-10
   53.2229996         3.13813697E-10
   53.4034996         3.46739248E-10
   53.5839996         3.79179355E-10
   53.7644997         4.10639939E-10
   53.9449997         4.40737502E-10
   54.1254997         4.69201233E-10
   54.3059998         4.95854136E-10
   54.4864998         5.20596732E-10
   54.6669998         5.43402434E-10
   54.8474998         5.64319536E-10
   55.0279999         5.83468385E-10
   55.2084999         6.01022843E-10
   55.3889999         6.17172369E-10
   55.5695000         6.32077668E-10
   55.7500000         6.45842824E-10
   55.9305000         6.58510024E-10
   56.1110001         6.70083100E-10
   56.2915001         6.80564660E-10
   56.4720001         6.89987012E-10
   56.6525002         6.98424818E-10
   56.8330002         7.05983050E-10
   57.0135002         7.12770287E-10
   57.1940002         7.18863913E-10
   57.3745003         7.24286908E-10
   57.5550003         7.29000416E-10
   57.7355003         7.32919780E-10
   57.9160004         7.35949246E-10
   58.0965004         7.38023642E-10
   58.2770004         7.39145245E-10
   58.4575005         7.39396488E-10
   58.6380005         7.38918426E-10
   58.8185005         7.37863437E-10
   58.9990005         7.36335937E-10
   59.1795006         7.34347805E-10
   59.3600006         7.31810335E-10
   59.5405006         7.28563321E-10
   59.7210007         7.24436233E-10
   59.9015007         7.19311943E-10
   60.0820007         7.13171966E-10
   60.2625008         7.06115111E-10
   60.4430008         6.98347380E-10
   60.6235008         6.90163482E-10
   60.8040009         6.81917245E-10
   60.9845009         6.73996414E-10
   61.1650009         6.66795341E-10
   61.3455009         6.60676014E-10
   61.5260010         6.55933696E-10
   61.7065010         6.52763954E-10
   61.8870010         6.51252219E-10
   62.0675011         6.51387055E-10
   62.2480011         6.53094800E-10
   62.4285011         6.56280474E-10
   62.6090012         6.60862143E-10
   62.7895012         6.66782352E-10
   62.9700012         6.73994804E-10
   63.1505013         6.82432721E-10
   63.3310013         6.91965041E-10
   63.5115013         7.02357617E-10
   63.6920013         7.13245796E-10
   63.8725014         7.24135862E-10
   64.0530014         7.34433070E-10
   64.2334976         7.43501760E-10
   64.4140015         7.50737195E-10
   64.5944977         7.55636997E-10
   64.7750015         7.57850227E-10
   64.9554977         7.57187368E-10
   65.1360016         7.53597462E-10
   65.3164978         7.47120588E-10
   65.4970016         7.37831352E-10
   65.6774979         7.25789928E-10
   65.8580017         7.11011583E-10
   66.0384979         6.93451241E-10
   66.2190018         6.73013700E-10
   66.3994980         6.49583942E-10
   66.5800018         6.23082530E-10
   66.7604980         5.93532890E-10
   66.9410019         5.61128866E-10
   67.1214981         5.26275634E-10
   67.3020020         4.89585650E-10
   67.4824982         4.51816751E-10
   67.6630020         4.13765106E-10
   67.8434982         3.76138315E-10
   68.0240021         3.39441558E-10
   68.2044983         3.03910674E-10
   68.3850021         2.69503614E-10
   68.5654984         2.35949038E-10
   68.7460022         2.02844450E-10
   68.9264984         1.69772238E-10
   69.1070023         1.36415892E-10
   69.2874985         1.02648404E-10
   69.4680023         6.85809326E-11
   69.6484985         3.45577421E-11
   69.8290024         1.10376237E-12
   70.0094986        -3.11634919E-11
   70.1900024        -6.16332888E-11
   70.3704987        -8.97911953E-11
   70.5510025        -1.15281944E-10
   70.7314987        -1.37932901E-10
   70.9120026        -1.57741403E-10
   71.0924988        -1.74829415E-10
   71.2730026        -1.89379235E-10
   71.4534988        -2.01561948E-10
   71.6340027        -2.11477391E-10
   71.8144989        -2.19119251E-10
   71.9950027        -2.24381708E-10
   72.1754990        -2.27102434E-10
   72.3560028        -2.27132993E-10
   72.5364990        -2.24413446E-10
   72.7170029        -2.19026353E-10
   72.8974991        -2.11216170E-10
   73.0780029        -2.01373335E-10
   73.2584991        -1.89992619E-10
   73.4390030        -1.77629522E-10
   73.6194992        -1.64856823E-10
   73.8000031        -1.52233642E-10
   73.9804993        -1.40278664E-10
   74.1610031        -1.29439917E-10
   74.3414993        -1.20062987E-10
   74.5220032        -1.12362689E-10
   74.7024994        -1.06403927E-10
   74.8830032        -1.02101633E-10
   75.0634995        -9.92440574E-11
   75.2440033        -9.75333495E-11
   75.4244995        -9.66408134E-11
   75.6050034        -9.62677993E-11
   75.7854996        -9.62071256E-11
   75.9660034        -9.63905275E-11
   76.1464996        -9.69114580E-11
   76.3270035        -9.80151099E-11
   76.5074997        -1.00053972E-10
   76.6880035        -1.03417580E-10
   76.8684998        -1.08453635E-10
   77.0490036        -1.15401771E-10
   77.2294998        -1.24351418E-10
   77.4100037        -1.35229772E-10
   77.5904999        -1.47816051E-10
   77.7710037        -1.61778979E-10
   77.9514999        -1.76728368E-10
   78.1320038        -1.92280539E-10
   78.3125000        -2.08127723E-10
   78.4929962        -2.24100127E-10
   78.6735001        -2.40203302E-10
   78.8539963        -2.56619309E-10
   79.0345001        -2.73662953E-10
   79.2149963        -2.91703772E-10
   79.3955002        -3.11071058E-10
   79.5759964        -3.31963179E-10
   79.7565002        -3.54377888E-10
   79.9369965        -3.78081400E-10
   80.1175003        -4.02614941E-10
   80.2979965        -4.27344049E-10
   80.4785004        -4.51544357E-10
   80.6589966        -4.74510820E-10
   80.8395004        -4.95671115E-10
   81.0199966        -5.14677301E-10
   81.2005005        -5.31452549E-10
   81.3809967        -5.46176881E-10
   81.5615005        -5.59221613E-10
   81.7419968        -5.71044767E-10
   81.9225006        -5.82077886E-10
   82.1029968        -5.92624338E-10
   82.2835007        -6.02782102E-10
   82.4639969        -6.12404183E-10
   82.6445007        -6.21092455E-10
   82.8249969        -6.28237351E-10
   83.0055008        -6.33100961E-10
   83.1859970        -6.34941211E-10
   83.3665009        -6.33153141E-10
   83.5469971        -6.27402352E-10
   83.7275009        -6.17711271E-10
   83.9079971        -6.04478634E-10
   84.0885010        -5.88424531E-10
   84.2689972        -5.70477887E-10
   84.4495010        -5.51631019E-10
   84.6299973        -5.32788369E-10
   84.8105011        -5.14636445E-10
   84.9909973        -4.97549890E-10
   85.1715012        -4.81548912E-10
   85.3519974        -4.66318539E-10
   85.5325012        -4.51288451E-10
   85.7129974        -4.35760428E-10
   85.8935013        -4.19059093E-10
   86.0739975        -4.00670497E-10
   86.2545013        -3.80338538E-10
   86.4349976        -3.58105878E-10
   86.6155014        -3.34295480E-10
   86.7959976        -3.09448828E-10
   86.9765015        -2.84236773E-10
   87.1569977        -2.59357424E-10
   87.3375015        -2.35433534E-10
   87.5179977        -2.12921694E-10
   87.6985016        -1.92048821E-10
   87.8789978        -1.72793155E-10
   88.0595016        -1.54918453E-10
   88.2399979        -1.38057274E-10
   88.4205017        -1.21824870E-10
   88.6009979        -1.05934816E-10
   88.7815018        -9.02886585E-11
   88.9619980        -7.50235291E-11
   89.1425018        -6.05118872E-11
   89.3229980        -4.73161857E-11
   89.5035019        -3.61060383E-11
   89.6839981        -2.75482866E-11
   89.8645020        -2.21793469E-11
   90.0449982        -2.02875078E-11
   90.2255020        -2.18260722E-11
   90.4059982        -2.63903691E-11
   90.5865021        -3.32670835E-11
   90.7669983        -4.15533823E-11
   90.9475021        -5.03167924E-11
   91.1279984        -5.87629043E-11
   91.3085022        -6.63721855E-11
   91.4889984        -7.29870192E-11
   91.6695023        -7.88360904E-11
   91.8499985        -8.44964168E-11
   92.0305023        -9.07951075E-11
   92.2109985        -9.86632442E-11
   92.3915024        -1.08959890E-10
   92.5719986        -1.22296159E-10
   92.7525024        -1.38898573E-10
   92.9329987        -1.58543942E-10
   93.1135025        -1.80584950E-10
   93.2939987        -2.04057299E-10
   93.4745026        -2.27843938E-10
   93.6549988        -2.50859666E-10
   93.8355026        -2.72219303E-10
   94.0159988        -2.91363489E-10
   94.1965027        -3.08125997E-10
   94.3769989        -3.22731702E-10
   94.5575027        -3.35723366E-10
   94.7379990        -3.47825851E-10
   94.9185028        -3.59770436E-10
   95.0989990        -3.72114145E-10
   95.2795029        -3.85095539E-10
   95.4599991        -3.98560907E-10
   95.6405029        -4.11974121E-10
   95.8209991        -4.24504404E-10
   96.0015030        -4.35165515E-10
   96.1819992        -4.42976072E-10
   96.3625031        -4.47114457E-10
   96.5429993        -4.47045595E-10
   96.7235031        -4.42605147E-10
   96.9039993        -4.34024428E-10
   97.0845032        -4.21888635E-10
   97.2649994        -4.07030493E-10
   97.4455032        -3.90374399E-10
   97.6259995        -3.72771092E-10
   97.8065033        -3.54859309E-10
   97.9869995        -3.36990963E-10
   98.1675034        -3.19232391E-10
   98.3479996        -3.01433795E-10
   98.5285034        -2.83340906E-10
   98.7089996        -2.64722133E-10
   98.8895035        -2.45481330E-10
   99.0699997        -2.25737609E-10
   99.2505035        -2.05860370E-10
   99.4309998        -1.86450314E-10
   99.6115036        -1.68270717E-10
   99.7919998        -1.52139579E-10
   99.9725037        -1.38808451E-10
   100.153000        -1.28856370E-10
   100.333504        -1.22623425E-10
   100.514000        -1.20191510E-10
   100.694504        -1.21403207E-10
   100.875000        -1.25903288E-10
   101.055496        -1.33180522E-10
   101.236000        -1.42604928E-10
   101.416496        -1.53459884E-10
   101.597000        -1.64977795E-10
   101.777496        -1.76381881E-10
   101.958000        -1.86931581E-10
   102.138496        -1.95963884E-10
   102.319000        -2.02928563E-10
   102.499496        -2.07412879E-10
   102.680000        -2.09160078E-10
   102.860497        -2.08084230E-10
   103.041000        -2.04269948E-10
   103.221497        -1.97951711E-10
   103.402000        -1.89456562E-10
   103.582497        -1.79123161E-10
   103.763000        -1.67209774E-10
   103.943497        -1.53820665E-10
   104.124001        -1.38879769E-10
   104.304497        -1.22159977E-10
   104.485001        -1.03364740E-10
   104.665497        -8.22396873E-11
   104.846001        -5.86887622E-11
   105.026497        -3.28648705E-11
   105.207001        -5.21623803E-12
   105.387497         2.35259746E-11
   105.568001         5.24195444E-11
   105.748497         8.04345548E-11
   105.929001         1.06603185E-10
   106.109497         1.30167155E-10
   106.290001         1.50684076E-10
   106.470497         1.68070863E-10
   106.651001         1.82575788E-10
   106.831497         1.94687377E-10
   107.012001         2.05007678E-10
   107.192497         2.14113255E-10
   107.373001         2.22435431E-10
   107.553497         2.30172700E-10
   107.734001         2.37257575E-10
   107.914497         2.43379511E-10
   108.095001         2.48066678E-10
   108.275497         2.50814480E-10
   108.456001         2.51225624E-10
   108.636497         2.49137988E-10
   108.817001         2.44692322E-10
   108.997498         2.38333353E-10
   109.178001         2.30742550E-10
   109.358498         2.22725324E-10
   109.539001         2.15088600E-10
   109.719498         2.08532525E-10
   109.900002         2.03576531E-10
   110.080498         2.00520753E-10
   110.261002         1.99443587E-10
   110.441498         2.00230249E-10
   110.622002         2.02623363E-10
   110.802498         2.06292428E-10
   110.983002         2.10904211E-10
   111.163498         2.16186749E-10
   111.344002         2.21970220E-10
   111.524498         2.28207675E-10