  -34.5000000       0.00000000    
  -34.3199997       0.00000000    
  -34.1399994       0.00000000    
  -33.9599991      -4.16089037E-27
  -33.7799988      -2.74455812E-24
  -33.5999985      -8.49744795E-24
  -33.4199982      -9.41273565E-24
  -33.2400017      -2.02009734E-23
  -33.0600014      -3.78846703E-24
  -32.8800011       4.45050736E-22
  -32.7000008       1.74638588E-21
  -32.5200005       2.34404164E-21
  -32.3400002      -1.89440738E-21
  -32.1599998      -1.20030595E-20
  -31.9799995      -1.90642109E-20
  -31.7999992      -1.10403578E-20
  -31.6200008       8.09507543E-21
  -31.4400005       1.86930750E-20
  -31.2600002       2.58874622E-20
  -31.0799999       9.17866685E-20
  -30.8999996       2.69077123E-19
  -30.7199993       4.37205692E-19
  -30.5400009       2.27975087E-19
  -30.3600006      -7.17713391E-19
  -30.1800003      -2.18808070E-18
  -30.0000000      -3.01008192E-18
  -29.8199997      -1.47128144E-18
  -29.6399994       3.28693327E-18
  -29.4599991       9.66451358E-18
  -29.2800007       1.31705715E-17
  -29.1000004       8.20479457E-18
  -28.9200001      -8.23434891E-18
  -28.7399998      -3.27551280E-17
  -28.5599995      -5.42460546E-17
  -28.3799992      -5.68001236E-17
  -28.2000008      -2.66605390E-17
  -28.0200005       3.92983914E-17
  -27.8400002       1.27388395E-16
  -27.6599998       2.06781879E-16
  -27.4799995       2.36728530E-16
  -27.2999992       1.80194335E-16
  -27.1200008       2.00557153E-17
  -26.9400005      -2.27759854E-16
  -26.7600002      -5.09827384E-16
  -26.5799999      -7.43091787E-16
  -26.3999996      -8.34816297E-16
  -26.2199993      -7.09712972E-16
  -26.0400009      -3.35642285E-16
  -25.8600006       2.61523090E-16
  -25.6800003       9.99986239E-16
  -25.5000000       1.76052399E-15
  -25.3199997       2.41363563E-15
  -25.1399994       2.84361391E-15
  -24.9599991       2.95975525E-15
  -24.7800007       2.69252419E-15
  -24.6000004       1.98234593E-15
  -24.4200001       7.75392859E-16
  -24.2399998      -9.60113434E-16
  -24.0599995      -3.19318927E-15
  -23.8799992      -5.77584863E-15
  -23.7000008      -8.39925409E-15
  -23.5200005      -1.05880270E-14
  -23.3400002      -1.17514835E-14
  -23.1599998      -1.12904452E-14
  -22.9799995      -8.73525851E-15
  -22.7999992      -3.87441383E-15
  -22.6200008       3.16734609E-15
  -22.4400005       1.19264789E-14
  -22.2600002       2.16718614E-14
  -22.0799999       3.15226903E-14
  -21.8999996       4.05737557E-14
  -21.7199993       4.79946385E-14
  -21.5400009       5.30886810E-14
  -21.3600006       5.53203791E-14
  -21.1800003       5.43333926E-14
  -21.0000000       4.99803717E-14
  -20.8199997       4.23706717E-14
  -20.6399994       3.19204265E-14
  -20.4599991       1.93737696E-14
  -20.2800007       5.76197339E-15
  -20.1000004      -7.71588146E-15
  -19.9200001      -1.98758873E-14
  -19.7399998      -2.97501451E-14
  -19.5599995      -3.67416363E-14
  -19.3799992      -4.06783575E-14
  -19.2000008      -4.17472419E-14
  -19.0200005      -4.03368575E-14
  -18.8400002      -3.68567685E-14
  -18.6599998      -3.16102904E-14
  -18.4799995      -2.47693542E-14
  -18.2999992      -1.64507995E-14
  -18.1200008      -6.84095868E-15
  -17.9400005       3.70441601E-15
  -17.7600002       1.46466735E-14
  -17.5799999       2.53523551E-14
  -17.3999996       3.52453255E-14
  -17.2199993       4.39483350E-14
  -17.0400009       5.13395648E-14
  -16.8600006       5.74864592E-14
  -16.6800003       6.24799759E-14
  -16.5000000       6.62465213E-14
  -16.3199997       6.84352342E-14
  -16.1399994       6.84509076E-14
  -15.9600000       6.56371320E-14
  -15.7799997       5.95413475E-14
  -15.6000004       5.01475963E-14
  -15.4200001       3.79734594E-14
  -15.2399998       2.39838345E-14
  -15.0600004       9.35496306E-15
  -14.8800001      -4.81888352E-15
  -14.6999998      -1.77693384E-14
  -14.5200005      -2.91749860E-14
  -14.3400002      -3.91498527E-14
  -14.1599998      -4.81404840E-14
  -13.9799995      -5.67978417E-14
  -13.8000002      -6.58709266E-14
  -13.6199999      -7.61298305E-14
  -13.4399996      -8.82927086E-14
  -13.2600002      -1.02919064E-13
  -13.0799999      -1.20263188E-13
  -12.8999996      -1.40121272E-13
  -12.7200003      -1.61748991E-13
  -12.5400000      -1.83923921E-13
  -12.3599997      -2.05191550E-13
  -12.1800003      -2.24252827E-13
  -12.0000000      -2.40382204E-13
  -11.8199997      -2.53714828E-13
  -11.6400003      -2.65271339E-13
  -11.4600000      -2.76658796E-13
  -11.2799997      -2.89510982E-13
  -11.1000004      -3.04829458E-13
  -10.9200001      -3.22447771E-13
  -10.7399998      -3.40816215E-13
  -10.5600004      -3.57207102E-13
  -10.3800001      -3.68299900E-13
  -10.1999998      -3.70974085E-13
  -10.0200005      -3.63062092E-13
  -9.84000015      -3.43832710E-13
  -9.65999985      -3.14069436E-13
  -9.47999954      -2.75753433E-13
  -9.30000019      -2.31474155E-13
  -9.11999989      -1.83762768E-13
  -8.93999958      -1.34528700E-13
  -8.76000023      -8.47004826E-14
  -8.57999992      -3.41063000E-14
  -8.39999962       1.84375949E-14
  -8.22000027       7.48813582E-14
  -8.03999996       1.37570497E-13
  -7.86000013       2.08796739E-13
  -7.67999983       2.90323565E-13
  -7.50000000       3.82953787E-13
  -7.32000017       4.86252640E-13
  -7.13999987       5.98485129E-13
  -6.96000004       7.16792836E-13
  -6.78000021       8.37572199E-13
  -6.59999990       9.56931257E-13
  -6.42000008       1.07114307E-12
  -6.23999977       1.17698017E-12
  -6.05999994       1.27189687E-12
  -5.88000011       1.35406649E-12
  -5.69999981       1.42227668E-12
  -5.51999998       1.47576049E-12
  -5.34000015       1.51399520E-12
  -5.15999985       1.53653479E-12
  -4.98000002       1.54289526E-12
  -4.80000019       1.53250340E-12
  -4.61999989       1.50468245E-12
  -4.44000006       1.45862500E-12
  -4.26000023       1.39335180E-12
  -4.07999992       1.30763900E-12
  -3.90000010       1.19997848E-12
  -3.72000003       1.06860549E-12
  -3.53999996       9.11633833E-13
  -3.35999990       7.27262814E-13
  -3.18000007       5.14043506E-13
  -3.00000000       2.71106298E-13
  -2.81999993      -1.68053084E-15
  -2.64000010      -3.03622904E-13
  -2.46000004      -6.33180628E-13
  -2.27999997      -9.87987578E-13
  -2.09999990      -1.36491458E-12
  -1.91999996      -1.76013436E-12
  -1.74000001      -2.16924894E-12
  -1.55999994      -2.58743352E-12
  -1.38000000      -3.00961643E-12
  -1.20000005      -3.43065181E-12
  -1.01999998      -3.84542571E-12
 -0.839999974      -4.24896663E-12
 -0.660000026      -4.63647653E-12
 -0.479999989      -5.00334756E-12
 -0.300000012      -5.34516442E-12
 -0.119999997      -5.65761500E-12
   5.99999987E-02  -5.93640848E-12
  0.239999995      -6.17712912E-12
  0.419999987      -6.37506541E-12
  0.600000024      -6.52513460E-12
  0.779999971      -6.62189184E-12
  0.959999979      -6.65970664E-12
   1.13999999      -6.63300794E-12
   1.32000005      -6.53665707E-12
   1.50000000      -6.36632717E-12
   1.67999995      -6.11890009E-12
   1.86000001      -5.79280721E-12
   2.03999996      -5.38832867E-12
   2.22000003      -4.90771486E-12
   2.40000010      -4.35518852E-12
   2.57999992      -3.73672491E-12
   2.75999999      -3.05968293E-12
   2.94000006      -2.33244630E-12
   3.11999989      -1.56409575E-12
   3.29999995      -7.64152522E-13
   3.48000002       5.74667267E-14
   3.66000009       8.90505497E-13
   3.83999991       1.72441391E-12
   4.01999998       2.54847120E-12
   4.19999981       3.35207361E-12
   4.38000011       4.12510174E-12
   4.55999994       4.85834029E-12
   4.73999977       5.54393640E-12
   4.92000008       6.17568193E-12
   5.09999990       6.74910345E-12
   5.28000021       7.26124065E-12
   5.46000004       7.71020487E-12
   5.63999987       8.09461786E-12
   5.82000017       8.41316686E-12
   6.00000000       8.66445110E-12
   6.17999983       8.84735080E-12
   6.36000013       8.96161357E-12
   6.53999996       9.00859942E-12
   6.71999979       8.99181771E-12
   6.90000010       8.91690020E-12
   7.07999992       8.79099137E-12
   7.26000023       8.62159823E-12
   7.44000006       8.41514532E-12
   7.61999989       8.17560516E-12
   7.80000019       7.90357016E-12
   7.98000002       7.59580766E-12
   8.15999985       7.24586190E-12
   8.34000015       6.84508440E-12
   8.52000046       6.38444766E-12
   8.69999981       5.85643816E-12
   8.88000011       5.25691600E-12
   9.06000042       4.58639463E-12
   9.23999977       3.85050845E-12
   9.42000008       3.05961094E-12
   9.60000038       2.22743156E-12
   9.77999973       1.36926397E-12
   9.96000004       4.99760877E-13
   10.1400003      -3.69092804E-13
   10.3199997      -1.22949036E-12
   10.5000000      -2.07847303E-12
   10.6800003      -2.91761146E-12
   10.8599997      -3.75179965E-12
   11.0400000      -4.58722600E-12
   11.2200003      -5.42914585E-12
   11.3999996      -6.28008539E-12
   11.5799999      -7.13866986E-12
   11.7600002      -7.99956282E-12
   11.9399996      -8.85460628E-12
   12.1199999      -9.69452209E-12
   12.3000002      -1.05111701E-11
   12.4799995      -1.12994432E-11
   12.6599998      -1.20585998E-11
   12.8400002      -1.27927582E-11
   13.0200005      -1.35103014E-11
   13.1999998      -1.42223620E-11
   13.3800001      -1.49407882E-11
   13.5600004      -1.56756188E-11
   13.7399998      -1.64328464E-11
   13.9200001      -1.72125179E-11
   14.1000004      -1.80078244E-11
   14.2799997      -1.88051710E-11
   14.4600000      -1.95849188E-11
   14.6400003      -2.03232205E-11
   14.8199997      -2.09943191E-11
   15.0000000      -2.15730853E-11
   15.1800003      -2.20375697E-11
   15.3599997      -2.23711692E-11
   15.5400000      -2.25638900E-11
   15.7200003      -2.26123877E-11
   15.8999996      -2.25193857E-11
   16.0799999      -2.22917917E-11
   16.2600002      -2.19387009E-11
   16.4400005      -2.14693558E-11
   16.6200008      -2.08916825E-11
   16.7999992      -2.02116431E-11
   16.9799995      -1.94334566E-11
   17.1599998      -1.85604639E-11
   17.3400002      -1.75965006E-11
   17.5200005      -1.65470450E-11
   17.7000008      -1.54206144E-11
   17.8799992      -1.42291144E-11
   18.0599995      -1.29880681E-11
   18.2399998      -1.17160092E-11
   18.4200001      -1.04336045E-11
   18.6000004      -9.16243036E-12
   18.7800007      -7.92366693E-12
   18.9599991      -6.73727090E-12
   19.1399994      -5.62052358E-12
   19.3199997      -4.58751049E-12
   19.5000000      -3.64809875E-12
   19.6800003      -2.80753394E-12
   19.8600006      -2.06609317E-12
   20.0400009      -1.41956369E-12
   20.2199993      -8.60514134E-13
   20.3999996      -3.79532072E-13
   20.5799999       3.25632127E-14
   20.7600002       3.83269154E-13
   20.9400005       6.76658111E-13
   21.1200008       9.12476041E-13
   21.2999992       1.08601854E-12
   21.4799995       1.18859458E-12
   21.6599998       1.20817581E-12
   21.8400002       1.13095980E-12
   22.0200005       9.42736991E-13
   22.2000008       6.29896851E-13
   22.3799992       1.80629166E-13
   22.5599995      -4.15372625E-13
   22.7399998      -1.16723406E-12
   22.9200001      -2.08457600E-12
   23.1000004      -3.17887752E-12
   23.2800007      -4.46489547E-12
   23.4599991      -5.96126403E-12
   23.6399994      -7.69041861E-12
   23.8199997      -9.67669781E-12
   24.0000000      -1.19437706E-11
   24.1800003      -1.45106852E-11
   24.3600006      -1.73887901E-11
   24.5400009      -2.05778745E-11
   24.7199993      -2.40643287E-11
   24.8999996      -2.78208151E-11
   25.0799999      -3.18071680E-11
   25.2600002      -3.59731550E-11
   25.4400005      -4.02614227E-11
   25.6200008      -4.46110718E-11
   25.7999992      -4.89606272E-11
   25.9799995      -5.32502410E-11
   26.1599998      -5.74236492E-11
   26.3400002      -6.14281681E-11
   26.5200005      -6.52156523E-11
   26.7000008      -6.87420329E-11
   26.8799992      -7.19671198E-11
   27.0599995      -7.48547543E-11
   27.2399998      -7.73727402E-11
   27.4200001      -7.94935992E-11
   27.6000004      -8.11945441E-11
   27.7800007      -8.24584914E-11
   27.9599991      -8.32740404E-11
   28.1399994      -8.36353209E-11
   28.3199997      -8.35421385E-11
   28.5000000      -8.29994615E-11
   28.6800003      -8.20172610E-11
   28.8600006      -8.06105113E-11
   29.0400009      -7.87997098E-11
   29.2199993      -7.66112590E-11
   29.3999996      -7.40782644E-11
   29.5799999      -7.12398751E-11
   29.7600002      -6.81407430E-11
   29.9400005      -6.48288784E-11
   30.1200008      -6.13534501E-11
   30.2999992      -5.77613235E-11
   30.4799995      -5.40945205E-11
   30.6599998      -5.03883497E-11
   30.8400002      -4.66710941E-11
   31.0200005      -4.29639935E-11
   31.2000008      -3.92842009E-11
   31.3799992      -3.56461076E-11
   31.5599995      -3.20638863E-11
   31.7399998      -2.85527210E-11
   31.9200001      -2.51289198E-11
   32.0999985      -2.18089158E-11
   32.2799988      -1.86083510E-11
   32.4599991      -1.55399426E-11
   32.6399994      -1.26114241E-11
   32.8199997      -9.82423518E-12
   33.0000000      -7.17194967E-12
   33.1800003      -4.64015718E-12
   33.3600006      -2.20721748E-12
   33.5400009       1.54789877E-13
   33.7200012       2.47631451E-12
   33.9000015       4.78763687E-12
   34.0800018       7.11467994E-12
   34.2599983       9.47557571E-12
   34.4399986       1.18791236E-11
   34.6199989       1.43230367E-11
   34.7999992       1.67953099E-11
   34.9799995       1.92763114E-11
   35.1599998       2.17414454E-11
   35.3400002       2.41649357E-11
   35.5200005       2.65223173E-11
   35.7000008       2.87920781E-11
   35.8800011       3.09569176E-11
   36.0600014       3.30029476E-11
   36.2400017       3.49190676E-11
   36.4199982       3.66953343E-11
   36.5999985       3.83225708E-11
   36.7799988       3.97902579E-11
   36.9599991       4.10864572E-11
   37.1399994       4.21974920E-11
   37.3199997       4.31076008E-11
   37.5000000       4.38006749E-11
   37.6800003       4.42610532E-11
   37.8600006       4.44751146E-11
   38.0400009       4.44335124E-11
   38.2200012       4.41317989E-11
   38.4000015       4.35707928E-11
   38.5800018       4.27566697E-11
   38.7599983       4.16995813E-11
   38.9399986       4.04115491E-11
   39.1199989       3.89052054E-11
   39.2999992       3.71923499E-11
   39.4799995       3.52824887E-11
   39.6599998       3.31830709E-11
   39.8400002       3.08987488E-11
   40.0200005       2.84321108E-11
   40.2000008       2.57832176E-11
   40.3800011       2.29497706E-11
   40.5600014       1.99266489E-11
   40.7400017       1.67058034E-11
   40.9199982       1.32763306E-11
   41.0999985       9.62469861E-12
   41.2799988       5.73669801E-12
   41.4599991       1.59846886E-12
   41.6399994      -2.80086349E-12
   41.8199997      -7.46801579E-12
   42.0000000      -1.24036146E-11
   42.1800003      -1.76024612E-11
   42.3600006      -2.30530699E-11
   42.5400009      -2.87392905E-11
   42.7200012      -3.46408006E-11
   42.9000015      -4.07350959E-11
   43.0800018      -4.69981415E-11
   43.2599983      -5.34051206E-11
   43.4399986      -5.99293878E-11
   43.6199989      -6.65421260E-11
   43.7999992      -7.32097299E-11
   43.9799995      -7.98921554E-11
   44.1599998      -8.65412186E-11
   44.3400002      -9.31000346E-11
   44.5200005      -9.95030933E-11
   44.7000008      -1.05678903E-10
   44.8800011      -1.11552663E-10
   45.0600014      -1.17050869E-10
   45.2400017      -1.22105201E-10
   45.4199982      -1.26656741E-10
   45.5999985      -1.30658581E-10
   45.7799988      -1.34077874E-10
   45.9599991      -1.36896050E-10
   46.1399994      -1.39108003E-10
   46.3199997      -1.40721573E-10
   46.5000000      -1.41755413E-10
   46.6800003      -1.42239498E-10
   46.8600006      -1.42213810E-10
   47.0400009      -1.41729226E-10
   47.2200012      -1.40847459E-10
   47.4000015      -1.39640438E-10
   47.5800018      -1.38190015E-10
   47.7599983      -1.36585521E-10
   47.9399986      -1.34921505E-10
   48.1199989      -1.33293987E-10
   48.2999992      -1.31796241E-10
   48.4799995      -1.30515002E-10
   48.6599998      -1.29526570E-10
   48.8400002      -1.28894048E-10
   49.0200005      -1.28666425E-10
   49.2000008      -1.28877492E-10
   49.3800011      -1.29546956E-10
   49.5600014      -1.30681188E-10
   49.7400017      -1.32275219E-10
   49.9199982      -1.34313977E-10
   50.0999985      -1.36773037E-10
   50.2799988      -1.39619524E-10
   50.4599991      -1.42812789E-10
   50.6399994      -1.46304899E-10
   50.8199997      -1.50042173E-10
   51.0000000      -1.53968810E-10
   51.1800003      -1.58029603E-10
   51.3600006      -1.62174746E-10
   51.5400009      -1.66364825E-10
   51.7200012      -1.70574110E-10
   51.9000015      -1.74792680E-10
   52.0800018      -1.79027473E-10
   52.2599983      -1.83300652E-10
   52.4399986      -1.87647287E-10
   52.6199989      -1.92110827E-10
   52.7999992      -1.96739625E-10
   52.9799995      -2.01582459E-10
   53.1599998      -2.06684600E-10
   53.3400002      -2.12085766E-10
   53.5200005      -2.17816959E-10
   53.7000008      -2.23900107E-10
   53.8800011      -2.30346853E-10
   54.0600014      -2.37158265E-10
   54.2400017      -2.44324755E-10
   54.4199982      -2.51825838E-10
   54.5999985      -2.59630151E-10
   54.7799988      -2.67694256E-10
   54.9599991      -2.75962558E-10
   55.1399994      -2.84365836E-10
   55.3199997      -2.92821378E-10
   55.5000000      -3.01232955E-10
   55.6800003      -3.09493431E-10
   55.8600006      -3.17487786E-10
   56.0400009      -3.25098726E-10
   56.2200012      -3.32213146E-10
   56.4000015      -3.38727935E-10
   56.5800018      -3.44556578E-10
   56.7599983      -3.49633184E-10
   56.9399986      -3.53914509E-10
   57.1199989      -3.57380903E-10
   57.2999992      -3.60034336E-10
   57.4799995      -3.61895319E-10
   57.6599998      -3.63000352E-10
   57.8400002      -3.63397368E-10
   58.0200005      -3.63142377E-10
   58.2000008      -3.62297109E-10
   58.3800011      -3.60926705E-10
   58.5600014      -3.59099500E-10
   58.7400017      -3.56886132E-10
   58.9199982      -3.54359458E-10
   59.0999985      -3.51594698E-10
   59.2799988      -3.48668067E-10
   59.4599991      -3.45655976E-10
   59.6399994      -3.42631756E-10
   59.8199997      -3.39664852E-10
   60.0000000      -3.36816408E-10
   60.1800003      -3.34137717E-10
   60.3600006      -3.31667305E-10
   60.5400009      -3.29429678E-10
   60.7200012      -3.27434108E-10
   60.9000015      -3.25675265E-10
   61.0800018      -3.24132721E-10
   61.2599983      -3.22773391E-10
   61.4399986      -3.21552923E-10
   61.6199989      -3.20418025E-10
   61.7999992      -3.19310717E-10
   61.9799995      -3.18171461E-10
   62.1599998      -3.16943416E-10
   62.3400002      -3.15576648E-10
   62.5200005      -3.14029830E-10
   62.7000008      -3.12272846E-10
   62.8800011      -3.10284270E-10
   63.0600014      -3.08049808E-10
   63.2400017      -3.05559439E-10
   63.4199982      -3.02803504E-10
   63.5999985      -2.99770736E-10
   63.7799988      -2.96447950E-10
   63.9599991      -2.92820601E-10
   64.1399994      -2.88875007E-10
   64.3199997      -2.84602203E-10
   64.5000000      -2.80000523E-10
   64.6800003      -2.75078293E-10
   64.8600006      -2.69855471E-10
   65.0400009      -2.64361338E-10
   65.2200012      -2.58633504E-10
   65.4000015      -2.52712379E-10
   65.5800018      -2.46636350E-10
   65.7600021      -2.40437503E-10
   65.9400024      -2.34137237E-10
   66.1200027      -2.27745156E-10
   66.3000031      -2.21259039E-10
   66.4800034      -2.14667326E-10
   66.6600037      -2.07953835E-10
   66.8399963      -2.01102690E-10
   67.0199966      -1.94102359E-10
   67.1999969      -1.86949678E-10
   67.3799973      -1.79650961E-10
   67.5599976      -1.72221681E-10
   67.7399979      -1.64683142E-10
   67.9199982      -1.57059477E-10
   68.0999985      -1.49373569E-10
   68.2799988      -1.41643752E-10
   68.4599991      -1.33881697E-10
   68.6399994      -1.26090943E-10
   68.8199997      -1.18267493E-10
   69.0000000      -1.10399738E-10
   69.1800003      -1.02469991E-10
   69.3600006      -9.44555337E-11
   69.5400009      -8.63304081E-11
   69.7200012      -7.80661022E-11
   69.9000015      -6.96344996E-11
   70.0800018      -6.10086495E-11
   70.2600021      -5.21652686E-11
   70.4400024      -4.30857815E-11
   70.6200027      -3.37583399E-11
   70.8000031      -2.41783642E-11
   70.9800034      -1.43488710E-11
   71.1600037      -4.28173946E-12
   71.3399963       6.00323350E-12
   71.5199966       1.64773698E-11
   71.6999969       2.71034167E-11
   71.8799973       3.78354466E-11
   72.0599976       4.86189769E-11
   72.2399979       5.93931432E-11
   72.4199982       7.00918976E-11
   72.5999985       8.06459344E-11
   72.7799988       9.09873704E-11
   72.9599991       1.01050876E-10
   73.1399994       1.10777255E-10
   73.3199997       1.20114974E-10
   73.5000000       1.29022085E-10
   73.6800003       1.37467121E-10
   73.8600006       1.45430279E-10
   74.0400009       1.52903690E-10
   74.2200012       1.59892086E-10
   74.4000015       1.66412689E-10
   74.5800018       1.72494255E-10
   74.7600021       1.78176043E-10
   74.9400024       1.83506543E-10
   75.1200027       1.88539948E-10
   75.3000031       1.93333918E-10
   75.4800034       1.97945674E-10
   75.6600037       2.02430017E-10
   75.8399963       2.06835937E-10
   76.0199966       2.11205248E-10
   76.1999969       2.15572948E-10
   76.3799973       2.19966420E-10
   76.5599976       2.24408186E-10
   76.7399979       2.28916927E-10
   76.9199982       2.33509434E-10
   77.0999985       2.38202985E-10
   77.2799988       2.43016218E-10
   77.4599991       2.47970866E-10
   77.6399994       2.53092269E-10
   77.8199997       2.58410210E-10
   78.0000000       2.63958078E-10
   78.1800003       2.69773315E-10
   78.3600006       2.75896028E-10
   78.5400009       2.82368462E-10
   78.7200012       2.89233498E-10
   78.9000015       2.96532549E-10
   79.0800018       3.04303943E-10
   79.2600021       3.12579518E-10
   79.4400024       3.21381338E-10
   79.6200027       3.30718369E-10
   79.8000031       3.40582645E-10
   79.9800034       3.50946799E-10
   80.1600037       3.61761926E-10
   80.3399963       3.72957137E-10
   80.5199966       3.84441146E-10
   80.6999969       3.96103927E-10
   80.8799973       4.07820833E-10
   81.0599976       4.19456997E-10
   81.2399979       4.30870617E-10
   81.4199982       4.41916059E-10
   81.5999985       4.52446303E-10
   81.7799988       4.62313188E-10
   81.9599991       4.71369055E-10
   82.1399994       4.79467521E-10
   82.3199997       4.86466645E-10
   82.5000000       4.92233643E-10
   82.6800003       4.96650776E-10
   82.8600006       4.99622566E-10
   83.0400009       5.01083397E-10
   83.2200012       5.01002961E-10
   83.4000015       4.99391029E-10
   83.5800018       4.96298835E-10
   83.7600021       4.91816698E-10
   83.9400024       4.86069351E-10
   84.1200027       4.79207951E-10
   84.3000031       4.71400197E-10
   84.4800034       4.62821198E-10
   84.6600037       4.53643373E-10
   84.8399963       4.44029702E-10
   85.0199966       4.34128039E-10
   85.1999969       4.24069474E-10
   85.3799973       4.13967610E-10
   85.5599976       4.03921480E-10
   85.7399979       3.94018901E-10
   85.9199982       3.84339949E-10
   86.0999985       3.74960146E-10
   86.2799988       3.65950825E-10
   86.4599991       3.57377655E-10
   86.6399994       3.49296703E-10
   86.8199997       3.41749601E-10
   87.0000000       3.34757944E-10
   87.1800003       3.28320426E-10
   87.3600006       3.22410404E-10
   87.5400009       3.16977056E-10
   87.7200012       3.11949827E-10
   87.9000015       3.07244175E-10
   88.0800018       3.02768643E-10
   88.2600021       2.98432640E-10
   88.4400024       2.94152980E-10
   88.6200027       2.89858137E-10
   88.8000031       2.85491325E-10
   88.9800034       2.81010576E-10
   89.1600037       2.76388024E-10
   89.3399963       2.71608291E-10
   89.5199966       2.66666494E-10
   89.6999969       2.61566602E-10
   89.8799973       2.56319937E-10
   90.0599976       2.50943960E-10
   90.2399979       2.45460791E-10
   90.4199982       2.39895437E-10
   90.5999985       2.34274655E-10
   90.7799988       2.28625494E-10
   90.9599991       2.22974209E-10
   91.1399994       2.17345669E-10
   91.3199997       2.11762885E-10
   91.5000000       2.06246520E-10
   91.6800003       2.00814226E-10
   91.8600006       1.95480493E-10
   92.0400009       1.90255117E-10
   92.2200012       1.85142388E-10
   92.4000015       1.80139056E-10
   92.5800018       1.75233036E-10
   92.7600021       1.70401443E-10
   92.9400024       1.65610151E-10
   93.1200027       1.60814917E-10
   93.3000031       1.55963201E-10
   93.4800034       1.50998505E-10
   93.6600037       1.45865389E-10
   93.8399963       1.40514905E-10
   94.0199966       1.34910028E-10
   94.1999969       1.29029565E-10
   94.3799973       1.22870741E-10
   94.5599976       1.16448601E-10
   94.7399979       1.09793417E-10
   94.9199982       1.02944993E-10
   95.0999985       9.59458415E-11
   95.2799988       8.88335933E-11
   95.4599991       8.16348378E-11
   95.6399994       7.43611075E-11
   95.8199997       6.70078507E-11
   96.0000000       5.95568109E-11
   96.1800003       5.19795110E-11
   96.3600006       4.42426859E-11
   96.5400009       3.63129041E-11
   96.7200012       2.81593707E-11
   96.9000015       1.97551853E-11
   97.0800018       1.10755311E-11
   97.2600021       2.09473042E-12
   97.4400024      -7.21800831E-12
   97.6200027      -1.69019226E-11
   97.8000031      -2.70062046E-11
   97.9800034      -3.75895703E-11
   98.1600037      -4.87155490E-11
   98.3399963      -6.04467726E-11
   98.5199966      -7.28369934E-11
   98.6999969      -8.59234281E-11
   98.8799973      -9.97204611E-11
   99.0599976      -1.14215505E-10
   99.2399979      -1.29367600E-10
   99.4199982      -1.45109189E-10
   99.5999985      -1.61350100E-10
   99.7799988      -1.77983656E-10
   99.9599991      -1.94892991E-10
   100.139999      -2.11957910E-10
   100.320000      -2.29059674E-10
   100.500000      -2.46085208E-10
   100.680000      -2.62928540E-10
   100.860001      -2.79492679E-10
   101.040001      -2.95689945E-10
   101.220001      -3.11443621E-10
   101.400002      -3.26690203E-10
   101.580002      -3.41382339E-10
   101.760002      -3.55492469E-10
   101.940002      -3.69015457E-10
   102.120003      -3.81969734E-10
   102.300003      -3.94396515E-10
   102.480003      -4.06355283E-10
   102.660004      -4.17917062E-10
   102.839996      -4.29154517E-10
   103.019997      -4.40132791E-10
   103.199997      -4.50900511E-10
   103.379997      -4.61484601E-10
   103.559998      -4.71888917E-10
   103.739998      -4.82097695E-10
   103.919998      -4.92082153E-10
   104.099998      -5.01808761E-10
   104.279999      -5.11247766E-10
   104.459999      -5.20379462E-10
   104.639999      -5.29197908E-10
   104.820000      -5.37710709E-10
   105.000000      -5.45936518E-10
   105.180000      -5.53899038E-10
   105.360001      -5.61621638E-10
   105.540001      -5.69120917E-10
   105.720001      -5.76402870E-10
   105.900002      -5.83460946E-10
   106.080002      -5.90276827E-10
   106.260002      -5.96822591E-10
   106.440002      -6.03065153E-10
   106.620003      -6.08971262E-10
   106.800003      -6.14511386E-10
   106.980003      -6.19663154E-10
   107.160004      -6.24412633E-10
   107.339996      -6.28754049E-10
   107.519997      -6.32686237E-10
   107.699997      -6.36209085E-10
   107.879997      -6.39318709E-10
   108.059998      -6.42003228E-10
   108.239998      -6.44240272E-10
   108.419998      -6.45997034E-10
   108.599998      -6.47231990E-10
   108.779999      -6.47898124E-10
   108.959999      -6.47947140E-10
   109.139999      -6.47333021E-10
   109.320000      -6.46015574E-10
   109.500000      -6.43962716E-10
   109.680000      -6.41152575E-10
   109.860001      -6.37574105E-10
   110.040001      -6.33228414E-10
   110.220001      -6.28128993E-10
   110.400002      -6.22301377E-10
   110.580002      -6.15782814E-10
   110.760002      -6.08621209E-10
   110.940002      -6.00872907E-10
   111.120003      -5.92600580E-10
   111.300003      -5.83868898E-10
   111.480003      -5.74741754E-10
   111.660004      -5.65277436E-10
   111.839996      -5.55526902E-10
   112.019997      -5.45531564E-10
   112.199997      -5.35323341E-10
   112.379997      -5.24927157E-10
   112.559998      -5.14363552E-10
   112.739998      -5.03653119E-10
   112.919998      -4.92820118E-10
   113.099998      -4.81895857E-10
   113.279999      -4.70920414E-10
   113.459999      -4.59941391E-10
   113.639999      -4.49010884E-10
   113.820000      -4.38178965E-10
   114.000000      -4.27487795E-10
   114.180000      -4.16963269E-10
   114.360001      -4.06610551E-10
   114.540001      -3.96411182E-10
   114.720001      -3.86323695E-10
   114.900002      -3.76288667E-10
   115.080002      -3.66235348E-10
   115.260002      -3.56090990E-10
   115.440002      -3.45790147E-10
   115.620003      -3.35282746E-10
   115.800003      -3.24539173E-10
   115.980003      -3.13551768E-10
   116.160004      -3.02332520E-10
   116.339996      -2.90906715E-10
   116.519997      -2.79304802E-10
   116.699997      -2.67553368E-10
   116.879997      -2.55668237E-10
   117.059998      -2.43649850E-10
   117.239998      -2.31482375E-10
   117.419998      -2.19135210E-10
   117.599998      -2.06567388E-10
   117.779999      -1.93732988E-10
   117.959999      -1.80584922E-10
   118.139999      -1.67078490E-10
   118.320000      -1.53172253E-10
   118.500000      -1.38828019E-10
   118.680000      -1.24007971E-10
   118.860001      -1.08673591E-10
   119.040001      -9.27838154E-11
   119.220001      -7.62946581E-11
   119.400002      -5.91607180E-11
   119.580002      -4.13368194E-11