  -34.5000000         0.00000000    
  -34.3195000         0.00000000    
  -34.1389999         0.00000000    
  -33.9584999        -2.61480157E-27
  -33.7779999        -3.22665271E-24
  -33.5974998        -1.97435918E-23
  -33.4169998        -4.95954863E-23
  -33.2364998        -5.78602274E-23
  -33.0559998         1.33488029E-23
  -32.8754997         2.23976367E-22
  -32.6949997         6.28080854E-22
  -32.5144997         1.10064963E-21
  -32.3339996         9.25183441E-22
  -32.1534996        -1.19032956E-21
  -31.9729996        -5.69868877E-21
  -31.7924995        -9.99395092E-21
  -31.6119995        -8.18323237E-21
  -31.4314995         5.11135176E-21
  -31.2509995         2.91035841E-20
  -31.0704994         5.39965732E-20
  -30.8899994         6.22269751E-20
  -30.7094994         3.09706309E-20
  -30.5289993        -6.28241866E-20
  -30.3484993        -2.24081935E-19
  -30.1679993        -4.00256982E-19
  -29.9874992        -4.41593834E-19
  -29.8069992        -1.17647675E-19
  -29.6264992         7.51858166E-19
  -29.4459991         2.05877107E-18
  -29.2654991         3.18237723E-18
  -29.0849991         2.99348082E-18
  -28.9044991         2.75531070E-19
  -28.7240009        -5.44423313E-18
  -28.5435009        -1.29760286E-17
  -28.3630009        -1.90488181E-17
  -28.1825008        -1.89705684E-17
  -28.0020008        -8.53854375E-18
  -27.8215008         1.33376786E-17
  -27.6410007         4.24990344E-17
  -27.4605007         6.92562262E-17
  -27.2800007         8.07494045E-17
  -27.0995007         6.55280040E-17
  -26.9190006         1.86612624E-17
  -26.7385006        -5.49062771E-17
  -26.5580006        -1.40497699E-16
  -26.3775005        -2.17502841E-16
  -26.1970005        -2.65137088E-16
  -26.0165005        -2.67374288E-16
  -25.8360004        -2.14709379E-16
  -25.6555004        -1.02367631E-16
  -25.4750004         7.29321904E-17
  -25.2945004         3.13927510E-16
  -25.1140003         6.18300170E-16
  -24.9335003         9.68365123E-16
  -24.7530003         1.31874358E-15
  -24.5725002         1.58905213E-15
  -24.3920002         1.66915169E-15
  -24.2115002         1.44107187E-15
  -24.0310001         8.15514216E-16
  -23.8505001        -2.26105096E-16
  -23.6700001        -1.59744379E-15
  -23.4895000        -3.09376158E-15
  -23.3090000        -4.40646360E-15
  -23.1285000        -5.16412440E-15
  -22.9480000        -4.99041743E-15
  -22.7674999        -3.56511678E-15
  -22.5869999        -6.76649941E-16
  -22.4064999         3.73913292E-15
  -22.2259998         9.57196612E-15
  -22.0454998         1.65167850E-14
  -21.8649998         2.40582294E-14
  -21.6844997         3.14669894E-14
  -21.5039997         3.78238903E-14
  -21.3234997         4.20897109E-14
  -21.1429996         4.32305220E-14
  -20.9624996         4.03882995E-14
  -20.7819996         3.30652491E-14
  -20.6014996         2.12734849E-14
  -20.4209995         5.60151316E-15
  -20.2404995        -1.28314768E-14
  -20.0599995        -3.25336410E-14
  -19.8794994        -5.18733751E-14
  -19.6989994        -6.93323166E-14
  -19.5184994        -8.37175855E-14
  -19.3379993        -9.42925005E-14
  -19.1574993        -1.00811795E-13
  -18.9769993        -1.03477949E-13
  -18.7964993        -1.02846103E-13
  -18.6159992        -9.97079142E-14
  -18.4354992        -9.49645703E-14
  -18.2549992        -8.94901557E-14
  -18.0744991        -8.39777263E-14
  -17.8939991        -7.87717873E-14
  -17.7134991        -7.37170199E-14
  -17.5330009        -6.80706779E-14
  -17.3525009        -6.05330605E-14
  -17.1720009        -4.94268763E-14
  -16.9915009        -3.30147015E-14
  -16.8110008        -9.89067159E-15
  -16.6305008         2.06519694E-14
  -16.4500008         5.83809192E-14
  -16.2695007         1.02078156E-13
  -16.0890007         1.49699846E-13
  -15.9084997         1.98684236E-13
  -15.7279997         2.46325204E-13
  -15.5474997         2.90111603E-13
  -15.3669996         3.27976660E-13
  -15.1864996         3.58436777E-13
  -15.0059996         3.80646551E-13
  -14.8254995         3.94398544E-13
  -14.6450005         4.00096026E-13
  -14.4645004         3.98689545E-13
  -14.2840004         3.91553245E-13
  -14.1035004         3.80275320E-13
  -13.9230003         3.66373083E-13
  -13.7425003         3.50975352E-13
  -13.5620003         3.34562971E-13
  -13.3815002         3.16848300E-13
  -13.2010002         2.96856154E-13
  -13.0205002         2.73194119E-13
  -12.8400002         2.44442297E-13
  -12.6595001         2.09541016E-13
  -12.4790001         1.68060349E-13
  -12.2985001         1.20279885E-13
  -12.1180000         6.70802593E-14
  -11.9375000         9.71427952E-15
  -11.7570000        -5.04349743E-14
  -11.5764999        -1.12025345E-13
  -11.3959999        -1.73816040E-13
  -11.2154999        -2.34646937E-13
  -11.0349998        -2.93407497E-13
  -10.8544998        -3.49062657E-13
  -10.6739998        -4.00754842E-13
  -10.4934998        -4.47951572E-13
  -10.3129997        -4.90547544E-13
  -10.1324997        -5.28844438E-13
  -9.95199966        -5.63369880E-13
  -9.77149963        -5.94574628E-13
  -9.59099960        -6.22503297E-13
  -9.41049957        -6.46561797E-13
  -9.22999954        -6.65468440E-13
  -9.04950047        -6.77407728E-13
  -8.86900043        -6.80334044E-13
  -8.68850040        -6.72339734E-13
  -8.50800037        -6.51992132E-13
  -8.32750034        -6.18580870E-13
  -8.14700031        -5.72283215E-13
  -7.96649981        -5.14265442E-13
  -7.78599977        -4.46748704E-13
  -7.60550022        -3.73027618E-13
  -7.42500019        -2.97408907E-13
  -7.24450016        -2.25012215E-13
  -7.06400013        -1.61391530E-13
  -6.88350010        -1.12018278E-13
  -6.70300007        -8.17058687E-14
  -6.52250004        -7.41364029E-14
  -6.34200001        -9.16360764E-14
  -6.16149998        -1.35276108E-13
  -5.98099995        -2.05301311E-13
  -5.80049992        -3.01774935E-13
  -5.61999989        -4.25244123E-13
  -5.43949986        -5.77230646E-13
  -5.25899982        -7.60435768E-13
  -5.07849979        -9.78549598E-13
  -4.89799976        -1.23578968E-12
  -4.71750021        -1.53619869E-12
  -4.53700018        -1.88287298E-12
  -4.35650015        -2.27720707E-12
  -4.17600012        -2.71822950E-12
  -3.99550009        -3.20209636E-12
  -3.81500006        -3.72176899E-12
  -3.63450003        -4.26700862E-12
  -3.45400000        -4.82471311E-12
  -3.27349997        -5.37958697E-12
  -3.09299994        -5.91514468E-12
  -2.91249990        -6.41484739E-12
  -2.73200011        -6.86318363E-12
  -2.55150008        -7.24640487E-12
  -2.37100005        -7.55280127E-12
  -2.19050002        -7.77250833E-12
  -2.00999999        -7.89686632E-12
  -1.82949996        -7.91763530E-12
  -1.64900005        -7.82638711E-12
  -1.46850002        -7.61404134E-12
  -1.28799999        -7.27102710E-12
  -1.10749996        -6.78767329E-12
 -0.926999986        -6.15492162E-12
 -0.746500015        -5.36519700E-12
 -0.565999985        -4.41309619E-12
 -0.385500014        -3.29616672E-12
 -0.204999998        -2.01529266E-12
  -2.44999994E-02    -5.75096828E-13
  0.156000003         1.01602993E-12
  0.336499989         2.74598335E-12
  0.517000020         4.59935735E-12
  0.697499990         6.55798332E-12
  0.878000021         8.60173478E-12
   1.05850005         1.07093466E-11
   1.23899996         1.28591408E-11
   1.41949999         1.50294898E-11
   1.60000002         1.71991501E-11
   1.78050005         1.93473085E-11
   1.96099997         2.14535317E-11
   2.14150000         2.34977870E-11
   2.32200003         2.54605260E-11
   2.50250006         2.73228037E-11
   2.68300009         2.90666206E-11
   2.86350012         3.06749626E-11
   3.04399991         3.21318874E-11
   3.22449994         3.34223135E-11
   3.40499997         3.45317767E-11
   3.58550000         3.54462293E-11
   3.76600003         3.61521021E-11
   3.94650006         3.66366069E-11
   4.12699986         3.68881800E-11
   4.30749989         3.68972630E-11
   4.48799992         3.66569448E-11
   4.66849995         3.61634195E-11
   4.84899998         3.54162394E-11
   5.02950001         3.44181142E-11
   5.21000004         3.31744458E-11
   5.39050007         3.16926138E-11
   5.57100010         2.99809656E-11
   5.75150013         2.80480483E-11
   5.93200016         2.59015847E-11
   6.11250019         2.35478633E-11
   6.29300022         2.09914395E-11
   6.47349977         1.82350853E-11
   6.65399981         1.52805130E-11
   6.83449984         1.21292230E-11
   7.01499987         8.78343839E-12
   7.19549990         5.24742923E-12
   7.37599993         1.52784784E-12
   7.55649996        -2.36600279E-12
   7.73699999        -6.42257124E-12
   7.91750002        -1.06288754E-11
   8.09799957        -1.49717305E-11
   8.27849960        -1.94384994E-11
   8.45899963        -2.40180618E-11
   8.63949966        -2.87008403E-11
   8.81999969        -3.34788412E-11
   9.00049973        -3.83447545E-11
   9.18099976        -4.32910444E-11
   9.36149979        -4.83088465E-11
   9.54199982        -5.33868366E-11
   9.72249985        -5.85103979E-11
   9.90299988        -6.36613123E-11
   10.0834999        -6.88180207E-11
   10.2639999        -7.39564174E-11
   10.4445000        -7.90513419E-11
   10.6250000        -8.40785427E-11
   10.8055000        -8.90161417E-11
   10.9860001        -9.38462641E-11
   11.1665001        -9.85556983E-11
   11.3470001        -1.03136118E-10
   11.5275002        -1.07583262E-10
   11.7080002        -1.11896208E-10
   11.8885002        -1.16075996E-10
   12.0690002        -1.20124855E-10
   12.2495003        -1.24045385E-10
   12.4300003        -1.27840447E-10
   12.6105003        -1.31512787E-10
   12.7910004        -1.35065445E-10
   12.9715004        -1.38501419E-10
   13.1520004        -1.41823969E-10
   13.3325005        -1.45036635E-10
   13.5129995        -1.48143900E-10
   13.6934996        -1.51151383E-10
   13.8739996        -1.54066884E-10
   14.0544996        -1.56900853E-10
   14.2349997        -1.59666613E-10
   14.4154997        -1.62380234E-10
   14.5959997        -1.65059813E-10
   14.7764997        -1.67724321E-10
   14.9569998        -1.70392200E-10
   15.1374998        -1.73080286E-10
   15.3179998        -1.75802511E-10
   15.4984999        -1.78569201E-10
   15.6789999        -1.81386614E-10
   15.8594999        -1.84256901E-10
   16.0400009        -1.87178481E-10
   16.2205009        -1.90146690E-10
   16.4009991        -1.93154839E-10
   16.5814991        -1.96195185E-10
   16.7619991        -1.99260622E-10
   16.9424992        -2.02345238E-10
   17.1229992        -2.05444620E-10
   17.3034992        -2.08555090E-10
   17.4839993        -2.11672568E-10
   17.6644993        -2.14790394E-10
   17.8449993        -2.17896978E-10
   18.0254993        -2.20974128E-10
   18.2059994        -2.23996016E-10
   18.3864994        -2.26929781E-10
   18.5669994        -2.29736813E-10
   18.7474995        -2.32375730E-10
   18.9279995        -2.34804953E-10
   19.1084995        -2.36986097E-10
   19.2889996        -2.38886078E-10
   19.4694996        -2.40478748E-10
   19.6499996        -2.41745013E-10
   19.8304996        -2.42672688E-10
   20.0109997        -2.43255166E-10
   20.1914997        -2.43489506E-10
   20.3719997        -2.43375015E-10
   20.5524998        -2.42911163E-10
   20.7329998        -2.42097009E-10
   20.9134998        -2.40930331E-10
   21.0939999        -2.39407993E-10
   21.2744999        -2.37527165E-10
   21.4549999        -2.35286651E-10
   21.6355000        -2.32688105E-10
   21.8160000        -2.29737715E-10
   21.9965000        -2.26446376E-10
   22.1770000        -2.22829533E-10
   22.3575001        -2.18906795E-10
   22.5380001        -2.14700036E-10
   22.7185001        -2.10232304E-10
   22.8990002        -2.05526526E-10
   23.0795002        -2.00604422E-10
   23.2600002        -1.95486322E-10
   23.4405003        -1.90191168E-10
   23.6210003        -1.84736934E-10
   23.8015003        -1.79141632E-10
   23.9820004        -1.73424816E-10
   24.1625004        -1.67608219E-10
   24.3430004        -1.61717723E-10
   24.5235004        -1.55784149E-10
   24.7040005        -1.49843360E-10
   24.8845005        -1.43936987E-10
   25.0650005        -1.38111134E-10
   25.2455006        -1.32415690E-10
   25.4260006        -1.26902419E-10
   25.6065006        -1.21623420E-10
   25.7870007        -1.16629331E-10
   25.9675007        -1.11968476E-10
   26.1480007        -1.07685846E-10
   26.3285007        -1.03822874E-10
   26.5090008        -1.00417882E-10
   26.6895008        -9.75061212E-11
   26.8700008        -9.51212026E-11
   27.0505009        -9.32952535E-11
   27.2310009        -9.20603385E-11
   27.4115009        -9.14489942E-11
   27.5919991        -9.14946244E-11
   27.7724991        -9.22306606E-11
   27.9529991        -9.36896255E-11
   28.1334991        -9.59003363E-11
   28.3139992        -9.88862742E-11
   28.4944992        -1.02662261E-10
   28.6749992        -1.07232806E-10
   28.8554993        -1.12591332E-10
   29.0359993        -1.18720020E-10
   29.2164993        -1.25591787E-10
   29.3969994        -1.33172015E-10
   29.5774994        -1.41420736E-10
   29.7579994        -1.50294943E-10
   29.9384995        -1.59749755E-10
   30.1189995        -1.69738987E-10
   30.2994995        -1.80214635E-10
   30.4799995        -1.91126656E-10
   30.6604996        -2.02421538E-10
   30.8409996        -2.14041521E-10
   31.0214996        -2.25923877E-10
   31.2019997        -2.38000841E-10
   31.3824997        -2.50199916E-10
   31.5629997        -2.62445621E-10
   31.7434998        -2.74661099E-10
   31.9239998        -2.86771246E-10
   32.1044998        -2.98705283E-10
   32.2849998        -3.10399539E-10
   32.4654999        -3.21799420E-10
   32.6459999        -3.32859768E-10
   32.8264999        -3.43544498E-10
   33.0070000        -3.53824470E-10
   33.1875000        -3.63674757E-10
   33.3680000        -3.73071685E-10
   33.5485001        -3.81991105E-10
   33.7290001        -3.90406735E-10
   33.9095001        -3.98291428E-10
   34.0900002        -4.05617956E-10
   34.2705002        -4.12362117E-10
   34.4510002        -4.18505897E-10
   34.6315002        -4.24039026E-10
   34.8120003        -4.28961255E-10
   34.9925003        -4.33282604E-10
   35.1730003        -4.37022196E-10
   35.3535004        -4.40206399E-10
   35.5340004        -4.42865772E-10
   35.7145004        -4.45031539E-10
   35.8950005        -4.46731929E-10
   36.0755005        -4.47988702E-10
   36.2560005        -4.48814819E-10
   36.4365005        -4.49213611E-10
   36.6170006        -4.49178889E-10
   36.7975006        -4.48696802E-10
   36.9780006        -4.47749060E-10
   37.1585007        -4.46316595E-10
   37.3390007        -4.44383974E-10
   37.5195007        -4.41941927E-10
   37.7000008        -4.38990483E-10
   37.8805008        -4.35539549E-10
   38.0610008        -4.31607666E-10
   38.2415009        -4.27220981E-10
   38.4220009        -4.22409829E-10
   38.6025009        -4.17206686E-10
   38.7830009        -4.11643719E-10
   38.9635010        -4.05750794E-10
   39.1440010        -3.99555833E-10
   39.3245010        -3.93084787E-10
   39.5050011        -3.86363969E-10
   39.6855011        -3.79421494E-10
   39.8660011        -3.72289144E-10
   40.0465012        -3.65004610E-10
   40.2270012        -3.57611746E-10
   40.4075012        -3.50160151E-10
   40.5880013        -3.42703560E-10
   40.7685013        -3.35296929E-10
   40.9490013        -3.27991856E-10
   41.1295013        -3.20832416E-10
   41.3100014        -3.13850279E-10
   41.4905014        -3.07061043E-10
   41.6710014        -3.00461683E-10
   41.8515015        -2.94029634E-10
   42.0320015        -2.87724650E-10
   42.2125015        -2.81491080E-10
   42.3930016        -2.75262674E-10
   42.5735016        -2.68967321E-10
   42.7540016        -2.62532246E-10
   42.9345016        -2.55887755E-10
   43.1150017        -2.48971066E-10
   43.2955017        -2.41727083E-10
   43.4760017        -2.34107955E-10
   43.6565018        -2.26073243E-10
   43.8370018        -2.17586088E-10
   44.0175018        -2.08612724E-10
   44.1980019        -1.99119360E-10
   44.3785019        -1.89072369E-10
   44.5589981        -1.78438653E-10
   44.7394981        -1.67187042E-10
   44.9199982        -1.55291974E-10
   45.1004982        -1.42737322E-10
   45.2809982        -1.29520061E-10
   45.4614983        -1.15653501E-10
   45.6419983        -1.01169524E-10
   45.8224983        -8.61184318E-11
   46.0029984        -7.05672881E-11
   46.1834984        -5.45960707E-11
   46.3639984        -3.82931117E-11
   46.5444984        -2.17495952E-11
   46.7249985        -5.05463206E-12
   46.9054985         1.17085898E-11
   47.0859985         2.84660056E-11
   47.2664986         4.51525380E-11
   47.4469986         6.17114623E-11
   47.6274986         7.80919496E-11
   47.8079987         9.42458750E-11
   47.9884987         1.10124104E-10
   48.1689987         1.25674457E-10
   48.3494987         1.40840561E-10
   48.5299988         1.55561786E-10
   48.7104988         1.69776651E-10
   48.8909988         1.83425844E-10
   49.0714989         1.96457489E-10
   49.2519989         2.08832021E-10
   49.4324989         2.20526028E-10
   49.6129990         2.31535749E-10
   49.7934990         2.41877268E-10
   49.9739990         2.51586280E-10
   50.1544991         2.60715338E-10
   50.3349991         2.69329364E-10
   50.5154991         2.77501522E-10
   50.6959991         2.85307888E-10
   50.8764992         2.92823016E-10
   51.0569992         3.00116404E-10
   51.2374992         3.07250086E-10
   51.4179993         3.14277521E-10
   51.5984993         3.21244809E-10
   51.7789993         3.28192029E-10
   51.9594994         3.35156569E-10
   52.1399994         3.42176260E-10
   52.3204994         3.49291235E-10
   52.5009995         3.56545821E-10
   52.6814995         3.63987535E-10
   52.8619995         3.71665088E-10
   53.0424995         3.79624387E-10
   53.2229996         3.87903376E-10
   53.4034996         3.96527228E-10
   53.5839996         4.05504963E-10
   53.7644997         4.14825924E-10
   53.9449997         4.24459301E-10
   54.1254997         4.34356107E-10
   54.3059998         4.44452419E-10
   54.4864998         4.54674104E-10
   54.6669998         4.64943334E-10
   54.8474998         4.75184558E-10
   55.0279999         4.85330054E-10
   55.2084999         4.95323504E-10
   55.3889999         5.05122333E-10
   55.5695000         5.14696896E-10
   55.7500000         5.24027599E-10
   55.9305000         5.33101119E-10
   56.1110001         5.41903855E-10
   56.2915001         5.50418877E-10
   56.4720001         5.58621760E-10
   56.6525002         5.66480918E-10
   56.8330002         5.73957937E-10
   57.0135002         5.81012349E-10
   57.1940002         5.87606130E-10
   57.3745003         5.93707972E-10
   57.5550003         5.99297556E-10
   57.7355003         6.04366723E-10
   57.9160004         6.08919914E-10
   58.0965004         6.12971951E-10
   58.2770004         6.16544760E-10
   58.4575005         6.19663099E-10
   58.6380005         6.22350282E-10
   58.8185005         6.24624574E-10
   58.9990005         6.26496188E-10
   59.1795006         6.27965457E-10
   59.3600006         6.29023555E-10
   59.5405006         6.29653996E-10
   59.7210007         6.29835961E-10
   59.9015007         6.29547747E-10
   60.0820007         6.28772090E-10
   60.2625008         6.27499275E-10
   60.4430008         6.25730134E-10
   60.6235008         6.23477270E-10
   60.8040009         6.20763885E-10
   60.9845009         6.17621787E-10
   61.1650009         6.14087281E-10
   61.3455009         6.10197615E-10
   61.5260010         6.05985651E-10
   61.7065010         6.01477035E-10
   61.8870010         5.96686978E-10
   62.0675011         5.91619365E-10
   62.2480011         5.86266591E-10
   62.4285011         5.80612503E-10
   62.6090012         5.74635117E-10
   62.7895012         5.68312286E-10
   62.9700012         5.61625191E-10
   63.1505013         5.54564394E-10
   63.3310013         5.47131840E-10
   63.5115013         5.39342071E-10
   63.6920013         5.31221400E-10
   63.8725014         5.22804577E-10
   64.0530014         5.14129628E-10
   64.2334976         5.05233244E-10
   64.4140015         4.96144625E-10
   64.5944977         4.86883811E-10
   64.7750015         4.77458462E-10
   64.9554977         4.67866079E-10
   65.1360016         4.58096283E-10
   65.3164978         4.48135751E-10
   65.4970016         4.37973352E-10
   65.6774979         4.27604813E-10
   65.8580017         4.17036100E-10
   66.0384979         4.06285922E-10
   66.2190018         3.95385308E-10
   66.3994980         3.84375032E-10
   66.5800018         3.73302750E-10
   66.7604980         3.62217673E-10
   66.9410019         3.51166596E-10
   67.1214981         3.40190875E-10
   67.3020020         3.29324734E-10
   67.4824982         3.18595067E-10
   67.6630020         3.08023856E-10
   67.8434982         2.97630143E-10
   68.0240021         2.87433410E-10
   68.2044983         2.77455336E-10
   68.3850021         2.67720485E-10
   68.5654984         2.58255556E-10
   68.7460022         2.49086779E-10
   68.9264984         2.40237247E-10
   69.1070023         2.31722044E-10
   69.2874985         2.23545751E-10
   69.4680023         2.15699250E-10
   69.6484985         2.08159406E-10
   69.8290024         2.00888223E-10
   70.0094986         1.93835378E-10
   70.1900024         1.86940019E-10
   70.3704987         1.80135101E-10
   70.5510025         1.73350140E-10
   70.7314987         1.66514136E-10
   70.9120026         1.59558700E-10
   71.0924988         1.52419855E-10
   71.2730026         1.45038676E-10
   71.4534988         1.37363593E-10
   71.6340027         1.29348865E-10
   71.8144989         1.20956439E-10
   71.9950027         1.12155042E-10
   72.1754990         1.02921914E-10
   72.3560028         9.32421362E-11
   72.5364990         8.31096442E-11
   72.7170029         7.25268109E-11
   72.8974991         6.15052315E-11
   73.0780029         5.00647718E-11
   73.2584991         3.82345024E-11
   73.4390030         2.60524796E-11
   73.6194992         1.35661491E-11
   73.8000031         8.32666510E-13
   73.9804993        -1.20799742E-11
   74.1610031        -2.50941230E-11
   74.3414993        -3.81221721E-11
   74.5220032        -5.10692495E-11
   74.7024994        -6.38350692E-11
   74.8830032        -7.63178618E-11
   75.0634995        -8.84180715E-11
   75.2440033        -1.00041968E-10
   75.4244995        -1.11103848E-10
   75.6050034        -1.21528773E-10
   75.7854996        -1.31252148E-10
   75.9660034        -1.40219655E-10
   76.1464996        -1.48386359E-10
   76.3270035        -1.55714691E-10
   76.5074997        -1.62173650E-10
   76.6880035        -1.67739336E-10
   76.8684998        -1.72395612E-10
   77.0490036        -1.76137216E-10
   77.2294998        -1.78973281E-10
   77.4100037        -1.80931492E-10
   77.5904999        -1.82061893E-10
   77.7710037        -1.82439550E-10
   77.9514999        -1.82165324E-10
   78.1320038        -1.81363896E-10
   78.3125000        -1.80179913E-10
   78.4929962        -1.78771456E-10
   78.6735001        -1.77302409E-10
   78.8539963        -1.75933115E-10
   79.0345001        -1.74813261E-10
   79.2149963        -1.74074213E-10
   79.3955002        -1.73824899E-10
   79.5759964        -1.74148890E-10
   79.7565002        -1.75104750E-10
   79.9369965        -1.76727424E-10
   80.1175003        -1.79032095E-10
   80.2979965        -1.82017179E-10
   80.4785004        -1.85668536E-10
   80.6589966        -1.89961422E-10
   80.8395004        -1.94862917E-10
   81.0199966        -2.00331793E-10
   81.2005005        -2.06318809E-10
   81.3809967        -2.12765847E-10
   81.5615005        -2.19605972E-10
   81.7419968        -2.26763455E-10
   81.9225006        -2.34155390E-10
   82.1029968        -2.41693887E-10
   82.2835007        -2.49289506E-10
   82.4639969        -2.56855148E-10
   82.6445007        -2.64310046E-10
   82.8249969        -2.71583783E-10
   83.0055008        -2.78619544E-10
   83.1859970        -2.85375945E-10
   83.3665009        -2.91827673E-10
   83.5469971        -2.97964126E-10
   83.7275009        -3.03786857E-10
   83.9079971        -3.09305803E-10
   84.0885010        -3.14533677E-10
   84.2689972        -3.19482218E-10
   84.4495010        -3.24156896E-10
   84.6299973        -3.28554434E-10
   84.8105011        -3.32661315E-10
   84.9909973        -3.36454531E-10
   85.1715012        -3.39903911E-10
   85.3519974        -3.42975898E-10
   85.5325012        -3.45638212E-10
   85.7129974        -3.47864404E-10
   85.8935013        -3.49637375E-10
   86.0739975        -3.50951740E-10
   86.2545013        -3.51814466E-10
   86.4349976        -3.52242874E-10
   86.6155014        -3.52261414E-10
   86.7959976        -3.51896567E-10
   86.9765015        -3.51171758E-10
   87.1569977        -3.50102780E-10
   87.3375015        -3.48693935E-10
   87.5179977        -3.46937423E-10
   87.6985016        -3.44815010E-10
   87.8789978        -3.42302076E-10
   88.0595016        -3.39372974E-10
   88.2399979        -3.36008305E-10
   88.4205017        -3.32200184E-10
   88.6009979        -3.27956828E-10
   88.7815018        -3.23304300E-10
   88.9619980        -3.18285454E-10
   89.1425018        -3.12955967E-10
   89.3229980        -3.07378650E-10
   89.5035019        -3.01616704E-10
   89.6839981        -2.95727443E-10
   89.8645020        -2.89756524E-10
   90.0449982        -2.83735480E-10
   90.2255020        -2.77681100E-10
   90.4059982        -2.71597467E-10
   90.5865021        -2.65480776E-10
   90.7669983        -2.59324534E-10
   90.9475021        -2.53125271E-10
   91.1279984        -2.46888149E-10
   91.3085022        -2.40629267E-10
   91.4889984        -2.34377212E-10
   91.6695023        -2.28171940E-10
   91.8499985        -2.22061425E-10
   92.0305023        -2.16098403E-10
   92.2109985        -2.10335804E-10
   92.3915024        -2.04823380E-10
   92.5719986        -1.99605721E-10
   92.7525024        -1.94720726E-10
   92.9329987        -1.90200272E-10
   93.1135025        -1.86070201E-10
   93.2939987        -1.82352397E-10
   93.4745026        -1.79065179E-10
   93.6549988        -1.76223716E-10
   93.8355026        -1.73839873E-10
   94.0159988        -1.71921602E-10
   94.1965027        -1.70470818E-10
   94.3769989        -1.69482109E-10
   94.5575027        -1.68940709E-10
   94.7379990        -1.68820458E-10
   94.9185028        -1.69082581E-10
   95.0989990        -1.69674857E-10
   95.2795029        -1.70531297E-10
   95.4599991        -1.71572923E-10
   95.6405029        -1.72709028E-10
   95.8209991        -1.73839970E-10
   96.0015030        -1.74859988E-10
   96.1819992        -1.75661985E-10
   96.3625031        -1.76142156E-10
   96.5429993        -1.76205925E-10
   96.7235031        -1.75773673E-10
   96.9039993        -1.74785728E-10
   97.0845032        -1.73206144E-10
   97.2649994        -1.71025097E-10
   97.4455032        -1.68258074E-10
   97.6259995        -1.64942837E-10
   97.8065033        -1.61134481E-10
   97.9869995        -1.56898883E-10
   98.1675034        -1.52305710E-10
   98.3479996        -1.47422671E-10
   98.5285034        -1.42311579E-10
   98.7089996        -1.37027487E-10
   98.8895035        -1.31620465E-10
   99.0699997        -1.26139807E-10
   99.2505035        -1.20639818E-10
   99.4309998        -1.15185847E-10
   99.6115036        -1.09858400E-10
   99.7919998        -1.04755232E-10
   99.9725037        -9.99899052E-11
   100.153000        -9.56868473E-11
   100.333504        -9.19736023E-11
   100.514000        -8.89699980E-11
   100.694504        -8.67788619E-11
   100.875000        -8.54760776E-11
   101.055496        -8.51042153E-11
   101.236000        -8.56698393E-11
   101.416496        -8.71446318E-11
   101.597000        -8.94712845E-11
   101.777496        -9.25701599E-11
   101.958000        -9.63502958E-11
   102.138496        -1.00716852E-10
   102.319000        -1.05578581E-10
   102.499496        -1.10851710E-10
   102.680000        -1.16460355E-10
   102.860497        -1.22334046E-10
   103.041000        -1.28402802E-10
   103.221497        -1.34591532E-10
   103.402000        -1.40813888E-10
   103.582497        -1.46968326E-10
   103.763000        -1.52937163E-10
   103.943497        -1.58587171E-10
   104.124001        -1.63774480E-10
   104.304497        -1.68351888E-10
   104.485001        -1.72177037E-10
   104.665497        -1.75121931E-10
   104.846001        -1.77081863E-10
   105.026497        -1.77981435E-10
   105.207001        -1.77778750E-10
   105.387497        -1.76465495E-10
   105.568001        -1.74064305E-10
   105.748497        -1.70623377E-10
   105.929001        -1.66208838E-10
   106.109497        -1.60896782E-10
   106.290001        -1.54766033E-10
   106.470497        -1.47891865E-10
   106.651001        -1.40342363E-10
   106.831497        -1.32178199E-10
   107.012001        -1.23453872E-10
   107.192497        -1.14222402E-10
   107.373001        -1.04539467E-10
   107.553497        -9.44700221E-11
   107.734001        -8.40906997E-11
   107.914497        -7.34926564E-11
   108.095001        -6.27793928E-11
   108.275497        -5.20628471E-11
   108.456001        -4.14557902E-11
   108.636497        -3.10630757E-11
   108.817001        -2.09727999E-11
   108.997498        -1.12481491E-11
   109.178001        -1.92242381E-12
   109.358498         7.00291648E-12
   109.539001         1.55551596E-11
   109.719498         2.37854181E-11
   109.900002         3.17594596E-11
   110.080498         3.95486283E-11
   110.261002         4.72202034E-11
   110.441498         5.48301578E-11
   110.622002         6.24188132E-11
   110.802498         7.00097619E-11
   110.983002         7.76124789E-11
   111.163498         8.52274779E-11
   111.344002         9.28529961E-11
   111.524498         1.00492087E-10