  -34.5000000         0.00000000    
  -34.3195000         0.00000000    
  -34.1389999         0.00000000    
  -33.9584999        -8.60936488E-22
  -33.7779999        -6.95494994E-21
  -33.5974998        -3.01399412E-20
  -33.4169998        -9.11948272E-20
  -33.2364998        -2.12773433E-19
  -33.0559998        -4.00918933E-19
  -32.8754997        -6.20753503E-19
  -32.6949997        -7.81692865E-19
  -32.5144997        -7.50954989E-19
  -32.3339996        -4.05360221E-19
  -32.1534996         2.89383838E-19
  -31.9729996         1.20789576E-18
  -31.7924995         2.05527127E-18
  -31.6119995         2.46491695E-18
  -31.4314995         2.21536773E-18
  -31.2509995         1.51672437E-18
  -31.0704994         1.24983217E-18
  -30.8899994         2.99660756E-18
  -30.7094994         8.70912493E-18
  -30.5289993         1.99526353E-17
  -30.3484993         3.68248765E-17
  -30.1679993         5.68634195E-17
  -29.9874992         7.44141738E-17
  -29.8069992         8.09383392E-17
  -29.6264992         6.65152408E-17
  -29.4459991         2.24141677E-17
  -29.2654991        -5.57901956E-17
  -29.0849991        -1.65346218E-16
  -28.9044991        -2.94576963E-16
  -28.7240009        -4.23104154E-16
  -28.5435009        -5.24711182E-16
  -28.3630009        -5.73012865E-16
  -28.1825008        -5.49096361E-16
  -28.0020008        -4.48966373E-16
  -27.8215008        -2.87631690E-16
  -27.6410007        -9.69782116E-17
  -27.4605007         8.33323057E-17
  -27.2800007         2.19361482E-16
  -27.0995007         2.95430242E-16
  -26.9190006         3.19986972E-16
  -26.7385006         3.22014954E-16
  -26.5580006         3.39954079E-16
  -26.3775005         4.08880380E-16
  -26.1970005         5.51933392E-16
  -26.0165005         7.78762145E-16
  -25.8360004         1.08941344E-15
  -25.6555004         1.47972220E-15
  -25.4750004         1.94481009E-15
  -25.2945004         2.47895839E-15
  -25.1140003         3.07063737E-15
  -24.9335003         3.69082918E-15
  -24.7530003         4.27402873E-15
  -24.5725002         4.69745414E-15
  -24.3920002         4.77368711E-15
  -24.2115002         4.27768028E-15
  -24.0310001         3.02149379E-15
  -23.8505001         9.65863305E-16
  -23.6700001        -1.67454496E-15
  -23.4895000        -4.39594557E-15
  -23.3090000        -6.49394834E-15
  -23.1285000        -7.28329411E-15
  -22.9480000        -6.39012582E-15
  -22.7674999        -4.00482260E-15
  -22.5869999        -9.73343877E-16
  -22.4064999         1.34935514E-15
  -22.2259998         1.47461618E-15
  -22.0454998        -1.71608515E-15
  -21.8649998        -8.50092769E-15
  -21.6844997        -1.80514376E-14
  -21.5039997        -2.84933854E-14
  -21.3234997        -3.73245305E-14
  -21.1429996        -4.21026942E-14
  -20.9624996        -4.12055271E-14
  -20.7819996        -3.43995259E-14
  -20.6014996        -2.29761770E-14
  -20.4209995        -9.34235243E-15
  -20.2404995         3.83448681E-15
  -20.0599995         1.46053349E-14
  -19.8794994         2.24047465E-14
  -19.6989994         2.80400652E-14
  -19.5184994         3.29208774E-14
  -19.3379993         3.78279527E-14
  -19.1574993         4.18257280E-14
  -18.9769993         4.19778280E-14
  -18.7964993         3.42481611E-14
  -18.6159992         1.54470315E-14
  -18.4354992        -1.44798724E-14
  -18.2549992        -5.08478080E-14
  -18.0744991        -8.42577351E-14
  -17.8939991        -1.02664520E-13
  -17.7134991        -9.51041275E-14
  -17.5330009        -5.59283048E-14
  -17.3525009         1.20228737E-14
  -17.1720009         9.67174339E-14
  -16.9915009         1.79353535E-13
  -16.8110008         2.39437837E-13
  -16.6305008         2.60947730E-13
  -16.4500008         2.37390511E-13
  -16.2695007         1.73777889E-13
  -16.0890007         8.45754470E-14
  -15.9084997        -1.17510363E-14
  -15.7279997        -9.95132660E-14
  -15.5474997        -1.71126514E-13
  -15.3669996        -2.28658591E-13
  -15.1864996        -2.80797575E-13
  -15.0059996        -3.36429777E-13
  -14.8254995        -3.97606291E-13
  -14.6450005        -4.55154523E-13
  -14.4645004        -4.89206982E-13
  -14.2840004        -4.74909717E-13
  -14.1035004        -3.91355622E-13
  -13.9230003        -2.30323681E-13
  -13.7425003        -1.38536241E-15
  -13.5620003         2.68680830E-13
  -13.3815002         5.41964206E-13
  -13.2010002         7.78721109E-13
  -13.0205002         9.46480633E-13
  -12.8400002         1.02591525E-12
  -12.6595001         1.01196254E-12
  -12.4790001         9.10781541E-13
  -12.2985001         7.34754163E-13
  -12.1180000         4.98252969E-13
  -11.9375000         2.16109520E-13
  -11.7570000        -9.50207862E-14
  -11.5764999        -4.13944215E-13
  -11.3959999        -7.13322142E-13
  -11.2154999        -9.61179270E-13
  -11.0349998        -1.12590558E-12
  -10.8544998        -1.18313248E-12
  -10.6739998        -1.12156421E-12
  -10.4934998        -9.44966870E-13
  -10.3129997        -6.69369291E-13
  -10.1324997        -3.16875134E-13
  -9.95199966         9.03938721E-14
  -9.77149963         5.32495706E-13
  -9.59099960         9.88022273E-13
  -9.41049957         1.42584328E-12
  -9.22999954         1.79671902E-12
  -9.04950047         2.03066340E-12
  -8.86900043         2.04481874E-12
  -8.68850040         1.76279824E-12
  -8.50800037         1.14145260E-12
  -8.32750034         1.96816467E-13
  -8.14700031        -9.80668129E-13
  -7.96649981        -2.22954597E-12
  -7.78599977        -3.34211131E-12
  -7.60550022        -4.10650246E-12
  -7.42500019        -4.35602162E-12
  -7.24450016        -4.01232823E-12
  -7.06400013        -3.11002743E-12
  -6.88350010        -1.79503894E-12
  -6.70300007        -2.96362788E-13
  -6.52250004         1.12166710E-12
  -6.34200001         2.21443632E-12
  -6.16149998         2.80584995E-12
  -5.98099995         2.81983356E-12
  -5.80049992         2.28894898E-12
  -5.61999989         1.34069578E-12
  -5.43949986         1.67108745E-13
  -5.25899982        -1.01380135E-12
  -5.07849979        -1.99616864E-12
  -4.89799976        -2.61704590E-12
  -4.71750021        -2.77585008E-12
  -4.53700018        -2.44125184E-12
  -4.35650015        -1.64686786E-12
  -4.17600012        -4.78648642E-13
  -3.99550009         9.42226006E-13
  -3.81500006         2.47724822E-12
  -3.63450003         3.98622324E-12
  -3.45400000         5.33918309E-12
  -3.27349997         6.42445428E-12
  -3.09299994         7.15423814E-12
  -2.91249990         7.46939403E-12
  -2.73200011         7.34462664E-12
  -2.55150008         6.79401153E-12
  -2.37100005         5.87500491E-12
  -2.19050002         4.68801040E-12
  -2.00999999         3.36857148E-12
  -1.82949996         2.07067891E-12
  -1.64900005         9.42738184E-13
  -1.46850002         1.01018898E-13
  -1.28799999        -3.92291451E-13
  -1.10749996        -5.39036968E-13
 -0.926999986        -3.98335770E-13
 -0.746500015        -6.42678998E-14
 -0.565999985         3.65086108E-13
 -0.385500014         8.15493127E-13
 -0.204999998         1.24923455E-12
  -2.44999994E-02     1.65498832E-12
  0.156000003         2.01641373E-12
  0.336499989         2.27030959E-12
  0.517000020         2.27226809E-12
  0.697499990         1.78851725E-12
  0.878000021         5.25614654E-13
   1.05850005        -1.80251593E-12
   1.23899996        -5.38485619E-12
   1.41949999        -1.02262513E-11
   1.60000002        -1.60913036E-11
   1.78050005        -2.25009299E-11
   1.96099997        -2.87893546E-11
   2.14150000        -3.42113005E-11
   2.32200003        -3.80740543E-11
   2.50250006        -3.98612358E-11
   2.68300009        -3.93172647E-11
   2.86350012        -3.64740287E-11
   3.04399991        -3.16172158E-11
   3.22449994        -2.52076589E-11
   3.40499997        -1.77821213E-11
   3.58550000        -9.86088034E-12
   3.76600003        -1.88154223E-12
   3.94650006         5.83247643E-12
   4.12699986         1.30721475E-11
   4.30749989         1.97224424E-11
   4.48799992         2.57335420E-11
   4.66849995         3.10926805E-11
   4.84899998         3.58004286E-11
   5.02950001         3.98513271E-11
   5.21000004         4.32173568E-11
   5.39050007         4.58346243E-11
   5.57100010         4.75962152E-11
   5.75150013         4.83555834E-11
   5.93200016         4.79440827E-11
   6.11250019         4.62026875E-11
   6.29300022         4.30229567E-11
   6.47349977         3.83885458E-11
   6.65399981         3.24064248E-11
   6.83449984         2.53190715E-11
   7.01499987         1.74935604E-11
   7.19549990         9.38936255E-12
   7.37599993         1.51239785E-12
   7.55649996        -5.63601639E-12
   7.73699999        -1.16066367E-11
   7.91750002        -1.60418918E-11
   8.09799957        -1.87080750E-11
   8.27849960        -1.95202934E-11
   8.45899963        -1.85612255E-11
   8.63949966        -1.60893642E-11
   8.81999969        -1.25287272E-11
   9.00049973        -8.43262959E-12
   9.18099976        -4.41758999E-12
   9.36149979        -1.07330366E-12
   9.54199982         1.13603918E-12
   9.72249985         1.95666985E-12
   9.90299988         1.39274161E-12
   10.0834999        -2.98703174E-13
   10.2639999        -2.66870532E-12
   10.4445000        -5.18182806E-12
   10.6250000        -7.34160562E-12
   10.8055000        -8.80641220E-12
   10.9860001        -9.46711893E-12
   11.1665001        -9.46807823E-12
   11.3470001        -9.16658156E-12
   11.5275002        -9.04191045E-12
   11.7080002        -9.57782811E-12
   11.8885002        -1.11487052E-11
   12.0690002        -1.39365594E-11
   12.2495003        -1.78986912E-11
   12.4300003        -2.27897527E-11
   12.6105003        -2.82294344E-11
   12.7910004        -3.37957162E-11
   12.9715004        -3.91206373E-11
   13.1520004        -4.39648006E-11
   13.3325005        -4.82558264E-11
   13.5129995        -5.20834383E-11
   13.6934996        -5.56531279E-11
   13.8739996        -5.92106919E-11
   14.0544996        -6.29564040E-11
   14.2349997        -6.69701031E-11
   14.4154997        -7.11685225E-11
   14.5959997        -7.53067608E-11
   14.7764997        -7.90256888E-11
   14.9569998        -8.19309551E-11
   15.1374998        -8.36813396E-11
   15.3179998        -8.40621184E-11
   15.4984999        -8.30197508E-11
   15.6789999        -8.06548231E-11
   15.8594999        -7.71744682E-11
   16.0400009        -7.28259814E-11
   16.2205009        -6.78334611E-11
   16.4009991        -6.23562382E-11
   16.5814991        -5.64806049E-11
   16.7619991        -5.02428030E-11
   16.9424992        -4.36697033E-11
   17.1229992        -3.68203072E-11
   17.3034992        -2.98081421E-11
   17.4839993        -2.27966170E-11
   17.6644993        -1.59683499E-11
   17.8449993        -9.48396917E-12
   18.0254993        -3.44894664E-12
   18.2059994         2.09292609E-12
   18.3864994         7.13251984E-12
   18.5669994         1.16424414E-11
   18.7474995         1.55233239E-11
   18.9279995         1.85659474E-11
   19.1084995         2.04548271E-11
   19.2889996         2.08204027E-11
   19.4694996         1.93155995E-11
   19.6499996         1.57092030E-11
   19.8304996         9.95397081E-12
   20.0109997         2.21891993E-12
   20.1914997        -7.12438572E-12
   20.3719997        -1.75583385E-11
   20.5524998        -2.84924688E-11
   20.7329998        -3.93435735E-11
   20.9134998        -4.95935099E-11
   21.0939999        -5.88248339E-11
   21.2744999        -6.67270197E-11
   21.4549999        -7.30851490E-11
   21.6355000        -7.77561210E-11
   21.8160000        -8.06656963E-11
   21.9965000        -8.17999904E-11
   22.1770000        -8.12182266E-11
   22.3575001        -7.90556232E-11
   22.5380001        -7.55116317E-11
   22.7185001        -7.08264697E-11
   22.8990002        -6.52284268E-11
   23.0795002        -5.88866386E-11
   23.2600002        -5.18817732E-11
   23.4405003        -4.41996197E-11
   23.6210003        -3.57650090E-11
   23.8015003        -2.64905476E-11
   23.9820004        -1.63304856E-11
   24.1625004        -5.31433664E-12
   24.3430004         6.46275741E-12
   24.5235004         1.88826229E-11
   24.7040005         3.18700344E-11
   24.8845005         4.54653051E-11
   25.0650005         5.98636071E-11
   25.2455006         7.54004359E-11
   25.4260006         9.24835486E-11
   25.6065006         1.11463110E-10
   25.7870007         1.32485675E-10
   25.9675007         1.55359239E-10
   26.1480007         1.79476309E-10
   26.3285007         2.03820183E-10
   26.5090008         2.27064548E-10
   26.6895008         2.47740495E-10
   26.8700008         2.64443939E-10
   27.0505009         2.76037609E-10
   27.2310009         2.81798862E-10
   27.4115009         2.81506485E-10
   27.5919991         2.75437978E-10
   27.7724991         2.64305605E-10
   27.9529991         2.49132104E-10
   28.1334991         2.31101652E-10
   28.3139992         2.11407974E-10
   28.4944992         1.91107921E-10
   28.6749992         1.71025943E-10
   28.8554993         1.51697904E-10
   29.0359993         1.33377712E-10
   29.2164993         1.16099845E-10
   29.3969994         9.97623581E-11
   29.5774994         8.42505232E-11
   29.7579994         6.95190572E-11
   29.9384995         5.56685670E-11
   30.1189995         4.29688993E-11
   30.2994995         3.18279847E-11
   30.4799995         2.27264197E-11
   30.6604996         1.61192310E-11
   30.8409996         1.23290874E-11
   31.0214996         1.14573663E-11
   31.2019997         1.33341003E-11
   31.3824997         1.75000587E-11
   31.5629997         2.32305095E-11
   31.7434998         2.96066748E-11
   31.9239998         3.55926920E-11
   32.1044998         4.01412792E-11
   32.2849998         4.23002466E-11
   32.4654999         4.13224802E-11
   32.6459999         3.67605113E-11
   32.8264999         2.85400922E-11
   33.0070000         1.69855380E-11
   33.1875000         2.78560443E-12
   33.3680000        -1.30970850E-11
   33.5485001        -2.95654300E-11
   33.7290001        -4.55524507E-11
   33.9095001        -6.01661915E-11
   34.0900002        -7.28131860E-11
   34.2705002        -8.32511629E-11
   34.4510002        -9.15754486E-11
   34.6315002        -9.81546650E-11
   34.8120003        -1.03518645E-10
   34.9925003        -1.08225706E-10
   35.1730003        -1.12734190E-10
   35.3535004        -1.17300281E-10
   35.5340004        -1.21923416E-10
   35.7145004        -1.26334374E-10
   35.8950005        -1.30045738E-10
   36.0755005        -1.32434064E-10
   36.2560005        -1.32865025E-10
   36.4365005        -1.30811029E-10
   36.6170006        -1.25959909E-10
   36.7975006        -1.18282759E-10
   36.9780006        -1.08037079E-10
   37.1585007        -9.57032023E-11
   37.3390007        -8.18543427E-11
   37.5195007        -6.69873393E-11
   37.7000008        -5.13775550E-11
   37.8805008        -3.49691005E-11
   38.0610008        -1.73850379E-11
   38.2415009         1.97333014E-12
   38.4220009         2.37173423E-11
   38.6025009         4.82276614E-11
   38.7830009         7.54323756E-11
   38.9635010         1.04668330E-10
   39.1440010         1.34674938E-10
   39.3245010         1.63728406E-10
   39.5050011         1.89883109E-10
   39.6855011         2.11277856E-10
   39.8660011         2.26422964E-10
   40.0465012         2.34426256E-10
   40.2270012         2.35077235E-10
   40.4075012         2.28819644E-10
   40.5880013         2.16613727E-10
   40.7685013         1.99739156E-10
   40.9490013         1.79597254E-10
   41.1295013         1.57555788E-10
   41.3100014         1.34859110E-10
   41.4905014         1.12591193E-10
   41.6710014         9.16791851E-11
   41.8515015         7.28941005E-11
   42.0320015         5.68385373E-11
   42.2125015         4.39164989E-11
   42.3930016         3.42849811E-11
   42.5735016         2.78196563E-11
   42.7540016         2.41049507E-11
   42.9345016         2.24650316E-11
   43.1150017         2.20402238E-11
   43.2955017         2.18843294E-11
   43.4760017         2.10764513E-11
   43.6565018         1.88121498E-11
   43.8370018         1.44656717E-11
   44.0175018         7.60117316E-12
   44.1980019        -2.04151691E-12
   44.3785019        -1.45903012E-11
   44.5589981        -3.00609607E-11
   44.7394981        -4.83639899E-11
   44.9199982        -6.92778127E-11
   45.1004982        -9.24034321E-11
   45.2809982        -1.17119633E-10
   45.4614983        -1.42567042E-10
   45.6419983        -1.67675984E-10
   45.8224983        -1.91245283E-10
   46.0029984        -2.12067294E-10
   46.1834984        -2.29079089E-10
   46.3639984        -2.41520054E-10
   46.5444984        -2.49053167E-10
   46.7249985        -2.51835969E-10
   46.9054985        -2.50514332E-10
   47.0859985        -2.46124510E-10
   47.2664986        -2.39933212E-10
   47.4469986        -2.33234404E-10
   47.6274986        -2.27152505E-10
   47.8079987        -2.22482463E-10
   47.9884987        -2.19608137E-10
   48.1689987        -2.18491711E-10
   48.3494987        -2.18748686E-10
   48.5299988        -2.19760779E-10
   48.7104988        -2.20825649E-10
   48.8909988        -2.21292928E-10
   49.0714989        -2.20671981E-10
   49.2519989        -2.18691606E-10
   49.4324989        -2.15296489E-10
   49.6129990        -2.10594722E-10
   49.7934990        -2.04771033E-10
   49.9739990        -1.97993982E-10
   50.1544991        -1.90351512E-10
   50.3349991        -1.81835089E-10
   50.5154991        -1.72380860E-10
   50.6959991        -1.61959293E-10
   50.8764992        -1.50676679E-10
   51.0569992        -1.38874648E-10
   51.2374992        -1.27185179E-10
   51.4179993        -1.16522320E-10
   51.5984993        -1.08027406E-10
   51.7789993        -1.02919270E-10
   51.9594994        -1.02337090E-10
   52.1399994        -1.07148887E-10
   52.3204994        -1.17813301E-10
   52.5009995        -1.34279393E-10
   52.6814995        -1.55983476E-10
   52.8619995        -1.81897747E-10
   53.0424995        -2.10639992E-10
   53.2229996        -2.40603787E-10
   53.4034996        -2.70085898E-10
   53.5839996        -2.97418451E-10
   53.7644997        -3.21098231E-10
   53.9449997        -3.39917566E-10
   54.1254997        -3.53099883E-10
   54.3059998        -3.60422275E-10
   54.4864998        -3.62285979E-10
   54.6669998        -3.59709651E-10
   54.8474998        -3.54229784E-10
   55.0279999        -3.47700785E-10
   55.2084999        -3.42017109E-10
   55.3889999        -3.38799849E-10
   55.5695000        -3.39105355E-10
   55.7500000        -3.43208351E-10
   55.9305000        -3.50524942E-10
   56.1110001        -3.59684255E-10
   56.2915001        -3.68785225E-10
   56.4720001        -3.75754816E-10
   56.6525002        -3.78782117E-10
   56.8330002        -3.76698811E-10
   57.0135002        -3.69230868E-10
   57.1940002        -3.57059798E-10
   57.3745003        -3.41673606E-10
   57.5550003        -3.25049487E-10
   57.7355003        -3.09218817E-10
   57.9160004        -2.95851427E-10
   58.0965004        -2.85931390E-10
   58.2770004        -2.79611362E-10
   58.4575005        -2.76281609E-10
   58.6380005        -2.74824885E-10
   58.8185005        -2.73975398E-10
   58.9990005        -2.72696948E-10
   59.1795006        -2.70422768E-10
   59.3600006        -2.67125960E-10
   59.5405006        -2.63191607E-10
   59.7210007        -2.59133298E-10
   59.9015007        -2.55291233E-10
   60.0820007        -2.51594107E-10
   60.2625008        -2.47475540E-10
   60.4430008        -2.41984710E-10
   60.6235008        -2.33987024E-10
   60.8040009        -2.22466670E-10
   60.9845009        -2.06729009E-10
   61.1650009        -1.86511001E-10
   61.3455009        -1.61906696E-10
   61.5260010        -1.33256628E-10
   61.7065010        -1.00929778E-10
   61.8870010        -6.51728324E-11
   62.0675011        -2.60223995E-11
   62.2480011         1.65881545E-11
   62.4285011         6.26995608E-11
   62.6090012         1.12097970E-10
   62.7895012         1.64140104E-10
   62.9700012         2.17684523E-10
   63.1505013         2.71217548E-10
   63.3310013         3.23047866E-10
   63.5115013         3.71659897E-10
   63.6920013         4.16049528E-10
   63.8725014         4.55981863E-10
   64.0530014         4.92139551E-10
   64.2334976         5.26061861E-10
   64.4140015         5.59960744E-10
   64.5944977         5.96347971E-10
   64.7750015         6.37639441E-10
   64.9554977         6.85683010E-10
   65.1360016         7.41428974E-10
   65.3164978         8.04712907E-10
   65.4970016         8.74263550E-10
   65.6774979         9.47923962E-10
   65.8580017         1.02304065E-09
   66.0384979         1.09689791E-09
   66.2190018         1.16720567E-09
   66.3994980         1.23233002E-09
   66.5800018         1.29147948E-09
   66.7604980         1.34458622E-09
   66.9410019         1.39206247E-09
   67.1214981         1.43446732E-09
   67.3020020         1.47220403E-09
   67.4824982         1.50523183E-09
   67.6630020         1.53302060E-09
   67.8434982         1.55457580E-09
   68.0240021         1.56864766E-09
   68.2044983         1.57402080E-09
   68.3850021         1.56980706E-09
   68.5654984         1.55562596E-09
   68.7460022         1.53170332E-09
   68.9264984         1.49888812E-09
   69.1070023         1.45847745E-09
   69.2874985         1.41200895E-09
   69.4680023         1.36104028E-09
   69.6484985         1.30697009E-09
   69.8290024         1.25086674E-09
   70.0094986         1.19340982E-09
   70.1900024         1.13490539E-09
   70.3704987         1.07534370E-09
   70.5510025         1.01453279E-09
   70.7314987         9.52226964E-10
   70.9120026         8.88185359E-10
   71.0924988         8.22228230E-10
   71.2730026         7.54201590E-10
   71.4534988         6.83920198E-10
   71.6340027         6.11137196E-10
   71.8144989         5.35588573E-10
   71.9950027         4.57054394E-10
   72.1754990         3.75537490E-10
   72.3560028         2.91398933E-10
   72.5364990         2.05465298E-10
   72.7170029         1.19004404E-10
   72.8974991         3.36087755E-11
   73.0780029        -4.90759135E-11
   73.2584991        -1.27665198E-10
   73.4390030        -2.01336281E-10
   73.6194992        -2.70045458E-10
   73.8000031        -3.34505312E-10
   73.9804993        -3.96015720E-10
   74.1610031        -4.56081645E-10
   74.3414993        -5.15959719E-10
   74.5220032        -5.76256376E-10
   74.7024994        -6.36715569E-10
   74.8830032        -6.96219582E-10
   75.0634995        -7.53075269E-10
   75.2440033        -8.05430445E-10
   75.4244995        -8.51744786E-10
   75.6050034        -8.91168694E-10
   75.7854996        -9.23666699E-10
   75.9660034        -9.49982537E-10
   76.1464996        -9.71327352E-10
   76.3270035        -9.89012539E-10
   76.5074997        -1.00406894E-09
   76.6880035        -1.01698205E-09
   76.8684998        -1.02766329E-09
   77.0490036        -1.03552833E-09
   77.2294998        -1.03980080E-09
   77.4100037        -1.03980446E-09
   77.5904999        -1.03523512E-09
   77.7710037        -1.02626529E-09
   77.9514999        -1.01352382E-09
   78.1320038        -9.97947169E-10
   78.3125000        -9.80540649E-10
   78.4929962        -9.62166902E-10
   78.6735001        -9.43380596E-10
   78.8539963        -9.24301524E-10
   79.0345001        -9.04602726E-10
   79.2149963        -8.83519813E-10
   79.3955002        -8.59939175E-10
   79.5759964        -8.32524438E-10
   79.7565002        -7.99915301E-10
   79.9369965        -7.60931929E-10
   80.1175003        -7.14824366E-10
   80.2979965        -6.61428912E-10
   80.4785004        -6.01275807E-10
   80.6589966        -5.35553213E-10
   80.8395004        -4.65971428E-10
   81.0199966        -3.94522998E-10
   81.2005005        -3.23221588E-10
   81.3809967        -2.53837701E-10
   81.5615005        -1.87746832E-10
   81.7419968        -1.25868843E-10
   81.9225006        -6.87333870E-11
   82.1029968        -1.66143037E-11
   82.2835007         3.02874600E-11
   82.4639969         7.17194082E-11
   82.6445007         1.07332088E-10
   82.8249969         1.36717457E-10
   83.0055008         1.59530542E-10
   83.1859970         1.75611511E-10
   83.3665009         1.85111010E-10
   83.5469971         1.88555102E-10
   83.7275009         1.86853769E-10
   83.9079971         1.81286305E-10
   84.0885010         1.73445577E-10
   84.2689972         1.65157554E-10
   84.4495010         1.58384222E-10
   84.6299973         1.55094104E-10
   84.8105011         1.57090091E-10
   84.9909973         1.65829142E-10
   85.1715012         1.82250520E-10
   85.3519974         2.06624329E-10
   85.5325012         2.38466413E-10
   85.7129974         2.76506651E-10
   85.8935013         3.18760712E-10
   86.0739975         3.62660374E-10
   86.2545013         4.05278283E-10
   86.4349976         4.43611509E-10
   86.6155014         4.74878747E-10
   86.7959976         4.96818753E-10
   86.9765015         5.07914877E-10
   87.1569977         5.07542286E-10
   87.3375015         4.96012231E-10
   87.5179977         4.74499051E-10
   87.6985016         4.44872389E-10
   87.8789978         4.09449225E-10
   88.0595016         3.70702136E-10
   88.2399979         3.30968392E-10
   88.4205017         2.92188024E-10
   88.6009979         2.55765603E-10
   88.7815018         2.22520724E-10
   88.9619980         1.92761862E-10
   89.1425018         1.66437322E-10
   89.3229980         1.43278903E-10
   89.5035019         1.22938396E-10
   89.6839981         1.05037340E-10
   89.8645020         8.91736893E-11
   90.0449982         7.48767090E-11
   90.2255020         6.15723930E-11
   90.4059982         4.85506704E-11
   90.5865021         3.49662833E-11
   90.7669983         1.98897322E-11
   90.9475021         2.37136222E-12
   91.1279984        -1.84684143E-11
   91.3085022        -4.33541501E-11
   91.4889984        -7.27700400E-11
   91.6695023        -1.06915136E-10
   91.8499985        -1.45657555E-10
   92.0305023        -1.88517507E-10
   92.2109985        -2.34635561E-10
   92.3915024        -2.82756346E-10
   92.5719986        -3.31218664E-10
   92.7525024        -3.78029413E-10
   92.9329987        -4.21038759E-10
   93.1135025        -4.58236310E-10
   93.2939987        -4.88142415E-10
   93.4745026        -5.10191500E-10
   93.6549988        -5.25027910E-10
   93.8355026        -5.34566780E-10
   94.0159988        -5.41797107E-10
   94.1965027        -5.50320678E-10
   94.3769989        -5.63717961E-10
   94.5575027        -5.84871040E-10
   94.7379990        -6.15407336E-10
   94.9185028        -6.55379584E-10
   95.0989990        -7.03260672E-10
   95.2795029        -7.56260776E-10
   95.4599991        -8.10844558E-10
   95.6405029        -8.63369654E-10
   95.8209991        -9.10615361E-10
   96.0015030        -9.50161172E-10
   96.1819992        -9.80498016E-10
   96.3625031        -1.00094288E-09
   96.5429993        -1.01143083E-09
   96.7235031        -1.01229758E-09
   96.9039993        -1.00411846E-09
   97.0845032        -9.87644744E-10
   97.2649994        -9.63803926E-10
   97.4455032        -9.33675137E-10
   97.6259995        -8.98477015E-10
   97.8065033        -8.59435689E-10
   97.9869995        -8.17668599E-10
   98.1675034        -7.74055042E-10
   98.3479996        -7.29149296E-10
   98.5285034        -6.83163470E-10
   98.7089996        -6.36025621E-10
   98.8895035        -5.87482174E-10
   99.0699997        -5.37226985E-10
   99.2505035        -4.85008034E-10
   99.4309998        -4.30690483E-10
   99.6115036        -3.74288739E-10
   99.7919998        -3.15897808E-10
   99.9725037        -2.55600596E-10
   100.153000        -1.93393176E-10
   100.333504        -1.29100203E-10
   100.514000        -6.23631077E-11
   100.694504         7.30456667E-12
   100.875000         8.03959052E-11
   101.055496         1.57231825E-10
   101.236000         2.37766751E-10
   101.416496         3.21319193E-10
   101.597000         4.06416761E-10
   101.777496         4.90653740E-10
   101.958000         5.70744563E-10
   102.138496         6.42828069E-10
   102.319000         7.02877090E-10
   102.499496         7.47333695E-10
   102.680000         7.73686781E-10
   102.860497         7.80943032E-10
   103.041000         7.69853403E-10
   103.221497         7.42822026E-10
   103.402000         7.03549163E-10
   103.582497         6.56496635E-10
   103.763000         6.06265482E-10
   103.943497         5.57038804E-10
   104.124001         5.12123122E-10
   104.304497         4.73745709E-10
   104.485001         4.42994641E-10
   104.665497         4.19988988E-10
   104.846001         4.04153266E-10
   105.026497         3.94537708E-10
   105.207001         3.90105392E-10
   105.387497         3.89965865E-10
   105.568001         3.93463595E-10
   105.748497         4.00176975E-10
   105.929001         4.09825562E-10
   106.109497         4.22102825E-10
   106.290001         4.36517794E-10
   106.470497         4.52230420E-10
   106.651001         4.67982320E-10
   106.831497         4.82139162E-10
   107.012001         4.92853258E-10
   107.192497         4.98354635E-10
   107.373001         4.97313135E-10
   107.553497         4.89123575E-10
   107.734001         4.74096040E-10
   107.914497         4.53480642E-10
   108.095001         4.29256852E-10
   108.275497         4.03845984E-10
   108.456001         3.79694332E-10
   108.636497         3.58960639E-10
   108.817001         3.43193668E-10
   108.997498         3.33176986E-10
   109.178001         3.28887834E-10
   109.358498         3.29526323E-10
   109.539001         3.33669259E-10
   109.719498         3.39426764E-10
   109.900002         3.44673068E-10
   110.080498         3.47218199E-10
   110.261002         3.45019707E-10
   110.441498         3.36359191E-10
   110.622002         3.20052568E-10
   110.802498         2.95664826E-10
   110.983002         2.63713107E-10
   111.163498         2.25788013E-10
   111.344002         1.84509144E-10
   111.524498         1.43329751E-10