  -34.5000000         0.00000000    
  -34.3199997         0.00000000    
  -34.1399994         0.00000000    
  -33.9599991        -8.64667723E-28
  -33.7799988         6.10514364E-24
  -33.5999985         3.94596555E-23
  -33.4199982         1.33557155E-22
  -33.2400017         3.36078677E-22
  -33.0600014         7.47118879E-22
  -32.8800011         1.39229441E-21
  -32.7000008         1.77357762E-21
  -32.5200005         1.24344997E-21
  -32.3400002         1.30709885E-21
  -32.1599998         5.81972210E-21
  -31.9799995         1.34587964E-20
  -31.7999992         1.18845029E-20
  -31.6200008        -7.74213831E-21
  -31.4400005        -3.49127055E-20
  -31.2600002        -7.79644288E-20
  -31.0799999        -2.21215780E-19
  -30.8999996        -5.16009276E-19
  -30.7199993        -6.63156384E-19
  -30.5400009         4.67489783E-20
  -30.3600006         1.94207305E-18
  -30.1800003         3.77181042E-18
  -30.0000000         2.90024557E-18
  -29.8199997        -1.92311779E-18
  -29.6399994        -7.25578597E-18
  -29.4599991        -5.59960412E-18
  -29.2800007         8.15965781E-18
  -29.1000004         2.92042236E-17
  -28.9200001         4.18663835E-17
  -28.7399998         2.75350608E-17
  -28.5599995        -2.48044069E-17
  -28.3799992        -1.11508327E-16
  -28.2000008        -2.07801336E-16
  -28.0200005        -2.57249703E-16
  -27.8400002        -1.70905202E-16
  -27.6599998         1.29185270E-16
  -27.4799995         6.06294272E-16
  -27.2999992         1.00542927E-15
  -27.1200008         8.87409261E-16
  -26.9400005        -9.06461374E-17
  -26.7600002        -1.72924794E-15
  -26.5799999        -3.00685431E-15
  -26.3999996        -2.37844755E-15
  -26.2199993         1.21755724E-15
  -26.0400009         7.09102399E-15
  -25.8600006         1.22095700E-14
  -25.6800003         1.21537768E-14
  -25.5000000         3.65863345E-15
  -25.3199997        -1.24370102E-14
  -25.1399994        -2.98075604E-14
  -24.9599991        -3.84184431E-14
  -24.7800007        -2.94096988E-14
  -24.6000004        -9.27605898E-16
  -24.4200001         3.84748453E-14
  -24.2399998         7.15735793E-14
  -24.0599995         7.95463955E-14
  -23.8799992         5.15085614E-14
  -23.7000008        -8.23740812E-15
  -23.5200005        -7.94312194E-14
  -23.3400002        -1.32862850E-13
  -23.1599998        -1.42625644E-13
  -22.9799995        -9.82486865E-14
  -22.7999992        -1.09669244E-14
  -22.6200008         8.92780180E-14
  -22.4400005         1.65474175E-13
  -22.2600002         1.89194797E-13
  -22.0799999         1.53458829E-13
  -21.8999996         7.66280146E-14
  -21.7199993        -5.36737928E-15
  -21.5400009        -5.60589512E-14
  -21.3600006        -5.75415095E-14
  -21.1800003        -2.22914440E-14
  -21.0000000         9.64033015E-15
  -20.8199997        -1.07167888E-14
  -20.6399994        -1.13553948E-13
  -20.4599991        -2.86469958E-13
  -20.2800007        -4.67988549E-13
  -20.1000004        -5.65287400E-13
  -19.9200001        -4.91592444E-13
  -19.7399998        -2.07778537E-13
  -19.5599995         2.51643975E-13
  -19.3799992         7.82535495E-13
  -19.2000008         1.24602282E-12
  -19.0200005         1.52005448E-12
  -18.8400002         1.54449652E-12
  -18.6599998         1.33899890E-12
  -18.4799995         9.85691455E-13
  -18.2999992         5.85737784E-13
  -18.1200008         2.11299565E-13
  -17.9400005        -1.23685879E-13
  -17.7600002        -4.60066772E-13
  -17.5799999        -8.59511138E-13
  -17.3999996        -1.35683359E-12
  -17.2199993        -1.92208944E-12
  -17.0400009        -2.45195704E-12
  -16.8600006        -2.79732899E-12
  -16.6800003        -2.81818817E-12
  -16.5000000        -2.44407706E-12
  -16.3199997        -1.71401055E-12
  -16.1399994        -7.75910315E-13
  -15.9600000         1.58886779E-13
  -15.7799997         8.91124631E-13
  -15.6000004         1.30903047E-12
  -15.4200001         1.43018767E-12
  -15.2399998         1.38837628E-12
  -15.0600004         1.36744923E-12
  -14.8800001         1.50938582E-12
  -14.6999998         1.83776844E-12
  -14.5200005         2.23299959E-12
  -14.3400002         2.47278348E-12
  -14.1599998         2.32145705E-12
  -13.9799995         1.62952312E-12
  -13.8000002         4.01145398E-13
  -13.6199999        -1.19656162E-12
  -13.4399996        -2.88210102E-12
  -13.2600002        -4.34221929E-12
  -13.0799999        -5.31496288E-12
  -12.8999996        -5.64528068E-12
  -12.7200003        -5.30100963E-12
  -12.5400000        -4.35377689E-12
  -12.3599997        -2.94022228E-12
  -12.1800003        -1.22177409E-12
  -12.0000000         6.42638666E-13
  -11.8199997         2.50443438E-12
  -11.6400003         4.21675325E-12
  -11.4600000         5.62113203E-12
  -11.2799997         6.54583896E-12
  -11.1000004         6.82911236E-12
  -10.9200001         6.36854371E-12
  -10.7399998         5.18085401E-12
  -10.5600004         3.44317348E-12
  -10.3800001         1.48694555E-12
  -10.1999998        -2.67930914E-13
  -10.0200005        -1.42431401E-12
  -9.84000015        -1.72645958E-12
  -9.65999985        -1.14106803E-12
  -9.47999954         1.30227643E-13
  -9.30000019         1.70977859E-12
  -9.11999989         3.14939633E-12
  -8.93999958         4.04364259E-12
  -8.76000023         4.11672649E-12
  -8.57999992         3.26613281E-12
  -8.39999962         1.56515436E-12
  -8.22000027        -7.62289158E-13
  -8.03999996        -3.38027848E-12
  -7.86000013        -5.88461961E-12
  -7.67999983        -7.85004266E-12
  -7.50000000        -8.88272182E-12
  -7.32000017        -8.67946340E-12
  -7.13999987        -7.09126074E-12
  -6.96000004        -4.18300984E-12
  -6.78000021        -2.73760615E-13
  -6.59999990         4.06399870E-12
  -6.42000008         8.06669922E-12
  -6.23999977         1.09118478E-11
  -6.05999994         1.19035285E-11
  -5.88000011         1.06664564E-11
  -5.69999981         7.28588283E-12
  -5.51999998         2.33633013E-12
  -5.34000015        -3.22564067E-12
  -5.15999985        -8.28196886E-12
  -4.98000002        -1.18222298E-11
  -4.80000019        -1.31798001E-11
  -4.61999989        -1.21688302E-11
  -4.44000006        -9.09470936E-12
  -4.26000023        -4.65348723E-12
  -4.07999992         2.35698261E-13
  -3.90000010         4.61510387E-12
  -3.72000003         7.65147407E-12
  -3.53999996         8.75761009E-12
  -3.35999990         7.66653234E-12
  -3.18000007         4.45941201E-12
  -3.00000000        -4.49252885E-13
  -2.81999993        -6.36465620E-12
  -2.64000010        -1.23969298E-11
  -2.46000004        -1.75724799E-11
  -2.27999997        -2.09662530E-11
  -2.09999990        -2.18486514E-11
  -1.91999996        -1.98336902E-11
  -1.74000001        -1.50008408E-11
  -1.55999994        -7.94982830E-12
  -1.38000000         2.52114979E-13
  -1.20000005         8.24797348E-12
  -1.01999998         1.46683967E-11
 -0.839999974         1.84385302E-11
 -0.660000026         1.90212759E-11
 -0.479999989         1.65191853E-11
 -0.300000012         1.16073193E-11
 -0.119999997         5.33138811E-12
   5.99999987E-02    -1.15025871E-12
  0.239999995        -6.79517944E-12
  0.419999987        -1.08197852E-11
  0.600000024        -1.27469129E-11
  0.779999971        -1.23866993E-11
  0.959999979        -9.79362078E-12
   1.13999999        -5.23293344E-12
   1.32000005         8.33862656E-13
   1.50000000         7.75707710E-12
   1.67999995         1.47252644E-11
   1.86000001         2.08354566E-11
   2.03999996         2.52204646E-11
   2.22000003         2.72249237E-11
   2.40000010         2.65935728E-11
   2.57999992         2.36110419E-11
   2.75999999         1.91251459E-11
   2.94000006         1.44089593E-11
   3.11999989         1.08691849E-11
   3.29999995         9.67254575E-12
   3.48000002         1.14072744E-11
   3.66000009         1.58968533E-11
   3.83999991         2.22321987E-11
   4.01999998         2.90068195E-11
   4.19999981         3.46672586E-11
   4.38000011         3.78601421E-11
   4.55999994         3.76797621E-11
   4.73999977         3.37768806E-11
   4.92000008         2.63474485E-11
   5.09999990         1.60500797E-11
   5.28000021         3.89678567E-12
   5.46000004        -8.86400415E-12
   5.63999987        -2.08759746E-11
   5.82000017        -3.08243361E-11
   6.00000000        -3.76035349E-11
   6.17999983        -4.04840848E-11
   6.36000013        -3.92483962E-11
   6.53999996        -3.42665410E-11
   6.71999979        -2.64898034E-11
   6.90000010        -1.73486364E-11
   7.07999992        -8.55348344E-12
   7.26000023        -1.81544200E-12
   7.44000006         1.47023344E-12
   7.61999989         5.09202652E-13
   7.80000019        -4.71571913E-12
   7.98000002        -1.34334046E-11
   8.15999985        -2.42473767E-11
   8.34000015        -3.54259955E-11
   8.52000046        -4.52364916E-11
   8.69999981        -5.22388174E-11
   8.88000011        -5.54866812E-11
   9.06000042        -5.46255402E-11
   9.23999977        -4.99047088E-11
   9.42000008        -4.21235963E-11
   9.60000038        -3.25166942E-11
   9.77999973        -2.25721213E-11
   9.96000004        -1.37872404E-11
   10.1400003        -7.39314599E-12
   10.3199997        -4.10740972E-12
   10.5000000        -3.98347241E-12
   10.6800003        -6.40228539E-12
   10.8599997        -1.02120500E-11
   11.0400000        -1.39800107E-11
   11.2200003        -1.62976473E-11
   11.3999996        -1.60765273E-11
   11.5799999        -1.27819456E-11
   11.7600002        -6.56036033E-12
   11.9399996         1.77124786E-12
   12.1199999         1.08879364E-11
   12.3000002         1.92515066E-11
   12.4799995         2.54741384E-11
   12.6599998         2.86536385E-11
   12.8400002         2.85817463E-11
   13.0200005         2.57659068E-11
   13.1999998         2.12699736E-11
   13.3800001         1.64414767E-11
   13.5600004         1.26198522E-11
   13.7399998         1.09032774E-11
   13.9200001         1.20084749E-11
   14.1000004         1.62156608E-11
   14.2799997         2.33729026E-11
   14.4600000         3.29422045E-11
   14.6400003         4.40873345E-11
   14.8199997         5.58090137E-11
   15.0000000         6.71186370E-11
   15.1800003         7.72204176E-11
   15.3599997         8.56590701E-11
   15.5400000         9.23958549E-11
   15.7200003         9.78003858E-11
   15.8999996         1.02563860E-10
   16.0799999         1.07552175E-10
   16.2600002         1.13612578E-10
   16.4400005         1.21351137E-10
   16.6200008         1.30913405E-10
   16.7999992         1.41824663E-10
   16.9799995         1.52960117E-10
   17.1599998         1.62694982E-10
   17.3400002         1.69227368E-10
   17.5200005         1.70992193E-10
   17.7000008         1.67037717E-10
   17.8799992         1.57239055E-10
   18.0599995         1.42286863E-10
   18.2399998         1.23478325E-10
   18.4200001         1.02400581E-10
   18.6000004         8.06207254E-11
   18.7800007         5.94575431E-11
   18.9599991         3.98597821E-11
   19.1399994         2.23720244E-11
   19.3199997         7.15286901E-12
   19.5000000        -5.96645996E-12
   19.6800003        -1.73893192E-11
   19.8600006        -2.76210686E-11
   20.0400009        -3.71090762E-11
   20.2199993        -4.60830644E-11
   20.3999996        -5.44295164E-11
   20.5799999        -6.16324422E-11
   20.7600002        -6.67995798E-11
   20.9400005        -6.87804882E-11
   21.1200008        -6.63799640E-11
   21.2999992        -5.86430904E-11
   21.4799995        -4.51668807E-11
   21.6599998        -2.63502189E-11
   21.8400002        -3.48067994E-12
   22.0200005         2.14128246E-11
   22.2000008         4.59444323E-11
   22.3799992         6.78950784E-11
   22.5599995         8.57160176E-11
   22.7399998         9.88436000E-11
   22.9200001         1.07729374E-10
   23.1000004         1.13599775E-10
   23.2800007         1.18045337E-10
   23.4599991         1.22598667E-10
   23.6399994         1.28414945E-10
   23.8199997         1.36113232E-10
   24.0000000         1.45767384E-10
   24.1800003         1.56995042E-10
   24.3600006         1.69095973E-10
   24.5400009         1.81202053E-10
   24.7199993         1.92424021E-10
   24.8999996         2.01982736E-10
   25.0799999         2.09313233E-10
   25.2600002         2.14139484E-10
   25.4400005         2.16517082E-10
   25.6200008         2.16851190E-10
   25.7999992         2.15882312E-10
   25.9799995         2.14625859E-10
   26.1599998         2.14242776E-10
   26.3400002         2.15840790E-10
   26.5200005         2.20232818E-10
   26.7000008         2.27723868E-10
   26.8799992         2.38005643E-10
   27.0599995         2.50200360E-10
   27.2399998         2.63042893E-10
   27.4200001         2.75129086E-10
   27.6000004         2.85144353E-10
   27.7800007         2.92014440E-10
   27.9599991         2.94974739E-10
   28.1399994         2.93602115E-10
   28.3199997         2.87855878E-10
   28.5000000         2.78139789E-10
   28.6800003         2.65356515E-10
   28.8600006         2.50888171E-10
   29.0400009         2.36460851E-10
   29.2199993         2.23879151E-10
   29.3999996         2.14692791E-10
   29.5799999         2.09869094E-10
   29.7600002         2.09555248E-10
   29.9400005         2.13000742E-10
   30.1200008         2.18662255E-10
   30.2999992         2.24478824E-10
   30.4799995         2.28277577E-10
   30.6599998         2.28219249E-10
   30.8400002         2.23179378E-10
   31.0200005         2.12967630E-10
   31.2000008         1.98321012E-10
   31.3799992         1.80684342E-10
   31.5599995         1.61865563E-10
   31.7399998         1.43677348E-10
   31.9200001         1.27666905E-10
   32.0999985         1.14965960E-10
   32.2799988         1.06233723E-10
   32.4599991         1.01633105E-10
   32.6399994         1.00801312E-10
   32.8199997         1.02827490E-10
   33.0000000         1.06291032E-10
   33.1800003         1.09417884E-10
   33.3600006         1.10365016E-10
   33.5400009         1.07579667E-10
   33.7200012         1.00132444E-10
   33.9000015         8.79327791E-11
   34.0800018         7.17504112E-11
   34.2599983         5.30536795E-11
   34.4399986         3.36930935E-11
   34.6199989         1.55033018E-11
   34.7999992        -9.78530001E-14
   34.9799995        -1.24255450E-11
   35.1599998        -2.16829471E-11
   35.3400002        -2.88936410E-11
   35.5200005        -3.56209090E-11
   35.7000008        -4.35314770E-11
   35.8800011        -5.39328200E-11
   36.0600014        -6.74220541E-11
   36.2400017        -8.37396541E-11
   36.4199982        -1.01843076E-10
   36.5999985        -1.20146823E-10
   36.7799988        -1.36837652E-10
   36.9599991        -1.50194635E-10
   37.1399994        -1.58874677E-10
   37.3199997        -1.62162409E-10
   37.5000000        -1.60151337E-10
   37.6800003        -1.53823634E-10
   37.8600006        -1.44963153E-10
   38.0400009        -1.35881181E-10
   38.2200012        -1.28986641E-10
   38.4000015        -1.26302399E-10
   38.5800018        -1.29061678E-10
   38.7599983        -1.37493891E-10
   38.9399986        -1.50830654E-10
   39.1199989        -1.67529352E-10
   39.2999992        -1.85629401E-10
   39.4799995        -2.03183970E-10
   39.6599998        -2.18669832E-10
   39.8400002        -2.31309444E-10
   40.0200005        -2.41225873E-10
   40.2000008        -2.49360976E-10
   40.3800011        -2.57170368E-10
   40.5600014        -2.66145467E-10
   40.7400017        -2.77320167E-10
   40.9199982        -2.90920676E-10
   41.0999985        -3.06275394E-10
   41.2799988        -3.22000399E-10
   41.4599991        -3.36380646E-10
   41.6399994        -3.47804979E-10
   41.8199997        -3.55122654E-10
   42.0000000        -3.57846475E-10
   42.1800003        -3.56204233E-10
   42.3600006        -3.51047302E-10
   42.5400009        -3.43651829E-10
   42.7200012        -3.35438483E-10
   42.9000015        -3.27654542E-10
   43.0800018        -3.21061122E-10
   43.2599983        -3.15723669E-10
   43.4399986        -3.10957649E-10
   43.6199989        -3.05466430E-10
   43.7999992        -2.97620067E-10
   43.9799995        -2.85803076E-10
   44.1599998        -2.68743389E-10
   44.3400002        -2.45784060E-10
   44.5200005        -2.17078522E-10
   44.7000008        -1.83704829E-10
   44.8800011        -1.47663395E-10
   45.0600014        -1.11703903E-10
   45.2400017        -7.89434490E-11
   45.4199982        -5.23024644E-11
   45.5999985        -3.38778589E-11
   45.7799988        -2.44257514E-11
   45.9599991        -2.31254044E-11
   46.1399994        -2.77089844E-11
   46.3199997        -3.49186097E-11
   46.5000000        -4.11701367E-11
   46.6800003        -4.32649784E-11
   46.8600006        -3.89967052E-11
   47.0400009        -2.75658107E-11
   47.2200012        -9.74097018E-12
   47.4000015         1.22637820E-11
   47.5800018         3.51990243E-11
   47.7599983         5.54147422E-11
   47.9399986         6.96127739E-11
   48.1199989         7.55409624E-11
   48.2999992         7.24640625E-11
   48.4799995         6.13134821E-11
   48.6599998         4.45055347E-11
   48.8400002         2.55099032E-11
   49.0200005         8.27552263E-12
   49.2000008        -3.39687219E-12
   49.3800011        -6.47526260E-12
   49.5600014         7.53081787E-13
   49.7400017         1.82887299E-11
   49.9199982         4.43017394E-11
   50.0999985         7.53952803E-11
   50.2799988         1.07260749E-10
   50.4599991         1.35604208E-10
   50.6399994         1.57100249E-10
   50.8199997         1.70109385E-10
   51.0000000         1.74953829E-10
   51.1800003         1.73709949E-10
   51.3600006         1.69612144E-10
   51.5400009         1.66255468E-10
   51.7200012         1.66809649E-10
   51.9000015         1.73400114E-10
   52.0800018         1.86754848E-10
   52.2599983         2.06163586E-10
   52.4399986         2.29715524E-10
   52.6199989         2.54739202E-10
   52.7999992         2.78335105E-10
   52.9799995         2.97851882E-10
   53.1599998         3.11208642E-10
   53.3400002         3.17049775E-10
   53.5200005         3.14777537E-10
   53.7000008         3.04557213E-10
   53.8800011         2.87348118E-10
   54.0600014         2.64930133E-10
   54.2400017         2.39816278E-10
   54.4199982         2.14960910E-10
   54.5999985         1.93246433E-10
   54.7799988         1.76866910E-10
   54.9599991         1.66817032E-10
   55.1399994         1.62686767E-10
   55.3199997         1.62842850E-10
   55.5000000         1.64934774E-10
   55.6800003         1.66541003E-10
   55.8600006         1.65744848E-10
   56.0400009         1.61513136E-10
   56.2200012         1.53835361E-10
   56.4000015         1.43656628E-10
   56.5800018         1.32691663E-10
   56.7599983         1.23149838E-10
   56.9399986         1.17434701E-10
   57.1199989         1.17821322E-10
   57.2999992         1.26165745E-10
   57.4799995         1.43645970E-10
   57.6599998         1.70552517E-10
   57.8400002         2.06135539E-10
   58.0200005         2.48491339E-10
   58.2000008         2.94574976E-10
   58.3800011         3.40391965E-10
   58.5600014         3.81461585E-10
   58.7400017         4.13540646E-10
   58.9199982         4.33488828E-10
   59.0999985         4.40018744E-10
   59.2799988         4.34086600E-10
   59.4599991         4.18751200E-10
   59.6399994         3.98509559E-10
   59.8199997         3.78307358E-10
   60.0000000         3.62508495E-10
   60.1800003         3.54057728E-10
   60.3600006         3.54038715E-10
   60.5400009         3.61606856E-10
   60.7200012         3.74253600E-10
   60.9000015         3.88308191E-10
   61.0800018         3.99580813E-10
   61.2599983         4.04076189E-10
   61.4399986         3.98677341E-10
   61.6199989         3.81737947E-10
   61.7999992         3.53426649E-10
   61.9799995         3.15808435E-10
   62.1599998         2.72635053E-10
   62.3400002         2.28830677E-10
   62.5200005         1.89772573E-10
   62.7000008         1.60391977E-10
   62.8800011         1.44214710E-10
   63.0600014         1.42524131E-10
   63.2400017         1.53834515E-10
   63.4199982         1.73935755E-10
   63.5999985         1.96539340E-10
   63.7799988         2.14515447E-10
   63.9599991         2.21388949E-10
   64.1399994         2.12719897E-10
   64.3199997         1.86997862E-10
   64.5000000         1.45835732E-10
   64.6800003         9.34726949E-11
   64.8600006         3.57983990E-11
   65.0400009        -2.08587366E-11
   65.2200012        -7.08882189E-11
   65.4000015        -1.10332340E-10
   65.5800018        -1.37447442E-10
   65.7600021        -1.52899277E-10
   65.9400024        -1.59492017E-10
   66.1200027        -1.61530705E-10
   66.3000031        -1.63928232E-10
   66.4800034        -1.71170425E-10
   66.6600037        -1.86418742E-10
   66.8399963        -2.10870446E-10
   67.0199966        -2.43475795E-10
   67.1999969        -2.81051737E-10
   67.3799973        -3.18815391E-10
   67.5599976        -3.51221385E-10
   67.7399979        -3.73045872E-10
   67.9199982        -3.80526333E-10
   68.0999985        -3.72300080E-10
   68.2799988        -3.49887730E-10
   68.4599991        -3.17522536E-10
   68.6399994        -2.81293044E-10
   68.8199997        -2.47823262E-10
   69.0000000        -2.22827187E-10
   69.1800003        -2.09916473E-10
   69.3600006        -2.10005194E-10
   69.5400009        -2.21306140E-10
   69.7200012        -2.39917558E-10
   69.9000015        -2.60709926E-10
   70.0800018        -2.78363638E-10
   70.2600021        -2.88312957E-10
   70.4400024        -2.87498525E-10
   70.6200027        -2.74824025E-10
   70.8000031        -2.51258958E-10
   70.9800034        -2.19614951E-10
   71.1600037        -1.84064985E-10
   71.3399963        -1.49422572E-10
   71.5199966        -1.20403687E-10
   71.6999969        -1.00922722E-10
   71.8799973        -9.34981398E-11
   72.0599976        -9.88388260E-11
   72.2399979        -1.15645230E-10
   72.4199982        -1.40716022E-10
   72.5999985        -1.69449385E-10
   72.7799988        -1.96708413E-10
   72.9599991        -2.17897728E-10
   73.1399994        -2.29982228E-10
   73.3199997        -2.32138614E-10
   73.5000000        -2.25842747E-10
   73.6800003        -2.14363180E-10
   73.8600006        -2.01875364E-10
   74.0400009        -1.92455329E-10
   74.2200012        -1.89259081E-10
   74.4000015        -1.94039784E-10
   74.5800018        -2.07009784E-10
   74.7600021        -2.26992869E-10
   74.9400024        -2.51732662E-10
   75.1200027        -2.78313345E-10
   75.3000031        -3.03560954E-10
   75.4800034        -3.24463900E-10
   75.6600037        -3.38535450E-10
   75.8399963        -3.44077378E-10
   76.0199966        -3.40372008E-10
   76.1999969        -3.27773586E-10
   76.3799973        -3.07748604E-10
   76.5599976        -2.82793622E-10
   76.7399979        -2.56191873E-10
   76.9199982        -2.31529379E-10
   77.0999985        -2.12037207E-10
   77.2799988        -1.99898056E-10
   77.4599991        -1.95709088E-10
   77.6399994        -1.98334779E-10
   77.8199997        -2.05202785E-10
   78.0000000        -2.12963147E-10
   78.1800003        -2.18293592E-10
   78.3600006        -2.18574159E-10
   78.5400009        -2.12270437E-10
   78.7200012        -1.99009503E-10
   78.9000015        -1.79424448E-10
   79.0800018        -1.54905894E-10
   79.2600021        -1.27342845E-10
   79.4400024        -9.88737148E-11
   79.6200027        -7.16313814E-11
   79.8000031        -4.74595120E-11
   79.9800034        -2.76485744E-11
   80.1600037        -1.26917660E-11
   80.3399963        -2.15316805E-12
   80.5199966         5.37994432E-12
   80.6999969         1.21898273E-11
   80.8799973         2.11583875E-11
   81.0599976         3.52982539E-11
   81.2399979         5.71004667E-11
   81.4199982         8.78322345E-11
   81.5999985         1.26927177E-10
   81.7799988         1.71771264E-10
   81.9599991         2.17996995E-10
   82.1399994         2.60246213E-10
   82.3199997         2.93229413E-10
   82.5000000         3.12749382E-10
   82.6800003         3.16398352E-10
   82.8600006         3.03836400E-10
   83.0400009         2.76656809E-10
   83.2200012         2.37993153E-10
   83.4000015         1.91994462E-10
   83.5800018         1.43267592E-10
   83.7600021         9.63006341E-11
   83.9400024         5.48829281E-11
   84.1200027         2.15877767E-11
   84.3000031        -2.61345633E-12
   84.4800034        -1.84835550E-11
   84.6600037        -2.83279060E-11
   84.8399963        -3.55320426E-11
   85.0199966        -4.38611612E-11
   85.1999969        -5.66788665E-11
   85.3799973        -7.62100036E-11
   85.5599976        -1.02965782E-10
   85.7399979        -1.35487843E-10
   85.9199982        -1.70527981E-10
   86.0999985        -2.03691480E-10
   86.2799988        -2.30459526E-10
   86.4599991        -2.47340703E-10
   86.6399994        -2.52787125E-10
   86.8199997        -2.47603382E-10
   87.0000000        -2.34728736E-10
   87.1800003        -2.18488658E-10
   87.3600006        -2.03620329E-10
   87.5400009        -1.94372976E-10
   87.7200012        -1.93878830E-10
   87.9000015        -2.03846606E-10
   88.0800018        -2.24520944E-10
   88.2600021        -2.54775867E-10
   88.4400024        -2.92314423E-10
   88.6200027        -3.33980177E-10
   88.8000031        -3.76185388E-10
   88.9800034        -4.15437823E-10
   89.1600037        -4.48868998E-10
   89.3399963        -4.74628392E-10
   89.5199966        -4.92059948E-10
   89.6999969        -5.01661934E-10
   89.8799973        -5.04828013E-10
   90.0599976        -5.03454056E-10
   90.2399979        -4.99461861E-10
   90.4199982        -4.94295160E-10
   90.5999985        -4.88503016E-10
   90.7799988        -4.81538642E-10
   90.9599991        -4.71876982E-10
   91.1399994        -4.57479526E-10
   91.3199997        -4.36479936E-10
   91.5000000        -4.07849116E-10
   91.6800003        -3.71782050E-10
   91.8600006        -3.29677230E-10
   92.0400009        -2.83719270E-10
   92.2200012        -2.36276165E-10
   92.4000015        -1.89342014E-10
   92.5800018        -1.44198917E-10
   92.7600021        -1.01330583E-10
   92.9400024        -6.05317602E-11
   93.1200027        -2.10978804E-11
   93.3000031         1.79491751E-11
   93.4800034         5.76009969E-11
   93.6600037         9.85761889E-11
   93.8399963         1.41033199E-10
   94.0199966         1.84366314E-10
   94.1999969         2.27192071E-10
   94.3799973         2.67569078E-10
   94.5599976         3.03394365E-10
   94.7399979         3.32884637E-10
   94.9199982         3.54990676E-10
   95.0999985         3.69656999E-10
   95.2799988         3.77901904E-10
   95.4599991         3.81721210E-10
   95.6399994         3.83806820E-10
   95.8199997         3.87105403E-10
   96.0000000         3.94248384E-10
   96.1800003         4.06971346E-10
   96.3600006         4.25694757E-10
   96.5400009         4.49440096E-10
   96.7200012         4.76143180E-10
   96.9000015         5.03287523E-10
   97.0800018         5.28639688E-10
   97.2600021         5.50811785E-10
   97.4400024         5.69510161E-10
   97.6200027         5.85450466E-10
   97.8000031         6.00051897E-10
   97.9800034         6.15065332E-10
   98.1600037         6.32243424E-10
   98.3399963         6.53086418E-10
   98.5199966         6.78646972E-10
   98.6999969         7.09408587E-10
   98.8799973         7.45245310E-10
   99.0599976         7.85502441E-10
   99.2399979         8.29183056E-10
   99.4199982         8.75142903E-10
   99.5999985         9.22206034E-10
   99.7799988         9.69150760E-10
   99.9599991         1.01458009E-09
   100.139999         1.05683706E-09
   100.320000         1.09405984E-09
   100.500000         1.12441079E-09
   100.680000         1.14640752E-09
   100.860001         1.15919785E-09
   101.040001         1.16265508E-09
   101.220001         1.15730003E-09
   101.400002         1.14411502E-09
   101.580002         1.12437337E-09
   101.760002         1.09953047E-09
   101.940002         1.07117604E-09
   102.120003         1.04094100E-09
   102.300003         1.01033193E-09
   102.480003         9.80489467E-10
   102.660004         9.51963508E-10
   102.839996         9.24599342E-10
   103.019997         8.97602603E-10
   103.199997         8.69784522E-10
   103.379997         8.39919689E-10
   103.559998         8.07147960E-10
   103.739998         7.71361364E-10
   103.919998         7.33522076E-10
   104.099998         6.95814795E-10
   104.279999         6.61512067E-10
   104.459999         6.34477415E-10
   104.639999         6.18345930E-10
   104.820000         6.15550333E-10
   105.000000         6.26483310E-10
   105.180000         6.49107823E-10
   105.360001         6.79131029E-10
   105.540001         7.10711601E-10
   105.720001         7.37497730E-10
   105.900002         7.53685669E-10
   106.080002         7.54905582E-10
   106.260002         7.38793526E-10
   106.440002         7.05250913E-10
   106.620003         6.56397159E-10
   106.800003         5.96227567E-10
   106.980003         5.29993938E-10
   107.160004         4.63321409E-10
   107.339996         4.01221917E-10
   107.519997         3.47168932E-10
   107.699997         3.02454395E-10
   107.879997         2.65962613E-10
   108.059998         2.34405523E-10
   108.239998         2.02956013E-10
   108.419998         1.66190478E-10
   108.599998         1.19176599E-10
   108.779999         5.85688720E-11
   108.959999        -1.65045234E-11
   109.139999        -1.04003313E-10
   109.320000        -1.99145936E-10
   109.500000        -2.95234975E-10
   109.680000        -3.84975551E-10
   109.860001        -4.61940819E-10
   110.040001        -5.21803101E-10
   110.220001        -5.63013469E-10
   110.400002        -5.86859061E-10
   110.580002        -5.96963312E-10
   110.760002        -5.98462335E-10
   110.940002        -5.97072503E-10
   111.120003        -5.98181116E-10