  -34.5000000       0.00000000    
  -34.3199997       0.00000000    
  -34.1399994       0.00000000    
  -33.9599991      -1.31905228E-27
  -33.7799988      -9.82256763E-25
  -33.5999985      -4.34502457E-24
  -33.4199982      -9.75952758E-24
  -33.2400017      -9.23569397E-24
  -33.0600014       2.63967516E-23
  -32.8800011       1.57597660E-22
  -32.7000008       4.11987265E-22
  -32.5200005       5.22776279E-22
  -32.3400002      -3.79325748E-22
  -32.1599998      -3.37495062E-21
  -31.9799995      -7.99092984E-21
  -31.7999992      -9.90388760E-21
  -31.6200008      -9.53329089E-22
  -31.4400005       2.53867724E-20
  -31.2600002       6.31213448E-20
  -31.0799999       8.40996467E-20
  -30.8999996       4.26058632E-20
  -30.7199993      -9.45093335E-20
  -30.5400009      -2.97430031E-19
  -30.3600006      -4.36228378E-19
  -30.1800003      -3.09636502E-19
  -30.0000000       2.27957199E-19
  -29.8199997       1.08066143E-18
  -29.6399994       1.79258724E-18
  -29.4599991       1.64824939E-18
  -29.2800007       4.75513532E-20
  -29.1000004      -2.97964498E-18
  -28.9200001      -6.41997869E-18
  -28.7399998      -8.38872562E-18
  -28.5599995      -6.80920481E-18
  -28.3799992      -4.49576851E-19
  -28.2000008       1.01315232E-17
  -28.0200005       2.22003795E-17
  -27.8400002       3.12891158E-17
  -27.6599998       3.24043571E-17
  -27.4799995       2.16612579E-17
  -27.2999992      -2.14236677E-18
  -27.1200008      -3.64795584E-17
  -26.9400005      -7.49026603E-17
  -26.7600002      -1.07834415E-16
  -26.5799999      -1.24238121E-16
  -26.3999996      -1.13836715E-16
  -26.2199993      -6.93851472E-17
  -26.0400009       1.15163741E-17
  -25.8600006       1.25371477E-16
  -25.6800003       2.62433862E-16
  -25.5000000       4.06686538E-16
  -25.3199997       5.35838283E-16
  -25.1399994       6.21529324E-16
  -24.9599991       6.30648905E-16
  -24.7800007       5.29074355E-16
  -24.6000004       2.88794586E-16
  -24.4200001      -1.01896469E-16
  -24.2399998      -6.27118207E-16
  -24.0599995      -1.23447778E-15
  -23.8799992      -1.83236033E-15
  -23.7000008      -2.29632453E-15
  -23.5200005      -2.48539118E-15
  -23.3400002      -2.26634465E-15
  -23.1599998      -1.54170775E-15
  -22.9799995      -2.75563588E-16
  -22.7999992       1.48858544E-15
  -22.6200008       3.62253376E-15
  -22.4400005       5.92221974E-15
  -22.2600002       8.12942920E-15
  -22.0799999       9.96218997E-15
  -21.8999996       1.11484655E-14
  -21.7199993       1.14582568E-14
  -21.5400009       1.07303853E-14
  -21.3600006       8.89221795E-15
  -21.1800003       5.97148572E-15
  -21.0000000       2.09933241E-15
  -20.8199997      -2.49616629E-15
  -20.6399994      -7.50804838E-15
  -20.4599991      -1.25804959E-14
  -20.2800007      -1.73495743E-14
  -20.1000004      -2.14894597E-14
  -19.9200001      -2.47553934E-14
  -19.7399998      -2.70126583E-14
  -19.5599995      -2.82416353E-14
  -19.3799992      -2.85167973E-14
  -19.2000008      -2.79632647E-14
  -19.0200005      -2.67040723E-14
  -18.8400002      -2.48128663E-14
  -18.6599998      -2.22848151E-14
  -18.4799995      -1.90301046E-14
  -18.2999992      -1.48862822E-14
  -18.1200008      -9.64162527E-15
  -17.9400005      -3.06299417E-15
  -17.7600002       5.07387516E-15
  -17.5799999       1.49473770E-14
  -17.3999996       2.66426794E-14
  -17.2199993       4.00922344E-14
  -17.0400009       5.50141936E-14
  -16.8600006       7.08643485E-14
  -16.6800003       8.68229506E-14
  -16.5000000       1.01831968E-13
  -16.3199997       1.14689616E-13
  -16.1399994       1.24185967E-13
  -15.9600000       1.29256252E-13
  -15.7799997       1.29113273E-13
  -15.6000004       1.23329596E-13
  -15.4200001       1.11853289E-13
  -15.2399998       9.49621309E-14
  -15.0600004       7.31779681E-14
  -14.8800001       4.71708854E-14
  -14.6999998       1.76789718E-14
  -14.5200005      -1.45449753E-14
  -14.3400002      -4.87607289E-14
  -14.1599998      -8.42506878E-14
  -13.9799995      -1.20324134E-13
  -13.8000002      -1.56314591E-13
  -13.6199999      -1.91568441E-13
  -13.4399996      -2.25415552E-13
  -13.2600002      -2.57121337E-13
  -13.0799999      -2.85833314E-13
  -12.8999996      -3.10544234E-13
  -12.7200003      -3.30100286E-13
  -12.5400000      -3.43269656E-13
  -12.3599997      -3.48869154E-13
  -12.1800003      -3.45916492E-13
  -12.0000000      -3.33763751E-13
  -11.8199997      -3.12158340E-13
  -11.6400003      -2.81206726E-13
  -11.4600000      -2.41246666E-13
  -11.2799997      -1.92662252E-13
  -11.1000004      -1.35709206E-13
  -10.9200001      -7.04062188E-14
  -10.7399998       3.46709707E-15
  -10.5600004       8.62625807E-14
  -10.3800001       1.78280445E-13
  -10.1999998       2.79561747E-13
  -10.0200005       3.89724548E-13
  -9.84000015       5.07873799E-13
  -9.65999985       6.32621559E-13
  -9.47999954       7.62189790E-13
  -9.30000019       8.94586055E-13
  -9.11999989       1.02780046E-12
  -8.93999958       1.15999127E-12
  -8.76000023       1.28963929E-12
  -8.57999992       1.41562966E-12
  -8.39999962       1.53725416E-12
  -8.22000027       1.65411120E-12
  -8.03999996       1.76589364E-12
  -7.86000013       1.87210122E-12
  -7.67999983       1.97169776E-12
  -7.50000000       2.06280631E-12
  -7.32000017       2.14251577E-12
  -7.13999987       2.20685276E-12
  -6.96000004       2.25095984E-12
  -6.78000021       2.26944093E-12
  -6.59999990       2.25679154E-12
  -6.42000008       2.20784523E-12
  -6.23999977       2.11811363E-12
  -6.05999994       1.98398502E-12
  -5.88000011       1.80275651E-12
  -5.69999981       1.57250666E-12
  -5.51999998       1.29189660E-12
  -5.34000015       9.59928534E-13
  -5.15999985       5.75753529E-13
  -4.98000002       1.38553855E-13
  -4.80000019      -3.52460059E-13
  -4.61999989      -8.97889239E-13
  -4.44000006      -1.49785718E-12
  -4.26000023      -2.15157211E-12
  -4.07999992      -2.85676669E-12
  -3.90000010      -3.60914814E-12
  -3.72000003      -4.40188381E-12
  -3.53999996      -5.22527724E-12
  -3.35999990      -6.06680331E-12
  -3.18000007      -6.91143063E-12
  -3.00000000      -7.74235624E-12
  -2.81999993      -8.54189809E-12
  -2.64000010      -9.29250774E-12
  -2.46000004      -9.97758993E-12
  -2.27999997      -1.05820214E-11
  -2.09999990      -1.10923198E-11
  -1.91999996      -1.14963707E-11
  -1.74000001      -1.17829834E-11
  -1.55999994      -1.19413273E-11
  -1.38000000      -1.19605064E-11
  -1.20000005      -1.18294090E-11
  -1.01999998      -1.15369077E-11
 -0.839999974      -1.10724156E-11
 -0.660000026      -1.04267281E-11
 -0.479999989      -9.59302776E-12
 -0.300000012      -8.56789206E-12
 -0.119999997      -7.35211197E-12
   5.99999987E-02  -5.95124948E-12
  0.239999995      -4.37564394E-12
  0.419999987      -2.64005246E-12
  0.600000024      -7.62729018E-13
  0.779999971       1.23575163E-12
  0.959999979       3.33373888E-12
   1.13999999       5.50977016E-12
   1.32000005       7.74326003E-12
   1.50000000       1.00149793E-11
   1.67999995       1.23068118E-11
   1.86000001       1.46012716E-11
   2.03999996       1.68807607E-11
   2.22000003       1.91269361E-11
   2.40000010       2.13202494E-11
   2.57999992       2.34399583E-11
   2.75999999       2.54645766E-11
   2.94000006       2.73726129E-11
   3.11999989       2.91435417E-11
   3.29999995       3.07588399E-11
   3.48000002       3.22027752E-11
   3.66000009       3.34629303E-11
   3.83999991       3.45304063E-11
   4.01999998       3.53996901E-11
   4.19999981       3.60681207E-11
   4.38000011       3.65352783E-11
   4.55999994       3.68021724E-11
   4.73999977       3.68705136E-11
   4.92000008       3.67420296E-11
   5.09999990       3.64180387E-11
   5.28000021       3.58992315E-11
   5.46000004       3.51855801E-11
   5.63999987       3.42765781E-11
   5.82000017       3.31713650E-11
   6.00000000       3.18689554E-11
   6.17999983       3.03682947E-11
   6.36000013       2.86682778E-11
   6.53999996       2.67675708E-11
   6.71999979       2.46644285E-11
   6.90000010       2.23565298E-11
   7.07999992       1.98408737E-11
   7.26000023       1.71137826E-11
   7.44000006       1.41710862E-11
   7.61999989       1.10083965E-11
   7.80000019       7.62147116E-12
   7.98000002       4.00651604E-12
   8.15999985       1.60573621E-13
   8.34000015      -3.91826328E-12
   8.52000046      -8.23054472E-12
   8.69999981      -1.27753468E-11
   8.88000011      -1.75498990E-11
   9.06000042      -2.25492836E-11
   9.23999977      -2.77660967E-11
   9.42000008      -3.31899161E-11
   9.60000038      -3.88069819E-11
   9.77999973      -4.46000667E-11
   9.96000004      -5.05485306E-11
   10.1400003      -5.66288925E-11
   10.3199997      -6.28154959E-11
   10.5000000      -6.90817126E-11
   10.6800003      -7.54009008E-11
   10.8599997      -8.17475254E-11
   11.0400000      -8.80978346E-11
   11.2200003      -9.44300957E-11
   11.3999996      -1.00724623E-10
   11.5799999      -1.06963230E-10
   11.7600002      -1.13128826E-10
   11.9399996      -1.19204688E-10
   12.1199999      -1.25174426E-10
   12.3000002      -1.31021874E-10
   12.4799995      -1.36731626E-10
   12.6599998      -1.42289708E-10
   12.8400002      -1.47684684E-10
   13.0200005      -1.52908353E-10
   13.1999998      -1.57956453E-10
   13.3800001      -1.62828959E-10
   13.5600004      -1.67529629E-10
   13.7399998      -1.72065084E-10
   13.9200001      -1.76443429E-10
   14.1000004      -1.80672879E-10
   14.2799997      -1.84759777E-10
   14.4600000      -1.88707647E-10
   14.6400003      -1.92516572E-10
   14.8199997      -1.96183195E-10
   15.0000000      -1.99701672E-10
   15.1800003      -2.03064787E-10
   15.3599997      -2.06265643E-10
   15.5400000      -2.09298454E-10
   15.7200003      -2.12159373E-10
   15.8999996      -2.14846280E-10
   16.0799999      -2.17358243E-10
   16.2600002      -2.19694221E-10
   16.4400005      -2.21852064E-10
   16.6200008      -2.23827512E-10
   16.7999992      -2.25613916E-10
   16.9799995      -2.27202104E-10
   17.1599998      -2.28581251E-10
   17.3400002      -2.29739935E-10
   17.5200005      -2.30666958E-10
   17.7000008      -2.31352534E-10
   17.8799992      -2.31788991E-10
   18.0599995      -2.31971040E-10
   18.2399998      -2.31895586E-10
   18.4200001      -2.31561645E-10
   18.6000004      -2.30969910E-10
   18.7800007      -2.30122421E-10
   18.9599991      -2.29022426E-10
   19.1399994      -2.27674643E-10
   19.3199997      -2.26085789E-10
   19.5000000      -2.24265398E-10
   19.6800003      -2.22226376E-10
   19.8600006      -2.19985752E-10
   20.0400009      -2.17564106E-10
   20.2199993      -2.14985404E-10
   20.3999996      -2.12275197E-10
   20.5799999      -2.09459144E-10
   20.7600002      -2.06560782E-10
   20.9400005      -2.03600317E-10
   21.1200008      -2.00593778E-10
   21.2999992      -1.97553085E-10
   21.4799995      -1.94487218E-10
   21.6599998      -1.91404156E-10
   21.8400002      -1.88312477E-10
   22.0200005      -1.85223253E-10
   22.2000008      -1.82150850E-10
   22.3799992      -1.79112780E-10
   22.5599995      -1.76128764E-10
   22.7399998      -1.73218689E-10
   22.9200001      -1.70400277E-10
   23.1000004      -1.67686975E-10
   23.2800007      -1.65086014E-10
   23.4599991      -1.62597810E-10
   23.6399994      -1.60216271E-10
   23.8199997      -1.57930113E-10
   24.0000000      -1.55726029E-10
   24.1800003      -1.53591265E-10
   24.3600006      -1.51517146E-10
   24.5400009      -1.49501564E-10
   24.7199993      -1.47550541E-10
   24.8999996      -1.45678414E-10
   25.0799999      -1.43906748E-10
   25.2600002      -1.42262091E-10
   25.4400005      -1.40772824E-10
   25.6200008      -1.39465967E-10
   25.7999992      -1.38365194E-10
   25.9799995      -1.37488604E-10
   26.1599998      -1.36848713E-10
   26.3400002      -1.36452460E-10
   26.5200005      -1.36302844E-10
   26.7000008      -1.36400655E-10
   26.8799992      -1.36746295E-10
   27.0599995      -1.37341194E-10
   27.2399998      -1.38189585E-10
   27.4200001      -1.39298864E-10
   27.6000004      -1.40679537E-10
   27.7800007      -1.42344705E-10
   27.9599991      -1.44308829E-10
   28.1399994      -1.46585855E-10
   28.3199997      -1.49187204E-10
   28.5000000      -1.52120441E-10
   28.6800003      -1.55387370E-10
   28.8600006      -1.58983618E-10
   29.0400009      -1.62898944E-10
   29.2199993      -1.67118333E-10
   29.3999996      -1.71623771E-10
   29.5799999      -1.76396828E-10
   29.7600002      -1.81420462E-10
   29.9400005      -1.86680935E-10
   30.1200008      -1.92169294E-10
   30.2999992      -1.97881128E-10
   30.4799995      -2.03816353E-10
   30.6599998      -2.09977313E-10
   30.8400002      -2.16366661E-10
   31.0200005      -2.22984964E-10
   31.2000008      -2.29827227E-10
   31.3799992      -2.36881431E-10
   31.5599995      -2.44126996E-10
   31.7399998      -2.51534543E-10
   31.9200001      -2.59067712E-10
   32.0999985      -2.66685840E-10
   32.2799988      -2.74347989E-10
   32.4599991      -2.82016938E-10
   32.6399994      -2.89662405E-10
   32.8199997      -2.97263936E-10
   33.0000000      -3.04810899E-10
   33.1800003      -3.12300685E-10
   33.3600006      -3.19736876E-10
   33.5400009      -3.27123911E-10
   33.7200012      -3.34463707E-10
   33.9000015      -3.41751544E-10
   34.0800018      -3.48973850E-10
   34.2599983      -3.56108004E-10
   34.4399986      -3.63123281E-10
   34.6199989      -3.69984210E-10
   34.7999992      -3.76653903E-10
   34.9799995      -3.83099330E-10
   35.1599998      -3.89294208E-10
   35.3400002      -3.95222466E-10
   35.5200005      -4.00878941E-10
   35.7000008      -4.06268102E-10
   35.8800011      -4.11400997E-10
   36.0600014      -4.16291057E-10
   36.2400017      -4.20948582E-10
   36.4199982      -4.25375984E-10
   36.5999985      -4.29564523E-10
   36.7799988      -4.33492464E-10
   36.9599991      -4.37125669E-10
   37.1399994      -4.40421255E-10
   37.3199997      -4.43331011E-10
   37.5000000      -4.45808140E-10
   37.6800003      -4.47811593E-10
   37.8600006      -4.49310089E-10
   38.0400009      -4.50284782E-10
   38.2200012      -4.50729537E-10
   38.4000015      -4.50649074E-10
   38.5800018      -4.50055854E-10
   38.7599983      -4.48966114E-10
   38.9399986      -4.47395287E-10
   39.1199989      -4.45354892E-10
   39.2999992      -4.42849202E-10
   39.4799995      -4.39874970E-10
   39.6599998      -4.36421815E-10
   39.8400002      -4.32474057E-10
   40.0200005      -4.28014763E-10
   40.2000008      -4.23028890E-10
   40.3800011      -4.17507751E-10
   40.5600014      -4.11451401E-10
   40.7400017      -4.04870942E-10
   40.9199982      -3.97787053E-10
   41.0999985      -3.90228821E-10
   41.2799988      -3.82229859E-10
   41.4599991      -3.73823611E-10
   41.6399994      -3.65039055E-10
   41.8199997      -3.55896729E-10
   42.0000000      -3.46405599E-10
   42.1800003      -3.36562112E-10
   42.3600006      -3.26352029E-10
   42.5400009      -3.15752174E-10
   42.7200012      -3.04735653E-10
   42.9000015      -2.93276986E-10
   43.0800018      -2.81357826E-10
   43.2599983      -2.68971401E-10
   43.4399986      -2.56125732E-10
   43.6199989      -2.42844855E-10
   43.7999992      -2.29166658E-10
   43.9799995      -2.15138976E-10
   44.1599998      -2.00814476E-10
   44.3400002      -1.86243659E-10
   44.5200005      -1.71469727E-10
   44.7000008      -1.56524516E-10
   44.8800011      -1.41427051E-10
   45.0600014      -1.26185576E-10
   45.2400017      -1.10801264E-10
   45.4199982      -9.52750170E-11
   45.5999985      -7.96139751E-11
   45.7799988      -6.38370329E-11
   45.9599991      -4.79795093E-11
   46.1399994      -3.20927035E-11
   46.3199997      -1.62425785E-11
   46.5000000      -5.02598939E-13
   46.6800003       1.50528600E-11
   46.8600006       3.03573590E-11
   47.0400009       4.53606770E-11
   47.2200012       6.00331798E-11
   47.4000015       7.43683171E-11
   47.5800018       8.83804419E-11
   47.7599983       1.02099121E-10
   47.9399986       1.15560894E-10
   48.1199989       1.28800831E-10
   48.2999992       1.41843565E-10
   48.4799995       1.54698296E-10
   48.6599998       1.67356962E-10
   48.8400002       1.79796164E-10
   49.0200005       1.91983388E-10
   49.2000008       2.03884257E-10
   49.3800011       2.15471349E-10
   49.5600014       2.26731453E-10
   49.7400017       2.37670522E-10
   49.9199982       2.48314230E-10
   50.0999985       2.58706973E-10
   50.2799988       2.68905231E-10
   50.4599991       2.78971651E-10
   50.6399994       2.88966878E-10
   50.8199997       2.98942676E-10
   51.0000000       3.08937292E-10
   51.1800003       3.18972626E-10
   51.3600006       3.29055255E-10
   51.5400009       3.39178602E-10
   51.7200012       3.49328039E-10
   51.9000015       3.59485997E-10
   52.0800018       3.69637376E-10
   52.2599983       3.79772797E-10
   52.4399986       3.89891786E-10
   52.6199989       4.00001865E-10
   52.7999992       4.10117440E-10
   52.9799995       4.20256691E-10
   53.1599998       4.30437685E-10
   53.3400002       4.40675274E-10
   53.5200005       4.50978643E-10
   53.7000008       4.61349098E-10
   53.8800011       4.71779782E-10
   54.0600014       4.82255957E-10
   54.2400017       4.92755836E-10
   54.4199982       5.03251274E-10
   54.5999985       5.13710297E-10
   54.7799988       5.24097987E-10
   54.9599991       5.34379263E-10
   55.1399994       5.44520873E-10
   55.3199997       5.54493895E-10
   55.5000000       5.64274738E-10
   55.6800003       5.73846470E-10
   55.8600006       5.83197268E-10
   56.0400009       5.92318972E-10
   56.2200012       6.01203587E-10
   56.4000015       6.09839401E-10
   56.5800018       6.18207152E-10
   56.7599983       6.26276808E-10
   56.9399986       6.34005348E-10
   57.1199989       6.41337650E-10
   57.2999992       6.48207321E-10
   57.4799995       6.54540755E-10
   57.6599998       6.60262012E-10
   57.8400002       6.65298261E-10
   58.0200005       6.69584665E-10
   58.2000008       6.73068989E-10
   58.3800011       6.75712986E-10
   58.5600014       6.77494116E-10
   58.7400017       6.78401779E-10
   58.9199982       6.78434253E-10
   59.0999985       6.77593259E-10
   59.2799988       6.75879575E-10
   59.4599991       6.73289036E-10
   59.6399994       6.69811262E-10
   59.8199997       6.65431377E-10
   60.0000000       6.60134558E-10
   60.1800003       6.53911647E-10
   60.3600006       6.46766418E-10
   60.5400009       6.38721742E-10
   60.7200012       6.29823693E-10
   60.9000015       6.20143492E-10
   61.0800018       6.09774509E-10
   61.2599983       5.98828709E-10
   61.4399986       5.87428495E-10
   61.6199989       5.75699655E-10
   61.7999992       5.63762537E-10
   61.9799995       5.51725887E-10
   62.1599998       5.39682188E-10
   62.3400002       5.27705657E-10
   62.5200005       5.15852583E-10
   62.7000008       5.04165154E-10
   62.8800011       4.92674346E-10
   63.0600014       4.81406193E-10
   63.2400017       4.70385342E-10
   63.4199982       4.59639438E-10
   63.5999985       4.49199178E-10
   63.7799988       4.39098702E-10
   63.9599991       4.29372954E-10
   64.1399994       4.20053770E-10
   64.3199997       4.11165851E-10
   64.5000000       4.02723466E-10
   64.6800003       3.94726890E-10
   64.8600006       3.87163163E-10
   65.0400009       3.80004306E-10
   65.2200012       3.73211434E-10
   65.4000015       3.66736586E-10
   65.5800018       3.60527580E-10
   65.7600021       3.54532320E-10
   65.9400024       3.48702345E-10
   66.1200027       3.42996992E-10
   66.3000031       3.37386036E-10
   66.4800034       3.31851074E-10
   66.6600037       3.26385224E-10
   66.8399963       3.20991650E-10
   67.0199966       3.15680260E-10
   67.1999969       3.10463044E-10
   67.3799973       3.05349718E-10
   67.5599976       3.00342778E-10
   67.7399979       2.95433983E-10
   67.9199982       2.90602792E-10
   68.0999985       2.85816343E-10
   68.2799988       2.81032086E-10
   68.4599991       2.76200812E-10
   68.6399994       2.71271866E-10
   68.8199997       2.66198230E-10
   69.0000000       2.60939881E-10
   69.1800003       2.55467175E-10
   69.3600006       2.49760768E-10
   69.5400009       2.43810888E-10
   69.7200012       2.37612402E-10
   69.9000015       2.31160882E-10
   70.0800018       2.24446711E-10
   70.2600021       2.17450308E-10
   70.4400024       2.10138823E-10
   70.6200027       2.02466433E-10
   70.8000031       1.94376723E-10
   70.9800034       1.85808313E-10
   71.1600037       1.76703249E-10
   71.3399963       1.67014819E-10
   71.5199966       1.56716043E-10
   71.6999969       1.45804618E-10
   71.8799973       1.34305067E-10
   72.0599976       1.22267432E-10
   72.2399979       1.09761714E-10
   72.4199982       9.68704839E-11
   72.5999985       8.36804723E-11
   72.7799988       7.02740366E-11
   72.9599991       5.67228729E-11
   73.1399994       4.30850459E-11
   73.3199997       2.94043956E-11
   73.5000000       1.57138851E-11
   73.6800003       2.04106935E-12
   73.8600006      -1.15856543E-11
   74.0400009      -2.51299086E-11
   74.2200012      -3.85427593E-11
   74.4000015      -5.17596382E-11
   74.5800018      -6.47015497E-11
   74.7600021      -7.72784198E-11
   74.9400024      -8.93967192E-11
   75.1200027      -1.00966867E-10
   75.3000031      -1.11912118E-10
   75.4800034      -1.22174479E-10
   75.6600037      -1.31720315E-10
   75.8399963      -1.40539455E-10
   76.0199966      -1.48643015E-10
   76.1999969      -1.56058333E-10
   76.3799973      -1.62821367E-10
   76.5599976      -1.68969866E-10
   76.7399979      -1.74537620E-10
   76.9199982      -1.79550624E-10
   77.0999985      -1.84026336E-10
   77.2799988      -1.87975566E-10
   77.4599991      -1.91406613E-10
   77.6399994      -1.94330857E-10
   77.8199997      -1.96769531E-10
   78.0000000      -1.98758260E-10
   78.1800003      -2.00351180E-10
   78.3600006      -2.01621567E-10
   78.5400009      -2.02659764E-10
   78.7200012      -2.03567968E-10
   78.9000015      -2.04452150E-10
   79.0800018      -2.05414283E-10
   79.2600021      -2.06543074E-10
   79.4400024      -2.07907677E-10
   79.6200027      -2.09554277E-10
   79.8000031      -2.11505161E-10
   79.9800034      -2.13762549E-10
   80.1600037      -2.16313939E-10
   80.3399963      -2.19139359E-10
   80.5199966      -2.22218507E-10
   80.6999969      -2.25535979E-10
   80.8799973      -2.29084626E-10
   81.0599976      -2.32865727E-10
   81.2399979      -2.36886649E-10
   81.4199982      -2.41156234E-10
   81.5999985      -2.45679588E-10
   81.7799988      -2.50452076E-10
   81.9599991      -2.55455518E-10
   82.1399994      -2.60655497E-10
   82.3199997      -2.66002442E-10
   82.5000000      -2.71434653E-10
   82.6800003      -2.76884238E-10
   82.8600006      -2.82284029E-10
   83.0400009      -2.87575297E-10
   83.2200012      -2.92712882E-10
   83.4000015      -2.97668917E-10
   83.5800018      -3.02432468E-10
   83.7600021      -3.07006198E-10
   83.9400024      -3.11400239E-10
   84.1200027      -3.15625248E-10
   84.3000031      -3.19684945E-10
   84.4800034      -3.23571447E-10
   84.6600037      -3.27262550E-10
   84.8399963      -3.30722699E-10
   85.0199966      -3.33906486E-10
   85.1999969      -3.36764894E-10
   85.3799973      -3.39251433E-10
   85.5599976      -3.41328882E-10
   85.7399979      -3.42973594E-10
   85.9199982      -3.44177659E-10
   86.0999985      -3.44948431E-10
   86.2799988      -3.45304646E-10
   86.4599991      -3.45271006E-10
   86.6399994      -3.44871132E-10
   86.8199997      -3.44121037E-10
   87.0000000      -3.43023526E-10
   87.1800003      -3.41565470E-10
   87.3600006      -3.39718226E-10
   87.5400009      -3.37440825E-10
   87.7200012      -3.34686695E-10
   87.9000015      -3.31411065E-10
   88.0800018      -3.27578631E-10
   88.2600021      -3.23170241E-10
   88.4400024      -3.18186338E-10
   88.6200027      -3.12647769E-10
   88.8000031      -3.06593417E-10
   88.9800034      -3.00075187E-10
   89.1600037      -2.93152308E-10
   89.3399963      -2.85884927E-10
   89.5199966      -2.78328915E-10
   89.6999969      -2.70532846E-10
   89.8799973      -2.62537131E-10
   90.0599976      -2.54375965E-10
   90.2399979      -2.46080850E-10
   90.4199982      -2.37685815E-10
   90.5999985      -2.29233174E-10
   90.7799988      -2.20778215E-10
   90.9599991      -2.12392146E-10
   91.1399994      -2.04162215E-10
   91.3199997      -1.96189287E-10
   91.5000000      -1.88582039E-10
   91.6800003      -1.81449286E-10
   91.8600006      -1.74891684E-10
   92.0400009      -1.68994069E-10
   92.2200012      -1.63819625E-10
   92.4000015      -1.59407570E-10
   92.5800018      -1.55773644E-10
   92.7600021      -1.52913807E-10
   92.9400024      -1.50809989E-10
   93.1200027      -1.49436838E-10
   93.3000031      -1.48767179E-10
   93.4800034      -1.48776394E-10
   93.6600037      -1.49443236E-10
   93.8399963      -1.50748650E-10
   94.0199966      -1.52671029E-10
   94.1999969      -1.55180521E-10
   94.3799973      -1.58232150E-10
   94.5599976      -1.61760189E-10
   94.7399979      -1.65674474E-10
   94.9199982      -1.69860292E-10
   95.0999985      -1.74180753E-10
   95.2799988      -1.78484505E-10
   95.4599991      -1.82614271E-10
   95.6399994      -1.86417728E-10
   95.8199997      -1.89757488E-10
   96.0000000      -1.92519944E-10
   96.1800003      -1.94620112E-10
   96.3600006      -1.96003547E-10
   96.5400009      -1.96644701E-10
   96.7200012      -1.96542727E-10
   96.9000015      -1.95715569E-10
   97.0800018      -1.94194327E-10
   97.2600021      -1.92018193E-10
   97.4400024      -1.89231436E-10
   97.6200027      -1.85881824E-10
   97.8000031      -1.82021787E-10
   97.9800034      -1.77709250E-10
   98.1600037      -1.73010439E-10
   98.3399963      -1.68001515E-10
   98.5199966      -1.62769534E-10
   98.6999969      -1.57412597E-10
   98.8799973      -1.52038049E-10
   99.0599976      -1.46759230E-10
   99.2399979      -1.41692116E-10
   99.4199982      -1.36950243E-10
   99.5999985      -1.32639733E-10
   99.7799988      -1.28855412E-10
   99.9599991      -1.25676455E-10
   100.139999      -1.23163618E-10
   100.320000      -1.21357313E-10
   100.500000      -1.20276844E-10
   100.680000      -1.19919810E-10
   100.860001      -1.20263369E-10
   101.040001      -1.21265331E-10
   101.220001      -1.22866703E-10
   101.400002      -1.24994820E-10
   101.580002      -1.27567276E-10
   101.760002      -1.30496322E-10
   101.940002      -1.33693639E-10
   102.120003      -1.37074421E-10
   102.300003      -1.40559384E-10
   102.480003      -1.44076598E-10
   102.660004      -1.47559756E-10
   102.839996      -1.50946269E-10
   103.019997      -1.54172897E-10
   103.199997      -1.57172275E-10
   103.379997      -1.59869853E-10
   103.559998      -1.62183322E-10
   103.739998      -1.64023309E-10
   103.919998      -1.65297512E-10
   104.099998      -1.65916184E-10
   104.279999      -1.65798680E-10
   104.459999      -1.64880290E-10
   104.639999      -1.63117714E-10
   104.820000      -1.60492508E-10
   105.000000      -1.57011529E-10
   105.180000      -1.52705334E-10
   105.360001      -1.47622886E-10
   105.540001      -1.41826356E-10
   105.720001      -1.35383871E-10
   105.900002      -1.28363875E-10
   106.080002      -1.20830984E-10
   106.260002      -1.12844893E-10
   106.440002      -1.04460871E-10
   106.620003      -9.57330812E-11
   106.800003      -8.67186600E-11
   106.980003      -7.74823192E-11
   107.160004      -6.80990472E-11
   107.339996      -5.86550669E-11
   107.519997      -4.92463050E-11
   107.699997      -3.99744404E-11
   107.879997      -3.09412877E-11
   108.059998      -2.22423850E-11
   108.239998      -1.39610485E-11
   108.419998      -6.16273048E-12
   108.599998       1.10813648E-12
   108.779999       7.83003003E-12
   108.959999       1.40050393E-11
   109.139999       1.96568890E-11
   109.320000       2.48291734E-11
   109.500000       2.95823470E-11
   109.680000       3.39900573E-11
   109.860001       3.81358556E-11
   110.040001       4.21096907E-11
   110.220001       4.60053731E-11
   110.400002       4.99177609E-11
   110.580002       5.39411883E-11
   110.760002       5.81684388E-11
   110.940002       6.26898741E-11
   111.120003       6.75936876E-11
   111.300003       7.29656127E-11
   111.480003       7.88890619E-11
   111.660004       8.54450191E-11
   111.839996       9.27113664E-11
   112.019997       1.00761267E-10
   112.199997       1.09660760E-10
   112.379997       1.19465673E-10
   112.559998       1.30216962E-10
   112.739998       1.41935699E-10
   112.919998       1.54618165E-10
   113.099998       1.68232137E-10
   113.279999       1.82714913E-10
   113.459999       1.97974609E-10
   113.639999       2.13894291E-10
   113.820000       2.30339151E-10
   114.000000       2.47166038E-10
   114.180000       2.64233052E-10
   114.360001       2.81409229E-10
   114.540001       2.98580105E-10
   114.720001       3.15651061E-10
   114.900002       3.32546213E-10
   115.080002       3.49203139E-10
   115.260002       3.65565744E-10
   115.440002       3.81576798E-10
   115.620003       3.97169769E-10
   115.800003       4.12264806E-10
   115.980003       4.26767899E-10
   116.160004       4.40574272E-10
   116.339996       4.53575733E-10
   116.519997       4.65671057E-10
   116.699997       4.76777950E-10
   116.879997       4.86843177E-10
   117.059998       4.95851082E-10
   117.239998       5.03826481E-10
   117.419998       5.10832265E-10
   117.599998       5.16962362E-10
   117.779999       5.22329624E-10
   117.959999       5.27051847E-10
   118.139999       5.31238331E-10
   118.320000       5.34979505E-10
   118.500000       5.38340039E-10
   118.680000       5.41358680E-10
   118.860001       5.44052414E-10
   119.040001       5.46425405E-10
   119.220001       5.48478707E-10
   119.400002       5.50221146E-10
   119.580002       5.51677093E-10