  -34.5000000         0.00000000    
  -34.3195000         0.00000000    
  -34.1389999         0.00000000    
  -33.9584999         0.00000000    
  -33.7779999         5.32474901E-22
  -33.5974998         1.26953200E-20
  -33.4169998        -3.32302007E-20
  -33.2364998        -7.98186433E-19
  -33.0559998        -3.04721075E-18
  -32.8754997        -6.33637306E-19
  -32.6949997         2.50951824E-17
  -32.5144997         7.17140577E-17
  -32.3339996         5.29164809E-17
  -32.1534996        -1.55877091E-16
  -31.9729996        -5.05755855E-16
  -31.7924995        -6.80414790E-16
  -31.6119995        -3.37526615E-16
  -31.4314995         8.09879753E-16
  -31.2509995         3.47282640E-15
  -31.0704994         8.21963821E-15
  -30.8899994         1.12532308E-14
  -30.7094994        -5.81863407E-16
  -30.5289993        -4.22850943E-14
  -30.3484993        -9.93634631E-14
  -30.1679993        -9.47289325E-14
  -29.9874992         7.95740223E-14
  -29.8069992         4.19246316E-13
  -29.6264992         6.43617158E-13
  -29.4459991         2.55611125E-13
  -29.2654991        -9.95310713E-13
  -29.0849991        -2.47587627E-12
  -28.9044991        -2.55414656E-12
  -28.7240009         3.56661396E-13
  -28.5435009         5.87246484E-12
  -28.3630009         1.03552835E-11
  -28.1825008         8.15558645E-12
  -28.0020008        -4.17771156E-12
  -27.8215008        -2.29835144E-11
  -27.6410007        -3.60693558E-11
  -27.4605007        -2.79993095E-11
  -27.2800007         8.94509900E-12
  -27.0995007         6.43350234E-11
  -26.9190006         1.08105698E-10
  -26.7385006         1.02892590E-10
  -26.5580006         2.66537573E-11
  -26.3775005        -1.06483308E-10
  -26.1970005        -2.41675957E-10
  -26.0165005        -3.02780162E-10
  -25.8360004        -2.29834485E-10
  -25.6555004        -1.62958674E-11
  -25.4750004         2.75349021E-10
  -25.2945004         5.31587607E-10
  -25.1140003         6.34237052E-10
  -24.9335003         5.14346732E-10
  -24.7530003         1.87692917E-10
  -24.5725002        -2.46081239E-10
  -24.3920002        -6.41756259E-10
  -24.2115002        -8.68048966E-10
  -24.0310001        -8.62352301E-10
  -23.8505001        -6.56256383E-10
  -23.6700001        -3.59158175E-10
  -23.4895000        -1.04543756E-10
  -23.3090000         1.97434846E-11
  -23.1285000         2.57570892E-11
  -22.9480000         3.41207097E-11
  -22.7674999         2.22500365E-10
  -22.5869999         7.26174731E-10
  -22.4064999         1.53142199E-09
  -22.2259998         2.41720644E-09
  -22.0454998         2.98893266E-09
  -21.8649998         2.80897283E-09
  -21.6844997         1.57797586E-09
  -21.5039997        -7.14557913E-10
  -21.3234997        -3.74862719E-09
  -21.1429996        -6.97232494E-09
  -20.9624996        -9.80201165E-09
  -20.7819996        -1.18295773E-08
  -20.6014996        -1.29339961E-08
  -20.4209995        -1.32422979E-08
  -20.2404995        -1.29653399E-08
  -20.0599995        -1.22023485E-08
  -19.8794994        -1.08260716E-08
  -19.6989994        -8.51726245E-09
  -19.5184994        -4.93703700E-09
  -19.3379993         4.79242965E-11
  -19.1574993         6.20088203E-09
  -18.9769993         1.28963284E-08
  -18.7964993         1.92642631E-08
  -18.6159992         2.44422740E-08
  -18.4354992         2.78354335E-08
  -18.2549992         2.92819493E-08
  -18.0744991         2.90589828E-08
  -17.8939991         2.77229617E-08
  -17.7134991         2.58426187E-08
  -17.5330009         2.37312427E-08
  -17.3525009         2.12976747E-08
  -17.1720009         1.80990440E-08
  -16.9915009         1.35955416E-08
  -16.8110008         7.50769402E-09
  -16.6305008         1.09060774E-10
  -16.4500008        -7.70377540E-09
  -16.2695007        -1.46270409E-08
  -16.0890007        -1.93740437E-08
  -15.9084997        -2.11188631E-08
  -15.7279997        -1.97544523E-08
  -15.5474997        -1.58553330E-08
  -15.3669996        -1.03897744E-08
  -15.1864996        -4.35032765E-09
  -15.0059996         1.50770307E-09
  -14.8254995         6.71975586E-09
  -14.6450005         1.09944613E-08
  -14.4645004         1.40575498E-08
  -14.2840004         1.55888316E-08
  -14.1035004         1.52987560E-08
  -13.9230003         1.30873312E-08
  -13.7425003         9.17475695E-09
  -13.5620003         4.11655421E-09
  -13.3815002        -1.31138034E-09
  -13.2010002        -6.30493391E-09
  -13.0205002        -1.02251096E-08
  -12.8400002        -1.27372646E-08
  -12.6595001        -1.38753933E-08
  -12.4790001        -1.40299239E-08
  -12.2985001        -1.38585126E-08
  -12.1180000        -1.41230450E-08
  -11.9375000        -1.54789586E-08
  -11.7570000        -1.82760189E-08
  -11.5764999        -2.24423129E-08
  -11.3959999        -2.74934671E-08
  -11.2154999        -3.26489271E-08
  -11.0349998        -3.69877924E-08
  -10.8544998        -3.95771274E-08
  -10.6739998        -3.95573743E-08
  -10.4934998        -3.62297108E-08
  -10.3129997        -2.92048412E-08
  -10.1324997        -1.86190086E-08
  -9.95199966        -5.33399414E-09
  -9.77149963         9.01708574E-09
  -9.59099960         2.22425633E-08
  -9.41049957         3.20509983E-08
  -9.22999954         3.66126827E-08
  -9.04950047         3.50210101E-08
  -8.86900043         2.74999667E-08
  -8.68850040         1.53261013E-08
  -8.50800037         5.46634071E-10
  -8.32750034        -1.43860053E-08
  -8.14700031        -2.69839475E-08
  -7.96649981        -3.50844083E-08
  -7.78599977        -3.72122706E-08
  -7.60550022        -3.29157039E-08
  -7.42500019        -2.29790160E-08
  -7.24450016        -9.39002032E-09
  -7.06400013         5.00688113E-09
  -6.88350010         1.71218026E-08
  -6.70300007         2.43290010E-08
  -6.52250004         2.50667753E-08
  -6.34200001         1.91698106E-08
  -6.16149998         7.88043675E-09
  -5.98099995        -6.41961639E-09
  -5.80049992        -2.06688018E-08
  -5.61999989        -3.16862590E-08
  -5.43949986        -3.67496789E-08
  -5.25899982        -3.40979334E-08
  -5.07849979        -2.32539250E-08
  -4.89799976        -5.08327380E-09
  -4.71750021         1.84257924E-08
  -4.53700018         4.45794832E-08
  -4.35650015         7.04459566E-08
  -4.17600012         9.32400113E-08
  -3.99550009         1.10581269E-07
  -3.81500006         1.20683353E-07
  -3.63450003         1.22562597E-07
  -3.45400000         1.16284070E-07
  -3.27349997         1.03142945E-07
  -3.09299994         8.56082210E-08
  -2.91249990         6.69097702E-08
  -2.73200011         5.03163484E-08
  -2.55150008         3.83321748E-08
  -2.37100005         3.21102149E-08
  -2.19050002         3.12885859E-08
  -2.00999999         3.42607827E-08
  -1.82949996         3.87078174E-08
  -1.64900005         4.21578150E-08
  -1.46850002         4.24113118E-08
  -1.28799999         3.78053784E-08
  -1.10749996         2.73783858E-08
 -0.926999986         1.09862528E-08
 -0.746500015        -1.06475939E-08
 -0.565999985        -3.60113823E-08
 -0.385500014        -6.30426484E-08
 -0.204999998        -8.94718752E-08
  -2.44999994E-02    -1.13163672E-07
  0.156000003        -1.32373216E-07
  0.336499989        -1.45928468E-07
  0.517000020        -1.53419251E-07
  0.697499990        -1.55438883E-07
  0.878000021        -1.53791490E-07
   1.05850005        -1.51457982E-07
   1.23899996        -1.52125054E-07
   1.41949999        -1.59269931E-07
   1.60000002        -1.75063889E-07
   1.78050005        -1.99536245E-07
   1.96099997        -2.30386803E-07
   2.14150000        -2.63556643E-07
   2.32200003        -2.94320529E-07
   2.50250006        -3.18452550E-07
   2.68300009        -3.33049343E-07
   2.86350012        -3.36820591E-07
   3.04399991        -3.29923353E-07
   3.22449994        -3.13562452E-07
   3.40499997        -2.89560774E-07
   3.58550000        -2.59998217E-07
   3.76600003        -2.26934560E-07
   3.94650006        -1.92219048E-07
   4.12699986        -1.57418114E-07
   4.30749989        -1.23882117E-07
   4.48799992        -9.28884560E-08
   4.66849995        -6.57081500E-08
   4.84899998        -4.34493153E-08
   5.02950001        -2.66668891E-08
   5.21000004        -1.49277444E-08
   5.39050007        -6.64036293E-09
   5.57100010         6.21509677E-10
   5.75150013         9.33897581E-09
   5.93200016         2.11514095E-08
   6.11250019         3.62897730E-08
   6.29300022         5.36214415E-08
   6.47349977         7.12579649E-08
   6.65399981         8.73717028E-08
   6.83449984         1.00789137E-07
   7.01499987         1.11123512E-07
   7.19549990         1.18530146E-07
   7.37599993         1.23384623E-07
   7.55649996         1.26160174E-07
   7.73699999         1.27568796E-07
   7.91750002         1.28791498E-07
   8.09799957         1.31532374E-07
   8.27849960         1.37751130E-07
   8.45899963         1.49152754E-07
   8.63949966         1.66665089E-07
   8.81999969         1.90130834E-07
   9.00049973         2.18307562E-07
   9.18099976         2.49113441E-07
   9.36149979         2.80000194E-07
   9.54199982         3.08373899E-07
   9.72249985         3.32032499E-07
   9.90299988         3.49567500E-07
   10.0834999         3.60606691E-07
   10.2639999         3.65739822E-07
   10.4445000         3.66054905E-07
   10.6250000         3.62417353E-07
   10.8055000         3.54842342E-07
   10.9860001         3.42339121E-07
   11.1665001         3.23371893E-07
   11.3470001         2.96728956E-07
   11.5275002         2.62336101E-07
   11.7080002         2.21561066E-07
   11.8885002         1.76850008E-07
   12.0690002         1.30945295E-07
   12.2495003         8.61659899E-08
   12.4300003         4.41161490E-08
   12.6105003         5.85007598E-09
   12.7910004        -2.77932539E-08
   12.9715004        -5.60499132E-08
   13.1520004        -7.84538159E-08
   13.3325005        -9.52560839E-08
   13.5129995        -1.07675135E-07
   13.6934996        -1.17710798E-07
   13.8739996        -1.27552113E-07
   14.0544996        -1.38887174E-07
   14.2349997        -1.52462832E-07
   14.4154997        -1.68057014E-07
   14.5959997        -1.84732983E-07
   14.7764997        -2.01088341E-07
   14.9569998        -2.15305462E-07
   15.1374998        -2.25062308E-07
   15.3179998        -2.27527451E-07
   15.4984999        -2.19647475E-07
   15.6789999        -1.98726880E-07
   15.8594999        -1.63061486E-07
   16.0400009        -1.12315469E-07
   16.2205009        -4.74852975E-08
   16.4009991         2.94909057E-08
   16.5814991         1.16260942E-07
   16.7619991         2.10561552E-07
   16.9424992         3.10659544E-07
   17.1229992         4.15816032E-07
   17.3034992         5.26770293E-07
   17.4839993         6.46035119E-07
   17.6644993         7.77684932E-07
   17.8449993         9.26465361E-07
   18.0254993         1.09637494E-06
   18.2059994         1.28921420E-06
   18.3864994         1.50373842E-06
   18.5669994         1.73577860E-06
   18.7474995         1.97921918E-06
   18.9279995         2.22730273E-06
   19.1084995         2.47368234E-06
   19.2889996         2.71295289E-06
   19.4694996         2.94078359E-06
   19.6499996         3.15400257E-06
   19.8304996         3.35088453E-06
   20.0109997         3.53153246E-06
   20.1914997         3.69791155E-06
   20.3719997         3.85317662E-06
   20.5524998         4.00033150E-06
   20.7329998         4.14068927E-06
   20.9134998         4.27279474E-06
   21.0939999         4.39237374E-06
   21.2744999         4.49333993E-06
   21.4549999         4.56941916E-06
   21.6355000         4.61573882E-06
   21.8160000         4.62988510E-06
   21.9965000         4.61228092E-06
   22.1770000         4.56597490E-06
   22.3575001         4.49602112E-06
   22.5380001         4.40863550E-06
   22.7185001         4.31019316E-06
   22.8990002         4.20624065E-06
   23.0795002         4.10073926E-06
   23.2600002         3.99576948E-06
   23.4405003         3.89174102E-06
   23.6210003         3.78792492E-06
   23.8015003         3.68293900E-06
   23.9820004         3.57485692E-06
   24.1625004         3.46102320E-06
   24.3430004         3.33791627E-06
   24.5235004         3.20143022E-06
   24.7040005         3.04775199E-06
   24.8845005         2.87456737E-06
   25.0650005         2.68203576E-06
   25.2455006         2.47298590E-06
   25.4260006         2.25222175E-06
   25.6065006         2.02530487E-06
   25.7870007         1.79739459E-06
   25.9675007         1.57253987E-06
   26.1480007         1.35353480E-06
   26.3285007         1.14208990E-06
   26.5090008         9.38948006E-07
   26.6895008         7.43806254E-07
   26.8700008         5.55250551E-07
   27.0505009         3.70979137E-07
   27.2310009         1.88426171E-07
   27.4115009         5.66403013E-09
   27.5919991        -1.77789047E-07
   27.7724991        -3.60653956E-07
   27.9529991        -5.40160329E-07
   28.1334991        -7.12730298E-07
   28.3139992        -8.74781790E-07
   28.4944992        -1.02340744E-06
   28.6749992        -1.15680132E-06
   28.8554993        -1.27442524E-06
   29.0359993        -1.37693348E-06
   29.2164993        -1.46584955E-06
   29.3969994        -1.54294560E-06
   29.5774994        -1.60947400E-06
   29.7579994        -1.66561608E-06
   29.9384995        -1.71041108E-06
   30.1189995        -1.74228717E-06
   30.2994995        -1.76000447E-06
   30.4799995        -1.76353444E-06
   30.6604996        -1.75435582E-06
   30.8409996        -1.73501917E-06
   31.0214996        -1.70823466E-06
   31.2019997        -1.67599387E-06
   31.3824997        -1.63912750E-06
   31.5629997        -1.59738579E-06
   31.7434998        -1.54977658E-06
   31.9239998        -1.49484367E-06
   32.1044998        -1.43067746E-06
   32.2849998        -1.35483265E-06
   32.4654999        -1.26441500E-06
   32.6459999        -1.15652369E-06
   32.8264999        -1.02890874E-06
   33.0070000        -8.80518883E-07
   33.1875000        -7.11536700E-07
   33.3680000        -5.22922051E-07
   33.5485001        -3.15769199E-07
   33.7290001        -9.08464202E-08
   33.9095001         1.51420650E-07
   34.0900002         4.10573506E-07
   34.2705002         6.85674422E-07
   34.4510002         9.75148168E-07
   34.6315002         1.27698195E-06
   34.8120003         1.58902765E-06
   34.9925003         1.90922424E-06
   35.1730003         2.23568645E-06
   35.3535004         2.56668409E-06
   35.5340004         2.90065782E-06
   35.7145004         3.23627364E-06
   35.8950005         3.57239310E-06
   36.0755005         3.90773175E-06
   36.2560005         4.24022210E-06
   36.4365005         4.56645193E-06
   36.6170006         4.88160686E-06
   36.7975006         5.18016759E-06
   36.9780006         5.45716148E-06
   37.1585007         5.70940983E-06
   37.3390007         5.93619461E-06
   37.5195007         6.13907150E-06
   37.7000008         6.32106048E-06
   37.8805008         6.48577134E-06
   38.0610008         6.63688843E-06
   38.2415009         6.77804746E-06
   38.4220009         6.91273817E-06
   38.6025009         7.04379454E-06
   38.7830009         7.17251896E-06
   38.9635010         7.29788053E-06
   39.1440010         7.41627491E-06
   39.3245010         7.52223605E-06
   39.5050011         7.60997546E-06
   39.6855011         7.67509209E-06
   39.8660011         7.71572650E-06
   40.0465012         7.73277498E-06
   40.2270012         7.72931344E-06
   40.4075012         7.70957831E-06
   40.5880013         7.67792335E-06
   40.7685013         7.63790922E-06
   40.9490013         7.59160002E-06
   41.1295013         7.53896120E-06
   41.3100014         7.47756121E-06
   41.4905014         7.40278347E-06
   41.6710014         7.30866259E-06
   41.8515015         7.18908996E-06
   42.0320015         7.03898695E-06
   42.2125015         6.85498389E-06
   42.3930016         6.63555466E-06
   42.5735016         6.38091933E-06
   42.7540016         6.09313838E-06
   42.9345016         5.77653736E-06
   43.1150017         5.43819215E-06
   43.2955017         5.08791118E-06
   43.4760017         4.73716500E-06
   43.6565018         4.39702262E-06
   43.8370018         4.07577318E-06
   44.0175018         3.77724336E-06
   44.1980019         3.50039795E-06
   44.3785019         3.24024427E-06
   44.5589981         2.98954978E-06
   44.7394981         2.74067497E-06
   44.9199982         2.48702281E-06
   45.1004982         2.22409858E-06
   45.2809982         1.95043663E-06
   45.4614983         1.66841460E-06
   45.6419983         1.38458188E-06
   45.8224983         1.10907604E-06
   46.0029984         8.53852896E-07
   46.1834984         6.30019372E-07
   46.3639984         4.45056827E-07
   46.5444984         3.00910926E-07
   46.7249985         1.93442077E-07
   46.9054985         1.13208003E-07
   47.0859985         4.71813628E-08
   47.2664986        -1.91963245E-08
   47.4469986        -1.00009082E-07
   47.6274986        -2.06989029E-07
   47.8079987        -3.47806406E-07
   47.9884987        -5.24894915E-07
   48.1689987        -7.35365859E-07
   48.3494987        -9.72217549E-07
   48.5299988        -1.22657491E-06
   48.7104988        -1.49031780E-06
   48.8909988        -1.75816444E-06
   49.0714989        -2.02850993E-06
   49.2519989        -2.30299793E-06
   49.4324989        -2.58545151E-06
   49.6129990        -2.88078422E-06
   49.7934990        -3.19416745E-06
   49.9739990        -3.53039331E-06
   50.1544991        -3.89311754E-06
   50.3349991        -4.28387648E-06
   50.5154991        -4.70125178E-06
   50.6959991        -5.14080148E-06
   50.8764992        -5.59594309E-06
   51.0569992        -6.05953392E-06
   51.2374992        -6.52553263E-06
   51.4179993        -6.98994745E-06
   51.5984993        -7.45069610E-06
   51.7789993        -7.90690319E-06
   51.9594994        -8.35848186E-06
   52.1399994        -8.80634343E-06
   52.3204994        -9.25294444E-06
   52.5009995        -9.70266319E-06
   52.6814995        -1.01613059E-05
   52.8619995        -1.06345151E-05
   53.0424995        -1.11256149E-05
   53.2229996        -1.16340661E-05
   53.4034996        -1.21552475E-05
   53.5839996        -1.26815576E-05
   53.7644997        -1.32042896E-05
   53.9449997        -1.37155803E-05
   54.1254997        -1.42098716E-05
   54.3059998        -1.46847105E-05
   54.4864998        -1.51409840E-05
   54.6669998        -1.55827202E-05
   54.8474998        -1.60164072E-05
   55.0279999        -1.64497396E-05
   55.2084999        -1.68898951E-05
   55.3889999        -1.73419212E-05
   55.5695000        -1.78079299E-05
   55.7500000        -1.82873791E-05
   55.9305000        -1.87781188E-05
   56.1110001        -1.92775351E-05
   56.2915001        -1.97831996E-05
   56.4720001        -2.02929314E-05
   56.6525002        -2.08045512E-05
   56.8330002        -2.13160420E-05
   57.0135002        -2.18265668E-05
   57.1940002        -2.23378865E-05
   57.3745003        -2.28551307E-05
   57.5550003        -2.33862029E-05
   57.7355003        -2.39398832E-05
   57.9160004        -2.45233568E-05
   58.0965004        -2.51402562E-05
   58.2770004        -2.57901320E-05
   58.4575005        -2.64694554E-05
   58.6380005        -2.71734425E-05
   58.8185005        -2.78975203E-05
   58.9990005        -2.86379891E-05
   59.1795006        -2.93919129E-05
   59.3600006        -3.01566997E-05
   59.5405006        -3.09298630E-05
   59.7210007        -3.17090235E-05
   59.9015007        -3.24921166E-05
   60.0820007        -3.32774907E-05
   60.2625008        -3.40639017E-05
   60.4430008        -3.48505273E-05
   60.6235008        -3.56371202E-05
   60.8040009        -3.64242187E-05
   60.9845009        -3.72130307E-05
   61.1650009        -3.80046768E-05
   61.3455009        -3.87989821E-05
   61.5260010        -3.95933785E-05
   61.7065010        -4.03827653E-05
   61.8870010        -4.11605070E-05
   62.0675011        -4.19202006E-05
   62.2480011        -4.26574588E-05
   62.4285011        -4.33706773E-05
   62.6090012        -4.40605472E-05
   62.7895012        -4.47286548E-05
   62.9700012        -4.53762441E-05
   63.1505013        -4.60036972E-05
   63.3310013        -4.66107558E-05
   63.5115013        -4.71970088E-05
   63.6920013        -4.77620488E-05
   63.8725014        -4.83051408E-05
   64.0530014        -4.88248370E-05
   64.2334976        -4.93190637E-05
   64.4140015        -4.97859583E-05
   64.5944977        -5.02253424E-05
   64.7750015        -5.06399374E-05
   64.9554977        -5.10355640E-05
   65.1360016        -5.14201965E-05
   65.3164978        -5.18024281E-05
   65.4970016        -5.21899783E-05
   65.6774979        -5.25886935E-05
   65.8580017        -5.30019606E-05
   66.0384979        -5.34305473E-05
   66.2190018        -5.38723507E-05
   66.3994980        -5.43224014E-05
   66.5800018        -5.47731906E-05
   66.7604980        -5.52158344E-05
   66.9410019        -5.56416599E-05
   67.1214981        -5.60438093E-05
   67.3020020        -5.64182046E-05
   67.4824982        -5.67635580E-05
   67.6630020        -5.70808224E-05
   67.8434982        -5.73725811E-05
   68.0240021        -5.76427119E-05
   68.2044983        -5.78960535E-05
   68.3850021        -5.81377535E-05
   68.5654984        -5.83720866E-05
   68.7460022        -5.86007118E-05
   68.9264984        -5.88214098E-05
   69.1070023        -5.90280761E-05
   69.2874985        -5.92122196E-05
   69.4680023        -5.93653749E-05
   69.6484985        -5.94813646E-05
   69.8290024        -5.95577003E-05
   70.0094986        -5.95957208E-05
   70.1900024        -5.95999591E-05
   70.3704987        -5.95774000E-05
   70.5510025        -5.95370984E-05
   70.7314987        -5.94898665E-05
   70.9120026        -5.94473240E-05
   71.0924988        -5.94201156E-05
   71.2730026        -5.94157173E-05
   71.4534988        -5.94364465E-05
   71.6340027        -5.94787125E-05
   71.8144989        -5.95337515E-05
   71.9950027        -5.95898200E-05
   72.1754990        -5.96346872E-05
   72.3560028        -5.96579084E-05
   72.5364990        -5.96523714E-05
   72.7170029        -5.96151804E-05
   72.8974991        -5.95478523E-05
   73.0780029        -5.94558987E-05
   73.2584991        -5.93474688E-05
   73.4390030        -5.92311590E-05
   73.6194992        -5.91135140E-05
   73.8000031        -5.89970914E-05
   73.9804993        -5.88797411E-05
   74.1610031        -5.87554787E-05
   74.3414993        -5.86164424E-05
   74.5220032        -5.84548361E-05
   74.7024994        -5.82640459E-05
   74.8830032        -5.80390079E-05
   75.0634995        -5.77762366E-05
   75.2440033        -5.74741061E-05
   75.4244995        -5.71336750E-05
   75.6050034        -5.67596726E-05
   75.7854996        -5.63606882E-05
   75.9660034        -5.59479195E-05
   76.1464996        -5.55326733E-05
   76.3270035        -5.51237245E-05
   76.5074997        -5.47255077E-05
   76.6880035        -5.43377719E-05
   76.8684998        -5.39565190E-05
   77.0490036        -5.35758045E-05
   77.2294998        -5.31895494E-05
   77.4100037        -5.27927732E-05
   77.5904999        -5.23825511E-05
   77.7710037        -5.19587520E-05
   77.9514999        -5.15243664E-05
   78.1320038        -5.10851387E-05
   78.3125000        -5.06481665E-05
   78.4929962        -5.02199509E-05
   78.6735001        -4.98045483E-05
   78.8539963        -4.94025408E-05
   79.0345001        -4.90112288E-05
   79.2149963        -4.86257450E-05
   79.3955002        -4.82401338E-05
   79.5759964        -4.78476977E-05
   79.7565002        -4.74406952E-05
   79.9369965        -4.70101113E-05
   80.1175003        -4.65462654E-05
   80.2979965        -4.60405608E-05
   80.4785004        -4.54876790E-05
   80.6589966        -4.48871069E-05
   80.8395004        -4.42431665E-05
   81.0199966        -4.35634029E-05
   81.2005005        -4.28562416E-05
   81.3809967        -4.21290970E-05
   81.5615005        -4.13875532E-05
   81.7419968        -4.06355612E-05
   81.9225006        -3.98761222E-05
   82.1029968        -3.91116446E-05
   82.2835007        -3.83439765E-05
   82.4639969        -3.75743111E-05
   82.6445007        -3.68032997E-05
   82.8249969        -3.60313425E-05
   83.0055008        -3.52588067E-05
   83.1859970        -3.44858236E-05
   83.3665009        -3.37116217E-05
   83.5469971        -3.29339309E-05
   83.7275009        -3.21491534E-05
   83.9079971        -3.13534183E-05
   84.0885010        -3.05440662E-05
   84.2689972        -2.97204970E-05
   84.4495010        -2.88840256E-05
   84.6299973        -2.80368458E-05
   84.8105011        -2.71808094E-05
   84.9909973        -2.63170405E-05
   85.1715012        -2.54467213E-05
   85.3519974        -2.45724168E-05
   85.5325012        -2.36988726E-05
   85.7129974        -2.28326480E-05
   85.8935013        -2.19805315E-05
   86.0739975        -2.11476345E-05
   86.2545013        -2.03362797E-05
   86.4349976        -1.95460998E-05
   86.6155014        -1.87750175E-05
   86.7959976        -1.80203460E-05
   86.9765015        -1.72793298E-05
   87.1569977        -1.65491620E-05
   87.3375015        -1.58268922E-05
   87.5179977        -1.51097147E-05
   87.6985016        -1.43956995E-05
   87.8789978        -1.36845401E-05
   88.0595016        -1.29775672E-05
   88.2399979        -1.22769470E-05
   88.4205017        -1.15844941E-05
   88.6009979        -1.09009061E-05
   88.7815018        -1.02259201E-05
   88.9619980        -9.55911401E-06
   89.1425018        -8.90060255E-06
   89.3229980        -8.25105781E-06
   89.5035019        -7.61099182E-06
   89.6839981        -6.97976020E-06
   89.8645020        -6.35514243E-06
   90.0449982        -5.73409943E-06
   90.2255020        -5.11429744E-06
   90.4059982        -4.49544450E-06
   90.5865021        -3.87964883E-06
   90.7669983        -3.27082876E-06
   90.9475021        -2.67364999E-06
   91.1279984        -2.09262203E-06
   91.3085022        -1.53164910E-06
   91.4889984        -9.93892172E-07
   91.6695023        -4.81368488E-07
   91.8499985         6.18100371E-09
   92.0305023         4.72668177E-07
   92.2109985         9.26220821E-07
   92.3915024         1.37824100E-06
   92.5719986         1.84126191E-06
   92.7525024         2.32634852E-06
   92.9329987         2.84097814E-06
   93.1135025         3.38818131E-06
   93.2939987         3.96693758E-06
   93.4745026         4.57312035E-06
   93.6549988         5.20015055E-06
   93.8355026         5.83932433E-06
   94.0159988         6.48051628E-06
   94.1965027         7.11375014E-06
   94.3769989         7.73128613E-06
   94.5575027         8.32959540E-06
   94.7379990         8.91038962E-06
   94.9185028         9.47995341E-06
   95.0989990         1.00470224E-05
   95.2795029         1.06203215E-05
   95.4599991         1.12068519E-05
   95.6405029         1.18112639E-05
   95.8209991         1.24359112E-05
   96.0015030         1.30808667E-05
   96.1819992         1.37436136E-05
   96.3625031         1.44186179E-05
   96.5429993         1.50973428E-05
   96.7235031         1.57692339E-05
   96.9039993         1.64235753E-05
   97.0845032         1.70513395E-05
   97.2649994         1.76461654E-05
   97.4455032         1.82043023E-05
   97.6259995         1.87238529E-05
   97.8065033         1.92042080E-05
   97.9869995         1.96461533E-05
   98.1675034         2.00523482E-05
   98.3479996         2.04274711E-05
   98.5285034         2.07774610E-05
   98.7089996         2.11078077E-05
   98.8895035         2.14217162E-05
   99.0699997         2.17191337E-05
   99.2505035         2.19970898E-05
   99.4309998         2.22510680E-05
   99.6115036         2.24766427E-05
   99.7919998         2.26705506E-05
   99.9725037         2.28310382E-05
   100.153000         2.29579418E-05
   100.333504         2.30530040E-05
   100.514000         2.31204649E-05
   100.694504         2.31672911E-05
   100.875000         2.32023667E-05
   101.055496         2.32346974E-05
   101.236000         2.32712009E-05
   101.416496         2.33148767E-05
   101.597000         2.33643350E-05
   101.777496         2.34149684E-05
   101.958000         2.34606632E-05
   102.138496         2.34948293E-05
   102.319000         2.35106017E-05
   102.499496         2.35005882E-05
   102.680000         2.34569070E-05
   102.860497         2.33719493E-05
   103.041000         2.32399616E-05
   103.221497         2.30587575E-05
   103.402000         2.28304143E-05
   103.582497         2.25605108E-05
   103.763000         2.22565304E-05
   103.943497         2.19263165E-05
   104.124001         2.15770579E-05
   104.304497         2.12147406E-05
   104.485001         2.08436668E-05
   104.665497         2.04658045E-05
   104.846001         2.00799604E-05
   105.026497         1.96814417E-05
   105.207001         1.92627558E-05
   105.387497         1.88155009E-05
   105.568001         1.83327193E-05
   105.748497         1.78105875E-05
   105.929001         1.72488817E-05
   106.109497         1.66506325E-05
   106.290001         1.60215477E-05
   106.470497         1.53696092E-05
   106.651001         1.47048795E-05
   106.831497         1.40389848E-05
   107.012001         1.33835838E-05
   107.192497         1.27476324E-05
   107.373001         1.21343310E-05
   107.553497         1.15394141E-05
   107.734001         1.09517359E-05
   107.914497         1.03558741E-05
   108.095001         9.73557599E-06
   108.275497         9.07684625E-06
   108.456001         8.36964500E-06
   108.636497         7.60799549E-06
   108.817001         6.78929018E-06
   108.997498         5.91367279E-06
   109.178001         4.98386044E-06
   109.358498         4.00491399E-06
   109.539001         2.98355235E-06
   109.719498         1.92688913E-06
   109.900002         8.41156748E-07
   110.080498        -2.69174279E-07
   110.261002        -1.40172313E-06
   110.441498        -2.55594750E-06
   110.622002        -3.73274133E-06
   110.802498        -4.93432117E-06
   110.983002        -6.16407442E-06
   111.163498        -7.42583825E-06
   111.344002        -8.72226246E-06
   111.524498        -1.00524858E-05