  -34.5000000         0.00000000    
  -34.3199997         0.00000000    
  -34.1399994         0.00000000    
  -33.9599991        -3.27581597E-22
  -33.7799988        -2.03789293E-21
  -33.5999985        -7.11420482E-21
  -33.4199982        -1.83990608E-20
  -33.2400017        -3.93358664E-20
  -33.0600014        -7.34534833E-20
  -32.8800011        -1.23166870E-19
  -32.7000008        -1.87335910E-19
  -32.5200005        -2.57605498E-19
  -32.3400002        -3.14844793E-19
  -32.1599998        -3.28360046E-19
  -31.9799995        -2.60848847E-19
  -31.7999992        -8.04750253E-20
  -31.6200008         2.21931679E-19
  -31.4400005         6.16355125E-19
  -31.2600002         1.02579536E-18
  -31.0799999         1.33410781E-18
  -30.8999996         1.41174016E-18
  -30.7199993         1.15457860E-18
  -30.5400009         5.24617383E-19
  -30.3600006        -4.21863224E-19
  -30.1800003        -1.53103832E-18
  -30.0000000        -2.57826159E-18
  -29.8199997        -3.31941190E-18
  -29.6399994        -3.55371515E-18
  -29.4599991        -3.18119664E-18
  -29.2800007        -2.24432174E-18
  -29.1000004        -9.52715403E-19
  -28.9200001         2.98877726E-19
  -28.7399998         9.07793189E-19
  -28.5599995         2.86321525E-20
  -28.3799992        -3.47194462E-18
  -28.2000008        -1.10580937E-17
  -28.0200005        -2.45403941E-17
  -27.8400002        -4.60278961E-17
  -27.6599998        -7.77755711E-17
  -27.4799995        -1.21912949E-16
  -27.2999992        -1.80087437E-16
  -27.1200008        -2.53113641E-16
  -26.9400005        -3.40732714E-16
  -26.7600002        -4.41523732E-16
  -26.5799999        -5.52890433E-16
  -26.3999996        -6.70972279E-16
  -26.2199993        -7.90356702E-16
  -26.0400009        -9.03649159E-16
  -25.8600006        -1.00119178E-15
  -25.6800003        -1.07127243E-15
  -25.5000000        -1.10101271E-15
  -25.3199997        -1.07768785E-15
  -25.1399994        -9.89800033E-16
  -24.9599991        -8.27119203E-16
  -24.7800007        -5.79403676E-16
  -24.6000004        -2.34353026E-16
  -24.4200001         2.23680252E-16
  -24.2399998         8.12616516E-16
  -24.0599995         1.54853462E-15
  -23.8799992         2.43977485E-15
  -23.7000008         3.48224985E-15
  -23.5200005         4.65935884E-15
  -23.3400002         5.94785053E-15
  -23.1599998         7.32727376E-15
  -22.9799995         8.78705203E-15
  -22.7999992         1.03244880E-14
  -22.6200008         1.19303134E-14
  -22.4400005         1.35656553E-14
  -22.2600002         1.51413543E-14
  -22.0799999         1.65135172E-14
  -21.8999996         1.75046508E-14
  -21.7199993         1.79487400E-14
  -21.5400009         1.77454046E-14
  -21.3600006         1.68999573E-14
  -21.1800003         1.55276487E-14
  -21.0000000         1.38128839E-14
  -20.8199997         1.19322429E-14
  -20.6399994         9.96712139E-15
  -20.4599991         7.83852929E-15
  -20.2800007         5.29058431E-15
  -20.1000004         1.93121733E-15
  -19.9200001        -2.68288369E-15
  -19.7399998        -8.94676179E-15
  -19.5599995        -1.71266437E-14
  -19.3799992        -2.73194485E-14
  -19.2000008        -3.94516878E-14
  -19.0200005        -5.32945405E-14
  -18.8400002        -6.84620410E-14
  -18.6599998        -8.43717389E-14
  -18.4799995        -1.00175178E-13
  -18.2999992        -1.14704985E-13
  -18.1200008        -1.26503408E-13
  -17.9400005        -1.33988835E-13
  -17.7600002        -1.35768865E-13
  -17.5799999        -1.31037867E-13
  -17.3999996        -1.19940082E-13
  -17.2199993        -1.03753181E-13
  -17.0400009        -8.47891432E-14
  -16.8600006        -6.59922692E-14
  -16.6800003        -5.03213702E-14
  -16.5000000        -4.00799186E-14
  -16.3199997        -3.63798110E-14
  -16.1399994        -3.88757325E-14
  -15.9600000        -4.58132677E-14
  -15.7799997        -5.43347648E-14
  -15.6000004        -6.09222755E-14
  -15.4200001        -6.18521890E-14
  -15.2399998        -5.35800923E-14
  -15.0600004        -3.30489623E-14
  -14.8800001         2.03404459E-15
  -14.6999998         5.28955203E-14
  -14.5200005         1.19358936E-13
  -14.3400002         1.99540037E-13
  -14.1599998         2.89714108E-13
  -13.9799995         3.84516990E-13
  -13.8000002         4.77571108E-13
  -13.6199999         5.62509024E-13
  -13.4399996         6.34184762E-13
  -13.2600002         6.89748172E-13
  -13.0799999         7.29226033E-13
  -12.8999996         7.55363274E-13
  -12.7200003         7.72688825E-13
  -12.5400000         7.86022885E-13
  -12.3599997         7.98830457E-13
  -12.1800003         8.11874277E-13
  -12.0000000         8.22527539E-13
  -11.8199997         8.24886817E-13
  -11.6400003         8.10612374E-13
  -11.4600000         7.70215380E-13
  -11.2799997         6.94507928E-13
  -11.1000004         5.75932585E-13
  -10.9200001         4.09642806E-13
  -10.7399998         1.94285031E-13
  -10.5600004        -6.74928388E-14
  -10.3800001        -3.68808228E-13
  -10.1999998        -6.98607513E-13
  -10.0200005        -1.04211637E-12
  -9.84000015        -1.38174444E-12
  -9.65999985        -1.69845735E-12
  -9.47999954        -1.97353679E-12
  -9.30000019        -2.19049692E-12
  -9.11999989        -2.33688719E-12
  -8.93999958        -2.40565055E-12
  -8.76000023        -2.39580339E-12
  -8.57999992        -2.31234888E-12
  -8.39999962        -2.16549868E-12
  -8.22000027        -1.96942354E-12
  -8.03999996        -1.74081160E-12
  -7.86000013        -1.49745667E-12
  -7.67999983        -1.25698714E-12
  -7.50000000        -1.03570971E-12
  -7.32000017        -8.47477850E-13
  -7.13999987        -7.02492914E-13
  -6.96000004        -6.06053944E-13
  -6.78000021        -5.57411593E-13
  -6.59999990        -5.48990541E-13
  -6.42000008        -5.66292998E-13
  -6.23999977        -5.88742434E-13
  -6.05999994        -5.91572310E-13
  -5.88000011        -5.48671839E-13
  -5.69999981        -4.36037708E-13
  -5.51999998        -2.35316107E-13
  -5.34000015         6.31818274E-14
  -5.15999985         4.58573284E-13
  -4.98000002         9.38976327E-13
  -4.80000019         1.48266989E-12
  -4.61999989         2.06062944E-12
  -4.44000006         2.64000909E-12
  -4.26000023         3.18799587E-12
  -4.07999992         3.67551519E-12
  -3.90000010         4.08033980E-12
  -3.72000003         4.38922336E-12
  -3.53999996         4.59886729E-12
  -3.35999990         4.71552441E-12
  -3.18000007         4.75322472E-12
  -3.00000000         4.73076483E-12
  -2.81999993         4.66784901E-12
  -2.64000010         4.58092592E-12
  -2.46000004         4.47957513E-12
  -2.27999997         4.36407941E-12
  -2.09999990         4.22487609E-12
  -1.91999996         4.04406847E-12
  -1.74000001         3.79889089E-12
  -1.55999994         3.46654346E-12
  -1.38000000         3.02952650E-12
  -1.20000005         2.48041258E-12
  -1.01999998         1.82508522E-12
 -0.839999974         1.08371092E-12
 -0.660000026         2.89084566E-13
 -0.479999989        -5.17480915E-13
 -0.300000012        -1.29209057E-12
 -0.119999997        -1.99512412E-12
   5.99999987E-02    -2.59780674E-12
  0.239999995        -3.08734917E-12
  0.419999987        -3.46969654E-12
  0.600000024        -3.76918592E-12
  0.779999971        -4.02502988E-12
  0.959999979        -4.28498643E-12
   1.13999999        -4.59730778E-12
   1.32000005        -5.00241081E-12
   1.50000000        -5.52581201E-12
   1.67999995        -6.17374945E-12
   1.86000001        -6.93213022E-12
   2.03999996        -7.76878215E-12
   2.22000003        -8.63812667E-12
   2.40000010        -9.48698758E-12
   2.57999992        -1.02601374E-11
   2.75999999        -1.09046452E-11
   2.94000006        -1.13725617E-11
   3.11999989        -1.16223047E-11
   3.29999995        -1.16192698E-11
   3.48000002        -1.13365975E-11
   3.66000009        -1.07565016E-11
   3.83999991        -9.87226793E-12
   4.01999998        -8.69047716E-12
   4.19999981        -7.23261468E-12
   4.38000011        -5.53515090E-12
   4.55999994        -3.64751632E-12
   4.73999977        -1.62773972E-12
   4.92000008         4.63635478E-13
   5.09999990         2.57035018E-12
   5.28000021         4.64670576E-12
   5.46000004         6.66197913E-12
   5.63999987         8.60215024E-12
   5.82000017         1.04685453E-11
   6.00000000         1.22734834E-11
   6.17999983         1.40333786E-11
   6.36000013         1.57603340E-11
   6.53999996         1.74533738E-11
   6.71999979         1.90908938E-11
   6.90000010         2.06259315E-11
   7.07999992         2.19857951E-11
   7.26000023         2.30768581E-11
   7.44000006         2.37943432E-11
   7.61999989         2.40359104E-11
   7.80000019         2.37163553E-11
   7.98000002         2.27806940E-11
   8.15999985         2.12124710E-11
   8.34000015         1.90356203E-11
   8.52000046         1.63092196E-11
   8.69999981         1.31165226E-11
   8.88000011         9.55108562E-12
   9.06000042         5.70343295E-12
   9.23999977         1.65159488E-12
   9.42000008        -2.54228778E-12
   9.60000038        -6.82893455E-12
   9.77999973        -1.11640506E-11
   9.96000004        -1.54986978E-11
   10.1400003        -1.97712437E-11
   10.3199997        -2.39036898E-11
   10.5000000        -2.78037211E-11
   10.6800003        -3.13715581E-11
   10.8599997        -3.45095098E-11
   11.0400000        -3.71312772E-11
   11.2200003        -3.91681826E-11
   11.3999996        -4.05711610E-11
   11.5799999        -4.13084636E-11
   11.7600002        -4.13608973E-11
   11.9399996        -4.07169576E-11
   12.1199999        -3.93706560E-11
   12.3000002        -3.73232695E-11
   12.4799995        -3.45895639E-11
   12.6599998        -3.12066692E-11
   12.8400002        -2.72429457E-11
   13.0200005        -2.28036669E-11
   13.1999998        -1.80306794E-11
   13.3800001        -1.30950520E-11
   13.5600004        -8.18338539E-12
   13.7399998        -3.48068384E-12
   13.9200001         8.46838821E-13
   14.1000004         4.66473214E-12
   14.2799997         7.87666113E-12
   14.4600000         1.04228553E-11
   14.6400003         1.22719612E-11
   14.8199997         1.34089640E-11
   15.0000000         1.38227945E-11
   15.1800003         1.34972025E-11
   15.3599997         1.24076452E-11
   15.5400000         1.05247122E-11
   15.7200003         7.82336088E-12
   15.8999996         4.29507862E-12
   16.0799999        -4.03373759E-14
   16.2600002        -5.12661571E-12
   16.4400005        -1.08688024E-11
   16.6200008        -1.71370591E-11
   16.7999992        -2.37756967E-11
   16.9799995        -3.06147781E-11
   17.1599998        -3.74819412E-11
   17.3400002        -4.42125399E-11
   17.5200005        -5.06570376E-11
   17.7000008        -5.66860205E-11
   17.8799992        -6.21938820E-11
   18.0599995        -6.71018865E-11
   18.2399998        -7.13617151E-11
   18.4200001        -7.49585255E-11
   18.6000004        -7.79131551E-11
   18.7800007        -8.02811637E-11
   18.9599991        -8.21476914E-11
   19.1399994        -8.36172936E-11
   19.3199997        -8.47989526E-11
   19.5000000        -8.57883972E-11
   19.6800003        -8.66511168E-11
   19.8600006        -8.74088787E-11
   20.0400009        -8.80335041E-11
   20.2199993        -8.84488593E-11
   20.3999996        -8.85412993E-11
   20.5799999        -8.81756820E-11
   20.7600002        -8.72148465E-11
   20.9400005        -8.55372370E-11
   21.1200008        -8.30511424E-11
   21.2999992        -7.97021615E-11
   21.4799995        -7.54745155E-11
   21.6599998        -7.03863426E-11
   21.8400002        -6.44810871E-11
   22.0200005        -5.78173030E-11
   22.2000008        -5.04596191E-11
   22.3799992        -4.24720745E-11
   22.5599995        -3.39166195E-11
   22.7399998        -2.48546253E-11
   22.9200001        -1.53535760E-11
   23.1000004        -5.49514254E-12
   23.2800007         4.61629042E-12
   23.4599991         1.48458502E-11
   23.6399994         2.50248728E-11
   23.8199997         3.49518227E-11
   24.0000000         4.43991198E-11
   24.1800003         5.31255769E-11
   24.3600006         6.08928394E-11
   24.5400009         6.74832759E-11
   24.7199993         7.27160693E-11
   24.8999996         7.64581662E-11
   25.0799999         7.86278959E-11
   25.2600002         7.91911814E-11
   25.4400005         7.81508469E-11
   25.6200008         7.55338986E-11
   25.7999992         7.13774387E-11
   25.9799995         6.57209148E-11
   26.1599998         5.86028517E-11
   26.3400002         5.00646156E-11
   26.5200005         4.01598338E-11
   26.7000008         2.89651862E-11
   26.8799992         1.65920073E-11
   27.0599995         3.19335292E-12
   27.2399998        -1.10327650E-11
   27.4200001        -2.58460840E-11
   27.6000004        -4.09696686E-11
   27.7800007        -5.60974461E-11
   27.9599991        -7.09027975E-11
   28.1399994        -8.50451931E-11
   28.3199997        -9.81769457E-11
   28.5000000        -1.09949085E-10
   28.6800003        -1.20018398E-10
   28.8600006        -1.28054831E-10
   29.0400009        -1.33750372E-10
   29.2199993        -1.36827785E-10
   29.3999996        -1.37048040E-10
   29.5799999        -1.34217040E-10
   29.7600002        -1.28190583E-10
   29.9400005        -1.18878060E-10
   30.1200008        -1.06246546E-10
   30.2999992        -9.03252473E-11
   30.4799995        -7.12096215E-11
   30.6599998        -4.90658694E-11
   30.8400002        -2.41316411E-11
   31.0200005         3.28619618E-12
   31.2000008         3.28219223E-11
   31.3799992         6.40672099E-11
   31.5599995         9.65946351E-11
   31.7399998         1.29984579E-10
   31.9200001         1.63852446E-10
   32.0999985         1.97871261E-10
   32.2799988         2.31785868E-10
   32.4599991         2.65415551E-10
   32.6399994         2.98646607E-10
   32.8199997         3.31414757E-10
   33.0000000         3.63684527E-10
   33.1800003         3.95427968E-10
   33.3600006         4.26608193E-10
   33.5400009         4.57171412E-10
   33.7200012         4.87047513E-10
   33.9000015         5.16157062E-10
   34.0800018         5.44423229E-10
   34.2599983         5.71780401E-10
   34.4399986         5.98179783E-10
   34.6199989         6.23586405E-10
   34.7999992         6.47967624E-10
   34.9799995         6.71278588E-10
   35.1599998         6.93444802E-10
   35.3400002         7.14350690E-10
   35.5200005         7.33835714E-10
   35.7000008         7.51700313E-10
   35.8800011         7.67719499E-10
   36.0600014         7.81663068E-10
   36.2400017         7.93312749E-10
   36.4199982         8.02476863E-10
   36.5999985         8.08996925E-10
   36.7799988         8.12745093E-10
   36.9599991         8.13617007E-10
   37.1399994         8.11521572E-10
   37.3199997         8.06373635E-10
   37.5000000         7.98093092E-10
   37.6800003         7.86609444E-10
   37.8600006         7.71875008E-10
   38.0400009         7.53879015E-10
   38.2200012         7.32660210E-10
   38.4000015         7.08313852E-10
   38.5800018         6.80990708E-10
   38.7599983         6.50887677E-10
   38.9399986         6.18234963E-10
   39.1199989         5.83281534E-10
   39.2999992         5.46284518E-10
   39.4799995         5.07505593E-10
   39.6599998         4.67212435E-10
   39.8400002         4.25687596E-10
   40.0200005         3.83238052E-10
   40.2000008         3.40203310E-10
   40.3800011         2.96957320E-10
   40.5600014         2.53903787E-10
   40.7400017         2.11462028E-10
   40.9199982         1.70047518E-10
   41.0999985         1.30049374E-10
   41.2799988         9.18087065E-11
   41.4599991         5.56021409E-11
   41.6399994         2.16318092E-11
   41.8199997        -9.97619262E-12
   42.0000000        -3.91658511E-11
   42.1800003        -6.59391292E-11
   42.3600006        -9.03393194E-11
   42.5400009        -1.12431939E-10
   42.7200012        -1.32285849E-10
   42.9000015        -1.49955784E-10
   43.0800018        -1.65469916E-10
   43.2599983        -1.78822124E-10
   43.4399986        -1.89971192E-10
   43.6199989        -1.98844857E-10
   43.7999992        -2.05348238E-10
   43.9799995        -2.09373824E-10
   44.1599998        -2.10811493E-10
   44.3400002        -2.09556497E-10
   44.5200005        -2.05515438E-10
   44.7000008        -1.98609046E-10
   44.8800011        -1.88773344E-10
   45.0600014        -1.75960010E-10
   45.2400017        -1.60136807E-10
   45.4199982        -1.41289688E-10
   45.5999985        -1.19426094E-10
   45.7799988        -9.45804754E-11
   45.9599991        -6.68204728E-11
   46.1399994        -3.62533198E-11
   46.3199997        -3.03208955E-12
   46.5000000         3.26405118E-11
   46.6800003         7.05078565E-11
   46.8600006         1.10258948E-10
   47.0400009         1.51529331E-10
   47.2200012         1.93906322E-10
   47.4000015         2.36939468E-10
   47.5800018         2.80156370E-10
   47.7599983         3.23082588E-10
   47.9399986         3.65264735E-10
   48.1199989         4.06291722E-10
   48.2999992         4.45812165E-10
   48.4799995         4.83543261E-10
   48.6599998         5.19270349E-10
   48.8400002         5.52837220E-10
   49.0200005         5.84127968E-10
   49.2000008         6.13045725E-10
   49.3800011         6.39490572E-10
   49.5600014         6.63343436E-10
   49.7400017         6.84457990E-10
   49.9199982         7.02663205E-10
   50.0999985         7.17776338E-10
   50.2799988         7.29622252E-10
   50.4599991         7.38053840E-10
   50.6399994         7.42970185E-10
   50.8199997         7.44325046E-10
   51.0000000         7.42126360E-10
   51.1800003         7.36425310E-10
   51.3600006         7.27298333E-10
   51.5400009         7.14826198E-10
   51.7200012         6.99074965E-10
   51.9000015         6.80082601E-10
   52.0800018         6.57852994E-10
   52.2599983         6.32357944E-10
   52.4399986         6.03546324E-10
   52.6199989         5.71353576E-10
   52.7999992         5.35712918E-10
   52.9799995         4.96561459E-10
   53.1599998         4.53841659E-10
   53.3400002         4.07499312E-10
   53.5200005         3.57479074E-10
   53.7000008         3.03719938E-10
   53.8800011         2.46153958E-10
   54.0600014         1.84705681E-10
   54.2400017         1.19296698E-10
   54.4199982         4.98501171E-11
   54.5999985        -2.37041012E-11
   54.7799988        -1.01424515E-10
   54.9599991        -1.83354151E-10
   55.1399994        -2.69516326E-10
   55.3199997        -3.59911823E-10
   55.5000000        -4.54514149E-10
   55.6800003        -5.53264434E-10
   55.8600006        -6.56062926E-10
   56.0400009        -7.62760022E-10
   56.2200012        -8.73143335E-10
   56.4000015        -9.86928317E-10
   56.5800018        -1.10374676E-09
   56.7599983        -1.22314259E-09
   56.9399986        -1.34456923E-09
   57.1199989        -1.46739454E-09
   57.2999992        -1.59090918E-09
   57.4799995        -1.71434067E-09
   57.6599998        -1.83687199E-09
   57.8400002        -1.95766248E-09
   58.0200005        -2.07587370E-09
   58.2000008        -2.19069851E-09
   58.3800011        -2.30138619E-09
   58.5600014        -2.40727305E-09
   58.7400017        -2.50779619E-09
   58.9199982        -2.60250554E-09
   59.0999985        -2.69105827E-09
   59.2799988        -2.77320056E-09
   59.4599991        -2.84874302E-09
   59.6399994        -2.91752311E-09
   59.8199997        -2.97937808E-09
   60.0000000        -3.03412251E-09
   60.1800003        -3.08154324E-09
   60.3600006        -3.12140891E-09
   60.5400009        -3.15349835E-09
   60.7200012        -3.17763149E-09
   60.9000015        -3.19370175E-09
   61.0800018        -3.20169735E-09
   61.2599983        -3.20170668E-09
   61.4399986        -3.19390780E-09
   61.6199989        -3.17854498E-09
   61.7999992        -3.15589577E-09
   61.9799995        -3.12624326E-09
   62.1599998        -3.08985060E-09
   62.3400002        -3.04694892E-09
   62.5200005        -2.99773784E-09
   62.7000008        -2.94239166E-09
   62.8800011        -2.88107893E-09
   63.0600014        -2.81397572E-09
   63.2400017        -2.74128209E-09
   63.4199982        -2.66323275E-09
   63.5999985        -2.58009636E-09
   63.7799988        -2.49217469E-09
   63.9599991        -2.39979592E-09
   64.1399994        -2.30330466E-09
   64.3199997        -2.20305152E-09
   64.5000000        -2.09939266E-09
   64.6800003        -1.99268579E-09
   64.8600006        -1.88329663E-09
   65.0400009        -1.77160686E-09
   65.2200012        -1.65802383E-09
   65.4000015        -1.54299129E-09
   65.5800018        -1.42699275E-09
   65.7600021        -1.31055111E-09
   65.9400024        -1.19421673E-09
   66.1200027        -1.07855269E-09
   66.3000031        -9.64114455E-10
   66.4800034        -8.51435922E-10
   66.6600037        -7.41013917E-10
   66.8399963        -6.33302355E-10
   67.0199966        -5.28711352E-10
   67.1999969        -4.27608338E-10
   67.3799973        -3.30315525E-10
   67.5599976        -2.37109804E-10
   67.7399979        -1.48206489E-10
   67.9199982        -6.37480416E-11
   68.0999985         1.62208649E-11
   68.2799988         9.17653939E-11
   68.4599991         1.63078787E-10
   68.6399994         2.30476055E-10
   68.8199997         2.94387265E-10
   69.0000000         3.55323299E-10
   69.1800003         4.13840545E-10
   69.3600006         4.70492922E-10
   69.5400009         5.25787858E-10
   69.7200012         5.80148540E-10
   69.9000015         6.33890274E-10
   70.0800018         6.87211898E-10
   70.2600021         7.40205841E-10
   70.4400024         7.92876598E-10
   70.6200027         8.45174541E-10
   70.8000031         8.97026731E-10
   70.9800034         9.48362944E-10
   71.1600037         9.99138550E-10
   71.3399963         1.04933884E-09
   71.5199966         1.09897824E-09
   71.6999969         1.14808318E-09
   71.8799973         1.19667820E-09
   72.0599976         1.24476340E-09
   72.2399979         1.29229694E-09
   72.4199982         1.33917943E-09
   72.5999985         1.38524603E-09
   72.7799988         1.43025947E-09
   72.9599991         1.47391355E-09
   73.1399994         1.51584190E-09
   73.3199997         1.55563562E-09
   73.5000000         1.59286573E-09
   73.6800003         1.62711200E-09
   73.8600006         1.65799641E-09
   74.0400009         1.68520797E-09
   74.2200012         1.70852266E-09
   74.4000015         1.72781323E-09
   74.5800018         1.74304182E-09
   74.7600021         1.75423898E-09
   74.9400024         1.76147252E-09
   75.1200027         1.76481307E-09
   75.3000031         1.76430315E-09
   75.4800034         1.75993731E-09
   75.6600037         1.75165871E-09
   75.8399963         1.73937342E-09
   76.0199966         1.72297665E-09
   76.1999969         1.70238579E-09
   76.3799973         1.67757164E-09
   76.5599976         1.64857683E-09
   76.7399979         1.61552427E-09
   76.9199982         1.57860558E-09
   77.0999985         1.53806268E-09
   77.2799988         1.49416124E-09
   77.4599991         1.44716750E-09
   77.6399994         1.39732992E-09
   77.8199997         1.34487332E-09
   78.0000000         1.29000000E-09
   78.1800003         1.23289590E-09
   78.3600006         1.17374221E-09
   78.5400009         1.11271992E-09
   78.7200012         1.05001585E-09
   78.9000015         9.85822979E-10
   79.0800018         9.20343024E-10
   79.2600021         8.53790649E-10
   79.4400024         7.86403997E-10
   79.6200027         7.18452742E-10
   79.8000031         6.50249077E-10
   79.9800034         5.82152049E-10
   80.1600037         5.14564280E-10
   80.3399963         4.47919535E-10
   80.5199966         3.82665954E-10
   80.6999969         3.19243854E-10
   80.8799973         2.58066318E-10
   81.0599976         1.99503289E-10
   81.2399979         1.43873441E-10
   81.4199982         9.14396336E-11
   81.5999985         4.24113557E-11
   81.7799988        -3.05083758E-12
   81.9599991        -4.48308994E-11
   82.1399994        -8.28527108E-11
   82.3199997        -1.17079055E-10
   82.5000000        -1.47507978E-10
   82.6800003        -1.74173911E-10
   82.8600006        -1.97145425E-10
   83.0400009        -2.16523230E-10
   83.2200012        -2.32437042E-10
   83.4000015        -2.45042431E-10
   83.5800018        -2.54517879E-10
   83.7600021        -2.61058786E-10
   83.9400024        -2.64873012E-10
   84.1200027        -2.66173916E-10
   84.3000031        -2.65172079E-10
   84.4800034        -2.62067673E-10
   84.6600037        -2.57045274E-10
   84.8399963        -2.50269472E-10
   85.0199966        -2.41886622E-10
   85.1999969        -2.32025649E-10
   85.3799973        -2.20801405E-10
   85.5599976        -2.08315531E-10
   85.7399979        -1.94654057E-10
   85.9199982        -1.79883261E-10
   86.0999985        -1.64043265E-10
   86.2799988        -1.47144075E-10
   86.4599991        -1.29162292E-10
   86.6399994        -1.10046174E-10
   86.8199997        -8.97249289E-11
   87.0000000        -6.81249571E-11
   87.1800003        -4.51920862E-11
   87.3600006        -2.09139043E-11
   87.5400009         4.65836484E-12
   87.7200012         3.13946924E-11
   87.9000015         5.90800048E-11
   88.0800018         8.74185516E-11
   88.2600021         1.16045347E-10
   88.4400024         1.44545431E-10
   88.6200027         1.72472564E-10
   88.8000031         1.99366884E-10
   88.9800034         2.24768204E-10
   89.1600037         2.48224025E-10
   89.3399963         2.69295419E-10
   89.5199966         2.87563390E-10
   89.6999969         3.02638137E-10
   89.8799973         3.14175436E-10
   90.0599976         3.21897731E-10
   90.2399979         3.25620614E-10
   90.4199982         3.25275307E-10
   90.5999985         3.20924287E-10
   90.7799988         3.12760651E-10
   90.9599991         3.01092096E-10
   91.1399994         2.86307089E-10
   91.3199997         2.68832595E-10
   91.5000000         2.49090526E-10
   91.6800003         2.27462771E-10
   91.8600006         2.04272974E-10
   92.0400009         1.79787726E-10
   92.2200012         1.54234972E-10
   92.4000015         1.27831884E-10
   92.5800018         1.00815439E-10
   92.7600021         7.34627498E-11
   92.9400024         4.60926818E-11
   93.1200027         1.90491633E-11
   93.3000031        -7.33516720E-12
   93.4800034        -3.27855069E-11
   93.6600037        -5.71294817E-11
   93.8399963        -8.03285147E-11
   94.0199966        -1.02485714E-10
   94.1999969        -1.23828295E-10
   94.3799973        -1.44665294E-10
   94.5599976        -1.65333858E-10
   94.7399979        -1.86143490E-10
   94.9199982        -2.07331777E-10
   95.0999985        -2.29039857E-10
   95.2799988        -2.51310778E-10
   95.4599991        -2.74105905E-10
   95.6399994        -2.97332742E-10
   95.8199997        -3.20873467E-10
   96.0000000        -3.44604317E-10
   96.1800003        -3.68405251E-10
   96.3600006        -3.92154226E-10
   96.5400009        -4.15716017E-10
   96.7200012        -4.38929199E-10
   96.9000015        -4.61601007E-10
   97.0800018        -4.83509843E-10
   97.2600021        -5.04420672E-10
   97.4400024        -5.24105648E-10
   97.6200027        -5.42365375E-10
   97.8000031        -5.59047864E-10
   97.9800034        -5.74058412E-10
   98.1600037        -5.87363769E-10
   98.3399963        -5.98987304E-10
   98.5199966        -6.09002737E-10
   98.6999969        -6.17521145E-10
   98.8799973        -6.24678309E-10
   99.0599976        -6.30618280E-10
   99.2399979        -6.35476116E-10
   99.4199982        -6.39360509E-10
   99.5999985        -6.42337739E-10
   99.7799988        -6.44421627E-10
   99.9599991        -6.45570986E-10
   100.139999        -6.45697107E-10
   100.320000        -6.44679365E-10
   100.500000        -6.42389197E-10
   100.680000        -6.38715747E-10
   100.860001        -6.33588626E-10
   101.040001        -6.26995234E-10
   101.220001        -6.18986862E-10
   101.400002        -6.09672923E-10
   101.580002        -5.99207184E-10
   101.760002        -5.87769666E-10
   101.940002        -5.75545667E-10
   102.120003        -5.62713098E-10
   102.300003        -5.49437329E-10
   102.480003        -5.35871625E-10
   102.660004        -5.22171473E-10
   102.839996        -5.08504849E-10
   103.019997        -4.95067431E-10
   103.199997        -4.82086093E-10
   103.379997        -4.69815076E-10
   103.559998        -4.58511257E-10
   103.739998        -4.48408310E-10
   103.919998        -4.39678682E-10
   104.099998        -4.32401975E-10
   104.279999        -4.26547409E-10
   104.459999        -4.21975510E-10
   104.639999        -4.18460711E-10
   104.820000        -4.15731422E-10
   105.000000        -4.13513918E-10
   105.180000        -4.11571832E-10
   105.360001        -4.09730194E-10
   105.540001        -4.07874817E-10
   105.720001        -4.05930456E-10
   105.900002        -4.03824668E-10
   106.080002        -4.01446099E-10
   106.260002        -3.98610339E-10
   106.440002        -3.95048161E-10
   106.620003        -3.90416449E-10
   106.800003        -3.84331900E-10
   106.980003        -3.76420728E-10
   107.160004        -3.66370351E-10
   107.339996        -3.53973378E-10
   107.519997        -3.39149903E-10
   107.699997        -3.21947857E-10
   107.879997        -3.02521563E-10
   108.059998        -2.81098866E-10
   108.239998        -2.57943999E-10
   108.419998        -2.33328218E-10
   108.599998        -2.07517503E-10
   108.779999        -1.80773854E-10
   108.959999        -1.53371718E-10
   109.139999        -1.25621180E-10
   109.320000        -9.78851236E-11
   109.500000        -7.05876121E-11
   109.680000        -4.42012781E-11
   109.860001        -1.92143454E-11
   110.040001         3.91238040E-12
   110.220001         2.47983994E-11
   110.400002         4.31857675E-11
   110.580002         5.89676363E-11
   110.760002         7.21937649E-11
   110.940002         8.30510868E-11
   111.120003         9.18302517E-11