  -34.5000000       0.00000000    
  -34.3199997       0.00000000    
  -34.1399994       0.00000000    
  -33.9599991       0.00000000    
  -33.7799988       3.41942754E-25
  -33.5999985      -1.11504907E-24
  -33.4199982      -1.12553633E-23
  -33.2400017       4.30071157E-23
  -33.0600014       3.78642102E-22
  -32.8800011       8.46181735E-22
  -32.7000008       1.72053261E-23
  -32.5200005      -3.90279040E-21
  -32.3400002      -8.50176314E-21
  -32.1599998      -3.03323132E-21
  -31.9799995       2.52401627E-20
  -31.7999992       7.01292577E-20
  -31.6200008       8.67134082E-20
  -31.4400005       4.02630890E-21
  -31.2600002      -2.11417025E-19
  -31.0799999      -4.71495637E-19
  -30.8999996      -5.45879492E-19
  -30.7199993      -1.77979528E-19
  -30.5400009       7.12552663E-19
  -30.3600006       1.91959111E-18
  -30.1800003       3.00845320E-18
  -30.0000000       3.28518792E-18
  -29.8199997       1.41389951E-18
  -29.6399994      -4.71252446E-18
  -29.4599991      -1.62187172E-17
  -29.2800007      -2.89125962E-17
  -29.1000004      -2.95987292E-17
  -28.9200001      -7.83240003E-20
  -28.7399998       6.66920325E-17
  -28.5599995       1.45447283E-16
  -28.3799992       1.72732425E-16
  -28.2000008       7.59468005E-17
  -28.0200005      -1.66020178E-16
  -27.8400002      -4.67626614E-16
  -27.6599998      -6.39596749E-16
  -27.4799995      -4.76886431E-16
  -27.2999992       1.00434907E-16
  -27.1200008       9.37687178E-16
  -26.9400005       1.65300460E-15
  -26.7600002       1.78694666E-15
  -26.5799999       1.03387116E-15
  -26.3999996      -5.59817786E-16
  -26.2199993      -2.53446255E-15
  -26.0400009      -4.13234341E-15
  -25.8600006      -4.55322730E-15
  -25.6800003      -3.26376914E-15
  -25.5000000      -2.57007240E-16
  -25.3199997       3.83505898E-15
  -25.1399994       7.84423999E-15
  -24.9599991       1.03911469E-14
  -24.7800007       1.03466082E-14
  -24.6000004       7.25632882E-15
  -24.4200001       1.53592230E-15
  -24.2399998      -5.67061707E-15
  -24.0599995      -1.29115536E-14
  -23.8799992      -1.89166140E-14
  -23.7000008      -2.28968879E-14
  -23.5200005      -2.44940668E-14
  -23.3400002      -2.34149604E-14
  -23.1599998      -1.89889523E-14
  -22.9799995      -9.99053508E-15
  -22.7999992       4.99051526E-15
  -22.6200008       2.65825705E-14
  -22.4400005       5.33639363E-14
  -22.2600002       8.08977587E-14
  -22.0799999       1.01764720E-13
  -21.8999996       1.07022762E-13
  -21.7199993       8.89322321E-14
  -21.5400009       4.41095897E-14
  -21.3600006      -2.41304847E-14
  -21.1800003      -1.05347941E-13
  -21.0000000      -1.83898795E-13
  -20.8199997      -2.42730640E-13
  -20.6399994      -2.67854261E-13
  -20.4599991      -2.52066976E-13
  -20.2800007      -1.96812103E-13
  -20.1000004      -1.11723605E-13
  -19.9200001      -1.21363762E-14
  -19.7399998       8.46005191E-14
  -19.5599995       1.62931233E-13
  -19.3799992       2.12064727E-13
  -19.2000008       2.27555388E-13
  -19.0200005       2.11459105E-13
  -18.8400002       1.71425238E-13
  -18.6599998       1.19186602E-13
  -18.4799995       6.87074638E-14
  -18.2999992       3.39673493E-14
  -18.1200008       2.62757972E-14
  -17.9400005       5.12947364E-14
  -17.7600002       1.06431953E-13
  -17.5799999       1.79677182E-13
  -17.3999996       2.50865951E-13
  -17.2199993       2.95694730E-13
  -17.0400009       2.91807648E-13
  -16.8600006       2.25296520E-13
  -16.6800003       9.55321027E-14
  -16.5000000      -8.34338498E-14
  -16.3199997      -2.85615254E-13
  -16.1399994      -4.79290002E-13
  -15.9600000      -6.34710600E-13
  -15.7799997      -7.30823713E-13
  -15.6000004      -7.58908453E-13
  -15.4200001      -7.22249788E-13
  -15.2399998      -6.32546045E-13
  -15.0600004      -5.04890997E-13
  -14.8800001      -3.53460804E-13
  -14.6999998      -1.89369272E-13
  -14.5200005      -2.08715982E-14
  -14.3400002       1.45033833E-13
  -14.1599998       3.01093108E-13
  -13.9799995       4.39510082E-13
  -13.8000002       5.53099775E-13
  -13.6199999       6.37127124E-13
  -13.4399996       6.90600951E-13
  -13.2600002       7.16099760E-13
  -13.0799999       7.18101956E-13
  -12.8999996       7.00769575E-13
  -12.7200003       6.66577687E-13
  -12.5400000       6.16774860E-13
  -12.3599997       5.53510363E-13
  -12.1800003       4.82258059E-13
  -12.0000000       4.12594682E-13
  -11.8199997       3.55937962E-13
  -11.6400003       3.20418171E-13
  -11.4600000       3.04841195E-13
  -11.2799997       2.94832301E-13
  -11.1000004       2.63897980E-13
  -10.9200001       1.80322256E-13
  -10.7399998       1.82165464E-14
  -10.5600004      -2.31167624E-13
  -10.3800001      -5.52435593E-13
  -10.1999998      -9.06660380E-13
  -10.0200005      -1.24017289E-12
  -9.84000015      -1.49896805E-12
  -9.65999985      -1.64403419E-12
  -9.47999954      -1.66260864E-12
  -9.30000019      -1.57179228E-12
  -9.11999989      -1.41364806E-12
  -8.93999958      -1.24349728E-12
  -8.76000023      -1.11505390E-12
  -8.57999992      -1.06649813E-12
  -8.39999962      -1.11093730E-12
  -8.22000027      -1.23309761E-12
  -8.03999996      -1.39239163E-12
  -7.86000013      -1.53109296E-12
  -7.67999983      -1.58573122E-12
  -7.50000000      -1.49974564E-12
  -7.32000017      -1.23563941E-12
  -7.13999987      -7.84875799E-13
  -6.96000004      -1.73413259E-13
  -6.78000021       5.39301730E-13
  -6.59999990       1.26951401E-12
  -6.42000008       1.92627424E-12
  -6.23999977       2.43347183E-12
  -6.05999994       2.75119966E-12
  -5.88000011       2.88958853E-12
  -5.69999981       2.90950250E-12
  -5.51999998       2.90802387E-12
  -5.34000015       2.99162843E-12
  -5.15999985       3.24436094E-12
  -4.98000002       3.70066391E-12
  -4.80000019       4.33147528E-12
  -4.61999989       5.04816544E-12
  -4.44000006       5.72305875E-12
  -4.26000023       6.22011080E-12
  -4.07999992       6.42627835E-12
  -3.90000010       6.27488079E-12
  -3.72000003       5.75552323E-12
  -3.53999996       4.90994224E-12
  -3.35999990       3.81705691E-12
  -3.18000007       2.57259036E-12
  -3.00000000       1.26861857E-12
  -2.81999993      -2.30280730E-14
  -2.64000010      -1.26126518E-12
  -2.46000004      -2.43936772E-12
  -2.27999997      -3.58167272E-12
  -2.09999990      -4.73401093E-12
  -1.91999996      -5.94925975E-12
  -1.74000001      -7.27028377E-12
  -1.55999994      -8.71353423E-12
  -1.38000000      -1.02573497E-11
  -1.20000005      -1.18386984E-11
  -1.01999998      -1.33605548E-11
 -0.839999974      -1.47094038E-11
 -0.660000026      -1.57792338E-11
 -0.479999989      -1.64957839E-11
 -0.300000012      -1.68342874E-11
 -0.119999997      -1.68253588E-11
   5.99999987E-02  -1.65470693E-11
  0.239999995      -1.61053809E-11
  0.419999987      -1.56082005E-11
  0.600000024      -1.51399188E-11
  0.779999971      -1.47427487E-11
  0.959999979      -1.44086167E-11
   1.13999999      -1.40823846E-11
   1.32000005      -1.36743724E-11
   1.50000000      -1.30784506E-11
   1.67999995      -1.21919775E-11
   1.86000001      -1.09345163E-11
   2.03999996      -9.26326810E-12
   2.22000003      -7.18351030E-12
   2.40000010      -4.75208501E-12
   2.57999992      -2.07166337E-12
   2.75999999       7.25758212E-13
   2.94000006       3.50509682E-12
   3.11999989       6.15991329E-12
   3.29999995       8.64173576E-12
   3.48000002       1.09778801E-11
   3.66000009       1.32703015E-11
   3.83999991       1.56730497E-11
   4.01999998       1.83523821E-11
   4.19999981       2.14397423E-11
   4.38000011       2.49905235E-11
   4.55999994       2.89607834E-11
   4.73999977       3.32082938E-11
   4.92000008       3.75174718E-11
   5.09999990       4.16407291E-11
   5.28000021       4.53449188E-11
   5.46000004       4.84510071E-11
   5.63999987       5.08585951E-11
   5.82000017       5.25514840E-11
   6.00000000       5.35855076E-11
   6.17999983       5.40637465E-11
   6.36000013       5.41058101E-11
   6.53999996       5.38180958E-11
   6.71999979       5.32706969E-11
   6.90000010       5.24844647E-11
   7.07999992       5.14293573E-11
   7.26000023       5.00331304E-11
   7.44000006       4.81976785E-11
   7.61999989       4.58189459E-11
   7.80000019       4.28062030E-11
   7.98000002       3.90972844E-11
   8.15999985       3.46668388E-11
   8.34000015       2.95281577E-11
   8.52000046       2.37296970E-11
   8.69999981       1.73492401E-11
   8.88000011       1.04880497E-11
   9.06000042       3.26586002E-12
   9.23999977      -4.18438244E-12
   9.42000008      -1.17248546E-11
   9.60000038      -1.92264000E-11
   9.77999973      -2.65873139E-11
   9.96000004      -3.37543708E-11
   10.1400003      -4.07396478E-11
   10.3199997      -4.76259240E-11
   10.5000000      -5.45546767E-11
   10.6800003      -6.16959955E-11
   10.8599997      -6.92052110E-11
   11.0400000      -7.71771883E-11
   11.2200003      -8.56106644E-11
   11.3999996      -9.43940134E-11
   11.5799999      -1.03317237E-10
   11.7600002      -1.12108073E-10
   11.9399996      -1.20483470E-10
   12.1199999      -1.28204738E-10
   12.3000002      -1.35123052E-10
   12.4799995      -1.41206824E-10
   12.6599998      -1.46544901E-10
   12.8400002      -1.51325980E-10
   13.0200005      -1.55798624E-10
   13.1999998      -1.60219629E-10
   13.3800001      -1.64800507E-10
   13.5600004      -1.69663908E-10
   13.7399998      -1.74818382E-10
   13.9200001      -1.80157875E-10
   14.1000004      -1.85487944E-10
   14.2799997      -1.90573071E-10
   14.4600000      -1.95195943E-10
   14.6400003      -1.99214853E-10
   14.8199997      -2.02605668E-10
   15.0000000      -2.05477704E-10
   15.1800003      -2.08059431E-10
   15.3599997      -2.10657339E-10
   15.5400000      -2.13597709E-10
   15.7200003      -2.17165355E-10
   15.8999996      -2.21551277E-10
   16.0799999      -2.26820243E-10
   16.2600002      -2.32900671E-10
   16.4400005      -2.39597342E-10
   16.6200008      -2.46620974E-10
   16.7999992      -2.53629562E-10
   16.9799995      -2.60274163E-10
   17.1599998      -2.66245470E-10
   17.3400002      -2.71314304E-10
   17.5200005      -2.75361123E-10
   17.7000008      -2.78387091E-10
   17.8799992      -2.80501511E-10
   18.0599995      -2.81884655E-10
   18.2399998      -2.82731588E-10
   18.4200001      -2.83188833E-10
   18.6000004      -2.83302048E-10
   18.7800007      -2.82988716E-10
   18.9599991      -2.82048468E-10
   19.1399994      -2.80208912E-10
   19.3199997      -2.77197737E-10
   19.5000000      -2.72822459E-10
   19.6800003      -2.67037115E-10
   19.8600006      -2.59977345E-10
   20.0400009      -2.51955734E-10
   20.2199993      -2.43418480E-10
   20.3999996      -2.34872372E-10
   20.5799999      -2.26799635E-10
   20.7600002      -2.19577412E-10
   20.9400005      -2.13419782E-10
   21.1200008      -2.08350961E-10
   21.2999992      -2.04215103E-10
   21.4799995      -2.00718775E-10
   21.6599998      -1.97499100E-10
   21.8400002      -1.94202252E-10
   22.0200005      -1.90559499E-10
   22.2000008      -1.86444374E-10
   22.3799992      -1.81899815E-10
   22.5599995      -1.77127979E-10
   22.7399998      -1.72444906E-10
   22.9200001      -1.68207281E-10
   23.1000004      -1.64730091E-10
   23.2800007      -1.62213035E-10
   23.4599991      -1.60697053E-10
   23.6399994      -1.60059757E-10
   23.8199997      -1.60052971E-10
   24.0000000      -1.60367955E-10
   24.1800003      -1.60713762E-10
   24.3600006      -1.60884986E-10
   24.5400009      -1.60806479E-10
   24.7199993      -1.60545646E-10
   24.8999996      -1.60295374E-10
   25.0799999      -1.60334510E-10
   25.2600002      -1.60979036E-10
   25.4400005      -1.62533029E-10
   25.6200008      -1.65247746E-10
   25.7999992      -1.69292053E-10
   25.9799995      -1.74734421E-10
   26.1599998      -1.81536508E-10
   26.3400002      -1.89554733E-10
   26.5200005      -1.98551883E-10
   26.7000008      -2.08217180E-10
   26.8799992      -2.18194740E-10
   27.0599995      -2.28118691E-10
   27.2399998      -2.37651537E-10
   27.4200001      -2.46520943E-10
   27.6000004      -2.54548382E-10
   27.7800007      -2.61664052E-10
   27.9599991      -2.67903588E-10
   28.1399994      -2.73386758E-10
   28.3199997      -2.78279955E-10
   28.5000000      -2.82750767E-10
   28.6800003      -2.86921764E-10
   28.8600006      -2.90833163E-10
   29.0400009      -2.94418601E-10
   29.2199993      -2.97500274E-10
   29.3999996      -2.99805958E-10
   29.5799999      -3.01008302E-10
   29.7600002      -3.00785286E-10
   29.9400005      -2.98894742E-10
   30.1200008      -2.95249658E-10
   30.2999992      -2.89977903E-10
   30.4799995      -2.83448376E-10
   30.6599998      -2.76250883E-10
   30.8400002      -2.69127803E-10
   31.0200005      -2.62866423E-10
   31.2000008      -2.58172983E-10
   31.3799992      -2.55554605E-10
   31.5599995      -2.55236804E-10
   31.7399998      -2.57133453E-10
   31.9200001      -2.60878930E-10
   32.0999985      -2.65913430E-10
   32.2799988      -2.71604461E-10
   32.4599991      -2.77377427E-10
   32.6399994      -2.82828011E-10
   32.8199997      -2.87793844E-10
   33.0000000      -2.92369129E-10
   33.1800003      -2.96863645E-10
   33.3600006      -3.01711600E-10
   33.5400009      -3.07353309E-10
   33.7200012      -3.14112625E-10
   33.9000015      -3.22097266E-10
   34.0800018      -3.31142641E-10
   34.2599983      -3.40810768E-10
   34.4399986      -3.50447643E-10
   34.6199989      -3.59286711E-10
   34.7999992      -3.66581515E-10
   34.9799995      -3.71740916E-10
   35.1599998      -3.74442088E-10
   35.3400002      -3.74694470E-10
   35.5200005      -3.72842618E-10
   35.7000008      -3.69505176E-10
   35.8800011      -3.65460689E-10
   36.0600014      -3.61505992E-10
   36.2400017      -3.58313212E-10
   36.4199982      -3.56315977E-10
   36.5999985      -3.55642155E-10
   36.7799988      -3.56103591E-10
   36.9599991      -3.57238739E-10
   37.1399994      -3.58396646E-10
   37.3199997      -3.58846286E-10
   37.5000000      -3.57892604E-10
   37.6800003      -3.54982627E-10
   37.8600006      -3.49785756E-10
   38.0400009      -3.42237738E-10
   38.2200012      -3.32537137E-10
   38.4000015      -3.21097537E-10
   38.5800018      -3.08459619E-10
   38.7599983      -2.95179742E-10
   38.9399986      -2.81716761E-10
   39.1199989      -2.68340461E-10
   39.2999992      -2.55080401E-10
   39.4799995      -2.41730663E-10
   39.6599998      -2.27907526E-10
   39.8400002      -2.13151885E-10
   40.0200005      -1.97052666E-10
   40.2000008      -1.79366022E-10
   40.3800011      -1.60100780E-10
   40.5600014      -1.39552411E-10
   40.7400017      -1.18275667E-10
   40.9199982      -9.70017261E-11
   41.0999985      -7.65193880E-11
   41.2799988      -5.75444796E-11
   41.4599991      -4.06087178E-11
   41.6399994      -2.59848029E-11
   41.8199997      -1.36621131E-11
   42.0000000      -3.37229745E-12
   42.1800003       5.34789704E-12
   42.3600006       1.30673363E-11
   42.5400009       2.03627167E-11
   42.7200012       2.77244235E-11
   42.9000015       3.54784084E-11
   43.0800018       4.37334474E-11
   43.2599983       5.23605569E-11
   43.4399986       6.10098777E-11
   43.6199989       6.91617458E-11
   43.7999992       7.62060137E-11
   43.9799995       8.15374851E-11
   44.1599998       8.46513762E-11
   44.3400002       8.52261525E-11
   44.5200005       8.31800184E-11
   44.7000008       7.86921778E-11
   44.8800011       7.21856880E-11
   45.0600014       6.42720044E-11
   45.2400017       5.56651288E-11
   45.4199982       4.70781261E-11
   45.5999985       3.91172199E-11
   45.7799988       3.21924848E-11
   45.9599991       2.64594440E-11
   46.1399994       2.18045911E-11
   46.3199997       1.78797064E-11
   46.5000000       1.41807694E-11
   46.6800003       1.01614750E-11
   46.8600006       5.35963808E-12
   47.0400009      -4.86183522E-13
   47.2200012      -7.35563433E-12
   47.4000015      -1.49178898E-11
   47.5800018      -2.25669674E-11
   47.7599983      -2.95135721E-11
   47.9399986      -3.49180164E-11
   48.1199989      -3.80370943E-11
   48.2999992      -3.83547326E-11
   48.4799995      -3.56707303E-11
   48.6599998      -3.01331252E-11
   48.8400002      -2.22120638E-11
   49.0200005      -1.26226824E-11
   49.2000008      -2.21504000E-12
   49.3800011       8.15288809E-12
   49.5600014       1.77403318E-11
   49.7400017       2.60322389E-11
   49.9199982       3.28151881E-11
   50.0999985       3.82109622E-11
   50.2799988       4.26598201E-11
   50.4599991       4.68502910E-11
   50.6399994       5.16080061E-11
   50.8199997       5.77585965E-11
   51.0000000       6.59865912E-11
   51.1800003       7.67186384E-11
   51.3600006       9.00527916E-11
   51.5400009       1.05748507E-10
   51.7200012       1.23281885E-10
   51.9000015       1.41958695E-10
   52.0800018       1.61062552E-10
   52.2599983       1.80010479E-10
   52.4399986       1.98481911E-10
   52.6199989       2.16493073E-10
   52.7999992       2.34400666E-10
   52.9799995       2.52832366E-10
   53.1599998       2.72560835E-10
   53.3400002       2.94346242E-10
   53.5200005       3.18777615E-10
   53.7000008       3.46145224E-10
   53.8800011       3.76363968E-10
   54.0600014       4.08960393E-10
   54.2400017       4.43125231E-10
   54.4199982       4.77820394E-10
   54.5999985       5.11925613E-10
   54.7799988       5.44397805E-10
   54.9599991       5.74416403E-10
   55.1399994       6.01488748E-10
   55.3199997       6.25496321E-10
   55.5000000       6.46676435E-10
   55.6800003       6.65545286E-10
   55.8600006       6.82778389E-10
   56.0400009       6.99076907E-10
   56.2200012       7.15040915E-10
   56.4000015       7.31072203E-10
   56.5800018       7.47316542E-10
   56.7599983       7.63648922E-10
   56.9399986       7.79699860E-10
   57.1199989       7.94914468E-10
   57.2999992       8.08634659E-10
   57.4799995       8.20195634E-10
   57.6599998       8.29024571E-10
   57.8400002       8.34724956E-10
   58.0200005       8.37138137E-10
   58.2000008       8.36367753E-10
   58.3800011       8.32762082E-10
   58.5600014       8.26855417E-10
   58.7400017       8.19274482E-10
   58.9199982       8.10627399E-10
   59.0999985       8.01393563E-10
   59.2799988       7.91839039E-10
   59.4599991       7.81978426E-10
   59.6399994       7.71592512E-10
   59.8199997       7.60302210E-10
   60.0000000       7.47681306E-10
   60.1800003       7.33380912E-10
   60.3600006       7.17237436E-10
   60.5400009       6.99343583E-10
   60.7200012       6.80070056E-10
   60.9000015       6.60040911E-10
   61.0800018       6.40072773E-10
   61.2599983       6.21090013E-10
   61.4399986       6.04027051E-10
   61.6199989       5.89731985E-10
   61.7999992       5.78872117E-10
   61.9799995       5.71864001E-10
   62.1599998       5.68830094E-10
   62.3400002       5.69593539E-10
   62.5200005       5.73716463E-10
   62.7000008       5.80574200E-10
   62.8800011       5.89453097E-10
   63.0600014       5.99651939E-10
   63.2400017       6.10567652E-10
   63.4199982       6.21749097E-10
   63.5999985       6.32912889E-10
   63.7799988       6.43921194E-10
   63.9599991       6.54733545E-10
   64.1399994       6.65344613E-10
   64.3199997       6.75719425E-10
   64.5000000       6.85738133E-10
   64.6800003       6.95157876E-10
   64.8600006       7.03594794E-10
   65.0400009       7.10525583E-10
   65.2200012       7.15313364E-10
   65.4000015       7.17249593E-10
   65.5800018       7.15614290E-10
   65.7600021       7.09747872E-10
   65.9400024       6.99125924E-10
   66.1200027       6.83430035E-10
   66.3000031       6.62597865E-10
   66.4800034       6.36843744E-10
   66.6600037       6.06641570E-10
   66.8399963       5.72671299E-10
   67.0199966       5.35739508E-10
   67.1999969       4.96690800E-10
   67.3799973       4.56325755E-10
   67.5599976       4.15338014E-10
   67.7399979       3.74276277E-10
   67.9199982       3.33529565E-10
   68.0999985       2.93332969E-10
   68.2799988       2.53789323E-10
   68.4599991       2.14908355E-10
   68.6399994       1.76655732E-10
   68.8199997       1.39012496E-10
   69.0000000       1.02027976E-10
   69.1800003       6.58605392E-11
   69.3600006       3.07903529E-11
   69.5400009      -2.79675155E-12
   69.7200012      -3.44546267E-11
   69.9000015      -6.37377026E-11
   70.0800018      -9.02660932E-11
   70.2600021      -1.13777328E-10
   70.4400024      -1.34156686E-10
   70.6200027      -1.51437571E-10
   70.8000031      -1.65777128E-10
   70.9800034      -1.77413403E-10
   71.1600037      -1.86612961E-10
   71.3399963      -1.93621993E-10
   71.5199966      -1.98628017E-10
   71.6999969      -2.01738265E-10
   71.8799973      -2.02974484E-10
   72.0599976      -2.02284064E-10
   72.2399979      -1.99562242E-10
   72.4199982      -1.94686170E-10
   72.5999985      -1.87556026E-10
   72.7799988      -1.78140044E-10
   72.9599991      -1.66523406E-10
   73.1399994      -1.52948612E-10
   73.3199997      -1.37841391E-10
   73.5000000      -1.21809687E-10
   73.6800003      -1.05609028E-10
   73.8600006      -9.00753500E-11
   74.0400009      -7.60318475E-11
   74.2200012      -6.41902503E-11
   74.4000015      -5.50622083E-11
   74.5800018      -4.89023128E-11
   74.7600021      -4.56885710E-11
   74.9400024      -4.51488465E-11
   75.1200027      -4.68254498E-11
   75.3000031      -5.01689072E-11
   75.4800034      -5.46490769E-11
   75.6600037      -5.98603667E-11
   75.8399963      -6.56068741E-11
   76.0199966      -7.19436732E-11
   76.1999969      -7.91664651E-11
   76.3799973      -8.77439441E-11
   76.5599976      -9.82062001E-11
   76.7399979      -1.11010298E-10
   76.9199982      -1.26414323E-10
   77.0999985      -1.44385767E-10
   77.2799988      -1.64571384E-10
   77.4599991      -1.86334143E-10
   77.6399994      -2.08853143E-10
   77.8199997      -2.31264466E-10
   78.0000000      -2.52812188E-10
   78.1800003      -2.72976280E-10
   78.3600006      -2.91548646E-10
   78.5400009      -3.08642584E-10
   78.7200012      -3.24636235E-10
   78.9000015      -3.40064504E-10
   79.0800018      -3.55490498E-10
   79.2600021      -3.71381509E-10
   79.4400024      -3.88018895E-10
   79.6200027      -4.05452810E-10
   79.8000031      -4.23506480E-10
   79.9800034      -4.41821718E-10
   80.1600037      -4.59933397E-10
   80.3399963      -4.77355377E-10
   80.5199966      -4.93666386E-10
   80.6999969      -5.08579900E-10
   80.8799973      -5.21988508E-10
   81.0599976      -5.33974309E-10
   81.2399979      -5.44781942E-10
   81.4199982      -5.54755353E-10
   81.5999985      -5.64254032E-10
   81.7799988      -5.73563363E-10
   81.9599991      -5.82821291E-10
   82.1399994      -5.91976634E-10
   82.3199997      -6.00792083E-10
   82.5000000      -6.08883777E-10
   82.6800003      -6.15793583E-10
   82.8600006      -6.21068919E-10
   83.0400009      -6.24334695E-10
   83.2200012      -6.25342000E-10
   83.4000015      -6.23984753E-10
   83.5800018      -6.20284935E-10
   83.7600021      -6.14355844E-10
   83.9400024      -6.06355077E-10
   84.1200027      -5.96437677E-10
   84.3000031      -5.84722493E-10
   84.4800034      -5.71273140E-10
   84.6600037      -5.56095836E-10
   84.8399963      -5.39149447E-10
   85.0199966      -5.20364696E-10
   85.1999969      -4.99666530E-10
   85.3799973      -4.77001660E-10
   85.5599976      -4.52366866E-10
   85.7399979      -4.25834396E-10
   85.9199982      -3.97572975E-10
   86.0999985      -3.67855274E-10
   86.2799988      -3.37049749E-10
   86.4599991      -3.05596715E-10
   86.6399994      -2.73972761E-10
   86.8199997      -2.42652759E-10
   87.0000000      -2.12077370E-10
   87.1800003      -1.82629439E-10
   87.3600006      -1.54624383E-10
   87.5400009      -1.28306990E-10
   87.7200012      -1.03856514E-10
   87.9000015      -8.13914144E-11
   88.0800018      -6.09814768E-11
   88.2600021      -4.26606771E-11
   88.4400024      -2.64502881E-11
   88.6200027      -1.23846610E-11
   88.8000031      -5.38301174E-13
   88.9800034       8.95990834E-12
   89.1600037       1.59296829E-11
   89.3399963       2.01698120E-11
   89.5199966       2.15130500E-11
   89.6999969       1.98942651E-11
   89.8799973       1.54128238E-11
   90.0599976       8.36834248E-12
   90.2399979      -7.47011340E-13
   90.4199982      -1.13075140E-11
   90.5999985      -2.26544079E-11
   90.7799988      -3.42162132E-11
   90.9599991      -4.56195914E-11
   91.1399994      -5.67601278E-11
   91.3199997      -6.78168841E-11
   91.5000000      -7.92073837E-11
   91.6800003      -9.14944925E-11
   91.8600006      -1.05268870E-10
   92.0400009      -1.21033475E-10
   92.2200012      -1.39107337E-10
   92.4000015      -1.59565638E-10
   92.5800018      -1.82219670E-10
   92.7600021      -2.06637499E-10
   92.9400024      -2.32203465E-10
   93.1200027      -2.58206762E-10
   93.3000031      -2.83946505E-10
   93.4800034      -3.08836512E-10
   93.6600037      -3.32488093E-10
   93.8399963      -3.54749508E-10
   94.0199966      -3.75693338E-10
   94.1999969      -3.95551952E-10
   94.3799973      -4.14613566E-10
   94.5599976      -4.33105912E-10
   94.7399979      -4.51091969E-10
   94.9199982      -4.68401651E-10
   95.0999985      -4.84613794E-10
   95.2799988      -4.99087660E-10
   95.4599991      -5.11039044E-10
   95.6399994      -5.19644550E-10
   95.8199997      -5.24156718E-10
   96.0000000      -5.24013333E-10
   96.1800003      -5.18922072E-10
   96.3600006      -5.08912301E-10
   96.5400009      -4.94340846E-10
   96.7200012      -4.75851136E-10
   96.9000015      -4.54290716E-10
   97.0800018      -4.30594144E-10
   97.2600021      -4.05653455E-10
   97.4400024      -3.80197568E-10
   97.6200027      -3.54706320E-10
   97.8000031      -3.29380717E-10
   97.9800034      -3.04179543E-10
   98.1600037      -2.78916973E-10
   98.3399963      -2.53396110E-10
   98.5199966      -2.27548744E-10
   98.6999969      -2.01541006E-10
   98.8799973      -1.75819970E-10
   99.0599976      -1.51090904E-10
   99.2399979      -1.28234923E-10
   99.4199982      -1.08190464E-10
   99.5999985      -9.18288709E-11
   99.7799988      -7.98470109E-11
   99.9599991      -7.26937538E-11
   100.139999      -7.05327324E-11
   100.320000      -7.32396921E-11
   100.500000      -8.04259020E-11
   100.680000      -9.14808090E-11
   100.860001      -1.05629581E-10
   101.040001      -1.21996330E-10
   101.220001      -1.39666445E-10
   101.400002      -1.57741056E-10
   101.580002      -1.75376158E-10
   101.760002      -1.91805502E-10
   101.940002      -2.06350950E-10
   102.120003      -2.18426305E-10
   102.300003      -2.27542277E-10
   102.480003      -2.33318753E-10
   102.660004      -2.35501257E-10
   102.839996      -2.33979863E-10
   103.019997      -2.28798397E-10
   103.199997      -2.20144930E-10
   103.379997      -2.08320597E-10
   103.559998      -1.93684652E-10
   103.739998      -1.76588230E-10
   103.919998      -1.57314078E-10
   104.099998      -1.36039763E-10
   104.279999      -1.12840202E-10
   104.459999      -8.77316067E-11
   104.639999      -6.07485243E-11
   104.820000      -3.20289871E-11
   105.000000      -1.88478898E-12
   105.180000       2.91707561E-11
   105.360001       6.04448644E-11
   105.540001       9.11348219E-11
   105.720001       1.20427307E-10
   105.900002       1.47604109E-10
   106.080002       1.72132975E-10
   106.260002       1.93728478E-10
   106.440002       2.12375159E-10
   106.620003       2.28311411E-10
   106.800003       2.41977799E-10
   106.980003       2.53936011E-10
   107.160004       2.64767375E-10
   107.339996       2.74967299E-10
   107.519997       2.84854196E-10
   107.699997       2.94512803E-10
   107.879997       3.03784969E-10
   108.059998       3.12311177E-10
   108.239998       3.19615862E-10
   108.419998       3.25213856E-10
   108.599998       3.28717747E-10
   108.779999       3.29920785E-10
   108.959999       3.28840372E-10
   109.139999       3.25712318E-10
   109.320000       3.20944743E-10
   109.500000       3.15040688E-10
   109.680000       3.08511022E-10
   109.860001       3.01798198E-10
   110.040001       2.95225816E-10
   110.220001       2.88982643E-10
   110.400002       2.83136015E-10
   110.580002       2.77669027E-10
   110.760002       2.72524447E-10
   110.940002       2.67646544E-10
   111.120003       2.63014749E-10
   111.300003       2.58671862E-10
   111.480003       2.54745197E-10
   111.660004       2.51465931E-10
   111.839996       2.49180621E-10
   112.019997       2.48347676E-10
   112.199997       2.49512105E-10
   112.379997       2.53252697E-10
   112.559998       2.60108213E-10
   112.739998       2.70493433E-10
   112.919998       2.84625074E-10
   113.099998       3.02468994E-10
   113.279999       3.23723687E-10
   113.459999       3.47838480E-10
   113.639999       3.74063808E-10
   113.820000       4.01523925E-10
   114.000000       4.29299069E-10
   114.180000       4.56508609E-10
   114.360001       4.82386298E-10
   114.540001       5.06336639E-10
   114.720001       5.27970778E-10
   114.900002       5.47114354E-10
   115.080002       5.63785629E-10
   115.260002       5.78144366E-10
   115.440002       5.90412830E-10
   115.620003       6.00779426E-10
   115.800003       6.09299500E-10
   115.980003       6.15815343E-10
   116.160004       6.19917118E-10
   116.339996       6.20960838E-10
   116.519997       6.18152862E-10
   116.699997       6.10688555E-10
   116.879997       5.97920879E-10
   117.059998       5.79525261E-10
   117.239998       5.55624102E-10
   117.419998       5.26841681E-10
   117.599998       4.94277341E-10
   117.779999       4.59396132E-10
   117.959999       4.23856006E-10
   118.139999       3.89298122E-10
   118.320000       3.57133934E-10
   118.500000       3.28361865E-10
   118.680000       3.03447462E-10
   118.860001       2.82286833E-10
   119.040001       2.64268607E-10
   119.220001       2.48429166E-10
   119.400002       2.33676301E-10
   119.580002       2.19045754E-10