  -34.5000000       0.00000000    
  -34.3199997       0.00000000    
  -34.1399994       0.00000000    
  -33.9599991       0.00000000    
  -33.7799988      -5.76172411E-27
  -33.5999985      -7.62097258E-27
  -33.4199982      -4.47982472E-25
  -33.2400017      -4.12712265E-24
  -33.0600014      -1.23070206E-23
  -32.8800011      -1.45995365E-24
  -32.7000008       7.09672145E-23
  -32.5200005       1.16901058E-22
  -32.3400002      -2.09167529E-22
  -32.1599998      -1.00602207E-21
  -31.9799995      -1.16691950E-21
  -31.7999992       1.02096262E-21
  -31.6200008       5.11240755E-21
  -31.4400005       8.63020798E-21
  -31.2600002       1.32844471E-20
  -31.0799999       2.29115782E-20
  -30.8999996       1.42523850E-20
  -30.7199993      -8.64687631E-20
  -30.5400009      -3.23345496E-19
  -30.3600006      -5.06698893E-19
  -30.1800003      -1.33796425E-19
  -30.0000000       1.17531715E-18
  -29.8199997       2.79049628E-18
  -29.6399994       2.70390991E-18
  -29.4599991      -1.09585756E-18
  -29.2800007      -7.74066849E-18
  -29.1000004      -1.17403043E-17
  -28.9200001      -5.69678833E-18
  -28.7399998       1.23944147E-17
  -28.5599995       3.25558602E-17
  -28.3799992       3.47417015E-17
  -28.2000008       2.34740809E-18
  -28.0200005      -5.96626185E-17
  -27.8400002      -1.16487240E-16
  -27.6599998      -1.16526098E-16
  -27.4799995      -2.32520106E-17
  -27.2999992       1.52019756E-16
  -27.1200008       3.39109508E-16
  -26.9400005       4.31228629E-16
  -26.7600002       3.32160529E-16
  -26.5799999       5.76306866E-18
  -26.3999996      -4.94300688E-16
  -26.2199993      -1.02444919E-15
  -26.0400009      -1.37896456E-15
  -25.8600006      -1.34049232E-15
  -25.6800003      -7.49665504E-16
  -25.5000000       4.14784279E-16
  -25.3199997       1.96954091E-15
  -25.1399994       3.51119361E-15
  -24.9599991       4.48460196E-15
  -24.7800007       4.33582232E-15
  -24.6000004       2.70813289E-15
  -24.4200001      -3.88433057E-16
  -24.2399998      -4.49746246E-15
  -24.0599995      -8.75592527E-15
  -23.8799992      -1.20435447E-14
  -23.7000008      -1.32084996E-14
  -23.5200005      -1.13305463E-14
  -23.3400002      -5.98351994E-15
  -23.1599998       2.54934217E-15
  -22.9799995       1.31679793E-14
  -22.7999992       2.40222084E-14
  -22.6200008       3.27961874E-14
  -22.4400005       3.72000302E-14
  -22.2600002       3.55778232E-14
  -22.0799999       2.74619483E-14
  -21.8999996       1.38560851E-14
  -21.7199993      -2.94453216E-15
  -21.5400009      -2.00654465E-14
  -21.3600006      -3.51560110E-14
  -21.1800003      -4.75244301E-14
  -21.0000000      -5.88202515E-14
  -20.8199997      -7.28544761E-14
  -20.6399994      -9.44251798E-14
  -20.4599991      -1.27405329E-13
  -20.2800007      -1.72681531E-13
  -20.1000004      -2.26657031E-13
  -19.9200001      -2.80895397E-13
  -19.7399998      -3.23138597E-13
  -19.5599995      -3.39522193E-13
  -19.3799992      -3.17457188E-13
  -19.2000008      -2.48467344E-13
  -19.0200005      -1.30281338E-13
  -18.8400002       3.23205784E-14
  -18.6599998       2.28046369E-13
  -18.4799995       4.40803427E-13
  -18.2999992       6.52055395E-13
  -18.1200008       8.43218345E-13
  -17.9400005       9.97604126E-13
  -17.7600002       1.10167995E-12
  -17.5799999       1.14568478E-12
  -17.3999996       1.12382022E-12
  -17.2199993       1.03425460E-12
  -17.0400009       8.79090420E-13
  -16.8600006       6.64347483E-13
  -16.6800003       3.99850996E-13
  -16.5000000       9.88692499E-14
  -16.3199997      -2.22683281E-13
  -16.1399994      -5.47586878E-13
  -15.9600000      -8.59124241E-13
  -15.7799997      -1.14302827E-12
  -15.6000004      -1.38909142E-12
  -15.4200001      -1.59189990E-12
  -15.2399998      -1.75039714E-12
  -15.0600004      -1.86632914E-12
  -14.8800001      -1.94199301E-12
  -14.6999998      -1.97794493E-12
  -14.5200005      -1.97131374E-12
  -14.3400002      -1.91519760E-12
  -14.1599998      -1.79935895E-12
  -13.9799995      -1.61217231E-12
  -13.8000002      -1.34356924E-12
  -13.6199999      -9.88491949E-13
  -13.4399996      -5.50194005E-13
  -13.2600002      -4.25673528E-14
  -13.0799999       5.09287599E-13
  -12.8999996       1.07072305E-12
  -12.7200003       1.60139350E-12
  -12.5400000       2.06062771E-12
  -12.3599997       2.41318055E-12
  -12.1800003       2.63411667E-12
  -12.0000000       2.71184442E-12
  -11.8199997       2.64892101E-12
  -11.6400003       2.46084099E-12
  -11.4600000       2.17346670E-12
  -11.2799997       1.81984484E-12
  -11.1000004       1.43694898E-12
  -10.9200001       1.06258535E-12
  -10.7399998       7.32437711E-13
  -10.5600004       4.77173856E-13
  -10.3800001       3.19647710E-13
  -10.1999998       2.72441656E-13
  -10.0200005       3.36160895E-13
  -9.84000015       4.98931083E-13
  -9.65999985       7.37491448E-13
  -9.47999954       1.01999203E-12
  -9.30000019       1.31031091E-12
  -9.11999989       1.57327829E-12
  -8.93999958       1.77982802E-12
  -8.76000023       1.91090004E-12
  -8.57999992       1.95904165E-12
  -8.39999962       1.92715353E-12
  -8.22000027       1.82464352E-12
  -8.03999996       1.66203466E-12
  -7.86000013       1.44558410E-12
  -7.67999983       1.17347798E-12
  -7.50000000       8.34697383E-13
  -7.32000017       4.10918749E-13
  -7.13999987      -1.18888826E-13
  -6.96000004      -7.72066547E-13
  -6.78000021      -1.55530818E-12
  -6.59999990      -2.45858932E-12
  -6.42000008      -3.45141927E-12
  -6.23999977      -4.48261220E-12
  -6.05999994      -5.48408411E-12
  -5.88000011      -6.37828028E-12
  -5.69999981      -7.08787543E-12
  -5.51999998      -7.54576436E-12
  -5.34000015      -7.70338914E-12
  -5.15999985      -7.53596491E-12
  -4.98000002      -7.04404590E-12
  -4.80000019      -6.25167539E-12
  -4.61999989      -5.20184460E-12
  -4.44000006      -3.95024204E-12
  -4.26000023      -2.55821688E-12
  -4.07999992      -1.08595619E-12
  -3.90000010       4.13223329E-13
  -3.72000003       1.89658424E-12
  -3.53999996       3.33308728E-12
  -3.35999990       4.70185089E-12
  -3.18000007       5.98852174E-12
  -3.00000000       7.18060030E-12
  -2.81999993       8.26317747E-12
  -2.64000010       9.21613827E-12
  -2.46000004       1.00135247E-11
  -2.27999997       1.06249384E-11
  -2.09999990       1.10184821E-11
  -1.91999996       1.11643932E-11
  -1.74000001       1.10388226E-11
  -1.55999994       1.06271884E-11
  -1.38000000       9.92685881E-12
  -1.20000005       8.94891539E-12
  -1.01999998       7.71873971E-12
 -0.839999974       6.27534483E-12
 -0.660000026       4.66947574E-12
 -0.479999989       2.96064952E-12
 -0.300000012       1.21344460E-12
 -0.119999997      -5.06714028E-13
   5.99999987E-02  -2.13806143E-12
  0.239999995      -3.62689718E-12
  0.419999987      -4.93140945E-12
  0.600000024      -6.02431039E-12
  0.779999971      -6.89367270E-12
  0.959999979      -7.54168256E-12
   1.13999999      -7.98142021E-12
   1.32000005      -8.23212245E-12
   1.50000000      -8.31373945E-12
   1.67999995      -8.24168078E-12
   1.86000001      -8.02288878E-12
   2.03999996      -7.65417937E-12
   2.22000003      -7.12366711E-12
   2.40000010      -6.41533311E-12
   2.57999992      -5.51611925E-12
   2.75999999      -4.42400673E-12
   2.94000006      -3.15514845E-12
   3.11999989      -1.74818666E-12
   3.29999995      -2.64576121E-13
   3.48000002       1.21537860E-12
   3.66000009       2.60007944E-12
   3.83999991       3.79623720E-12
   4.01999998       4.71879784E-12
   4.19999981       5.29931828E-12
   4.38000011       5.49168436E-12
   4.55999994       5.27450262E-12
   4.73999977       4.65036126E-12
   4.92000008       3.64278182E-12
   5.09999990       2.29176877E-12
   5.28000021       6.48667155E-13
   5.46000004      -1.22907847E-12
   5.63999987      -3.28329291E-12
   5.82000017      -5.46033271E-12
   6.00000000      -7.71587568E-12
   6.17999983      -1.00182579E-11
   6.36000013      -1.23492631E-11
   6.53999996      -1.47014380E-11
   6.71999979      -1.70715456E-11
   6.90000010      -1.94513364E-11
   7.07999992      -2.18175374E-11
   7.26000023      -2.41237395E-11
   7.44000006      -2.62968987E-11
   7.61999989      -2.82399902E-11
   7.80000019      -2.98409700E-11
   7.98000002      -3.09870185E-11
   8.15999985      -3.15812376E-11
   8.34000015      -3.15585925E-11
   8.52000046      -3.08977531E-11
   8.69999981      -2.96259579E-11
   8.88000011      -2.78157983E-11
   9.06000042      -2.55739561E-11
   9.23999977      -2.30244140E-11
   9.42000008      -2.02896849E-11
   9.60000038      -1.74740170E-11
   9.77999973      -1.46524390E-11
   9.96000004      -1.18674940E-11
   10.1400003      -9.13408151E-12
   10.3199997      -6.45034547E-12
   10.5000000      -3.81198155E-12
   10.6800003      -1.22592951E-12
   10.8599997       1.27958180E-12
   11.0400000       3.65130755E-12
   11.2200003       5.81486942E-12
   11.3999996       7.68558654E-12
   11.5799999       9.18400685E-12
   11.7600002       1.02523857E-11
   11.9399996       1.08677555E-11
   12.1199999       1.10481659E-11
   12.3000002       1.08503363E-11
   12.4799995       1.03599872E-11
   12.6599998       9.67762068E-12
   12.8400002       8.90393662E-12
   13.0200005       8.12785689E-12
   13.1999998       7.41930649E-12
   13.3800001       6.82591223E-12
   13.5600004       6.37266845E-12
   13.7399998       6.06257189E-12
   13.9200001       5.87753370E-12
   14.1000004       5.77945027E-12
   14.2799997       5.71240581E-12
   14.4600000       5.60748626E-12
   14.6400003       5.39079285E-12
   14.8199997       4.99482747E-12
   15.0000000       4.37169355E-12
   15.1800003       3.50508186E-12
   15.3599997       2.41784652E-12
   15.5400000       1.17225652E-12
   15.7200003      -1.38687523E-13
   15.8999996      -1.40753923E-12
   16.0799999      -2.53327047E-12
   16.2600002      -3.44230395E-12
   16.4400005      -4.10444855E-12
   16.6200008      -4.54046523E-12
   16.7999992      -4.81945950E-12
   16.9799995      -5.04676335E-12
   17.1599998      -5.34460930E-12
   17.3400002      -5.82907117E-12
   17.5200005      -6.58698356E-12
   17.7000008      -7.65705988E-12
   17.8799992      -9.01845092E-12
   18.0599995      -1.05899256E-11
   18.2399998      -1.22409921E-11
   18.4200001      -1.38144348E-11
   18.6000004      -1.51567734E-11
   18.7800007      -1.61509972E-11
   18.9599991      -1.67439205E-11
   19.1399994      -1.69617168E-11
   19.3199997      -1.69099127E-11
   19.5000000      -1.67568875E-11
   19.6800003      -1.67053923E-11
   19.8600006      -1.69580287E-11
   20.0400009      -1.76850912E-11
   20.2199993      -1.90006223E-11
   20.3999996      -2.09511072E-11
   20.5799999      -2.35168968E-11
   20.7600002      -2.66240589E-11
   20.9400005      -3.01621540E-11
   21.1200008      -3.40029289E-11
   21.2999992      -3.80168605E-11
   21.4799995      -4.20851964E-11
   21.6599998      -4.61076385E-11
   21.8400002      -5.00069500E-11
   22.0200005      -5.37303500E-11
   22.2000008      -5.72486711E-11
   22.3799992      -6.05519662E-11
   22.5599995      -6.36410091E-11
   22.7399998      -6.65153765E-11
   22.9200001      -6.91596572E-11
   23.1000004      -7.15313780E-11
   23.2800007      -7.35546415E-11
   23.4599991      -7.51220267E-11
   23.6399994      -7.61050667E-11
   23.8199997      -7.63723390E-11
   24.0000000      -7.58101776E-11
   24.1800003      -7.43420256E-11
   24.3600006      -7.19423479E-11
   24.5400009      -6.86426957E-11
   24.7199993      -6.45294165E-11
   24.8999996      -5.97334196E-11
   25.0799999      -5.44143966E-11
   25.2600002      -4.87411049E-11
   25.4400005      -4.28705682E-11
   25.6200008      -3.69284256E-11
   25.7999992      -3.09939262E-11
   25.9799995      -2.50921072E-11
   26.1599998      -1.91955497E-11
   26.3400002      -1.32371379E-11
   26.5200005      -7.13224705E-12
   26.7000008      -8.06735158E-13
   26.8799992       5.77551418E-12
   27.0599995       1.25922432E-11
   27.2399998       1.95555013E-11
   27.4200001       2.65209417E-11
   27.6000004       3.33119435E-11
   27.7800007       3.97539848E-11
   27.9599991       4.57099983E-11
   28.1399994       5.11099253E-11
   28.3199997       5.59650763E-11
   28.5000000       6.03664688E-11
   28.6800003       6.44667028E-11
   28.8600006       6.84509324E-11
   29.0400009       7.25038640E-11
   29.2199993       7.67796798E-11
   29.3999996       8.13801665E-11
   29.5799999       8.63445496E-11
   29.7600002       9.16513185E-11
   29.9400005       9.72310496E-11
   30.1200008       1.02987785E-10
   30.2999992       1.08824977E-10
   30.4799995       1.14673035E-10
   30.6599998       1.20512239E-10
   30.8400002       1.26388511E-10
   31.0200005       1.32416883E-10
   31.2000008       1.38772160E-10
   31.3799992       1.45668047E-10
   31.5599995       1.53326615E-10
   31.7399998       1.61946012E-10
   31.9200001       1.71670511E-10
   32.0999985       1.82570820E-10
   32.2799988       1.94636710E-10
   32.4599991       2.07782069E-10
   32.6399994       2.21860835E-10
   32.8199997       2.36686976E-10
   33.0000000       2.52056542E-10
   33.1800003       2.67765310E-10
   33.3600006       2.83622542E-10
   33.5400009       2.99459874E-10
   33.7200012       3.15136667E-10
   33.9000015       3.30541511E-10
   34.0800018       3.45591167E-10
   34.2599983       3.60224406E-10
   34.4399986       3.74393849E-10
   34.6199989       3.88052840E-10
   34.7999992       4.01143757E-10
   34.9799995       4.13587858E-10
   35.1599998       4.25281560E-10
   35.3400002       4.36100073E-10
   35.5200005       4.45907145E-10
   35.7000008       4.54572407E-10
   35.8800011       4.61986921E-10
   36.0600014       4.68078021E-10
   36.2400017       4.72817896E-10
   36.4199982       4.76224005E-10
   36.5999985       4.78354800E-10
   36.7799988       4.79298490E-10
   36.9599991       4.79159712E-10
   37.1399994       4.78047157E-10
   37.3199997       4.76060691E-10
   37.5000000       4.73283135E-10
   37.6800003       4.69774719E-10
   37.8600006       4.65573968E-10
   38.0400009       4.60704919E-10
   38.2200012       4.55190358E-10
   38.4000015       4.49069615E-10
   38.5800018       4.42415493E-10
   38.7599983       4.35347342E-10
   38.9399986       4.28033109E-10
   39.1199989       4.20679547E-10
   39.2999992       4.13510476E-10
   39.4799995       4.06737699E-10
   39.6599998       4.00531663E-10
   39.8400002       3.94995897E-10
   40.0200005       3.90152660E-10
   40.2000008       3.85940030E-10
   40.3800011       3.82219811E-10
   40.5600014       3.78796022E-10
   40.7400017       3.75437958E-10
   40.9199982       3.71907088E-10
   41.0999985       3.67981701E-10
   41.2799988       3.63476554E-10
   41.4599991       3.58255842E-10
   41.6399994       3.52236462E-10
   41.8199997       3.45382972E-10
   42.0000000       3.37698036E-10
   42.1800003       3.29208438E-10
   42.3600006       3.19952898E-10
   42.5400009       3.09971437E-10
   42.7200012       2.99298669E-10
   42.9000015       2.87961044E-10
   43.0800018       2.75978462E-10
   43.2599983       2.63369437E-10
   43.4399986       2.50159116E-10
   43.6199989       2.36387437E-10
   43.7999992       2.22115895E-10
   43.9799995       2.07430559E-10
   44.1599998       1.92441965E-10
   44.3400002       1.77282591E-10
   44.5200005       1.62103386E-10
   44.7000008       1.47069357E-10
   44.8800011       1.32352740E-10
   45.0600014       1.18121915E-10
   45.2400017       1.04523779E-10
   45.4199982       9.16618795E-11
   45.5999985       7.95748953E-11
   45.7799988       6.82223444E-11
   45.9599991       5.74845484E-11
   46.1399994       4.71817585E-11
   46.3199997       3.71083407E-11
   46.5000000       2.70778799E-11
   46.6800003       1.69661750E-11
   46.8600006       6.74163373E-12
   47.0400009      -3.52608849E-12
   47.2200012      -1.36815489E-11
   47.4000015      -2.35213203E-11
   47.5800018      -3.28433079E-11
   47.7599983      -4.14972050E-11
   47.9399986      -4.94213281E-11
   48.1199989      -5.66595104E-11
   48.2999992      -6.33531214E-11
   48.4799995      -6.97122013E-11
   48.6599998      -7.59770025E-11
   48.8400002      -8.23778754E-11
   49.0200005      -8.91078183E-11
   49.2000008      -9.63087041E-11
   49.3800011      -1.04075130E-10
   49.5600014      -1.12468361E-10
   49.7400017      -1.21536378E-10
   49.9199982      -1.31332778E-10
   50.0999985      -1.41930398E-10
   50.2799988      -1.53427757E-10
   50.4599991      -1.65945299E-10
   50.6399994      -1.79612741E-10
   50.8199997      -1.94550737E-10
   51.0000000      -2.10847589E-10
   51.1800003      -2.28540908E-10
   51.3600006      -2.47606130E-10
   51.5400009      -2.67956157E-10
   51.7200012      -2.89452406E-10
   51.9000015      -3.11923487E-10
   52.0800018      -3.35184269E-10
   52.2599983      -3.59051594E-10
   52.4399986      -3.83353682E-10
   52.6199989      -4.07931217E-10
   52.7999992      -4.32636676E-10
   52.9799995      -4.57332061E-10
   53.1599998      -4.81893747E-10
   53.3400002      -5.06222009E-10
   53.5200005      -5.30256450E-10
   53.7000008      -5.53992074E-10
   53.8800011      -5.77489445E-10
   54.0600014      -6.00872796E-10
   54.2400017      -6.24311269E-10
   54.4199982      -6.47984055E-10
   54.5999985      -6.72036038E-10
   54.7799988      -6.96534053E-10
   54.9599991      -7.21438742E-10
   55.1399994      -7.46602502E-10
   55.3199997      -7.71791464E-10
   55.5000000      -7.96738897E-10
   55.6800003      -8.21201718E-10
   55.8600006      -8.45020554E-10
   56.0400009      -8.68151884E-10
   56.2200012      -8.90679086E-10
   56.4000015      -9.12786402E-10
   56.5800018      -9.34711974E-10
   56.7599983      -9.56687396E-10
   56.9399986      -9.78878312E-10
   57.1199989      -1.00133946E-09
   57.2999992      -1.02399500E-09
   57.4799995      -1.04664477E-09
   57.6599998      -1.06899600E-09
   57.8400002      -1.09071019E-09
   58.0200005      -1.11145548E-09
   58.2000008      -1.13095122E-09
   58.3800011      -1.14899712E-09
   58.5600014      -1.16548071E-09
   58.7400017      -1.18036392E-09
   58.9199982      -1.19365529E-09
   59.0999985      -1.20537247E-09
   59.2799988      -1.21550814E-09
   59.4599991      -1.22400490E-09
   59.6399994      -1.23074662E-09
   59.8199997      -1.23556942E-09
   60.0000000      -1.23828570E-09
   60.1800003      -1.23871680E-09
   60.3600006      -1.23672594E-09
   60.5400009      -1.23223876E-09
   60.7200012      -1.22525112E-09
   60.9000015      -1.21582289E-09
   61.0800018      -1.20406263E-09
   61.2599983      -1.19011301E-09
   61.4399986      -1.17414223E-09
   61.6199989      -1.15634702E-09
   61.7999992      -1.13695942E-09
   61.9799995      -1.11625453E-09
   62.1599998      -1.09455034E-09
   62.3400002      -1.07219433E-09
   62.5200005      -1.04953635E-09
   62.7000008      -1.02689235E-09
   62.8800011      -1.00450770E-09
   63.0600014      -9.82530723E-10
   63.2400017      -9.61001612E-10
   63.4199982      -9.39861744E-10
   63.5999985      -9.18984611E-10
   63.7799988      -8.98217001E-10
   63.9599991      -8.77425799E-10
   64.1399994      -8.56535620E-10
   64.3199997      -8.35551739E-10
   64.5000000      -8.14556422E-10
   64.6800003      -7.93685839E-10
   64.8600006      -7.73086761E-10
   65.0400009      -7.52863771E-10
   65.2200012      -7.33028693E-10
   65.4000015      -7.13466841E-10
   65.5800018      -6.93924751E-10
   65.7600021      -6.74029166E-10
   65.9400024      -6.53334831E-10
   66.1200027      -6.31389885E-10
   66.3000031      -6.07807471E-10
   66.4800034      -5.82323911E-10
   66.6600037      -5.54830515E-10
   66.8399963      -5.25371358E-10
   67.0199966      -4.94106034E-10
   67.1999969      -4.61250149E-10
   67.3799973      -4.27010316E-10
   67.5599976      -3.91532973E-10
   67.7399979      -3.54878876E-10
   67.9199982      -3.17031484E-10
   68.0999985      -2.77930401E-10
   68.2799988      -2.37520531E-10
   68.4599991      -1.95803818E-10
   68.6399994      -1.52877475E-10
   68.8199997      -1.08955442E-10
   69.0000000      -6.43697734E-11
   69.1800003      -1.95562438E-11
   69.3600006       2.49725535E-11
   69.5400009       6.86622981E-11
   69.7200012       1.10955981E-10
   69.9000015       1.51332488E-10
   70.0800018       1.89346969E-10
   70.2600021       2.24661886E-10
   70.4400024       2.57070198E-10
   70.6200027       2.86499241E-10
   70.8000031       3.13005816E-10
   70.9800034       3.36753264E-10
   71.1600037       3.57983782E-10
   71.3399963       3.76987358E-10
   71.5199966       3.94073579E-10
   71.6999969       4.09545842E-10
   71.8799973       4.23676733E-10
   72.0599976       4.36684439E-10
   72.2399979       4.48709930E-10
   72.4199982       4.59796173E-10
   72.5999985       4.69882022E-10
   72.7799988       4.78812878E-10
   72.9599991       4.86371110E-10
   73.1399994       4.92326402E-10
   73.3199997       4.96491626E-10
   73.5000000       4.98773689E-10
   73.6800003       4.99205233E-10
   73.8600006       4.97945296E-10
   74.0400009       4.95251617E-10
   74.2200012       4.91429564E-10
   74.4000015       4.86775675E-10
   74.5800018       4.81529316E-10
   74.7600021       4.75852080E-10
   74.9400024       4.69832784E-10
   75.1200027       4.63521610E-10
   75.3000031       4.56976235E-10
   75.4800034       4.50307819E-10
   75.6600037       4.43711790E-10
   75.8399963       4.37475361E-10
   76.0199966       4.31966213E-10
   76.1999969       4.27602204E-10
   76.3799973       4.24817265E-10
   76.5599976       4.24023094E-10
   76.7399979       4.25573965E-10
   76.9199982       4.29734470E-10
   77.0999985       4.36650660E-10
   77.2799988       4.46328641E-10
   77.4599991       4.58623056E-10
   77.6399994       4.73244333E-10
   77.8199997       4.89783047E-10
   78.0000000       5.07752007E-10
   78.1800003       5.26636623E-10
   78.3600006       5.45943735E-10
   78.5400009       5.65239300E-10
   78.7200012       5.84168436E-10
   78.9000015       6.02454198E-10
   79.0800018       6.19881813E-10
   79.2600021       6.36272812E-10
   79.4400024       6.51455612E-10
   79.6200027       6.65240585E-10
   79.8000031       6.77402134E-10
   79.9800034       6.87672752E-10
   80.1600037       6.95745350E-10
   80.3399963       7.01283587E-10
   80.5199966       7.03944347E-10
   80.6999969       7.03405056E-10
   80.8799973       6.99402536E-10
   81.0599976       6.91777746E-10
   81.2399979       6.80522361E-10
   81.4199982       6.65815347E-10
   81.5999985       6.48037013E-10
   81.7799988       6.27752128E-10
   81.9599991       6.05656802E-10
   82.1399994       5.82501269E-10
   82.3199997       5.59002622E-10
   82.5000000       5.35769151E-10
   82.6800003       5.13253828E-10
   82.8600006       4.91743035E-10
   83.0400009       4.71377049E-10
   83.2200012       4.52189980E-10
   83.4000015       4.34156405E-10
   83.5800018       4.17228779E-10
   83.7600021       4.01364775E-10
   83.9400024       3.86539273E-10
   84.1200027       3.72745557E-10
   84.3000031       3.59987207E-10
   84.4800034       3.48263252E-10
   84.6600037       3.37550154E-10
   84.8399963       3.27781163E-10
   85.0199966       3.18831489E-10
   85.1999969       3.10510700E-10
   85.3799973       3.02566722E-10
   85.5599976       2.94700542E-10
   85.7399979       2.86592611E-10
   85.9199982       2.77931095E-10
   86.0999985       2.68440742E-10
   86.2799988       2.57902866E-10
   86.4599991       2.46167392E-10
   86.6399994       2.33152081E-10
   86.8199997       2.18833132E-10
   87.0000000       2.03232764E-10
   87.1800003       1.86407764E-10
   87.3600006       1.68446798E-10
   87.5400009       1.49473670E-10
   87.7200012       1.29653260E-10
   87.9000015       1.09193744E-10
   88.0800018       8.83378717E-11
   88.2600021       6.73414796E-11
   88.4400024       4.64449867E-11
   88.6200027       2.58450778E-11
   88.8000031       5.67963298E-12
   88.9800034      -1.39666837E-11
   89.1600037      -3.30394739E-11
   89.3399963      -5.14760977E-11
   89.5199966      -6.91673108E-11
   89.6999969      -8.59313107E-11
   89.8799973      -1.01508947E-10
   90.0599976      -1.15583869E-10
   90.2399979      -1.27824987E-10
   90.4199982      -1.37941117E-10
   90.5999985      -1.45737644E-10
   90.7799988      -1.51160626E-10
   90.9599991      -1.54319155E-10
   91.1399994      -1.55479088E-10
   91.3199997      -1.55029448E-10
   91.5000000      -1.53424703E-10
   91.6800003      -1.51118021E-10
   91.8600006      -1.48494328E-10
   92.0400009      -1.45820078E-10
   92.2200012      -1.43217826E-10
   92.4000015      -1.40672377E-10
   92.5800018      -1.38067530E-10
   92.7600021      -1.35246550E-10
   92.9400024      -1.32083802E-10
   93.1200027      -1.28550434E-10
   93.3000031      -1.24757524E-10
   93.4800034      -1.20963364E-10
   93.6600037      -1.17543461E-10
   93.8399963      -1.14928851E-10
   94.0199966      -1.13531795E-10
   94.1999969      -1.13678386E-10
   94.3799973      -1.15566098E-10
   94.5599976      -1.19254079E-10
   94.7399979      -1.24685332E-10
   94.9199982      -1.31727837E-10
   95.0999985      -1.40222542E-10
   95.2799988      -1.50021939E-10
   95.4599991      -1.61014257E-10
   95.6399994      -1.73129205E-10
   95.8199997      -1.86331797E-10
   96.0000000      -2.00608252E-10
   96.1800003      -2.15951423E-10
   96.3600006      -2.32350139E-10
   96.5400009      -2.49783555E-10
   96.7200012      -2.68218225E-10
   96.9000015      -2.87606466E-10
   97.0800018      -3.07879527E-10
   97.2600021      -3.28937377E-10
   97.4400024      -3.50633189E-10
   97.6200027      -3.72759101E-10
   97.8000031      -3.95035699E-10
   97.9800034      -4.17113427E-10
   98.1600037      -4.38585862E-10
   98.3399963      -4.59014771E-10
   98.5199966      -4.77967721E-10
   98.6999969      -4.95059826E-10
   98.8799973      -5.09995934E-10
   99.0599976      -5.22607180E-10
   99.2399979      -5.32872135E-10
   99.4199982      -5.40916312E-10
   99.5999985      -5.46987844E-10
   99.7799988      -5.51404700E-10
   99.9599991      -5.54485236E-10
   100.139999      -5.56475588E-10
   100.320000      -5.57491386E-10
   100.500000      -5.57491053E-10
   100.680000      -5.56291679E-10
   100.860001      -5.53624202E-10
   101.040001      -5.49216117E-10
   101.220001      -5.42881018E-10
   101.400002      -5.34590927E-10
   101.580002      -5.24513655E-10
   101.760002      -5.13005360E-10
   101.940002      -5.00562258E-10
   102.120003      -4.87743901E-10
   102.300003      -4.75088469E-10
   102.480003      -4.63042327E-10
   102.660004      -4.51916810E-10
   102.839996      -4.41878978E-10
   103.019997      -4.32973019E-10
   103.199997      -4.25159713E-10
   103.379997      -4.18361040E-10
   103.559998      -4.12497869E-10
   103.739998      -4.07515799E-10
   103.919998      -4.03396205E-10
   104.099998      -4.00156269E-10
   104.279999      -3.97840427E-10
   104.459999      -3.96501443E-10
   104.639999      -3.96178007E-10
   104.820000      -3.96867039E-10
   105.000000      -3.98497707E-10
   105.180000      -4.00913608E-10
   105.360001      -4.03871464E-10
   105.540001      -4.07053308E-10
   105.720001      -4.10097178E-10
   105.900002      -4.12634593E-10
   106.080002      -4.14327156E-10
   106.260002      -4.14894841E-10
   106.440002      -4.14133089E-10
   106.620003      -4.11915113E-10
   106.800003      -4.08190592E-10
   106.980003      -4.02979677E-10
   107.160004      -3.96370159E-10
   107.339996      -3.88515470E-10
   107.519997      -3.79631049E-10
   107.699997      -3.69983932E-10
   107.879997      -3.59870966E-10
   108.059998      -3.49587637E-10
   108.239998      -3.39386796E-10
   108.419998      -3.29445721E-10
   108.599998      -3.19839821E-10
   108.779999      -3.10542786E-10
   108.959999      -3.01447062E-10
   109.139999      -2.92404462E-10
   109.320000      -2.83273877E-10
   109.500000      -2.73965156E-10
   109.680000      -2.64461508E-10
   109.860001      -2.54827298E-10
   110.040001      -2.45189202E-10
   110.220001      -2.35708814E-10
   110.400002      -2.26553942E-10
   110.580002      -2.17874926E-10
   110.760002      -2.09788575E-10
   110.940002      -2.02371619E-10
   111.120003      -1.95655034E-10
   111.300003      -1.89620084E-10
   111.480003      -1.84192842E-10
   111.660004      -1.79245660E-10
   111.839996      -1.74604664E-10
   112.019997      -1.70071637E-10
   112.199997      -1.65456496E-10
   112.379997      -1.60611649E-10
   112.559998      -1.55462712E-10
   112.739998      -1.50023674E-10
   112.919998      -1.44394760E-10
   113.099998      -1.38741019E-10
   113.279999      -1.33261860E-10
   113.459999      -1.28156402E-10
   113.639999      -1.23593510E-10
   113.820000      -1.19687080E-10
   114.000000      -1.16479951E-10
   114.180000      -1.13933418E-10
   114.360001      -1.11924643E-10
   114.540001      -1.10254972E-10
   114.720001      -1.08673355E-10
   114.900002      -1.06915657E-10
   115.080002      -1.04754441E-10
   115.260002      -1.02048654E-10
   115.440002      -9.87778123E-11
   115.620003      -9.50501761E-11
   115.800003      -9.10770209E-11
   115.980003      -8.71213449E-11
   116.160004      -8.34298186E-11
   116.339996      -8.01713348E-11
   116.519997      -7.73930850E-11
   116.699997      -7.50110460E-11
   116.879997      -7.28320598E-11
   117.059998      -7.06060141E-11
   117.239998      -6.80911438E-11
   117.419998      -6.51176613E-11
   117.599998      -6.16360019E-11
   117.779999      -5.77373774E-11
   117.959999      -5.36460078E-11
   118.139999      -4.96860574E-11
   118.320000      -4.62338882E-11
   118.500000      -4.36657550E-11
   118.680000      -4.23124799E-11
   118.860001      -4.24261702E-11
   119.040001      -4.41601998E-11
   119.220001      -4.75649069E-11
   119.400002      -5.25951296E-11
   119.580002      -5.91303326E-11