  -34.5000000         0.00000000    
  -34.3195000         0.00000000    
  -34.1389999         0.00000000    
  -33.9584999         2.67108631E-22
  -33.7779999         6.10114283E-21
  -33.5974998         4.03694770E-20
  -33.4169998         1.59609152E-19
  -33.2364998         4.59581393E-19
  -33.0559998         1.05140653E-18
  -32.8754997         1.99641612E-18
  -32.6949997         3.20755723E-18
  -32.5144997         4.35079301E-18
  -32.3339996         4.79922705E-18
  -32.1534996         3.69377089E-18
  -31.9729996         1.41796929E-19
  -31.7924995        -6.45621458E-18
  -31.6119995        -1.60102429E-17
  -31.4314995        -2.73730906E-17
  -31.2509995        -3.81210784E-17
  -31.0704994        -4.45985015E-17
  -30.8899994        -4.23092229E-17
  -30.7094994        -2.66791572E-17
  -30.5289993         5.87453745E-18
  -30.3484993         5.67387865E-17
  -30.1679993         1.24041861E-16
  -29.9874992         2.02077828E-16
  -29.8069992         2.81546287E-16
  -29.6264992         3.50802560E-16
  -29.4459991         3.98063425E-16
  -29.2654991         4.14202658E-16
  -29.0849991         3.95495221E-16
  -28.9044991         3.45545264E-16
  -28.7240009         2.75740379E-16
  -28.5435009         2.03924704E-16
  -28.3630009         1.51488322E-16
  -28.1825008         1.39576246E-16
  -28.0020008         1.85433565E-16
  -27.8215008         2.99876239E-16
  -27.6410007         4.86489403E-16
  -27.4605007         7.42495847E-16
  -27.2800007         1.06055735E-15
  -27.0995007         1.43033615E-15
  -26.9190006         1.83865696E-15
  -26.7385006         2.26763193E-15
  -26.5580006         2.69102007E-15
  -26.3775005         3.07010713E-15
  -26.1970005         3.35113508E-15
  -26.0165005         3.46635655E-15
  -25.8360004         3.33988395E-15
  -25.6555004         2.89769844E-15
  -25.4750004         2.07910950E-15
  -25.2945004         8.45556410E-16
  -25.1140003        -8.16954013E-16
  -24.9335003        -2.90314148E-15
  -24.7530003        -5.39929717E-15
  -24.5725002        -8.29462096E-15
  -24.3920002        -1.15875784E-14
  -24.2115002        -1.52841336E-14
  -24.0310001        -1.93886892E-14
  -23.8505001        -2.38911199E-14
  -23.6700001        -2.87530111E-14
  -23.4895000        -3.38931628E-14
  -23.3090000        -3.91696393E-14
  -23.1285000        -4.43567946E-14
  -22.9480000        -4.91219953E-14
  -22.7674999        -5.30156058E-14
  -22.5869999        -5.54925877E-14
  -22.4064999        -5.59791979E-14
  -22.2259998        -5.39817926E-14
  -22.0454998        -4.92115334E-14
  -21.8649998        -4.16800180E-14
  -21.6844997        -3.17169285E-14
  -21.5039997        -1.98792636E-14
  -21.3234997        -6.75936739E-15
  -21.1429996         7.25584262E-15
  -20.9624996         2.21870014E-14
  -20.7819996         3.85317998E-14
  -20.6014996         5.71392231E-14
  -20.4209995         7.88909614E-14
  -20.2404995         1.04272947E-13
  -20.0599995         1.32982492E-13
  -19.8794994         1.63732688E-13
  -19.6989994         1.94365086E-13
  -19.5184994         2.22277397E-13
  -19.3379993         2.45044816E-13
  -19.1574993         2.61023299E-13
  -18.9769993         2.69705075E-13
  -18.7964993         2.71677456E-13
  -18.6159992         2.68184048E-13
  -18.4354992         2.60446368E-13
  -18.2549992         2.49004918E-13
  -18.0744991         2.33336516E-13
  -17.8939991         2.11895375E-13
  -17.7134991         1.82555468E-13
  -17.5330009         1.43271923E-13
  -17.3525009         9.26969344E-14
  -17.1720009         3.05188715E-14
  -16.9915009        -4.25793264E-14
  -16.8110008        -1.25273408E-13
  -16.6305008        -2.16053941E-13
  -16.4500008        -3.13535764E-13
  -16.2695007        -4.16440482E-13
  -16.0890007        -5.23238516E-13
  -15.9084997        -6.31615799E-13
  -15.7279997        -7.38051493E-13
  -15.5474997        -8.37783456E-13
  -15.3669996        -9.25296732E-13
  -15.1864996        -9.95246962E-13
  -15.0059996        -1.04351380E-12
  -14.8254995        -1.06798695E-12
  -14.6450005        -1.06875587E-12
  -14.4645004        -1.04759452E-12
  -14.2840004        -1.00692111E-12
  -14.1035004        -9.48630497E-13
  -13.9230003        -8.73255136E-13
  -13.7425003        -7.79778965E-13
  -13.5620003        -6.66153764E-13
  -13.3815002        -5.30286047E-13
  -13.2010002        -3.71077328E-13
  -13.0205002        -1.89104754E-13
  -12.8400002         1.32977939E-14
  -12.6595001         2.32531008E-13
  -12.4790001         4.64523548E-13
  -12.2985001         7.05447148E-13
  -12.1180000         9.52028604E-13
  -11.9375000         1.20134968E-12
  -11.7570000         1.45028379E-12
  -11.5764999         1.69493629E-12
  -11.3959999         1.93049027E-12
  -11.2154999         2.15171175E-12
  -11.0349998         2.35404838E-12
  -10.8544998         2.53489243E-12
  -10.6739998         2.69436166E-12
  -10.4934998         2.83496794E-12
  -10.3129997         2.95988537E-12
  -10.1324997         3.07008130E-12
  -9.95199966         3.16113433E-12
  -9.77149963         3.22093242E-12
  -9.59099960         3.22937640E-12
  -9.41049957         3.16077243E-12
  -9.22999954         2.98876982E-12
  -9.04950047         2.69288216E-12
  -8.86900043         2.26494583E-12
  -8.68850040         1.71367434E-12
  -8.50800037         1.06577128E-12
  -8.32750034         3.62842921E-13
  -8.14700031        -3.45553339E-13
  -7.96649981        -1.01133078E-12
  -7.78599977        -1.59757982E-12
  -7.60550022        -2.08615829E-12
  -7.42500019        -2.48119017E-12
  -7.24450016        -2.80749664E-12
  -7.06400013        -3.10426316E-12
  -6.88350010        -3.41548578E-12
  -6.70300007        -3.77948454E-12
  -6.52250004        -4.21993907E-12
  -6.34200001        -4.74035915E-12
  -6.16149998        -5.32294131E-12
  -5.98099995        -5.93162368E-12
  -5.80049992        -6.51823474E-12
  -5.61999989        -7.03005709E-12
  -5.43949986        -7.41716757E-12
  -5.25899982        -7.63827543E-12
  -5.07849979        -7.66454435E-12
  -4.89799976        -7.48154056E-12
  -4.71750021        -7.08997618E-12
  -4.53700018        -6.50590736E-12
  -4.35650015        -5.76073043E-12
  -4.17600012        -4.90065410E-12
  -3.99550009        -3.98483113E-12
  -3.81500006        -3.08110633E-12
  -3.63450003        -2.25882139E-12
  -3.45400000        -1.57899019E-12
  -3.27349997        -1.08335042E-12
  -3.09299994        -7.84696743E-13
  -2.91249990        -6.61190124E-13
  -2.73200011        -6.56798021E-13
  -2.55150008        -6.88648953E-13
  -2.37100005        -6.60293163E-13
  -2.19050002        -4.78146114E-13
  -2.00999999        -6.72640790E-14
  -1.82949996         6.17483224E-13
  -1.64900005         1.58772138E-12
  -1.46850002         2.82618698E-12
  -1.28799999         4.29811482E-12
  -1.10749996         5.96569148E-12
 -0.926999986         7.80071927E-12
 -0.746500015         9.79111410E-12
 -0.565999985         1.19384225E-11
 -0.385500014         1.42465571E-11
 -0.204999998         1.67045978E-11
  -2.44999994E-02     1.92688070E-11
  0.156000003         2.18496037E-11
  0.336499989         2.43082776E-11
  0.517000020         2.64657740E-11
  0.697499990         2.81227437E-11
  0.878000021         2.90870800E-11
   1.05850005         2.92030219E-11
   1.23899996         2.83754565E-11
   1.41949999         2.65840822E-11
   1.60000002         2.38845159E-11
   1.78050005         2.03964259E-11
   1.96099997         1.62818422E-11
   2.14150000         1.17187189E-11
   2.32200003         6.87571614E-12
   2.50250006         1.89322343E-12
   2.68300009        -3.12607167E-12
   2.86350012        -8.11641553E-12
   3.04399991        -1.30396518E-11
   3.22449994        -1.78708767E-11
   3.40499997        -2.25832113E-11
   3.58550000        -2.71357520E-11
   3.76600003        -3.14674710E-11
   3.94650006        -3.54982745E-11
   4.12699986        -3.91364302E-11
   4.30749989        -4.22901748E-11
   4.48799992        -4.48801447E-11
   4.66849995        -4.68492571E-11
   4.84899998        -4.81674388E-11
   5.02950001        -4.88302003E-11
   5.21000004        -4.88518011E-11
   5.39050007        -4.82554413E-11
   5.57100010        -4.70637279E-11
   5.75150013        -4.52924850E-11
   5.93200016        -4.29498208E-11
   6.11250019        -4.00406895E-11
   6.29300022        -3.65753677E-11
   6.47349977        -3.25787106E-11
   6.65399981        -2.80968530E-11
   6.83449984        -2.31983391E-11
   7.01499987        -1.79682866E-11
   7.19549990        -1.24963477E-11
   7.37599993        -6.86130319E-12
   7.55649996        -1.11652950E-12
   7.73699999         4.71888414E-12
   7.91750002         1.06602140E-11
   8.09799957         1.67469025E-11
   8.27849960         2.30238172E-11
   8.45899963         2.95181171E-11
   8.63949966         3.62170710E-11
   8.81999969         4.30524158E-11
   9.00049973         4.98951817E-11
   9.18099976         5.65623416E-11
   9.36149979         6.28340158E-11
   9.54199982         6.84771337E-11
   9.72249985         7.32705285E-11
   9.90299988         7.70259412E-11
   10.0834999         7.96009023E-11
   10.2639999         8.09016742E-11
   10.4445000         8.08774853E-11
   10.6250000         7.95089272E-11
   10.8055000         7.67952715E-11
   10.9860001         7.27448865E-11
   11.1665001         6.73715805E-11
   11.3470001         6.06972944E-11
   11.5275002         5.27599145E-11
   11.7080002         4.36228866E-11
   11.8885002         3.33834176E-11
   12.0690002         2.21769825E-11
   12.2495003         1.01764239E-11
   12.4300003        -2.41337636E-12
   12.6105003        -1.53641180E-11
   12.7910004        -2.84338508E-11
   12.9715004        -4.13763399E-11
   13.1520004        -5.39489182E-11
   13.3325005        -6.59196031E-11
   13.5129995        -7.70734657E-11
   13.6934996        -8.72200714E-11
   13.8739996        -9.62016994E-11
   14.0544996        -1.03902116E-10
   14.2349997        -1.10253792E-10
   14.4154997        -1.15241747E-10
   14.5959997        -1.18902221E-10
   14.7764997        -1.21315666E-10
   14.9569998        -1.22595503E-10
   15.1374998        -1.22875779E-10
   15.3179998        -1.22301336E-10
   15.4984999        -1.21023455E-10
   15.6789999        -1.19201496E-10
   15.8594999        -1.17010873E-10
   16.0400009        -1.14652357E-10
   16.2205009        -1.12358803E-10
   16.4009991        -1.10395547E-10
   16.5814991        -1.09050886E-10
   16.7619991        -1.08616817E-10
   16.9424992        -1.09364275E-10
   17.1229992        -1.11517066E-10
   17.3034992        -1.15232053E-10
   17.4839993        -1.20590385E-10
   17.6644993        -1.27602887E-10
   17.8449993        -1.36228903E-10
   18.0254993        -1.46403126E-10
   18.2059994        -1.58063854E-10
   18.3864994        -1.71174533E-10
   18.5669994        -1.85732499E-10
   18.7474995        -2.01762704E-10
   18.9279995        -2.19298121E-10
   19.1084995        -2.38352560E-10
   19.2889996        -2.58891825E-10
   19.4694996        -2.80813012E-10
   19.6499996        -3.03934933E-10
   19.8304996        -3.28002514E-10
   20.0109997        -3.52703255E-10
   20.1914997        -3.77692794E-10
   20.3719997        -4.02619244E-10
   20.5524998        -4.27147873E-10
   20.7329998        -4.50974369E-10
   20.9134998        -4.73832751E-10
   21.0939999        -4.95494590E-10
   21.2744999        -5.15765597E-10
   21.4549999        -5.34483791E-10
   21.6355000        -5.51517221E-10
   21.8160000        -5.66765856E-10
   21.9965000        -5.80164750E-10
   22.1770000        -5.91683924E-10
   22.3575001        -6.01325378E-10
   22.5380001        -6.09114870E-10
   22.7185001        -6.15090867E-10
   22.8990002        -6.19293727E-10
   23.0795002        -6.21758700E-10
   23.2600002        -6.22516150E-10
   23.4405003        -6.21600271E-10
   23.6210003        -6.19065188E-10
   23.8015003        -6.15002105E-10
   23.9820004        -6.09553130E-10
   24.1625004        -6.02912387E-10
   24.3430004        -5.95313021E-10
   24.5235004        -5.86996007E-10
   24.7040005        -5.78168180E-10
   24.8845005        -5.68957437E-10
   25.0650005        -5.59375657E-10
   25.2455006        -5.49302659E-10
   25.4260006        -5.38495859E-10
   25.6065006        -5.26627519E-10
   25.7870007        -5.13345311E-10
   25.9675007        -4.98340091E-10
   26.1480007        -4.81411633E-10
   26.3285007        -4.62511890E-10
   26.5090008        -4.41761544E-10
   26.6895008        -4.19432628E-10
   26.8700008        -3.95905114E-10
   27.0505009        -3.71607106E-10
   27.2310009        -3.46959211E-10
   27.4115009        -3.22331550E-10
   27.5919991        -2.98030406E-10
   27.7724991        -2.74311601E-10
   27.9529991        -2.51416860E-10
   28.1334991        -2.29617214E-10
   28.3139992        -2.09248049E-10
   28.4944992        -1.90719940E-10
   28.6749992        -1.74498041E-10
   28.8554993        -1.61049368E-10
   29.0359993        -1.50770008E-10
   29.2164993        -1.43907844E-10
   29.3969994        -1.40502054E-10
   29.5774994        -1.40357365E-10
   29.7579994        -1.43060008E-10
   29.9384995        -1.48037804E-10
   30.1189995        -1.54648822E-10
   30.2994995        -1.62281216E-10
   30.4799995        -1.70437692E-10
   30.6604996        -1.78788789E-10
   30.8409996        -1.87178384E-10
   31.0214996        -1.95587088E-10
   31.2019997        -2.04061490E-10
   31.3824997        -2.12633924E-10
   31.5629997        -2.21252280E-10
   31.7434998        -2.29741087E-10
   31.9239998        -2.37805220E-10
   32.1044998        -2.45071852E-10
   32.2849998        -2.51159787E-10
   32.4654999        -2.55755084E-10
   32.6459999        -2.58670196E-10
   32.8264999        -2.59869987E-10
   33.0070000        -2.59455596E-10
   33.1875000        -2.57612875E-10
   33.3680000        -2.54539639E-10
   33.5485001        -2.50373583E-10
   33.7290001        -2.45143267E-10
   33.9095001        -2.38755682E-10
   34.0900002        -2.31024533E-10
   34.2705002        -2.21731355E-10
   34.4510002        -2.10700332E-10
   34.6315002        -1.97864947E-10
   34.8120003        -1.83307688E-10
   34.9925003        -1.67259845E-10
   35.1730003        -1.50062449E-10
   35.3535004        -1.32097708E-10
   35.5340004        -1.13710368E-10
   35.7145004        -9.51409992E-11
   35.8950005        -7.64859009E-11
   36.0755005        -5.76962401E-11
   36.2560005        -3.86102816E-11
   36.4365005        -1.90083591E-11
   36.6170006         1.32777329E-12
   36.7975006         2.25698973E-11
   36.9780006         4.48253587E-11
   37.1585007         6.81483550E-11
   37.3390007         9.25758706E-11
   37.5195007         1.18172042E-10
   37.7000008         1.45064155E-10
   37.8805008         1.73455292E-10
   38.0610008         2.03605910E-10
   38.2415009         2.35784031E-10
   38.4220009         2.70196698E-10
   38.6025009         3.06919379E-10
   38.7830009         3.45839107E-10
   38.9635010         3.86628507E-10
   39.1440010         4.28756031E-10
   39.3245010         4.71527428E-10
   39.5050011         5.14150944E-10
   39.6855011         5.55804791E-10
   39.8660011         5.95695770E-10
   40.0465012         6.33094854E-10
   40.2270012         6.67349120E-10
   40.4075012         6.97873592E-10
   40.5880013         7.24135363E-10
   40.7685013         7.45639939E-10
   40.9490013         7.61931296E-10
   41.1295013         7.72608033E-10
   41.3100014         7.77352793E-10
   41.4905014         7.75964848E-10
   41.6710014         7.68386132E-10
   41.8515015         7.54709295E-10
   42.0320015         7.35163541E-10
   42.2125015         7.10080994E-10
   42.3930016         6.79852508E-10
   42.5735016         6.44885201E-10
   42.7540016         6.05575867E-10
   42.9345016         5.62305258E-10
   43.1150017         5.15455012E-10
   43.2955017         4.65439548E-10
   43.4760017         4.12738621E-10
   43.6565018         3.57915669E-10
   43.8370018         3.01612985E-10
   44.0175018         2.44516463E-10
   44.1980019         1.87297927E-10
   44.3785019         1.30546907E-10
   44.5589981         7.47096968E-11
   44.7394981         2.00528587E-11
   44.9199982        -3.33369027E-11
   45.1004982        -8.55139709E-11
   45.2809982        -1.36605727E-10
   45.4614983        -1.86730548E-10
   45.6419983        -2.35925030E-10
   45.8224983        -2.84100660E-10
   46.0029984        -3.31042693E-10
   46.1834984        -3.76453119E-10
   46.3639984        -4.20026264E-10
   46.5444984        -4.61538391E-10
   46.7249985        -5.00926578E-10
   46.9054985        -5.38333045E-10
   47.0859985        -5.74103987E-10
   47.2664986        -6.08735895E-10
   47.4469986        -6.42785214E-10
   47.6274986        -6.76756540E-10
   47.8079987        -7.10996539E-10
   47.9884987        -7.45616346E-10
   48.1689987        -7.80458920E-10
   48.3494987        -8.15115420E-10
   48.5299988        -8.48983051E-10
   48.7104988        -8.81350326E-10
   48.8909988        -9.11486886E-10
   49.0714989        -9.38718325E-10
   49.2519989        -9.62474433E-10
   49.4324989        -9.82305459E-10
   49.6129990        -9.97870120E-10
   49.7934990        -1.00890629E-09
   49.9739990        -1.01519881E-09
   50.1544991        -1.01655429E-09
   50.3349991        -1.01279074E-09
   50.5154991        -1.00374575E-09
   50.6959991        -9.89295312E-10
   50.8764992        -9.69380798E-10
   51.0569992        -9.44031298E-10
   51.2374992        -9.13376763E-10
   51.4179993        -8.77646178E-10
   51.5984993        -8.37153791E-10
   51.7789993        -7.92270138E-10
   51.9594994        -7.43389406E-10
   52.1399994        -6.90891788E-10
   52.3204994        -6.35107855E-10
   52.5009995        -5.76288406E-10
   52.6814995        -5.14580989E-10
   52.8619995        -4.50016080E-10
   53.0424995        -3.82506665E-10
   53.2229996        -3.11862230E-10
   53.4034996        -2.37820846E-10
   53.5839996        -1.60094965E-10
   53.7644997        -7.84280418E-11
   53.9449997         7.34247645E-12
   54.1254997         9.72319725E-11
   54.3059998         1.91071159E-10
   54.4864998         2.88494423E-10
   54.6669998         3.88958671E-10
   54.8474998         4.91792274E-10
   55.0279999         5.96261429E-10
   55.2084999         7.01646297E-10
   55.3889999         8.07305500E-10
   55.5695000         9.12715736E-10
   55.7500000         1.01747832E-09
   55.9305000         1.12128917E-09
   56.1110001         1.22388577E-09
   56.2915001         1.32497957E-09
   56.4720001         1.42419843E-09
   56.6525002         1.52105462E-09
   56.8330002         1.61494773E-09
   57.0135002         1.70520364E-09
   57.1940002         1.79114401E-09
   57.3745003         1.87216198E-09
   57.5550003         1.94779504E-09
   57.7355003         2.01776773E-09
   57.9160004         2.08199968E-09
   58.0965004         2.14057150E-09
   58.2770004         2.19366725E-09
   58.4575005         2.24149810E-09
   58.6380005         2.28423658E-09
   58.8185005         2.32197128E-09
   58.9990005         2.35469466E-09
   59.1795006         2.38232367E-09
   59.3600006         2.40473930E-09
   59.5405006         2.42183384E-09
   59.7210007         2.43355247E-09
   59.9015007         2.43990694E-09
   60.0820007         2.44096476E-09
   60.2625008         2.43681453E-09
   60.4430008         2.42751352E-09
   60.6235008         2.41304066E-09
   60.8040009         2.39326670E-09
   60.9845009         2.36795317E-09
   61.1650009         2.33678277E-09
   61.3455009         2.29942221E-09
   61.5260010         2.25559704E-09
   61.7065010         2.20516760E-09
   61.8870010         2.14818252E-09
   62.0675011         2.08490158E-09
   62.2480011         2.01577999E-09
   62.4285011         1.94142169E-09
   62.6090012         1.86250149E-09
   62.7895012         1.77969273E-09
   62.9700012         1.69359837E-09
   63.1505013         1.60471103E-09
   63.3310013         1.51341017E-09
   63.5115013         1.41998990E-09
   63.6920013         1.32471289E-09
   63.8725014         1.22787747E-09
   64.0530014         1.12987375E-09
   64.2334976         1.03122422E-09
   64.4140015         9.32588229E-10
   64.5944977         8.34737390E-10
   64.7750015         7.38504480E-10
   64.9554977         6.44715947E-10
   65.1360016         5.54128243E-10
   65.3164978         4.67375416E-10
   65.4970016         3.84941606E-10
   65.6774979         3.07161546E-10
   65.8580017         2.34242847E-10
   66.0384979         1.66303693E-10
   66.2190018         1.03414777E-10
   66.3994980         4.56304647E-11
   66.5800018        -6.99917468E-12
   66.7604980        -5.44354596E-11
   66.9410019        -9.66822108E-11
   67.1214981        -1.33822703E-10
   67.3020020        -1.66063080E-10
   67.4824982        -1.93760522E-10
   67.6630020        -2.17431864E-10
   67.8434982        -2.37734193E-10
   68.0240021        -2.55423988E-10
   68.2044983        -2.71293460E-10
   68.3850021        -2.86099477E-10
   68.5654984        -3.00494629E-10
   68.7460022        -3.14974352E-10
   68.9264984        -3.29846206E-10
   69.1070023        -3.45230594E-10
   69.2874985        -3.61087826E-10
   69.4680023        -3.77269910E-10
   69.6484985        -3.93586053E-10
   69.8290024        -4.09871720E-10
   70.0094986        -4.26049751E-10
   70.1900024        -4.42173825E-10
   70.3704987        -4.58447280E-10
   70.5510025        -4.75214756E-10
   70.7314987        -4.92927033E-10
   70.9120026        -5.12085763E-10
   71.0924988        -5.33173783E-10
   71.2730026        -5.56588109E-10
   71.4534988        -5.82583204E-10
   71.6340027        -6.11236950E-10
   71.8144989        -6.42448206E-10
   71.9950027        -6.75961287E-10
   72.1754990        -7.11419201E-10
   72.3560028        -7.48429707E-10
   72.5364990        -7.86632481E-10
   72.7170029        -8.25753910E-10
   72.8974991        -8.65637173E-10
   73.0780029        -9.06240583E-10
   73.2584991        -9.47608325E-10
   73.4390030        -9.89816229E-10
   73.6194992        -1.03291287E-09
   73.8000031        -1.07686360E-09
   73.9804993        -1.12151766E-09
   74.1610031        -1.16660070E-09
   74.3414993        -1.21173849E-09
   74.5220032        -1.25650190E-09
   74.7024994        -1.30046296E-09
   74.8830032        -1.34324496E-09
   75.0634995        -1.38455980E-09
   75.2440033        -1.42421508E-09
   75.4244995        -1.46209578E-09
   75.6050034        -1.49812052E-09
   75.7854996        -1.53218405E-09
   75.9660034        -1.56409907E-09
   76.1464996        -1.59354840E-09
   76.3270035        -1.62006386E-09
   76.5074997        -1.64303005E-09
   76.6880035        -1.66172087E-09
   76.8684998        -1.67535974E-09
   77.0490036        -1.68318870E-09
   77.2294998        -1.68454040E-09
   77.4100037        -1.67889691E-09
   77.5904999        -1.66592895E-09
   77.7710037        -1.64550362E-09
   77.9514999        -1.61767033E-09
   78.1320038        -1.58262337E-09
   78.3125000        -1.54065272E-09
   78.4929962        -1.49209811E-09
   78.6735001        -1.43731160E-09
   78.8539963        -1.37663925E-09
   79.0345001        -1.31042988E-09
   79.2149963        -1.23905486E-09
   79.3955002        -1.16294285E-09
   79.5759964        -1.08261211E-09
   79.7565002        -9.98688021E-10
   79.9369965        -9.11900333E-10
   80.1175003        -8.23056401E-10
   80.2979965        -7.32993832E-10
   80.4785004        -6.42521925E-10
   80.6589966        -5.52363544E-10
   80.8395004        -4.63110716E-10
   81.0199966        -3.75204784E-10
   81.2005005        -2.88942315E-10
   81.3809967        -2.04508702E-10
   81.5615005        -1.22030594E-10
   81.7419968        -4.16357955E-11
   81.9225006         3.64897314E-11
   82.1029968         1.12056461E-10
   82.2835007         1.84646576E-10
   82.4639969         2.53705501E-10
   82.6445007         3.18552906E-10
   82.8249969         3.78405057E-10
   83.0055008         4.32408331E-10
   83.1859970         4.79678575E-10
   83.3665009         5.19345400E-10
   83.5469971         5.50598789E-10
   83.7275009         5.72736747E-10
   83.9079971         5.85209270E-10
   84.0885010         5.87654814E-10
   84.2689972         5.79924442E-10
   84.4495010         5.62089264E-10
   84.6299973         5.34430555E-10
   84.8105011         4.97411445E-10
   84.9909973         4.51639670E-10
   85.1715012         3.97825495E-10
   85.3519974         3.36746631E-10
   85.5325012         2.69227224E-10
   85.7129974         1.96133679E-10
   85.8935013         1.18386329E-10
   86.0739975         3.69777993E-11
   86.2545013        -4.70110027E-11
   86.4349976        -1.32409042E-10
   86.6155014        -2.17973750E-10
   86.7959976        -3.02433162E-10
   86.9765015        -3.84544452E-10
   87.1569977        -4.63158623E-10
   87.3375015        -5.37279055E-10
   87.5179977        -6.06097617E-10
   87.6985016        -6.69004074E-10
   87.8789978        -7.25565941E-10
   88.0595016        -7.75487230E-10
   88.2399979        -8.18562440E-10
   88.4205017        -8.54641025E-10
   88.6009979        -8.83615792E-10
   88.7815018        -9.05441833E-10
   88.9619980        -9.20182375E-10
   89.1425018        -9.28063126E-10
   89.3229980        -9.29519295E-10
   89.5035019        -9.25213239E-10
   89.6839981        -9.16009824E-10
   89.8645020        -9.02911412E-10
   90.0449982        -8.86958729E-10
   90.2255020        -8.69125383E-10
   90.4059982        -8.50225668E-10
   90.5865021        -8.30862767E-10
   90.7669983        -8.11426593E-10
   90.9475021        -7.92141408E-10
   91.1279984        -7.73144715E-10
   91.3085022        -7.54575458E-10
   91.4889984        -7.36637640E-10
   91.6695023        -7.19623805E-10
   91.8499985        -7.03884728E-10
   92.0305023        -6.89755031E-10
   92.2109985        -6.77457423E-10
   92.3915024        -6.67014000E-10
   92.5719986        -6.58194943E-10
   92.7525024        -6.50524024E-10
   92.9329987        -6.43346043E-10
   93.1135025        -6.35939967E-10
   93.2939987        -6.27653596E-10
   93.4745026        -6.18023299E-10
   93.6549988        -6.06847128E-10
   93.8355026        -5.94189808E-10
   94.0159988        -5.80318793E-10
   94.1965027        -5.65582192E-10
   94.3769989        -5.50262891E-10
   94.5575027        -5.34444211E-10
   94.7379990        -5.17925758E-10
   94.9185028        -5.00208597E-10
   95.0989990        -4.80559204E-10
   95.2795029        -4.58136612E-10
   95.4599991        -4.32151176E-10
   95.6405029        -4.02023304E-10
   95.8209991        -3.67498948E-10
   96.0015030        -3.28702482E-10
   96.1819992        -2.86117907E-10
   96.3625031        -2.40505255E-10
   96.5429993        -1.92775435E-10
   96.7235031        -1.43855927E-10
   96.9039993        -9.45756320E-11
   97.0845032        -4.55890985E-11
   97.2649994         2.64671444E-12
   97.4455032         4.98516367E-11
   97.6259995         9.58690280E-11
   97.8065033         1.40600892E-10
   97.9869995         1.83951701E-10
   98.1675034         2.25790858E-10
   98.3479996         2.65941213E-10
   98.5285034         3.04188869E-10
   98.7089996         3.40304535E-10
   98.8895035         3.74071191E-10
   99.0699997         4.05304207E-10
   99.2505035         4.33863806E-10
   99.4309998         4.59657812E-10
   99.6115036         4.82638152E-10
   99.7919998         5.02794029E-10
   99.9725037         5.20146981E-10
   100.153000         5.34749078E-10
   100.333504         5.46686307E-10
   100.514000         5.56082680E-10
   100.694504         5.63107783E-10
   100.875000         5.67982661E-10
   101.055496         5.70986258E-10
   101.236000         5.72461467E-10
   101.416496         5.72821846E-10
   101.597000         5.72556891E-10
   101.777496         5.72232650E-10
   101.958000         5.72484893E-10
   102.138496         5.73997017E-10
   102.319000         5.77464410E-10
   102.499496         5.83543103E-10
   102.680000         5.92792204E-10
   102.860497         6.05617778E-10
   103.041000         6.22231155E-10
   103.221497         6.42631892E-10
   103.402000         6.66621924E-10
   103.582497         6.93849145E-10
   103.763000         7.23874072E-10
   103.943497         7.56245677E-10
   104.124001         7.90567889E-10
   104.304497         8.26545554E-10
   104.485001         8.63995875E-10
   104.665497         9.02826203E-10
   104.846001         9.42988465E-10
   105.026497         9.84418325E-10
   105.207001         1.02698294E-09
   105.387497         1.07044640E-09
   105.568001         1.11446574E-09
   105.748497         1.15861298E-09
   105.929001         1.20241894E-09
   106.109497         1.24542099E-09
   106.290001         1.28720123E-09
   106.470497         1.32740297E-09
   106.651001         1.36572342E-09
   106.831497         1.40187784E-09
   107.012001         1.43555479E-09
   107.192497         1.46636714E-09
   107.373001         1.49382062E-09
   107.553497         1.51730539E-09
   107.734001         1.53611579E-09
   107.914497         1.54949853E-09
   108.095001         1.55671465E-09
   108.275497         1.55710700E-09
   108.456001         1.55016111E-09
   108.636497         1.53554780E-09
   108.817001         1.51314394E-09
   108.997498         1.48303303E-09
   109.178001         1.44548962E-09
   109.358498         1.40094980E-09
   109.539001         1.34997780E-09
   109.719498         1.29323063E-09
   109.900002         1.23142718E-09
   110.080498         1.16531929E-09
   110.261002         1.09566878E-09
   110.441498         1.02322772E-09
   110.622002         9.48722656E-10
   110.802498         8.72845074E-10
   110.983002         7.96244071E-10
   111.163498         7.19522997E-10
   111.344002         6.43239129E-10
   111.524498         5.67906111E-10