 -30.   -2.869014536E-18
 -29.8099995   -2.869014536E-18
 -29.6200008   -2.869014536E-18
 -29.4300003   -2.869015157E-18
 -29.2399998   -2.86901557E-18
 -29.0499992   -2.869014743E-18
 -28.8600006   -2.869013503E-18
 -28.6700001   -2.869013089E-18
 -28.4799995   -2.869013916E-18
 -28.2900009   -2.869015777E-18
 -28.1000004   -2.869016604E-18
 -27.9099998   -2.869015777E-18
 -27.7199993   -2.869013916E-18
 -27.5300007   -2.869013089E-18
 -27.3400002   -2.869013916E-18
 -27.1499996   -2.86901557E-18
 -26.9599991   -2.869017018E-18
 -26.7700005   -2.869017432E-18
 -26.5799999   -2.869015157E-18
 -26.3899994   -2.869012882E-18
 -26.2000008   -2.869011848E-18
 -26.0100002   -2.869013089E-18
 -25.8199997   -2.869016191E-18
 -25.6299992   -2.869017432E-18
 -25.4400005   -2.869015364E-18
 -25.25   -2.869012675E-18
 -25.0599995   -2.869011021E-18
 -24.8700008   -2.869012055E-18
 -24.6800003   -2.869014743E-18
 -24.4899998   -2.869015984E-18
 -24.2999992   -2.869015777E-18
 -24.1100006   -2.869013916E-18
 -23.9200001   -2.869012055E-18
 -23.7299995   -2.869012882E-18
 -23.5400009   -2.869015777E-18
 -23.3500004   -2.869018672E-18
 -23.1599998   -2.86902012E-18
 -22.9699993   -2.869016604E-18
 -22.7800007   -2.869011641E-18
 -22.5900002   -2.869009367E-18
 -22.3999996   -2.869012055E-18
 -22.2099991   -2.869016191E-18
 -22.0200005   -2.869018052E-18
 -21.8299999   -2.869016191E-18
 -21.6399994   -2.869012262E-18
 -21.4500008   -2.869009573E-18
 -21.2600002   -2.869010194E-18
 -21.0699997   -2.86901495E-18
 -20.8799992   -2.869018672E-18
 -20.6900005   -2.869019293E-18
 -20.5   -2.869016811E-18
 -20.3099995   -2.869013503E-18
 -20.1200008   -2.869012469E-18
 -19.9300003   -2.869014123E-18
 -19.7399998   -2.869017018E-18
 -19.5499992   -2.869017225E-18
 -19.3600006   -2.869013503E-18
 -19.1700001   -2.869009367E-18
 -18.9799995   -2.869007505E-18
 -18.7900009   -2.86900978E-18
 -18.6000004   -2.869014123E-18
 -18.4099998   -2.869017638E-18
 -18.2199993   -2.869017845E-18
 -18.0300007   -2.869015364E-18
 -17.8400002   -2.869014743E-18
 -17.6499996   -2.869017018E-18
 -17.4599991   -2.869020327E-18
 -17.2700005   -2.869021568E-18
 -17.0799999   -2.869018259E-18
 -16.8899994   -2.869013296E-18
 -16.7000008   -2.869010814E-18
 -16.5100002   -2.869011641E-18
 -16.3199997   -2.869014123E-18
 -16.1299992   -2.869015157E-18
 -15.9399996   -2.869015364E-18
 -15.75   -2.869014536E-18
 -15.5600004   -2.869013296E-18
 -15.3699999   -2.869013503E-18
 -15.1800003   -2.869015364E-18
 -14.9899998   -2.869016398E-18
 -14.8000002   -2.86901433E-18
 -14.6099997   -2.86900978E-18
 -14.4200001   -2.869005851E-18
 -14.2299995   -2.869006058E-18
 -14.04   -2.869009573E-18
 -13.8500004   -2.869013709E-18
 -13.6599998   -2.869015157E-18
 -13.4700003   -2.869013089E-18
 -13.2799997   -2.869011848E-18
 -13.0900002   -2.869012882E-18
 -12.8999996   -2.869016811E-18
 -12.71   -2.8690195E-18
 -12.5200005   -2.869018672E-18
 -12.3299999   -2.869014536E-18
 -12.1400003   -2.869008333E-18
 -11.9499998   -2.869006058E-18
 -11.7600002   -2.869008539E-18
 -11.5699997   -2.869012262E-18
 -11.3800001   -2.869014123E-18
 -11.1899996   -2.869012882E-18
 -11.   -2.869012055E-18
 -10.8100004   -2.869013709E-18
 -10.6199999   -2.869018052E-18
 -10.4300003   -2.86902074E-18
 -10.2399998   -2.869019913E-18
 -10.0500002   -2.869017018E-18
 -9.85999966   -2.869014123E-18
 -9.67000008   -2.869014123E-18
 -9.47999954   -2.869015984E-18
 -9.28999996   -2.869018259E-18
 -9.10000038   -2.869017638E-18
 -8.90999985   -2.86901495E-18
 -8.72000027   -2.869013089E-18
 -8.52999973   -2.869013296E-18
 -8.34000015   -2.869014743E-18
 -8.14999962   -2.869017018E-18
 -7.96000004   -2.869016604E-18
 -7.76999998   -2.869013089E-18
 -7.57999992   -2.869009367E-18
 -7.38999987   -2.869008333E-18
 -7.19999981   -2.869010194E-18
 -7.01000023   -2.869013296E-18
 -6.82000017   -2.869016191E-18
 -6.63000011   -2.869017845E-18
 -6.44000006   -2.869017638E-18
 -6.25   -2.869018052E-18
 -6.05999994   -2.869019706E-18
 -5.86999989   -2.869021154E-18
 -5.67999983   -2.869021154E-18
 -5.48999977   -2.869018259E-18
 -5.30000019   -2.869013089E-18
 -5.11000013   -2.869010607E-18
 -4.92000008   -2.869011021E-18
 -4.73000002   -2.86901433E-18
 -4.53999996   -2.869018259E-18
 -4.3499999   -2.869019913E-18
 -4.15999985   -2.869020327E-18
 -3.97000003   -2.869019293E-18
 -3.77999997   -2.869018672E-18
 -3.58999991   -2.869018879E-18
 -3.4000001   -2.869017018E-18
 -3.21000004   -2.869012882E-18
 -3.01999998   -2.869007505E-18
 -2.82999992   -2.869001922E-18
 -2.6400001   -2.869000061E-18
 -2.45000005   -2.869001508E-18
 -2.25999999   -2.869006678E-18
 -2.06999993   -2.869013089E-18
 -1.88   -2.869016604E-18
 -1.69000006   -2.869017845E-18
 -1.5   -2.869018052E-18
 -1.30999994   -2.869018466E-18
 -1.12   -2.869019293E-18
 -0.930000007   -2.869020327E-18
 -0.74000001   -2.869019706E-18
 -0.550000012   -2.869017432E-18
 -0.360000014   -2.869015777E-18
 -0.170000002   -2.869016398E-18
 1.999999955E-2   -2.869017845E-18
 0.209999993   -2.869018259E-18
 0.400000006   -2.869017018E-18
 0.589999974   -2.869016191E-18
 0.779999971   -2.869015984E-18
 0.970000029   -2.869015984E-18
 1.15999997   -2.86901557E-18
 1.35000002   -2.869013296E-18
 1.53999996   -2.869009987E-18
 1.73000002   -2.869006885E-18
 1.91999996   -2.869006885E-18
 2.1099999   -2.869008539E-18
 2.29999995   -2.869011848E-18
 2.49000001   -2.869016191E-18
 2.68000007   -2.869019913E-18
 2.86999989   -2.869022808E-18
 3.05999994   -2.869024256E-18
 3.25   -2.869023635E-18
 3.44000006   -2.869021154E-18
 3.63000011   -2.869017225E-18
 3.81999993   -2.869011641E-18
 4.01000023   -2.869005644E-18
 4.19999981   -2.86899944E-18
 4.38999987   -2.868995925E-18
 4.57999992   -2.868996959E-18
 4.76999998   -2.869001508E-18
 4.96000004   -2.869008539E-18
 5.1500001   -2.86901433E-18
 5.34000015   -2.869017845E-18
 5.53000021   -2.869019913E-18
 5.71999979   -2.86902012E-18
 5.90999985   -2.869019913E-18
 6.0999999   -2.869019086E-18
 6.28999996   -2.869016811E-18
 6.48000002   -2.869013916E-18
 6.67000008   -2.869011848E-18
 6.86000013   -2.869011021E-18
 7.05000019   -2.869014123E-18
 7.23999977   -2.869018259E-18
 7.42999983   -2.86902074E-18
 7.61999989   -2.869020947E-18
 7.80999994   -2.869019706E-18
 8.   -2.869018052E-18
 8.18999958   -2.869018879E-18
 8.38000011   -2.86902012E-18
 8.56999969   -2.869018879E-18
 8.76000023   -2.869013916E-18
 8.94999981   -2.869007299E-18
 9.14000034   -2.869002956E-18
 9.32999992   -2.869004404E-18
 9.52000046   -2.869008953E-18
 9.71000004   -2.869013089E-18
 9.89999962   -2.869015364E-18
 10.0900002   -2.869015777E-18
 10.2799997   -2.869018879E-18
 10.4700003   -2.86902529E-18
 10.6599998   -2.869031494E-18
 10.8500004   -2.869034596E-18
 11.04   -2.869031287E-18
 11.2299995   -2.869023429E-18
 11.4200001   -2.869015984E-18
 11.6099997   -2.869013089E-18
 11.8000002   -2.869013709E-18
 11.9899998   -2.869016191E-18
 12.1800003   -2.86901495E-18
 12.3699999   -2.86900978E-18
 12.5600004   -2.869004197E-18
 12.75   -2.869002956E-18
 12.9399996   -2.869006058E-18
 13.1300001   -2.869009987E-18
 13.3199997   -2.869009987E-18
 13.5100002   -2.869005851E-18
 13.6999998   -2.869002129E-18
 13.8900003   -2.86900399E-18
 14.0799999   -2.869011228E-18
 14.2700005   -2.8690195E-18
 14.46   -2.869021154E-18
 14.6499996   -2.869017225E-18
 14.8400002   -2.869012262E-18
 15.0299997   -2.869011848E-18
 15.2200003   -2.869016604E-18
 15.4099998   -2.869021154E-18
 15.6000004   -2.869022188E-18
 15.79   -2.869018672E-18
 15.9799995   -2.869014536E-18
 16.1700001   -2.86901495E-18
 16.3600006   -2.86902074E-18
 16.5499992   -2.869027151E-18
 16.7399998   -2.869028599E-18
 16.9300003   -2.869023222E-18
 17.1200008   -2.869014123E-18
 17.3099995   -2.869007919E-18
 17.5   -2.869008333E-18
 17.6900005   -2.869012675E-18
 17.8799992   -2.869014743E-18
 18.0699997   -2.869011021E-18
 18.2600002   -2.869005024E-18
 18.4500008   -2.86900337E-18
 18.6399994   -2.869009367E-18
 18.8299999   -2.869021361E-18
 19.0200005   -2.869031494E-18
 19.2099991   -2.869034182E-18
 19.3999996   -2.869029633E-18
 19.5900002   -2.869024669E-18
 19.7800007   -2.869024049E-18
 19.9699993   -2.869028392E-18
 20.1599998   -2.869029839E-18
 20.3500004   -2.86902529E-18
 20.5400009   -2.869014123E-18
 20.7299995   -2.86900399E-18
 20.9200001   -2.869001922E-18
 21.1100006   -2.869008746E-18
 21.2999992   -2.869018879E-18
 21.4899998   -2.869023222E-18
 21.6800003   -2.869019706E-18
 21.8700008   -2.869012882E-18
 22.0599995   -2.869010607E-18
 22.25   -2.869014536E-18
 22.4400005   -2.869021774E-18
 22.6299992   -2.869024463E-18
 22.8199997   -2.869019293E-18
 23.0100002   -2.869011228E-18
 23.2000008   -2.869007092E-18
 23.3899994   -2.869012262E-18
 23.5799999   -2.869021568E-18
 23.7700005   -2.869026944E-18
 23.9599991   -2.869022808E-18
 24.1499996   -2.869012882E-18
 24.3400002   -2.869004197E-18
 24.5300007   -2.869003163E-18
 24.7199993   -2.869006885E-18
 24.9099998   -2.869007712E-18
 25.1000004   -2.869001095E-18
 25.2900009   -2.868991169E-18
 25.4799995   -2.868987653E-18
 25.6700001   -2.868994064E-18
 25.8600006   -2.869007712E-18
 26.0499992   -2.869019086E-18
 26.2399998   -2.869022808E-18
 26.4300003   -2.869019706E-18
 26.6200008   -2.869016811E-18
 26.8099995   -2.8690195E-18
 27.   -2.869027151E-18
 27.1900005   -2.869030667E-18
 27.3799992   -2.869024669E-18
 27.5699997   -2.869012882E-18
 27.7600002   -2.869002336E-18
 27.9500008   -2.869000681E-18
 28.1399994   -2.869007092E-18
 28.3299999   -2.869014123E-18
 28.5200005   -2.869013709E-18
 28.7099991   -2.869007092E-18
 28.8999996   -2.869002129E-18
 29.0900002   -2.869005231E-18
 29.2800007   -2.869015777E-18
 29.4699993   -2.869025083E-18
 29.6599998   -2.86902529E-18
 29.8500004   -2.869018259E-18
 30.0400009   -2.869010607E-18
 30.2299995   -2.869010607E-18
 30.4200001   -2.869018052E-18
 30.6100006   -2.869026324E-18
 30.7999992   -2.869027565E-18
 30.9899998   -2.869021361E-18
 31.1800003   -2.869013089E-18
 31.3700008   -2.86900978E-18
 31.5599995   -2.869014123E-18
 31.75   -2.869021981E-18
 31.9400005   -2.869024669E-18
 32.1300011   -2.869018466E-18
 32.3199997   -2.869009367E-18
 32.5099983   -2.869005437E-18
 32.7000008   -2.869011021E-18
 32.8899994   -2.869020534E-18
 33.0800018   -2.869025703E-18
 33.2700005   -2.869021774E-18
 33.4599991   -2.869013089E-18
 33.6500015   -2.869008953E-18
 33.8400002   -2.869013709E-18
 34.0299988   -2.869023429E-18
 34.2200012   -2.869028392E-18
 34.4099998   -2.86902529E-18
 34.5999985   -2.869017845E-18
 34.7900009   -2.869013296E-18
 34.9799995   -2.869017225E-18
 35.1699982   -2.869025497E-18
 35.3600006   -2.869030046E-18
 35.5499992   -2.869024256E-18
 35.7400017   -2.869010401E-18
 35.9300003   -2.86899944E-18
 36.1199989   -2.8689982E-18
 36.3100014   -2.869004197E-18
 36.5   -2.869007712E-18
 36.6899986   -2.869005024E-18
 36.8800011   -2.868996752E-18
 37.0699997   -2.868991582E-18
 37.2599983   -2.868996545E-18
 37.4500008   -2.86900978E-18
 37.6399994   -2.869023429E-18
 37.8300018   -2.869027978E-18
 38.0200005   -2.869022601E-18
 38.2099991   -2.86901433E-18
 38.4000015   -2.869012055E-18
 38.5900002   -2.869017225E-18
 38.7799988   -2.869024256E-18
 38.9700012   -2.869023429E-18
 39.1599998   -2.869013916E-18
 39.3499985   -2.869003783E-18
 39.5400009   -2.869002749E-18
 39.7299995   -2.869013709E-18
 39.9199982   -2.869028185E-18
 40.1100006   -2.869034802E-18
 40.2999992   -2.869029426E-18
 40.4900017   -2.869017845E-18
 40.6800003   -2.869010401E-18
 40.8699989   -2.869012882E-18
 41.0600014   -2.8690195E-18
 41.25   -2.869022601E-18
 41.4399986   -2.869017225E-18
 41.6300011   -2.869007505E-18
 41.8199997   -2.869001715E-18
 42.0099983   -2.869006885E-18
 42.2000008   -2.86902012E-18
 42.3899994   -2.869030046E-18
 42.5800018   -2.869029633E-18
 42.7700005   -2.869021981E-18
 42.9599991   -2.869016191E-18
 43.1500015   -2.869016398E-18
 43.3400002   -2.869023429E-18
 43.5299988   -2.869027151E-18
 43.7200012   -2.869021568E-18
 43.9099998   -2.869006885E-18
 44.0999985   -2.868995098E-18
 44.2900009   -2.86899303E-18
 44.4799995   -2.869000268E-18
 44.6699982   -2.86900978E-18
 44.8600006   -2.869013709E-18
 45.0499992   -2.869008539E-18
 45.2400017   -2.869002336E-18
 45.4300003   -2.869002956E-18
 45.6199989   -2.869012262E-18
 45.8100014   -2.869022808E-18
 46.   -2.869025703E-18
 46.1899986   -2.8690195E-18
 46.3800011   -2.869011021E-18
 46.5699997   -2.869011021E-18
 46.7599983   -2.869021568E-18
 46.9500008   -2.86903563E-18
 47.1399994   -2.869043281E-18
 47.3300018   -2.869039972E-18
 47.5200005   -2.869029839E-18
 47.7099991   -2.869022188E-18
 47.9000015   -2.869022808E-18
 48.0900002   -2.869026737E-18
 48.2799988   -2.869025703E-18
 48.4700012   -2.869015777E-18
 48.6599998   -2.869002129E-18
 48.8499985   -2.868994891E-18
 49.0400009   -2.8689982E-18
 49.2299995   -2.869007919E-18
 49.4199982   -2.869014743E-18
 49.6100006   -2.869011641E-18
 49.7999992   -2.869001715E-18
 49.9900017   -2.868993237E-18
 50.1800003   -2.868994064E-18
 50.3699989   -2.869002542E-18
 50.5600014   -2.869010194E-18
 50.75   -2.869008953E-18
 50.9399986   -2.868999854E-18
 51.1300011   -2.868993237E-18
 51.3199997   -2.868996339E-18
 51.5099983   -2.869008126E-18
 51.7000008   -2.869018259E-18
 51.8899994   -2.86902012E-18
 52.0800018   -2.869013296E-18
 52.2700005   -2.869006265E-18
 52.4599991   -2.869009573E-18
 52.6500015   -2.869020327E-18
 52.8400002   -2.869028599E-18
 53.0299988   -2.869026531E-18
 53.2200012   -2.869016191E-18
 53.4099998   -2.869005024E-18
 53.5999985   -2.86900337E-18
 53.7900009   -2.869012055E-18
 53.9799995   -2.869023635E-18
 54.1699982   -2.869027978E-18
 54.3600006   -2.869024669E-18
 54.5499992   -2.86902012E-18
 54.7400017   -2.869023429E-18
 54.9300003   -2.869034802E-18
 55.1199989   -2.869044729E-18
 55.3100014   -2.869045349E-18
 55.5   -2.869033562E-18
 55.6899986   -2.869018672E-18
 55.8800011   -2.86900916E-18
 56.0699997   -2.86900916E-18
 56.2599983   -2.869012882E-18
 56.4500008   -2.869010194E-18
 56.6399994   -2.868998406E-18
 56.8300018   -2.868984551E-18
 57.0200005   -2.8689769E-18
 57.2099991   -2.868981863E-18
 57.4000015   -2.868994891E-18
 57.5900002   -2.869006058E-18
 57.7799988   -2.86900916E-18
 57.9700012   -2.869008126E-18
 58.1599998   -2.869011228E-18
 58.3499985   -2.869024669E-18
 58.5400009   -2.869042867E-18
 58.7299995   -2.869056309E-18
 58.9199982   -2.869056516E-18
 59.1100006   -2.869047003E-18
 59.2999992   -2.869036664E-18
 59.4900017   -2.869033355E-18
 59.6800003   -2.86903687E-18
 59.8699989   -2.869039145E-18
 60.0600014   -2.869033562E-18
 60.25   -2.869020327E-18
 60.4399986   -2.869007712E-18
 60.6300011   -2.869005437E-18
 60.8199997   -2.869013296E-18
 61.0099983   -2.869023429E-18
 61.2000008   -2.869026944E-18
 61.3899994   -2.869020327E-18
 61.5800018   -2.869012055E-18
 61.7700005   -2.869013296E-18
 61.9599991   -2.869025083E-18
 62.1500015   -2.869038525E-18
 62.3400002   -2.869042661E-18
 62.5299988   -2.869033768E-18
 62.7200012   -2.869019913E-18
 62.9099998   -2.869012262E-18
 63.0999985   -2.86901433E-18
 63.2900009   -2.869019293E-18
 63.4799995   -2.869017225E-18
 63.6699982   -2.869003576E-18
 63.8600006   -2.868985999E-18
 64.0500031   -2.868976693E-18
 64.2399979   -2.868980622E-18
 64.4300003   -2.868993857E-18
 64.6200027   -2.86900461E-18
 64.8099976   -2.869006471E-18
 65.   -2.869002336E-18
 65.1900024   -2.869002542E-18
 65.3799973   -2.869012469E-18
 65.5699997   -2.869027151E-18
 65.7600021   -2.869036457E-18
 65.9499969   -2.869033975E-18
 66.1399994   -2.869021361E-18
 66.3300018   -2.869009367E-18
 66.5199966   -2.869007299E-18
 66.7099991   -2.869014743E-18
 66.9000015   -2.869023015E-18
 67.0899963   -2.869023429E-18
 67.2799988   -2.86901557E-18
 67.4700012   -2.869008953E-18
 67.6600037   -2.869012469E-18
 67.8499985   -2.869024256E-18
 68.0400009   -2.869035009E-18
 68.2300034   -2.869034596E-18
 68.4199982   -2.869021361E-18
 68.6100006   -2.869006058E-18
 68.8000031   -2.868999027E-18
 68.9899979   -2.869003783E-18
 69.1800003   -2.869011435E-18
 69.3700027   -2.869011641E-18
 69.5599976   -2.869002749E-18
 69.75   -2.868992616E-18
 69.9400024   -2.868990548E-18
 70.1299973   -2.868999854E-18
 70.3199997   -2.869012675E-18
 70.5100021   -2.869016811E-18
 70.6999969   -2.869007092E-18
 70.8899994   -2.868991789E-18
 71.0800018   -2.86898207E-18
 71.2699966   -2.868985585E-18
 71.4599991   -2.868995098E-18
 71.6500015   -2.869000061E-18
 71.8399963   -2.868993443E-18
 72.0299988   -2.868982483E-18
 72.2200012   -2.868977107E-18
 72.4100037   -2.868984138E-18
 72.5999985   -2.868999027E-18
 72.7900009   -2.869008333E-18
 72.9800034   -2.869005851E-18
 73.1699982   -2.868996132E-18
 73.3600006   -2.868989721E-18
 73.5500031   -2.868997166E-18
 73.7399979   -2.86901557E-18
 73.9300003   -2.869033355E-18
 74.1200027   -2.869040386E-18
 74.3099976   -2.869038318E-18
 74.5   -2.869037077E-18
 74.6900024   -2.869044522E-18
 74.8799973   -2.869057757E-18
 75.0699997   -2.869064788E-18
 75.2600021   -2.869056723E-18
 75.4499969   -2.869035009E-18
 75.6399994   -2.869012262E-18
 75.8300018   -2.869000681E-18
 76.0199966   -2.869002749E-18
 76.2099991   -2.869008333E-18
 76.4000015   -2.869005231E-18
 76.5899963   -2.868992616E-18
 76.7799988   -2.868981863E-18
 76.9700012   -2.868984344E-18
 77.1600037   -2.869000061E-18
 77.3499985   -2.869015777E-18
 77.5400009   -2.869018672E-18
 77.7300034   -2.869007092E-18
 77.9199982   -2.868992823E-18
 78.1100006   -2.868988687E-18
 78.3000031   -2.868996752E-18
 78.4899979   -2.869008126E-18
 78.6800003   -2.869010194E-18
 78.8700027   -2.869001508E-18
 79.0599976   -2.868989514E-18
 79.25   -2.868985792E-18
 79.4400024   -2.868993443E-18
 79.6299973   -2.869006265E-18
 79.8199997   -2.869012262E-18
 80.0100021   -2.869006265E-18
 80.1999969   -2.868995511E-18
 80.3899994   -2.868991169E-18
 80.5800018   -2.869001922E-18
 80.7699966   -2.869021361E-18
 80.9599991   -2.86903687E-18
 81.1500015   -2.869039352E-18
 81.3399963   -2.869033768E-18
 81.5299988   -2.869032734E-18
 81.7200012   -2.869041627E-18
 81.9100037   -2.869055482E-18
 82.0999985   -2.869060031E-18
 82.2900009   -2.869047624E-18
 82.4800034   -2.869022808E-18
 82.6699982   -2.869001922E-18
 82.8600006   -2.868996752E-18
 83.0500031   -2.869004404E-18
 83.2399979   -2.869011228E-18
 83.4300003   -2.869007919E-18
 83.6200027   -2.868998406E-18
 83.8099976   -2.868993857E-18
 84.   -2.869001922E-18
 84.1900024   -2.869019913E-18
 84.3799973   -2.869032114E-18
 84.5699997   -2.869029219E-18
 84.7600021   -2.869011021E-18
 84.9499969   -2.868993237E-18
 85.1399994   -2.868990135E-18
 85.3300018   -2.869001302E-18
 85.5199966   -2.869013089E-18
 85.7099991   -2.869014743E-18
 85.9000015   -2.869005231E-18
 86.0899963   -2.868996959E-18
 86.2799988   -2.869000681E-18
 86.4700012   -2.869016191E-18
 86.6600037   -2.869030046E-18
 86.8499985   -2.869029839E-18
 87.0400009   -2.869013089E-18
 87.2300034   -2.868992203E-18
 87.4199982   -2.868981863E-18
 87.6100006   -2.868986206E-18
 87.8000031   -2.868995098E-18
 87.9899979   -2.868995511E-18
 88.1800003   -2.868983517E-18
 88.3700027   -2.868970076E-18
 88.5599976   -2.868969662E-18
 88.75   -2.868986412E-18
 88.9400024   -2.869009987E-18
 89.1299973   -2.869026531E-18
 89.3199997   -2.869028805E-18
 89.5100021   -2.869022601E-18
 89.6999969   -2.869021568E-18
 89.8899994   -2.869032734E-18
 90.0800018   -2.869050726E-18
 90.2699966   -2.869062306E-18
 90.4599991   -2.869059411E-18
 90.6500015   -2.869048037E-18
 90.8399963   -2.869039559E-18
 91.0299988   -2.869044108E-18
 91.2200012   -2.869056102E-18
 91.4100037   -2.869061893E-18
 91.5999985   -2.869052587E-18
 91.7900009   -2.869031907E-18
 91.9800034   -2.869014123E-18
 92.1699982   -2.869009573E-18
 92.3600006   -2.869019913E-18
 92.5500031   -2.869034389E-18
 92.7399979   -2.869040593E-18
 92.9300003   -2.869038318E-18
 93.1200027   -2.869035009E-18
 93.3099976   -2.869042454E-18
 93.5   -2.869059411E-18
 93.6900024   -2.869074093E-18
 93.8799973   -2.869072439E-18
 94.0699997   -2.869052794E-18
 94.2600021   -2.869026944E-18
 94.4499969   -2.869008953E-18
 94.6399994   -2.869003163E-18
 94.8300018   -2.86900337E-18
 95.0199966   -2.868999234E-18
 95.2099991   -2.868987033E-18
 95.4000015   -2.868974005E-18
 95.5899963   -2.868971523E-18
 95.7799988   -2.86898269E-18
 95.9700012   -2.86899882E-18
 96.1600037   -2.869008333E-18
 96.3499985   -2.869005851E-18
 96.5400009   -2.868995925E-18
 96.7300034   -2.86898848E-18
 96.9199982   -2.868990341E-18
 97.1100006   -2.868997786E-18
 97.3000031   -2.869001508E-18
 97.4899979   -2.868995925E-18
 97.6800003   -2.868984965E-18
 97.8700027   -2.868980622E-18
 98.0599976   -2.868989721E-18
 98.25   -2.869006265E-18
 98.4400024   -2.869018879E-18
 98.6299973   -2.869018052E-18
 98.8199997   -2.869008126E-18
 99.0100021   -2.869002129E-18
 99.1999969   -2.869007299E-18
 99.3899994   -2.869020327E-18
 99.5800018   -2.8690317E-18
 99.7699966   -2.8690317E-18
 99.9599991   -2.869022395E-18
 100.150002   -2.869017018E-18
 100.339996   -2.869023222E-18
 100.529999   -2.869038938E-18
 100.720001   -2.869050726E-18
 100.910004   -2.869048451E-18
 101.099998   -2.869033768E-18
 101.290001   -2.869017845E-18
 101.480003   -2.869011848E-18
 101.669998   -2.869017638E-18
 101.860001   -2.869027565E-18
 102.050003   -2.869029012E-18
 102.239998   -2.869019086E-18
 102.43   -2.869006471E-18
 102.620003   -2.869002129E-18
 102.809998   -2.869008126E-18
 103.   -2.869017845E-18
 103.190002   -2.869018052E-18
 103.379997   -2.869004197E-18
 103.57   -2.868984138E-18
 103.760002   -2.868971316E-18
 103.949997   -2.868973591E-18
 104.139999   -2.868984344E-18
 104.330002   -2.868994064E-18
 104.519997   -2.868995305E-18
 104.709999   -2.868993443E-18
 104.900002   -2.868997993E-18
 105.089996   -2.869013296E-18
 105.279999   -2.869033768E-18
 105.470001   -2.86904659E-18
 105.660004   -2.869045349E-18
 105.849998   -2.869036457E-18
 106.040001   -2.869030046E-18
 106.230003   -2.869032114E-18
 106.419998   -2.869040179E-18
 106.610001   -2.869045349E-18
 106.800003   -2.869040593E-18
 106.989998   -2.869029633E-18
 107.18   -2.869022188E-18
 107.370003   -2.869024669E-18
 107.559998   -2.869035009E-18
 107.75   -2.869041833E-18
 107.940002   -2.869037491E-18
 108.129997   -2.869023429E-18
 108.32   -2.869009367E-18
 108.510002   -2.869005231E-18
 108.699997   -2.869012262E-18
 108.889999   -2.869021774E-18
 109.080002   -2.869023429E-18
 109.269997   -2.869016811E-18
 109.459999   -2.869008953E-18
 109.650002   -2.869009987E-18
 109.839996   -2.869020534E-18
 110.029999   -2.869034389E-18
 110.220001   -2.869039352E-18
 110.410004   -2.869030667E-18
 110.599998   -2.86901557E-18
 110.790001   -2.86900337E-18
 110.980003   -2.869000474E-18
 111.169998   -2.869002956E-18
 111.360001   -2.869001095E-18
 111.550003   -2.868988894E-18
 111.739998   -2.868970903E-18
 111.93   -2.868959529E-18
 112.120003   -2.868962011E-18
 112.309998   -2.868974832E-18
 112.5   -2.868987446E-18
 112.690002   -2.868990341E-18
 112.879997   -2.868986412E-18
 113.07   -2.868983931E-18
 113.260002   -2.868990962E-18
 113.449997   -2.86900399E-18
 113.639999   -2.869011435E-18
 113.830002   -2.869007712E-18
 114.019997   -2.868997993E-18
 114.209999   -2.868990962E-18
 114.400002   -2.868994271E-18
 114.589996   -2.869005024E-18
 114.779999   -2.869014743E-18
 114.970001   -2.869017225E-18
 115.160004   -2.869013709E-18
 115.349998   -2.869011641E-18
 115.540001   -2.869018879E-18
 115.730003   -2.869031907E-18
 115.919998   -2.869042661E-18
 116.110001   -2.869044315E-18
 116.300003   -2.869036664E-18
 116.489998   -2.869027771E-18
 116.68   -2.869028392E-18
 116.870003   -2.869036664E-18
 117.059998   -2.869044315E-18
 117.25   -2.869040799E-18
 117.440002   -2.86902529E-18
 117.629997   -2.86900978E-18
 117.82   -2.869005024E-18
 118.010002   -2.869011641E-18
 118.199997   -2.869021361E-18
 118.389999   -2.869021361E-18
 118.580002   -2.869010607E-18
 118.769997   -2.868996339E-18
 118.959999   -2.868990755E-18
 119.150002   -2.868996752E-18
 119.339996   -2.869006265E-18
 119.529999   -2.869007299E-18
 119.720001   -2.868994684E-18
 119.910004   -2.868977107E-18
 120.099998   -2.868969662E-18
 120.290001   -2.868977107E-18
 120.480003   -2.868992203E-18
 120.669998   -2.869002129E-18
 120.860001   -2.869001715E-18
 121.050003   -2.868996752E-18
 121.239998   -2.86899944E-18
 121.43   -2.869015364E-18
 121.620003   -2.869039765E-18
 121.809998   -2.869056309E-18
 122.   -2.869056929E-18
 122.190002   -2.869045142E-18
 122.379997   -2.869036043E-18
 122.57   -2.869038525E-18
 122.760002   -2.869048864E-18
 122.949997   -2.869054862E-18
 123.139999   -2.869046797E-18
 123.330002   -2.869031494E-18
 123.519997   -2.869022188E-18
 123.709999   -2.869029012E-18
 123.900002   -2.869047624E-18
 124.089996   -2.869064167E-18
 124.279999   -2.869066442E-18
 124.470001   -2.869054448E-18
 124.660004   -2.86904204E-18
 124.849998   -2.869040593E-18
 125.040001   -2.869050312E-18
 125.230003   -2.869058377E-18
 125.419998   -2.869051553E-18
 125.610001   -2.86903108E-18
 125.800003   -2.869012262E-18
 125.989998   -2.869006678E-18
 126.18   -2.869013089E-18
 126.370003   -2.869018879E-18
 126.559998   -2.869012262E-18
 126.75   -2.868994684E-18
 126.940002   -2.86897752E-18
 127.129997   -2.868973591E-18
 127.32   -2.868983724E-18
 127.510002   -2.868997786E-18
 127.699997   -2.869002336E-18
 127.889999   -2.868994891E-18
 128.080002   -2.868985585E-18
 128.270004   -2.868987033E-18
 128.460007   -2.869001715E-18
 128.649994   -2.869020327E-18
 128.839996   -2.869027771E-18
 129.029999   -2.869017845E-18
 129.220001   -2.869001095E-18
 129.410004   -2.868994064E-18
 129.600006   -2.869001508E-18
 129.789993   -2.869013916E-18
 129.979996   -2.869016604E-18
 130.169998   -2.869005437E-18
 130.360001   -2.868991169E-18
 130.550003   -2.868987033E-18
 130.740005   -2.868997372E-18
 130.929993   -2.869013709E-18
 131.119995   -2.869020534E-18
 131.309998   -2.869011021E-18
 131.5   -2.86899365E-18
 131.690002   -2.86898331E-18
 131.880005   -2.868985999E-18
 132.070007   -2.868995925E-18
 132.259995   -2.868999854E-18
 132.449997   -2.868992203E-18
 132.639999   -2.868980208E-18
 132.830002   -2.868976486E-18
 133.020004   -2.868987446E-18
 133.210007   -2.869006471E-18
 133.399994   -2.869019913E-18
 133.589996   -2.869019293E-18
 133.779999   -2.869008333E-18
 133.970001   -2.869000061E-18
 134.160004   -2.869003163E-18
 134.350006   -2.869016191E-18
 134.539993   -2.869026944E-18
 134.729996   -2.869026531E-18
 134.919998   -2.869015984E-18
 135.110001   -2.869006471E-18
 135.300003   -2.86900916E-18
 135.490005   -2.869024876E-18
 135.679993   -2.869039972E-18
 135.869995   -2.869042661E-18
 136.059998   -2.869032734E-18
 136.25   -2.869020534E-18
 136.440002   -2.869019086E-18
 136.630005   -2.869030253E-18
 136.820007   -2.869044315E-18
 137.009995   -2.869047624E-18
 137.199997   -2.869037904E-18
 137.389999   -2.869024463E-18
 137.580002   -2.869021154E-18
 137.770004   -2.869029219E-18
 137.960007   -2.869040386E-18
 138.149994   -2.869041006E-18
 138.339996   -2.869027771E-18
 138.529999   -2.869010194E-18
 138.720001   -2.869001302E-18
 138.910004   -2.869006471E-18
 139.100006   -2.869016604E-18
 139.289993   -2.869019293E-18
 139.479996   -2.869008953E-18
 139.669998   -2.868994891E-18
 139.860001   -2.868989721E-18
 140.050003   -2.868998406E-18
 140.240005   -2.869013709E-18
 140.429993   -2.869022808E-18
 140.619995   -2.869015777E-18
 140.809998   -2.869000681E-18
 141.   -2.868991996E-18
 141.190002   -2.868999854E-18
 141.380005   -2.869017225E-18
 141.570007   -2.869031494E-18
 141.759995   -2.869033562E-18
 141.949997   -2.869028392E-18
 142.139999   -2.869026944E-18
 142.330002   -2.869037904E-18
 142.520004   -2.869057757E-18
 142.710007   -2.869072853E-18
 142.899994   -2.869071819E-18
 143.089996   -2.869057136E-18
 143.279999   -2.869041833E-18
 143.470001   -2.869036457E-18
 143.660004   -2.86904142E-18
 143.850006   -2.869045142E-18
 144.039993   -2.869038732E-18
 144.229996   -2.869023222E-18
 144.419998   -2.869010401E-18
 144.610001   -2.869009573E-18
 144.800003   -2.86902012E-18
 144.990005   -2.869031494E-18
 145.179993   -2.869031494E-18
 145.369995   -2.869021154E-18
 145.559998   -2.86900916E-18
 145.75   -2.869005851E-18
 145.940002   -2.869013089E-18
 146.130005   -2.86902012E-18
 146.320007   -2.869016811E-18
 146.509995   -2.869001715E-18
 146.699997   -2.868985172E-18
 146.889999   -2.868980415E-18
 147.080002   -2.868985999E-18
 147.270004   -2.868992616E-18
 147.460007   -2.868990341E-18
 147.649994   -2.868976279E-18
 147.839996   -2.868960149E-18
 148.029999   -2.868953532E-18
 148.220001   -2.868960356E-18
 148.410004   -2.868974418E-18
 148.600006   -2.868983104E-18
 148.789993   -2.86898207E-18
 148.979996   -2.86897752E-18
 149.169998   -2.868980829E-18
 149.360001   -2.868996959E-18
 149.550003   -2.869019086E-18
 149.740005   -2.86903563E-18
 149.929993   -2.869038111E-18
 150.119995   -2.869030873E-18
 150.309998   -2.869024256E-18
 150.5   -2.869027565E-18
 150.690002   -2.869040179E-18
 150.880005   -2.869051966E-18
 151.070007   -2.869055275E-18
 151.259995   -2.869049071E-18
 151.449997   -2.869043695E-18
 151.639999   -2.86904783E-18
 151.830002   -2.869063754E-18
 152.020004   -2.869080297E-18
 152.210007   -2.869086294E-18
 152.399994   -2.869079263E-18
 152.589996   -2.86906851E-18
 152.779999   -2.869066856E-18
 152.970001   -2.869075127E-18
 153.160004   -2.869083606E-18
 153.350006   -2.869081745E-18
 153.539993   -2.869065408E-18
 153.729996   -2.869043695E-18
 153.919998   -2.869029012E-18
 154.110001   -2.869027358E-18
 154.300003   -2.869029012E-18
 154.490005   -2.869022188E-18
 154.679993   -2.869002542E-18
 154.869995   -2.868976279E-18
 155.059998   -2.868956427E-18