 -30.   9.746992585E-18
 -29.8099995   9.746992585E-18
 -29.6200008   9.746992585E-18
 -29.4300003   9.746992585E-18
 -29.2399998   9.746993413E-18
 -29.0499992   9.746993413E-18
 -28.8600006   9.74699424E-18
 -28.6700001   9.746993413E-18
 -28.4799995   9.746993413E-18
 -28.2900009   9.746993413E-18
 -28.1000004   9.746992585E-18
 -27.9099998   9.746992585E-18
 -27.7199993   9.746992585E-18
 -27.5300007   9.746992585E-18
 -27.3400002   9.746992585E-18
 -27.1499996   9.746993413E-18
 -26.9599991   9.74699424E-18
 -26.7700005   9.74699424E-18
 -26.5799999   9.746995067E-18
 -26.3899994   9.746995067E-18
 -26.2000008   9.74699424E-18
 -26.0100002   9.746993413E-18
 -25.8199997   9.746993413E-18
 -25.6299992   9.746992585E-18
 -25.4400005   9.746992585E-18
 -25.25   9.746993413E-18
 -25.0599995   9.746993413E-18
 -24.8700008   9.74699424E-18
 -24.6800003   9.746995067E-18
 -24.4899998   9.74699424E-18
 -24.2999992   9.74699424E-18
 -24.1100006   9.74699424E-18
 -23.9200001   9.746993413E-18
 -23.7299995   9.746993413E-18
 -23.5400009   9.746992585E-18
 -23.3500004   9.746991758E-18
 -23.1599998   9.746991758E-18
 -22.9699993   9.746991758E-18
 -22.7800007   9.746991758E-18
 -22.5900002   9.746993413E-18
 -22.3999996   9.74699424E-18
 -22.2099991   9.74699424E-18
 -22.0200005   9.74699424E-18
 -21.8299999   9.74699424E-18
 -21.6399994   9.746993413E-18
 -21.4500008   9.746991758E-18
 -21.2600002   9.746991758E-18
 -21.0699997   9.746991758E-18
 -20.8799992   9.746991758E-18
 -20.6900005   9.746991758E-18
 -20.5   9.746992585E-18
 -20.3099995   9.746993413E-18
 -20.1200008   9.74699424E-18
 -19.9300003   9.74699424E-18
 -19.7399998   9.746993413E-18
 -19.5499992   9.746993413E-18
 -19.3600006   9.746992585E-18
 -19.1700001   9.746991758E-18
 -18.9799995   9.746991758E-18
 -18.7900009   9.746990931E-18
 -18.6000004   9.746991758E-18
 -18.4099998   9.746991758E-18
 -18.2199993   9.746993413E-18
 -18.0300007   9.74699424E-18
 -17.8400002   9.746995067E-18
 -17.6499996   9.746995894E-18
 -17.4599991   9.746995067E-18
 -17.2700005   9.746995067E-18
 -17.0799999   9.746993413E-18
 -16.8899994   9.746992585E-18
 -16.7000008   9.746991758E-18
 -16.5100002   9.746990931E-18
 -16.3199997   9.746990931E-18
 -16.1299992   9.746990931E-18
 -15.9399996   9.746990931E-18
 -15.75   9.746991758E-18
 -15.5600004   9.746992585E-18
 -15.3699999   9.746993413E-18
 -15.1800003   9.746992585E-18
 -14.9899998   9.746992585E-18
 -14.8000002   9.746992585E-18
 -14.6099997   9.746991758E-18
 -14.4200001   9.746990931E-18
 -14.2299995   9.746990931E-18
 -14.04   9.746990104E-18
 -13.8500004   9.746990104E-18
 -13.6599998   9.746990104E-18
 -13.4700003   9.746992585E-18
 -13.2799997   9.74699424E-18
 -13.0900002   9.746996721E-18
 -12.8999996   9.746998376E-18
 -12.71   9.746999203E-18
 -12.5200005   9.746999203E-18
 -12.3299999   9.746997548E-18
 -12.1400003   9.746995067E-18
 -11.9499998   9.746993413E-18
 -11.7600002   9.746991758E-18
 -11.5699997   9.746990931E-18
 -11.3800001   9.746991758E-18
 -11.1899996   9.746992585E-18
 -11.   9.74699424E-18
 -10.8100004   9.746995894E-18
 -10.6199999   9.746996721E-18
 -10.4300003   9.746995894E-18
 -10.2399998   9.74699424E-18
 -10.0500002   9.746990931E-18
 -9.85999966   9.746987622E-18
 -9.67000008   9.746984314E-18
 -9.47999954   9.746982659E-18
 -9.28999996   9.746982659E-18
 -9.10000038   9.746985968E-18
 -8.90999985   9.746989277E-18
 -8.72000027   9.746993413E-18
 -8.52999973   9.746996721E-18
 -8.34000015   9.746999203E-18
 -8.14999962   9.746999203E-18
 -7.96000004   9.746997548E-18
 -7.76999998   9.74699424E-18
 -7.57999992   9.746990931E-18
 -7.38999987   9.746988449E-18
 -7.19999981   9.746987622E-18
 -7.01000023   9.746989277E-18
 -6.82000017   9.746992585E-18
 -6.63000011   9.746996721E-18
 -6.44000006   9.747000857E-18
 -6.25   9.747004166E-18
 -6.05999994   9.747004993E-18
 -5.86999989   9.747003339E-18
 -5.67999983   9.74700003E-18
 -5.48999977   9.746995894E-18
 -5.30000019   9.746991758E-18
 -5.11000013   9.746988449E-18
 -4.92000008   9.746988449E-18
 -4.73000002   9.746989277E-18
 -4.53999996   9.746991758E-18
 -4.3499999   9.74699424E-18
 -4.15999985   9.746995894E-18
 -3.97000003   9.746995894E-18
 -3.77999997   9.74699424E-18
 -3.58999991   9.746990104E-18
 -3.4000001   9.746985141E-18
 -3.21000004   9.746981832E-18
 -3.01999998   9.74697935E-18
 -2.82999992   9.746978523E-18
 -2.6400001   9.746980178E-18
 -2.45000005   9.746983486E-18
 -2.25999999   9.746986795E-18
 -2.06999993   9.746990104E-18
 -1.88   9.746993413E-18
 -1.69000006   9.74699424E-18
 -1.5   9.74699424E-18
 -1.30999994   9.746992585E-18
 -1.12   9.746990931E-18
 -0.930000007   9.746990104E-18
 -0.74000001   9.746990104E-18
 -0.550000012   9.746990931E-18
 -0.360000014   9.746993413E-18
 -0.170000002   9.746995894E-18
 1.999999955E-2   9.746999203E-18
 0.209999993   9.747000857E-18
 0.400000006   9.747000857E-18
 0.589999974   9.746999203E-18
 0.779999971   9.746996721E-18
 0.970000029   9.746993413E-18
 1.15999997   9.746990104E-18
 1.35000002   9.746988449E-18
 1.53999996   9.746988449E-18
 1.73000002   9.746988449E-18
 1.91999996   9.746990104E-18
 2.1099999   9.746991758E-18
 2.29999995   9.746991758E-18
 2.49000001   9.746991758E-18
 2.68000007   9.746990931E-18
 2.86999989   9.746988449E-18
 3.05999994   9.746985968E-18
 3.25   9.746983486E-18
 3.44000006   9.746982659E-18
 3.63000011   9.746983486E-18
 3.81999993   9.746985968E-18
 4.01000023   9.746989277E-18
 4.19999981   9.746993413E-18
 4.38999987   9.746995894E-18
 4.57999992   9.746998376E-18
 4.76999998   9.746999203E-18
 4.96000004   9.746997548E-18
 5.1500001   9.746995067E-18
 5.34000015   9.746991758E-18
 5.53000021   9.746989277E-18
 5.71999979   9.746988449E-18
 5.90999985   9.746988449E-18
 6.0999999   9.746990104E-18
 6.28999996   9.746992585E-18
 6.48000002   9.746996721E-18
 6.67000008   9.746999203E-18
 6.86000013   9.747000857E-18
 7.05000019   9.74700003E-18
 7.23999977   9.746998376E-18
 7.42999983   9.746995067E-18
 7.61999989   9.746990931E-18
 7.80999994   9.746988449E-18
 8.   9.746986795E-18
 8.18999958   9.746987622E-18
 8.38000011   9.746990104E-18
 8.56999969   9.746992585E-18
 8.76000023   9.746995894E-18
 8.94999981   9.746997548E-18
 9.14000034   9.746997548E-18
 9.32999992   9.746995894E-18
 9.52000046   9.746992585E-18
 9.71000004   9.746988449E-18
 9.89999962   9.746985141E-18
 10.0900002   9.746982659E-18
 10.2799997   9.746983486E-18
 10.4700003   9.746985968E-18
 10.6599998   9.746990104E-18
 10.8500004   9.746995067E-18
 11.04   9.746999203E-18
 11.2299995   9.747001684E-18
 11.4200001   9.747002511E-18
 11.6099997   9.747001684E-18
 11.8000002   9.746999203E-18
 11.9899998   9.746995894E-18
 12.1800003   9.746993413E-18
 12.3699999   9.746992585E-18
 12.5600004   9.746993413E-18
 12.75   9.746995894E-18
 12.9399996   9.746999203E-18
 13.1300001   9.747001684E-18
 13.3199997   9.747001684E-18
 13.5100002   9.747000857E-18
 13.6999998   9.746997548E-18
 13.8900003   9.746992585E-18
 14.0799999   9.746987622E-18
 14.2700005   9.746982659E-18
 14.46   9.74697935E-18
 14.6499996   9.746978523E-18
 14.8400002   9.746981005E-18
 15.0299997   9.746984314E-18
 15.2200003   9.746989277E-18
 15.4099998   9.746993413E-18
 15.6000004   9.746995894E-18
 15.79   9.746996721E-18
 15.9799995   9.746995894E-18
 16.1700001   9.746992585E-18
 16.3600006   9.746990104E-18
 16.5499992   9.746987622E-18
 16.7399998   9.746987622E-18
 16.9300003   9.746990104E-18
 17.1200008   9.746993413E-18
 17.3099995   9.746998376E-18
 17.5   9.747003339E-18
 17.6900005   9.747004993E-18
 17.8799992   9.747004993E-18
 18.0699997   9.747002511E-18
 18.2600002   9.746997548E-18
 18.4500008   9.746991758E-18
 18.6399994   9.746985968E-18
 18.8299999   9.746982659E-18
 19.0200005   9.746981832E-18
 19.2099991   9.746984314E-18
 19.3999996   9.746988449E-18
 19.5900002   9.746995067E-18
 19.7800007   9.74700003E-18
 19.9699993   9.747002511E-18
 20.1599998   9.747001684E-18
 20.3500004   9.746998376E-18
 20.5400009   9.746992585E-18
 20.7299995   9.746987622E-18
 20.9200001   9.746983486E-18
 21.1100006   9.746981832E-18
 21.2999992   9.746982659E-18
 21.4899998   9.746986795E-18
 21.6800003   9.746992585E-18
 21.8700008   9.746999203E-18
 22.0599995   9.747003339E-18
 22.25   9.747004993E-18
 22.4400005   9.747003339E-18
 22.6299992   9.746998376E-18
 22.8199997   9.746991758E-18
 23.0100002   9.746985141E-18
 23.2000008   9.746981005E-18
 23.3899994   9.746981005E-18
 23.5799999   9.746984314E-18
 23.7700005   9.746989277E-18
 23.9599991   9.746995894E-18
 24.1499996   9.747001684E-18
 24.3400002   9.74700582E-18
 24.5300007   9.74700582E-18
 24.7199993   9.747002511E-18
 24.9099998   9.746995894E-18
 25.1000004   9.746988449E-18
 25.2900009   9.746982659E-18
 25.4799995   9.746980178E-18
 25.6700001   9.746981832E-18
 25.8600006   9.746985968E-18
 26.0499992   9.746992585E-18
 26.2399998   9.746999203E-18
 26.4300003   9.747004993E-18
 26.6200008   9.747008302E-18
 26.8099995   9.747006647E-18
 27.   9.747002511E-18
 27.1900005   9.746995894E-18
 27.3799992   9.746990104E-18
 27.5699997   9.746985141E-18
 27.7600002   9.746984314E-18
 27.9500008   9.746986795E-18
 28.1399994   9.746993413E-18
 28.3299999   9.747000857E-18
 28.5200005   9.747008302E-18
 28.7099991   9.747013265E-18
 28.8999996   9.747014092E-18
 29.0900002   9.74701161E-18
 29.2800007   9.747006647E-18
 29.4699993   9.746999203E-18
 29.6599998   9.746991758E-18
 29.8500004   9.746986795E-18
 30.0400009   9.746985141E-18
 30.2299995   9.746986795E-18
 30.4200001   9.746991758E-18
 30.6100006   9.746996721E-18
 30.7999992   9.747001684E-18
 30.9899998   9.747004993E-18
 31.1800003   9.747004166E-18
 31.3700008   9.74700003E-18
 31.5599995   9.74699424E-18
 31.75   9.746987622E-18
 31.9400005   9.746981832E-18
 32.1300011   9.746978523E-18
 32.3199997   9.746980178E-18
 32.5099983   9.746984314E-18
 32.7000008   9.746991758E-18
 32.8899994   9.74700003E-18
 33.0800018   9.747006647E-18
 33.2700005   9.747009956E-18
 33.4599991   9.747009956E-18
 33.6500015   9.74700582E-18
 33.8400002   9.746999203E-18
 34.0299988   9.746992585E-18
 34.2200012   9.746986795E-18
 34.4099998   9.746983486E-18
 34.5999985   9.746984314E-18
 34.7900009   9.746988449E-18
 34.9799995   9.74699424E-18
 35.1699982   9.746999203E-18
 35.3600006   9.747002511E-18
 35.5499992   9.747003339E-18
 35.7400017   9.74700003E-18
 35.9300003   9.74699424E-18
 36.1199989   9.746987622E-18
 36.3100014   9.746982659E-18
 36.5   9.74697935E-18
 36.6899986   9.746980178E-18
 36.8800011   9.746984314E-18
 37.0699997   9.746990104E-18
 37.2599983   9.746995894E-18
 37.4500008   9.74700003E-18
 37.6399994   9.747001684E-18
 37.8300018   9.747000857E-18
 38.0200005   9.746997548E-18
 38.2099991   9.746993413E-18
 38.4000015   9.746989277E-18
 38.5900002   9.746986795E-18
 38.7799988   9.746987622E-18
 38.9700012   9.746989277E-18
 39.1599998   9.746992585E-18
 39.3499985   9.746995894E-18
 39.5400009   9.746999203E-18
 39.7299995   9.747000857E-18
 39.9199982   9.74700003E-18
 40.1100006   9.746996721E-18
 40.2999992   9.746993413E-18
 40.4900017   9.746990104E-18
 40.6800003   9.746988449E-18
 40.8699989   9.746989277E-18
 41.0600014   9.746990931E-18
 41.25   9.746995067E-18
 41.4399986   9.74700003E-18
 41.6300011   9.747003339E-18
 41.8199997   9.74700582E-18
 42.0099983   9.747004993E-18
 42.2000008   9.747003339E-18
 42.3899994   9.746999203E-18
 42.5800018   9.746995067E-18
 42.7700005   9.746992585E-18
 42.9599991   9.746990931E-18
 43.1500015   9.746991758E-18
 43.3400002   9.746993413E-18
 43.5299988   9.746995894E-18
 43.7200012   9.746998376E-18
 43.9099998   9.746998376E-18
 44.0999985   9.746996721E-18
 44.2900009   9.746993413E-18
 44.4799995   9.746987622E-18
 44.6699982   9.746982659E-18
 44.8600006   9.746977696E-18
 45.0499992   9.746975215E-18
 45.2400017   9.746976042E-18
 45.4300003   9.746980178E-18
 45.6199989   9.746985968E-18
 45.8100014   9.746991758E-18
 46.   9.746996721E-18
 46.1899986   9.747000857E-18
 46.3800011   9.747000857E-18
 46.5699997   9.746999203E-18
 46.7599983   9.746995894E-18
 46.9500008   9.746990931E-18
 47.1399994   9.746986795E-18
 47.3300018   9.746984314E-18
 47.5200005   9.746984314E-18
 47.7099991   9.746985968E-18
 47.9000015   9.746989277E-18
 48.0900002   9.746992585E-18
 48.2799988   9.746995067E-18
 48.4700012   9.74699424E-18
 48.6599998   9.746991758E-18
 48.8499985   9.746986795E-18
 49.0400009   9.746982659E-18
 49.2299995   9.746978523E-18
 49.4199982   9.746976042E-18
 49.6100006   9.746976869E-18
 49.7999992   9.746980178E-18
 49.9900017   9.746985141E-18
 50.1800003   9.746990931E-18
 50.3699989   9.746996721E-18
 50.5600014   9.74700003E-18
 50.75   9.747001684E-18
 50.9399986   9.747000857E-18
 51.1300011   9.746998376E-18
 51.3199997   9.74699424E-18
 51.5099983   9.746990931E-18
 51.7000008   9.746990104E-18
 51.8899994   9.746990104E-18
 52.0800018   9.746991758E-18
 52.2700005   9.74699424E-18
 52.4599991   9.746996721E-18
 52.6500015   9.746998376E-18
 52.8400002   9.746998376E-18
 53.0299988   9.746997548E-18
 53.2200012   9.746995894E-18
 53.4099998   9.746992585E-18
 53.5999985   9.746991758E-18
 53.7900009   9.746992585E-18
 53.9799995   9.746995067E-18
 54.1699982   9.746999203E-18
 54.3600006   9.747004993E-18
 54.5499992   9.747009956E-18
 54.7400017   9.747014092E-18
 54.9300003   9.747014919E-18
 55.1199989   9.747014092E-18
 55.3100014   9.747010783E-18
 55.5   9.747007475E-18
 55.6899986   9.747004166E-18
 55.8800011   9.747001684E-18
 56.0699997   9.747000857E-18
 56.2599983   9.747001684E-18
 56.4500008   9.747003339E-18
 56.6399994   9.747004993E-18
 56.8300018   9.747004993E-18
 57.0200005   9.747003339E-18
 57.2099991   9.74700003E-18
 57.4000015   9.74699424E-18
 57.5900002   9.746988449E-18
 57.7799988   9.746982659E-18
 57.9700012   9.746980178E-18
 58.1599998   9.746981005E-18
 58.3499985   9.746983486E-18
 58.5400009   9.746988449E-18
 58.7299995   9.746993413E-18
 58.9199982   9.746998376E-18
 59.1100006   9.747000857E-18
 59.2999992   9.747000857E-18
 59.4900017   9.746998376E-18
 59.6800003   9.746993413E-18
 59.8699989   9.746989277E-18
 60.0600014   9.746985968E-18
 60.25   9.746984314E-18
 60.4399986   9.746984314E-18
 60.6300011   9.746986795E-18
 60.8199997   9.746988449E-18
 61.0099983   9.746990931E-18
 61.2000008   9.746991758E-18
 61.3899994   9.746990931E-18
 61.5800018   9.746987622E-18
 61.7700005   9.746983486E-18
 61.9599991   9.746978523E-18
 62.1500015   9.746974387E-18
 62.3400002   9.746971079E-18
 62.5299988   9.746972733E-18
 62.7200012   9.746976042E-18
 62.9099998   9.746981832E-18
 63.0999985   9.746988449E-18
 63.2900009   9.746995067E-18
 63.4799995   9.746999203E-18
 63.6699982   9.747000857E-18
 63.8600006   9.746999203E-18
 64.0500031   9.746995067E-18
 64.2399979   9.746990104E-18
 64.4300003   9.746985141E-18
 64.6200027   9.746981005E-18
 64.8099976   9.74697935E-18
 65.   9.746981005E-18
 65.1900024   9.746985141E-18
 65.3799973   9.746990931E-18
 65.5699997   9.746995894E-18
 65.7600021   9.746999203E-18
 65.9499969   9.74700003E-18
 66.1399994   9.746998376E-18
 66.3300018   9.74699424E-18
 66.5199966   9.746990104E-18
 66.7099991   9.746985968E-18
 66.9000015   9.746984314E-18
 67.0899963   9.746985968E-18
 67.2799988   9.746990104E-18
 67.4700012   9.746996721E-18
 67.6600037   9.747003339E-18
 67.8499985   9.747007475E-18
 68.0400009   9.747009956E-18
 68.2300034   9.747008302E-18
 68.4199982   9.747004166E-18
 68.6100006   9.746998376E-18
 68.8000031   9.746990931E-18
 68.9899979   9.746985968E-18
 69.1800003   9.746983486E-18
 69.3700027   9.746985141E-18
 69.5599976   9.746989277E-18
 69.75   9.74699424E-18
 69.9400024   9.747000857E-18
 70.1299973   9.747004166E-18
 70.3199997   9.747004993E-18
 70.5100021   9.747003339E-18
 70.6999969   9.746999203E-18
 70.8899994   9.746995894E-18
 71.0800018   9.746992585E-18
 71.2699966   9.746990931E-18
 71.4599991   9.746990931E-18
 71.6500015   9.746993413E-18
 71.8399963   9.746997548E-18
 72.0299988   9.747001684E-18
 72.2200012   9.74700582E-18
 72.4100037   9.747006647E-18
 72.5999985   9.74700582E-18
 72.7900009   9.747002511E-18
 72.9800034   9.746998376E-18
 73.1699982   9.746993413E-18
 73.3600006   9.746989277E-18
 73.5500031   9.746987622E-18
 73.7399979   9.746986795E-18
 73.9300003   9.746988449E-18
 74.1200027   9.746990931E-18
 74.3099976   9.746992585E-18
 74.5   9.746993413E-18
 74.6900024   9.746991758E-18
 74.8799973   9.746989277E-18
 75.0699997   9.746984314E-18
 75.2600021   9.746980178E-18
 75.4499969   9.746976042E-18
 75.6399994   9.746974387E-18
 75.8300018   9.746974387E-18
 76.0199966   9.746976869E-18
 76.2099991   9.746980178E-18
 76.4000015   9.746983486E-18
 76.5899963   9.746986795E-18
 76.7799988   9.746987622E-18
 76.9700012   9.746986795E-18
 77.1600037   9.746984314E-18
 77.3499985   9.746982659E-18
 77.5400009   9.746980178E-18
 77.7300034   9.746980178E-18
 77.9199982   9.746982659E-18
 78.1100006   9.746985968E-18
 78.3000031   9.746991758E-18
 78.4899979   9.746997548E-18
 78.6800003   9.747002511E-18
 78.8700027   9.74700582E-18
 79.0599976   9.747007475E-18
 79.25   9.747006647E-18
 79.4400024   9.747004166E-18
 79.6299973   9.747000857E-18
 79.8199997   9.746997548E-18
 80.0100021   9.746995067E-18
 80.1999969   9.746995067E-18
 80.3899994   9.746996721E-18
 80.5800018   9.746999203E-18
 80.7699966   9.747001684E-18
 80.9599991   9.747001684E-18
 81.1500015   9.746999203E-18
 81.3399963   9.74699424E-18
 81.5299988   9.746988449E-18
 81.7200012   9.746980178E-18
 81.9100037   9.746974387E-18
 82.0999985   9.746971079E-18
 82.2900009   9.746971079E-18
 82.4800034   9.746974387E-18
 82.6699982   9.746980178E-18
 82.8600006   9.746987622E-18
 83.0500031   9.746995067E-18
 83.2399979   9.74700003E-18
 83.4300003   9.747002511E-18
 83.6200027   9.747003339E-18
 83.8099976   9.747000857E-18
 84.   9.746998376E-18
 84.1900024   9.746996721E-18
 84.3799973   9.746996721E-18
 84.5699997   9.74700003E-18
 84.7600021   9.747004993E-18
 84.9499969   9.74701161E-18
 85.1399994   9.747017401E-18
 85.3300018   9.747019882E-18
 85.5199966   9.747019882E-18
 85.7099991   9.747016574E-18
 85.9000015   9.747009956E-18
 86.0899963   9.747003339E-18
 86.2799988   9.746995067E-18
 86.4700012   9.746990104E-18
 86.6600037   9.746987622E-18
 86.8499985   9.746987622E-18
 87.0400009   9.746990104E-18
 87.2300034   9.74699424E-18
 87.4199982   9.746998376E-18
 87.6100006   9.747000857E-18
 87.8000031   9.747000857E-18
 87.9899979   9.746997548E-18
 88.1800003   9.746993413E-18
 88.3700027   9.746988449E-18
 88.5599976   9.746985968E-18
 88.75   9.746985968E-18
 88.9400024   9.746988449E-18
 89.1299973   9.746992585E-18
 89.3199997   9.746997548E-18
 89.5100021   9.747001684E-18
 89.6999969   9.747003339E-18
 89.8899994   9.747001684E-18
 90.0800018   9.746997548E-18
 90.2699966   9.746990931E-18
 90.4599991   9.746983486E-18
 90.6500015   9.746977696E-18
 90.8399963   9.74697356E-18
 91.0299988   9.746971906E-18
 91.2200012   9.746974387E-18
 91.4100037   9.74697935E-18
 91.5999985   9.746985141E-18
 91.7900009   9.746990104E-18
 91.9800034   9.74699424E-18
 92.1699982   9.746995894E-18
 92.3600006   9.746995067E-18
 92.5500031   9.746992585E-18
 92.7399979   9.746989277E-18
 92.9300003   9.746987622E-18
 93.1200027   9.746987622E-18
 93.3099976   9.746990104E-18
 93.5   9.746993413E-18
 93.6900024   9.746997548E-18
 93.8799973   9.74700003E-18
 94.0699997   9.746999203E-18
 94.2600021   9.746995894E-18
 94.4499969   9.746990104E-18
 94.6399994   9.746981832E-18
 94.8300018   9.74697356E-18
 95.0199966   9.74696777E-18
 95.2099991   9.746963634E-18
 95.4000015   9.746963634E-18
 95.5899963   9.746966943E-18
 95.7799988   9.746971906E-18
 95.9700012   9.746977696E-18
 96.1600037   9.746982659E-18
 96.3499985   9.746985968E-18
 96.5400009   9.746985141E-18
 96.7300034   9.746983486E-18
 96.9199982   9.746981832E-18
 97.1100006   9.746980178E-18
 97.3000031   9.746980178E-18
 97.4899979   9.746982659E-18
 97.6800003   9.746986795E-18
 97.8700027   9.746993413E-18
 98.0599976   9.747000857E-18
 98.25   9.747006647E-18
 98.4400024   9.747010783E-18
 98.6299973   9.747010783E-18
 98.8199997   9.747007475E-18
 99.0100021   9.747002511E-18
 99.1999969   9.746995894E-18
 99.3899994   9.746991758E-18
 99.5800018   9.746989277E-18
 99.7699966   9.746991758E-18
 99.9599991   9.746996721E-18
 100.150002   9.747003339E-18
 100.339996   9.747009956E-18
 100.529999   9.747014092E-18
 100.720001   9.747014919E-18
 100.910004   9.747010783E-18
 101.099998   9.747004166E-18
 101.290001   9.746995067E-18
 101.480003   9.746985968E-18
 101.669998   9.746980178E-18
 101.860001   9.746977696E-18
 102.050003   9.74697935E-18
 102.239998   9.746984314E-18
 102.43   9.746990104E-18
 102.620003   9.746995067E-18
 102.809998   9.746997548E-18
 103.   9.746995894E-18
 103.190002   9.746990931E-18
 103.379997   9.746983486E-18
 103.57   9.746976042E-18
 103.760002   9.746971906E-18
 103.949997   9.746970251E-18
 104.139999   9.74697356E-18
 104.330002   9.746980178E-18
 104.519997   9.746989277E-18
 104.709999   9.746999203E-18
 104.900002   9.747006647E-18
 105.089996   9.747010783E-18
 105.279999   9.747010783E-18
 105.470001   9.747007475E-18
 105.660004   9.747002511E-18
 105.849998   9.746997548E-18
 106.040001   9.746995067E-18
 106.230003   9.746995894E-18
 106.419998   9.746999203E-18
 106.610001   9.747004166E-18
 106.800003   9.747009129E-18
 106.989998   9.747012438E-18
 107.18   9.747012438E-18
 107.370003   9.747009129E-18
 107.559998   9.747001684E-18
 107.75   9.746993413E-18
 107.940002   9.746985968E-18
 108.129997   9.746981005E-18
 108.32   9.74697935E-18
 108.510002   9.746981005E-18
 108.699997   9.746985968E-18
 108.889999   9.746992585E-18
 109.080002   9.746998376E-18
 109.269997   9.747004166E-18
 109.459999   9.74700582E-18
 109.650002   9.747004166E-18
 109.839996   9.747000857E-18
 110.029999   9.746995067E-18
 110.220001   9.746989277E-18
 110.410004   9.746985141E-18
 110.599998   9.746983486E-18
 110.790001   9.746985141E-18
 110.980003   9.746988449E-18
 111.169998   9.746993413E-18
 111.360001   9.746997548E-18
 111.550003   9.74700003E-18
 111.739998   9.747000857E-18
 111.93   9.746999203E-18
 112.120003   9.746997548E-18
 112.309998   9.746996721E-18
 112.5   9.746995894E-18
 112.690002   9.746997548E-18
 112.879997   9.747000857E-18
 113.07   9.74700582E-18
 113.260002   9.747010783E-18
 113.449997   9.747015746E-18
 113.639999   9.747016574E-18
 113.830002   9.747014919E-18
 114.019997   9.747010783E-18
 114.209999   9.747002511E-18
 114.400002   9.74699424E-18
 114.589996   9.746985141E-18
 114.779999   9.746977696E-18
 114.970001   9.746972733E-18
 115.160004   9.746971079E-18
 115.349998   9.746971906E-18
 115.540001   9.74697356E-18
 115.730003   9.746976042E-18
 115.919998   9.746976869E-18
 116.110001   9.746976869E-18
 116.300003   9.746975215E-18
 116.489998   9.746972733E-18
 116.68   9.746970251E-18
 116.870003   9.746969424E-18
 117.059998   9.746970251E-18
 117.25   9.746975215E-18
 117.440002   9.746981005E-18
 117.629997   9.746987622E-18
 117.82   9.746993413E-18
 118.010002   9.746997548E-18
 118.199997   9.74700003E-18
 118.389999   9.746999203E-18
 118.580002   9.746995894E-18
 118.769997   9.746992585E-18
 118.959999   9.746990104E-18
 119.150002   9.746988449E-18
 119.339996   9.746989277E-18
 119.529999   9.746992585E-18
 119.720001   9.746995894E-18
 119.910004   9.74700003E-18
 120.099998   9.747003339E-18
 120.290001   9.747004993E-18
 120.480003   9.747003339E-18
 120.669998   9.747000857E-18
 120.860001   9.746997548E-18
 121.050003   9.746995894E-18
 121.239998   9.746996721E-18
 121.43   9.74700003E-18
 121.620003   9.747006647E-18
 121.809998   9.747014919E-18
 122.   9.747024018E-18
 122.190002   9.747030636E-18
 122.379997   9.747035599E-18
 122.57   9.747036426E-18
 122.760002   9.747033944E-18
 122.949997   9.747028154E-18
 123.139999   9.747020709E-18
 123.330002   9.747014092E-18
 123.519997   9.747009129E-18
 123.709999   9.747006647E-18
 123.900002   9.747006647E-18
 124.089996   9.747008302E-18
 124.279999   9.747009956E-18
 124.470001   9.74701161E-18
 124.660004   9.747012438E-18
 124.849998   9.747010783E-18
 125.040001   9.747007475E-18
 125.230003   9.747002511E-18
 125.419998   9.746999203E-18
 125.610001   9.746997548E-18
 125.800003   9.746998376E-18
 125.989998   9.74700003E-18
 126.18   9.747004993E-18
 126.370003   9.747009956E-18
 126.559998   9.747013265E-18
 126.75   9.747014092E-18
 126.940002   9.747012438E-18
 127.129997   9.747006647E-18
 127.32   9.746998376E-18
 127.510002   9.746988449E-18
 127.699997   9.746980178E-18
 127.889999   9.74697356E-18
 128.080002   9.746970251E-18
 128.270004   9.746969424E-18
 128.460007   9.746971079E-18
 128.649994   9.746974387E-18
 128.839996   9.746978523E-18
 129.029999   9.746981005E-18
 129.220001   9.746983486E-18
 129.410004   9.746982659E-18
 129.600006   9.746981005E-18
 129.789993   9.746977696E-18
 129.979996   9.746975215E-18
 130.169998   9.746972733E-18
 130.360001   9.746972733E-18
 130.550003   9.746974387E-18
 130.740005   9.746977696E-18
 130.929993   9.746981005E-18
 131.119995   9.746983486E-18
 131.309998   9.746983486E-18
 131.5   9.746981832E-18
 131.690002   9.74697935E-18
 131.880005   9.746975215E-18
 132.070007   9.746971079E-18
 132.259995   9.746969424E-18
 132.449997   9.746969424E-18
 132.639999   9.746972733E-18
 132.830002   9.746977696E-18
 133.020004   9.746982659E-18
 133.210007   9.746987622E-18
 133.399994   9.746991758E-18
 133.589996   9.746993413E-18
 133.779999   9.74699424E-18
 133.970001   9.746993413E-18
 134.160004   9.746993413E-18
 134.350006   9.746993413E-18
 134.539993   9.746995067E-18
 134.729996   9.746997548E-18
 134.919998   9.747000857E-18
 135.110001   9.747003339E-18
 135.300003   9.747004993E-18
 135.490005   9.747004166E-18
 135.679993   9.747001684E-18
 135.869995   9.746996721E-18
 136.059998   9.746990104E-18
 136.25   9.746984314E-18
 136.440002   9.746981005E-18
 136.630005   9.74697935E-18
 136.820007   9.746981005E-18
 137.009995   9.746984314E-18
 137.199997   9.746988449E-18
 137.389999   9.746992585E-18
 137.580002   9.746995894E-18
 137.770004   9.746996721E-18
 137.960007   9.746996721E-18
 138.149994   9.746996721E-18
 138.339996   9.746995894E-18
 138.529999   9.746996721E-18
 138.720001   9.746999203E-18
 138.910004   9.747002511E-18
 139.100006   9.747006647E-18
 139.289993   9.747010783E-18
 139.479996   9.747012438E-18
 139.669998   9.747012438E-18
 139.860001   9.747009129E-18
 140.050003   9.747003339E-18
 140.240005   9.746995894E-18
 140.429993   9.746987622E-18
 140.619995   9.746980178E-18
 140.809998   9.746975215E-18
 141.   9.74697356E-18
 141.190002   9.746975215E-18
 141.380005   9.74697935E-18
 141.570007   9.746984314E-18
 141.759995   9.746989277E-18
 141.949997   9.746991758E-18
 142.139999   9.746991758E-18
 142.330002   9.746989277E-18
 142.520004   9.746984314E-18
 142.710007   9.746978523E-18
 142.899994   9.746971906E-18
 143.089996   9.746966943E-18
 143.279999   9.746964461E-18
 143.470001   9.746964461E-18
 143.660004   9.746966943E-18
 143.850006   9.746969424E-18
 144.039993   9.746971906E-18
 144.229996   9.74697356E-18
 144.419998   9.746972733E-18
 144.610001   9.746970251E-18
 144.800003   9.746966943E-18
 144.990005   9.746964461E-18
 145.179993   9.74696198E-18
 145.369995   9.74696198E-18
 145.559998   9.746964461E-18
 145.75   9.746970251E-18
 145.940002   9.746977696E-18
 146.130005   9.746985968E-18
 146.320007   9.74699424E-18
 146.509995   9.747000857E-18
 146.699997   9.747004166E-18
 146.889999   9.747004993E-18
 147.080002   9.747003339E-18
 147.270004   9.74700003E-18
 147.460007   9.746997548E-18
 147.649994   9.746996721E-18
 147.839996   9.746998376E-18
 148.029999   9.747002511E-18
 148.220001   9.747009956E-18
 148.410004   9.747016574E-18
 148.600006   9.747023191E-18
 148.789993   9.7470265E-18
 148.979996   9.7470265E-18
 149.169998   9.747024018E-18
 149.360001   9.747019055E-18
 149.550003   9.747014092E-18
 149.740005   9.747009956E-18
 149.929993   9.747008302E-18
 150.119995   9.747009129E-18
 150.309998   9.747012438E-18
 150.5   9.747018228E-18
 150.690002   9.747023191E-18
 150.880005   9.7470265E-18
 151.070007   9.747027327E-18
 151.259995   9.747024018E-18
 151.449997   9.747019055E-18
 151.639999   9.74701161E-18
 151.830002   9.747003339E-18
 152.020004   9.746995067E-18
 152.210007   9.746988449E-18
 152.399994   9.746983486E-18
 152.589996   9.74697935E-18
 152.779999   9.746975215E-18
 152.970001   9.746968597E-18
 153.160004   9.746961152E-18
 153.350006   9.746951226E-18
 153.539993   9.7469413E-18
 153.729996   9.746932201E-18
 153.919998   9.746923929E-18
 154.110001   9.746918139E-18
 154.300003   9.746916485E-18
 154.490005   9.746918139E-18
 154.679993   9.746922275E-18
 154.869995   9.746927238E-18
 155.059998   9.746933856E-18
 155.25   9.746937991E-18
 155.440002   9.746939646E-18
 155.630005   9.746939646E-18
 155.820007   9.746938819E-18
 156.009995   9.746937164E-18
 156.199997   9.746937164E-18
 156.389999   9.746939646E-18
 156.580002   9.746944609E-18
 156.770004   9.746951226E-18
 156.960007   9.746958671E-18
 157.149994   9.746966943E-18
 157.339996   9.746974387E-18
 157.529999   9.746980178E-18
 157.720001   9.746984314E-18
 157.910004   9.746988449E-18
 158.100006   9.746993413E-18
 158.289993   9.746999203E-18
 158.479996   9.747007475E-18
 158.669998   9.747018228E-18
 158.860001   9.747030636E-18
 159.050003   9.747043043E-18
 159.240005   9.747053797E-18
 159.429993   9.747062896E-18
 159.619995   9.747068686E-18
 159.809998   9.747071167E-18
 160.   9.74707034E-18
 160.190002   9.747069513E-18
 160.380005   9.747069513E-18
 160.570007   9.747071167E-18
 160.759995   9.747076958E-18
 160.949997   9.74708523E-18
 161.139999   9.74709681E-18
 161.330002   9.747110045E-18