 -30.   4.305092517E-18
 -29.8099995   4.305092517E-18
 -29.6200008   4.305092517E-18
 -29.4300003   4.305092931E-18
 -29.2399998   4.305092517E-18
 -29.0499992   4.305092931E-18
 -28.8600006   4.305092931E-18
 -28.6700001   4.305093344E-18
 -28.4799995   4.305093344E-18
 -28.2900009   4.305092517E-18
 -28.1000004   4.305092517E-18
 -27.9099998   4.305092104E-18
 -27.7199993   4.305092104E-18
 -27.5300007   4.30509169E-18
 -27.3400002   4.30509169E-18
 -27.1499996   4.305092104E-18
 -26.9599991   4.305092104E-18
 -26.7700005   4.305092517E-18
 -26.5799999   4.305092517E-18
 -26.3899994   4.305093344E-18
 -26.2000008   4.305093758E-18
 -26.0100002   4.305093758E-18
 -25.8199997   4.305093344E-18
 -25.6299992   4.305092931E-18
 -25.4400005   4.305092104E-18
 -25.25   4.30509169E-18
 -25.0599995   4.30509169E-18
 -24.8700008   4.30509169E-18
 -24.6800003   4.30509169E-18
 -24.4899998   4.305092104E-18
 -24.2999992   4.305092931E-18
 -24.1100006   4.305092931E-18
 -23.9200001   4.305092931E-18
 -23.7299995   4.305092931E-18
 -23.5400009   4.305092931E-18
 -23.3500004   4.305092931E-18
 -23.1599998   4.305092931E-18
 -22.9699993   4.305092517E-18
 -22.7800007   4.305092517E-18
 -22.5900002   4.305092931E-18
 -22.3999996   4.305092517E-18
 -22.2099991   4.305092104E-18
 -22.0200005   4.30509169E-18
 -21.8299999   4.30509169E-18
 -21.6399994   4.305091277E-18
 -21.4500008   4.305090863E-18
 -21.2600002   4.305090863E-18
 -21.0699997   4.305090449E-18
 -20.8799992   4.305090036E-18
 -20.6900005   4.305090036E-18
 -20.5   4.305089622E-18
 -20.3099995   4.305089209E-18
 -20.1200008   4.305089622E-18
 -19.9300003   4.305090449E-18
 -19.7399998   4.305091277E-18
 -19.5499992   4.30509169E-18
 -19.3600006   4.30509169E-18
 -19.1700001   4.305091277E-18
 -18.9799995   4.305089622E-18
 -18.7900009   4.305088381E-18
 -18.6000004   4.305087141E-18
 -18.4099998   4.305087554E-18
 -18.2199993   4.305087968E-18
 -18.0300007   4.305089622E-18
 -17.8400002   4.305092104E-18
 -17.6499996   4.305094172E-18
 -17.4599991   4.305097067E-18
 -17.2700005   4.305098308E-18
 -17.0799999   4.305098721E-18
 -16.8899994   4.305097894E-18
 -16.7000008   4.305095826E-18
 -16.5100002   4.305094172E-18
 -16.3199997   4.305092931E-18
 -16.1299992   4.305092931E-18
 -15.9399996   4.305094172E-18
 -15.75   4.305095412E-18
 -15.5600004   4.30509624E-18
 -15.3699999   4.305097067E-18
 -15.1800003   4.30509624E-18
 -14.9899998   4.305094585E-18
 -14.8000002   4.30509169E-18
 -14.6099997   4.305088795E-18
 -14.4200001   4.3050859E-18
 -14.2299995   4.305084659E-18
 -14.04   4.305085486E-18
 -13.8500004   4.305086727E-18
 -13.6599998   4.305089622E-18
 -13.4700003   4.305092931E-18
 -13.2799997   4.305095412E-18
 -13.0900002   4.305097067E-18
 -12.8999996   4.305096653E-18
 -12.71   4.305094585E-18
 -12.5200005   4.30509169E-18
 -12.3299999   4.305089209E-18
 -12.1400003   4.305087968E-18
 -11.9499998   4.305088795E-18
 -11.7600002   4.305090449E-18
 -11.5699997   4.305093758E-18
 -11.3800001   4.305097067E-18
 -11.1899996   4.305099962E-18
 -11.   4.305101616E-18
 -10.8100004   4.305101203E-18
 -10.6199999   4.305099962E-18
 -10.4300003   4.305097067E-18
 -10.2399998   4.305093344E-18
 -10.0500002   4.305090863E-18
 -9.85999966   4.305088795E-18
 -9.67000008   4.305087968E-18
 -9.47999954   4.305088795E-18
 -9.28999996   4.305090036E-18
 -9.10000038   4.30509169E-18
 -8.90999985   4.305092104E-18
 -8.72000027   4.30509169E-18
 -8.52999973   4.305089622E-18
 -8.34000015   4.305087554E-18
 -8.14999962   4.305085073E-18
 -7.96000004   4.305083005E-18
 -7.76999998   4.30508135E-18
 -7.57999992   4.305081764E-18
 -7.38999987   4.305084245E-18
 -7.19999981   4.305087141E-18
 -7.01000023   4.305092104E-18
 -6.82000017   4.305096653E-18
 -6.63000011   4.305100789E-18
 -6.44000006   4.305102857E-18
 -6.25   4.305103684E-18
 -6.05999994   4.305103271E-18
 -5.86999989   4.305101616E-18
 -5.67999983   4.305099548E-18
 -5.48999977   4.305098308E-18
 -5.30000019   4.30509748E-18
 -5.11000013   4.30509748E-18
 -4.92000008   4.305098721E-18
 -4.73000002   4.305099548E-18
 -4.53999996   4.305100789E-18
 -4.3499999   4.305100376E-18
 -4.15999985   4.305098308E-18
 -3.97000003   4.305094172E-18
 -3.77999997   4.305089622E-18
 -3.58999991   4.305085073E-18
 -3.4000001   4.305081764E-18
 -3.21000004   4.305079696E-18
 -3.01999998   4.305079282E-18
 -2.82999992   4.305081764E-18
 -2.6400001   4.305085073E-18
 -2.45000005   4.305089209E-18
 -2.25999999   4.305092104E-18
 -2.06999993   4.305094585E-18
 -1.88   4.305094999E-18
 -1.69000006   4.305094585E-18
 -1.5   4.305093758E-18
 -1.30999994   4.305092517E-18
 -1.12   4.305092517E-18
 -0.930000007   4.305093758E-18
 -0.74000001   4.305095826E-18
 -0.550000012   4.305098721E-18
 -0.360000014   4.305101203E-18
 -0.170000002   4.305103271E-18
 1.999999955E-2   4.305102443E-18
 0.209999993   4.305099962E-18
 0.400000006   4.30509624E-18
 0.589999974   4.305091277E-18
 0.779999971   4.305086313E-18
 0.970000029   4.305083005E-18
 1.15999997   4.305080937E-18
 1.35000002   4.305080937E-18
 1.53999996   4.305083005E-18
 1.73000002   4.305086313E-18
 1.91999996   4.305090449E-18
 2.1099999   4.305092931E-18
 2.29999995   4.305094172E-18
 2.49000001   4.305092931E-18
 2.68000007   4.305090863E-18
 2.86999989   4.305087968E-18
 3.05999994   4.305086313E-18
 3.25   4.305086313E-18
 3.44000006   4.305088795E-18
 3.63000011   4.305092931E-18
 3.81999993   4.305097067E-18
 4.01000023   4.305100789E-18
 4.19999981   4.30510203E-18
 4.38999987   4.30510203E-18
 4.57999992   4.305098721E-18
 4.76999998   4.305094172E-18
 4.96000004   4.305089622E-18
 5.1500001   4.305086727E-18
 5.34000015   4.3050859E-18
 5.53000021   4.305087141E-18
 5.71999979   4.305090863E-18
 5.90999985   4.305095412E-18
 6.0999999   4.305099548E-18
 6.28999996   4.305102443E-18
 6.48000002   4.305103684E-18
 6.67000008   4.305101616E-18
 6.86000013   4.305097894E-18
 7.05000019   4.305092517E-18
 7.23999977   4.305087141E-18
 7.42999983   4.305083832E-18
 7.61999989   4.305082178E-18
 7.80999994   4.305082591E-18
 8.   4.305085073E-18
 8.18999958   4.305087968E-18
 8.38000011   4.305091277E-18
 8.56999969   4.305093344E-18
 8.76000023   4.305094172E-18
 8.94999981   4.305092931E-18
 9.14000034   4.305090863E-18
 9.32999992   4.305088381E-18
 9.52000046   4.305086727E-18
 9.71000004   4.305086313E-18
 9.89999962   4.305087968E-18
 10.0900002   4.30509169E-18
 10.2799997   4.305097067E-18
 10.4700003   4.305102443E-18
 10.6599998   4.305106579E-18
 10.8500004   4.305108234E-18
 11.04   4.305108234E-18
 11.2299995   4.305106166E-18
 11.4200001   4.305101616E-18
 11.6099997   4.30509624E-18
 11.8000002   4.305091277E-18
 11.9899998   4.305087968E-18
 12.1800003   4.3050859E-18
 12.3699999   4.3050859E-18
 12.5600004   4.305086727E-18
 12.75   4.305088381E-18
 12.9399996   4.305088795E-18
 13.1300001   4.305088381E-18
 13.3199997   4.305086313E-18
 13.5100002   4.305084245E-18
 13.6999998   4.305081764E-18
 13.8900003   4.305079696E-18
 14.0799999   4.30508011E-18
 14.2700005   4.305082591E-18
 14.46   4.3050859E-18
 14.6499996   4.305091277E-18
 14.8400002   4.30509624E-18
 15.0299997   4.305100376E-18
 15.2200003   4.305103684E-18
 15.4099998   4.305104511E-18
 15.6000004   4.305102857E-18
 15.79   4.305100789E-18
 15.9799995   4.305097894E-18
 16.1700001   4.305094999E-18
 16.3600006   4.305092931E-18
 16.5499992   4.305091277E-18
 16.7399998   4.305090863E-18
 16.9300003   4.305090036E-18
 17.1200008   4.305090449E-18
 17.3099995   4.305090036E-18
 17.5   4.305089622E-18
 17.6900005   4.305088381E-18
 17.8799992   4.305086727E-18
 18.0699997   4.3050859E-18
 18.2600002   4.305086313E-18
 18.4500008   4.305087554E-18
 18.6399994   4.305090036E-18
 18.8299999   4.305093758E-18
 19.0200005   4.30509748E-18
 19.2099991   4.305100789E-18
 19.3999996   4.305102857E-18
 19.5900002   4.305102857E-18
 19.7800007   4.305101203E-18
 19.9699993   4.305098308E-18
 20.1599998   4.305094999E-18
 20.3500004   4.305092104E-18
 20.5400009   4.305090863E-18
 20.7299995   4.305090863E-18
 20.9200001   4.30509169E-18
 21.1100006   4.305093758E-18
 21.2999992   4.305094999E-18
 21.4899998   4.305095826E-18
 21.6800003   4.305094999E-18
 21.8700008   4.305093344E-18
 22.0599995   4.305090863E-18
 22.25   4.305088795E-18
 22.4400005   4.305087968E-18
 22.6299992   4.305088795E-18
 22.8199997   4.305092104E-18
 23.0100002   4.30509624E-18
 23.2000008   4.305101203E-18
 23.3899994   4.305105752E-18
 23.5799999   4.305108647E-18
 23.7700005   4.305108647E-18
 23.9599991   4.305106579E-18
 24.1499996   4.305103271E-18
 24.3400002   4.305098308E-18
 24.5300007   4.305093758E-18
 24.7199993   4.305090036E-18
 24.9099998   4.305087968E-18
 25.1000004   4.305087968E-18
 25.2900009   4.305089209E-18
 25.4799995   4.305090036E-18
 25.6700001   4.305090449E-18
 25.8600006   4.305089622E-18
 26.0499992   4.305087968E-18
 26.2399998   4.305085073E-18
 26.4300003   4.305082591E-18
 26.6200008   4.305080937E-18
 26.8099995   4.305080523E-18
 27.   4.305082178E-18
 27.1900005   4.305085073E-18
 27.3799992   4.305090449E-18
 27.5699997   4.305095412E-18
 27.7600002   4.305100789E-18
 27.9500008   4.305104098E-18
 28.1399994   4.305105339E-18
 28.3299999   4.305103684E-18
 28.5200005   4.305098721E-18
 28.7099991   4.30509169E-18
 28.8999996   4.305084659E-18
 29.0900002   4.305078455E-18
 29.2800007   4.305074319E-18
 29.4699993   4.305072251E-18
 29.6599998   4.305072665E-18
 29.8500004   4.305074733E-18
 30.0400009   4.305077628E-18
 30.2299995   4.30508011E-18
 30.4200001   4.305081764E-18
 30.6100006   4.305083005E-18
 30.7999992   4.305083832E-18
 30.9899998   4.305084245E-18
 31.1800003   4.3050859E-18
 31.3700008   4.305088381E-18
 31.5599995   4.305092517E-18
 31.75   4.305098308E-18
 31.9400005   4.305105752E-18
 32.1300011   4.305111956E-18
 32.3199997   4.305116919E-18
 32.5099983   4.305118987E-18
 32.7000008   4.305117746E-18
 32.8899994   4.30511361E-18
 33.0800018   4.305106579E-18
 33.2700005   4.305098721E-18
 33.4599991   4.305090863E-18
 33.6500015   4.305084245E-18
 33.8400002   4.305079696E-18
 34.0299988   4.305078042E-18
 34.2200012   4.305078869E-18
 34.4099998   4.30508011E-18
 34.5999985   4.305083005E-18
 34.7900009   4.305085073E-18
 34.9799995   4.3050859E-18
 35.1699982   4.305086313E-18
 35.3600006   4.3050859E-18
 35.5499992   4.305086313E-18
 35.7400017   4.305087554E-18
 35.9300003   4.305090863E-18
 36.1199989   4.30509624E-18
 36.3100014   4.305102443E-18
 36.5   4.305109061E-18
 36.6899986   4.305114024E-18
 36.8800011   4.305115678E-18
 37.0699997   4.305114851E-18
 37.2599983   4.305110302E-18
 37.4500008   4.305103684E-18
 37.6399994   4.305095826E-18
 37.8300018   4.305088795E-18
 38.0200005   4.305083005E-18
 38.2099991   4.305079282E-18
 38.4000015   4.305077214E-18
 38.5900002   4.305077214E-18
 38.7799988   4.305079282E-18
 38.9700012   4.305081764E-18
 39.1599998   4.305084659E-18
 39.3499985   4.305086727E-18
 39.5400009   4.305089209E-18
 39.7299995   4.305091277E-18
 39.9199982   4.305094172E-18
 40.1100006   4.305097067E-18
 40.2999992   4.305100789E-18
 40.4900017   4.305105339E-18
 40.6800003   4.305110302E-18
 40.8699989   4.305114851E-18
 41.0600014   4.305117746E-18
 41.25   4.30511816E-18
 41.4399986   4.305116919E-18
 41.6300011   4.30511361E-18
 41.8199997   4.305109061E-18
 42.0099983   4.305103271E-18
 42.2000008   4.30509748E-18
 42.3899994   4.305092104E-18
 42.5800018   4.305087968E-18
 42.7700005   4.305085486E-18
 42.9599991   4.305083832E-18
 43.1500015   4.305083005E-18
 43.3400002   4.305083005E-18
 43.5299988   4.305083005E-18
 43.7200012   4.305083005E-18
 43.9099998   4.305082591E-18
 44.0999985   4.305081764E-18
 44.2900009   4.305081764E-18
 44.4799995   4.305082591E-18
 44.6699982   4.305084245E-18
 44.8600006   4.305087554E-18
 45.0499992   4.305091277E-18
 45.2400017   4.305097067E-18
 45.4300003   4.305102857E-18
 45.6199989   4.305107407E-18
 45.8100014   4.305110302E-18
 46.   4.305110715E-18
 46.1899986   4.305108234E-18
 46.3800011   4.305104098E-18
 46.5699997   4.305097894E-18
 46.7599983   4.305092104E-18
 46.9500008   4.305087554E-18
 47.1399994   4.305084659E-18
 47.3300018   4.305084245E-18
 47.5200005   4.305086727E-18
 47.7099991   4.305090449E-18
 47.9000015   4.305093758E-18
 48.0900002   4.30509624E-18
 48.2799988   4.305097894E-18
 48.4700012   4.305097067E-18
 48.6599998   4.305095412E-18
 48.8499985   4.305093344E-18
 49.0400009   4.305092104E-18
 49.2299995   4.305092517E-18
 49.4199982   4.305093758E-18
 49.6100006   4.30509748E-18
 49.7999992   4.305100789E-18
 49.9900017   4.305103271E-18
 50.1800003   4.305103271E-18
 50.3699989   4.305100789E-18
 50.5600014   4.305095826E-18
 50.75   4.305088381E-18
 50.9399986   4.30508135E-18
 51.1300011   4.305076801E-18
 51.3199997   4.305074733E-18
 51.5099983   4.305075974E-18
 51.7000008   4.305080937E-18
 51.8899994   4.305087968E-18
 52.0800018   4.305095412E-18
 52.2700005   4.305102443E-18
 52.4599991   4.305106166E-18
 52.6500015   4.305106993E-18
 52.8400002   4.305104098E-18
 53.0299988   4.305099135E-18
 53.2200012   4.305093758E-18
 53.4099998   4.305088795E-18
 53.5999985   4.305085486E-18
 53.7900009   4.305083418E-18
 53.9799995   4.305083418E-18
 54.1699982   4.305084659E-18
 54.3600006   4.305085486E-18
 54.5499992   4.305086313E-18
 54.7400017   4.305085073E-18
 54.9300003   4.305082178E-18
 55.1199989   4.305078869E-18
 55.3100014   4.305075974E-18
 55.5   4.305074319E-18
 55.6899986   4.305074733E-18
 55.8800011   4.305078455E-18
 56.0699997   4.305083418E-18
 56.2599983   4.305089622E-18
 56.4500008   4.30509624E-18
 56.6399994   4.30510203E-18
 56.8300018   4.305106166E-18
 57.0200005   4.305107407E-18
 57.2099991   4.305107407E-18
 57.4000015   4.305105339E-18
 57.5900002   4.305102857E-18
 57.7799988   4.305099548E-18
 57.9700012   4.305096653E-18
 58.1599998   4.305094172E-18
 58.3499985   4.305092104E-18
 58.5400009   4.305089622E-18
 58.7299995   4.305087968E-18
 58.9199982   4.305085486E-18
 59.1100006   4.305083005E-18
 59.2999992   4.305079696E-18
 59.4900017   4.305076387E-18
 59.6800003   4.305073079E-18
 59.8699989   4.305070183E-18
 60.0600014   4.305068115E-18
 60.25   4.305068529E-18
 60.4399986   4.305070183E-18
 60.6300011   4.305073906E-18
 60.8199997   4.305079282E-18
 61.0099983   4.305085073E-18
 61.2000008   4.305090449E-18
 61.3899994   4.305096653E-18
 61.5800018   4.305100789E-18
 61.7700005   4.305104511E-18
 61.9599991   4.305106166E-18
 62.1500015   4.305106579E-18
 62.3400002   4.305105752E-18
 62.5299988   4.305104098E-18
 62.7200012   4.305103271E-18
 62.9099998   4.30510203E-18
 63.0999985   4.305100789E-18
 63.2900009   4.305098308E-18
 63.4799995   4.305094585E-18
 63.6699982   4.305089209E-18
 63.8600006   4.305083005E-18
 64.0500031   4.305076387E-18
 64.2399979   4.305071011E-18
 64.4300003   4.305067702E-18
 64.6200027   4.305068115E-18
 64.8099976   4.305071838E-18
 65.   4.305077214E-18
 65.1900024   4.305084659E-18
 65.3799973   4.305091277E-18
 65.5699997   4.305097067E-18
 65.7600021   4.305100789E-18
 65.9499969   4.305101616E-18
 66.1399994   4.305100376E-18
 66.3300018   4.30509748E-18
 66.5199966   4.305095412E-18
 66.7099991   4.305094172E-18
 66.9000015   4.305095826E-18
 67.0899963   4.305098721E-18
 67.2799988   4.305102443E-18
 67.4700012   4.305106166E-18
 67.6600037   4.305108234E-18
 67.8499985   4.30510782E-18
 68.0400009   4.305105752E-18
 68.2300034   4.30510203E-18
 68.4199982   4.305099135E-18
 68.6100006   4.305096653E-18
 68.8000031   4.305095826E-18
 68.9899979   4.30509748E-18
 69.1800003   4.305101616E-18
 69.3700027   4.305106993E-18
 69.5599976   4.305111956E-18
 69.75   4.305115678E-18
 69.9400024   4.305116506E-18
 70.1299973   4.305115265E-18
 70.3199997   4.305111956E-18
 70.5100021   4.305107407E-18
 70.6999969   4.30510203E-18
 70.8899994   4.305097894E-18
 71.0800018   4.305094585E-18
 71.2699966   4.305093344E-18
 71.4599991   4.305093758E-18
 71.6500015   4.305095412E-18
 71.8399963   4.305097894E-18
 72.0299988   4.305099962E-18
 72.2200012   4.305100376E-18
 72.4100037   4.305098721E-18
 72.5999985   4.305095826E-18
 72.7900009   4.305092517E-18
 72.9800034   4.305089622E-18
 73.1699982   4.305088795E-18
 73.3600006   4.305089209E-18
 73.5500031   4.30509169E-18
 73.7399979   4.305095412E-18
 73.9300003   4.305100376E-18
 74.1200027   4.305104925E-18
 74.3099976   4.30510782E-18
 74.5   4.305108647E-18
 74.6900024   4.305107407E-18
 74.8799973   4.305104925E-18
 75.0699997   4.305101616E-18
 75.2600021   4.305098721E-18
 75.4499969   4.30509624E-18
 75.6399994   4.305094999E-18
 75.8300018   4.305094585E-18
 76.0199966   4.305094585E-18
 76.2099991   4.305093758E-18
 76.4000015   4.305092517E-18
 76.5899963   4.305091277E-18
 76.7799988   4.305089622E-18
 76.9700012   4.305087141E-18
 77.1600037   4.305085073E-18
 77.3499985   4.305083832E-18
 77.5400009   4.305083832E-18
 77.7300034   4.3050859E-18
 77.9199982   4.305089209E-18
 78.1100006   4.305092931E-18
 78.3000031   4.305096653E-18
 78.4899979   4.305099135E-18
 78.6800003   4.305099548E-18
 78.8700027   4.30509748E-18
 79.0599976   4.305092517E-18
 79.25   4.305085486E-18
 79.4400024   4.305078042E-18
 79.6299973   4.305070183E-18
 79.8199997   4.30506398E-18
 80.0100021   4.305060671E-18
 80.1999969   4.305060257E-18
 80.3899994   4.305062325E-18
 80.5800018   4.305065634E-18
 80.7699966   4.305068943E-18
 80.9599991   4.305072665E-18
 81.1500015   4.305075147E-18
 81.3399963   4.305077214E-18
 81.5299988   4.305078042E-18
 81.7200012   4.305079282E-18
 81.9100037   4.30508135E-18
 82.0999985   4.305085486E-18
 82.2900009   4.30509169E-18
 82.4800034   4.305098308E-18
 82.6699982   4.305104511E-18
 82.8600006   4.305109475E-18
 83.0500031   4.305111129E-18
 83.2399979   4.305110715E-18
 83.4300003   4.305107407E-18
 83.6200027   4.30510203E-18
 83.8099976   4.305095826E-18
 84.   4.305090036E-18
 84.1900024   4.3050859E-18
 84.3799973   4.305083832E-18
 84.5699997   4.305084245E-18
 84.7600021   4.305087141E-18
 84.9499969   4.305090449E-18
 85.1399994   4.305093344E-18
 85.3300018   4.305094999E-18
 85.5199966   4.305095826E-18
 85.7099991   4.305095412E-18
 85.9000015   4.305094172E-18
 86.0899963   4.305093344E-18
 86.2799988   4.305092931E-18
 86.4700012   4.305094585E-18
 86.6600037   4.30509748E-18
 86.8499985   4.305102443E-18
 87.0400009   4.305108234E-18
 87.2300034   4.30511361E-18
 87.4199982   4.30511816E-18
 87.6100006   4.305119814E-18
 87.8000031   4.305118987E-18
 87.9899979   4.305115678E-18
 88.1800003   4.305111129E-18
 88.3700027   4.305106166E-18
 88.5599976   4.305101616E-18
 88.75   4.305098308E-18
 88.9400024   4.30509624E-18
 89.1299973   4.305095412E-18
 89.3199997   4.305094999E-18
 89.5100021   4.305095412E-18
 89.6999969   4.305095412E-18
 89.8899994   4.305094999E-18
 90.0800018   4.305093758E-18
 90.2699966   4.305092931E-18
 90.4599991   4.305092517E-18
 90.6500015   4.305093344E-18
 90.8399963   4.305094999E-18
 91.0299988   4.305097067E-18
 91.2200012   4.305099135E-18
 91.4100037   4.305101616E-18
 91.5999985   4.305103684E-18
 91.7900009   4.305104098E-18
 91.9800034   4.305102443E-18
 92.1699982   4.305098721E-18
 92.3600006   4.305093344E-18
 92.5500031   4.305087141E-18
 92.7399979   4.305080523E-18
 92.9300003   4.30507556E-18
 93.1200027   4.305072665E-18
 93.3099976   4.305071424E-18
 93.5   4.305072251E-18
 93.6900024   4.305075147E-18
 93.8799973   4.305079282E-18
 94.0699997   4.305084245E-18
 94.2600021   4.305089209E-18
 94.4499969   4.305092931E-18
 94.6399994   4.305095412E-18
 94.8300018   4.30509624E-18
 95.0199966   4.30509624E-18
 95.2099991   4.30509624E-18
 95.4000015   4.305096653E-18
 95.5899963   4.305096653E-18
 95.7799988   4.30509624E-18
 95.9700012   4.305095826E-18
 96.1600037   4.305094999E-18
 96.3499985   4.305092517E-18
 96.5400009   4.305089622E-18
 96.7300034   4.305085073E-18
 96.9199982   4.305080937E-18
 97.1100006   4.305077628E-18
 97.3000031   4.305075974E-18
 97.4899979   4.305077214E-18
 97.6800003   4.305080523E-18
 97.8700027   4.305085486E-18
 98.0599976   4.305091277E-18
 98.25   4.30509624E-18
 98.4400024   4.305100789E-18
 98.6299973   4.305104098E-18
 98.8199997   4.305104925E-18
 99.0100021   4.305104925E-18
 99.1999969   4.305104925E-18
 99.3899994   4.305104925E-18
 99.5800018   4.305105339E-18
 99.7699966   4.305106579E-18
 99.9599991   4.305107407E-18
 100.150002   4.305108234E-18
 100.339996   4.30510782E-18
 100.529999   4.305106166E-18
 100.720001   4.305103271E-18
 100.910004   4.305099135E-18
 101.099998   4.305093758E-18
 101.290001   4.305088795E-18
 101.480003   4.305085073E-18
 101.669998   4.305083005E-18
 101.860001   4.305082591E-18
 102.050003   4.305084245E-18
 102.239998   4.305086727E-18
 102.43   4.305090036E-18
 102.620003   4.305093758E-18
 102.809998   4.305096653E-18
 103.   4.305099962E-18
 103.190002   4.305103271E-18
 103.379997   4.305105752E-18
 103.57   4.305109061E-18
 103.760002   4.305111956E-18
 103.949997   4.305114851E-18
 104.139999   4.305117333E-18
 104.330002   4.305117746E-18
 104.519997   4.305116919E-18
 104.709999   4.30511361E-18
 104.900002   4.305108647E-18
 105.089996   4.305101203E-18
 105.279999   4.305093344E-18
 105.470001   4.305085486E-18
 105.660004   4.305078455E-18
 105.849998   4.305073906E-18
 106.040001   4.305071424E-18
 106.230003   4.305070183E-18
 106.419998   4.305071011E-18
 106.610001   4.305072665E-18
 106.800003   4.305075147E-18
 106.989998   4.305075974E-18
 107.18   4.305075974E-18
 107.370003   4.305073906E-18
 107.559998   4.305071424E-18
 107.75   4.305068529E-18
 107.940002   4.305066461E-18
 108.129997   4.305064807E-18
 108.32   4.305064393E-18
 108.510002   4.30506398E-18
 108.699997   4.305062739E-18
 108.889999   4.305060671E-18
 109.080002   4.305057776E-18
 109.269997   4.305054053E-18
 109.459999   4.305048677E-18
 109.650002   4.305042473E-18
 109.839996   4.30503751E-18
 110.029999   4.305034201E-18
 110.220001   4.305034201E-18
 110.410004   4.305037923E-18
 110.599998   4.305045782E-18
 110.790001   4.305057362E-18
 110.980003   4.305070597E-18
 111.169998   4.305083832E-18
 111.360001   4.30509624E-18
 111.550003   4.305106579E-18
 111.739998   4.305112783E-18
 111.93   4.305115678E-18
 112.120003   4.305116092E-18
 112.309998   4.305116092E-18
 112.5   4.305116919E-18
 112.690002   4.305117746E-18
 112.879997   4.305119814E-18
 113.07   4.305121882E-18
 113.260002   4.305123123E-18
 113.449997   4.305122709E-18
 113.639999   4.305120641E-18
 113.830002   4.305115265E-18
 114.019997   4.305108234E-18
 114.209999   4.305100376E-18
 114.400002   4.305093758E-18
 114.589996   4.305089622E-18
 114.779999   4.305089622E-18
 114.970001   4.305093344E-18
 115.160004   4.305100789E-18
 115.349998   4.305109888E-18
 115.540001   4.305118573E-18
 115.730003   4.305126018E-18
 115.919998   4.305130154E-18
 116.110001   4.305131395E-18
 116.300003   4.3051285E-18
 116.489998   4.305123123E-18
 116.68   4.305116919E-18
 116.870003   4.305111542E-18
 117.059998   4.305107407E-18
 117.25   4.305105752E-18
 117.440002   4.305105339E-18
 117.629997   4.305106166E-18
 117.82   4.305106993E-18
 118.010002   4.305106166E-18
 118.199997   4.305103271E-18
 118.389999   4.305098308E-18
 118.580002   4.305092104E-18
 118.769997   4.305085486E-18
 118.959999   4.305079696E-18
 119.150002   4.305076801E-18
 119.339996   4.305077214E-18
 119.529999   4.305082178E-18
 119.720001   4.305089622E-18
 119.910004   4.305098721E-18
 120.099998   4.305106166E-18
 120.290001   4.305111129E-18
 120.480003   4.305113197E-18
 120.669998   4.305111956E-18
 120.860001   4.305107407E-18
 121.050003   4.305100789E-18
 121.239998   4.305093758E-18
 121.43   4.305086313E-18
 121.620003   4.305080937E-18
 121.809998   4.305076801E-18
 122.   4.305074733E-18
 122.190002   4.305072665E-18
 122.379997   4.305071011E-18
 122.57   4.305068943E-18
 122.760002   4.305065634E-18
 122.949997   4.305062739E-18
 123.139999   4.305061084E-18
 123.330002   4.305060257E-18
 123.519997   4.305061498E-18
 123.709999   4.30506522E-18
 123.900002   4.305072251E-18
 124.089996   4.305081764E-18
 124.279999   4.305092931E-18
 124.470001   4.305104925E-18
 124.660004   4.305114851E-18
 124.849998   4.305122709E-18
 125.040001   4.305127259E-18
 125.230003   4.3051285E-18
 125.419998   4.305128086E-18
 125.610001   4.305127259E-18
 125.800003   4.305125605E-18
 125.989998   4.30512395E-18
 126.18   4.305123537E-18
 126.370003   4.305123537E-18
 126.559998   4.305123123E-18
 126.75   4.305122709E-18
 126.940002   4.305121469E-18
 127.129997   4.305119401E-18
 127.32   4.305116919E-18
 127.510002   4.30511361E-18
 127.699997   4.305110715E-18
 127.889999   4.305109061E-18
 128.080002   4.305107407E-18
 128.270004   4.305106993E-18
 128.460007   4.305106993E-18
 128.649994   4.305106993E-18
 128.839996   4.305106993E-18
 129.029999   4.305104511E-18
 129.220001   4.305099962E-18
 129.410004   4.305092931E-18
 129.600006   4.305084245E-18
 129.789993   4.305074733E-18
 129.979996   4.305065634E-18
 130.169998   4.305058603E-18
 130.360001   4.305055294E-18
 130.550003   4.305054053E-18
 130.740005   4.305056121E-18
 130.929993   4.305059844E-18
 131.119995   4.30506398E-18
 131.309998   4.305068529E-18
 131.5   4.305071838E-18
 131.690002   4.305073906E-18
 131.880005   4.30507556E-18
 132.070007   4.305078455E-18
 132.259995   4.305082591E-18
 132.449997   4.305088381E-18
 132.639999   4.30509624E-18
 132.830002   4.305103684E-18
 133.020004   4.305110302E-18
 133.210007   4.30511361E-18
 133.399994   4.305113197E-18
 133.589996   4.305108234E-18
 133.779999   4.305100376E-18
 133.970001   4.305089209E-18
 134.160004   4.305077628E-18
 134.350006   4.305066461E-18
 134.539993   4.305058189E-18
 134.729996   4.305054053E-18
 134.919998   4.305053226E-18
 135.110001   4.30505364E-18
 135.300003   4.305055294E-18
 135.490005   4.305055708E-18
 135.679993   4.305054881E-18
 135.869995   4.30505364E-18
 136.059998   4.305051158E-18
 136.25   4.305048677E-18
 136.440002   4.30504909E-18
 136.630005   4.305053226E-18
 136.820007   4.305061084E-18
 137.009995   4.305073079E-18
 137.199997   4.305087554E-18
 137.389999   4.30510203E-18
 137.580002   4.30511361E-18
 137.770004   4.305119814E-18
 137.960007   4.305120641E-18
 138.149994   4.305117333E-18
 138.339996   4.305110302E-18
 138.529999   4.305101616E-18
 138.720001   4.305094172E-18
 138.910004   4.305088381E-18
 139.100006   4.305085486E-18
 139.289993   4.3050859E-18
 139.479996   4.305087554E-18
 139.669998   4.305089622E-18
 139.860001   4.305090449E-18
 140.050003   4.305089622E-18
 140.240005   4.305087554E-18
 140.429993   4.305084659E-18
 140.619995   4.30508135E-18
 140.809998   4.305079696E-18
 141.   4.305079696E-18
 141.190002   4.305082178E-18
 141.380005   4.3050859E-18
 141.570007   4.305090863E-18
 141.759995   4.305095412E-18
 141.949997   4.305097894E-18
 142.139999   4.305097894E-18
 142.330002   4.305095412E-18
 142.520004   4.305090449E-18
 142.710007   4.305083832E-18
 142.899994   4.305077628E-18
 143.089996   4.305073079E-18
 143.279999   4.305071424E-18
 143.470001   4.305072665E-18
 143.660004   4.305076387E-18
 143.850006   4.305083005E-18
 144.039993   4.305089622E-18
 144.229996   4.305096653E-18
 144.419998   4.30510203E-18
 144.610001   4.305106579E-18
 144.800003   4.305109475E-18
 144.990005   4.305112783E-18
 145.179993   4.305115678E-18
 145.369995   4.305118987E-18
 145.559998   4.305122709E-18
 145.75   4.305127259E-18
 145.940002   4.305130981E-18
 146.130005   4.305133463E-18
 146.320007   4.305133876E-18
 146.509995   4.305130981E-18
 146.699997   4.305124777E-18
 146.889999   4.305116919E-18
 147.080002   4.30510782E-18
 147.270004   4.305099962E-18
 147.460007   4.305094172E-18
 147.649994   4.30509169E-18
 147.839996   4.305092104E-18
 148.029999   4.305093758E-18
 148.220001   4.305096653E-18
 148.410004   4.305100376E-18
 148.600006   4.305102857E-18
 148.789993   4.305104511E-18
 148.979996   4.305106166E-18
 149.169998   4.305107407E-18
 149.360001   4.305109888E-18
 149.550003   4.30511361E-18
 149.740005   4.305118987E-18
 149.929993   4.305126432E-18
 150.119995   4.30513429E-18
 150.309998   4.30514008E-18
 150.5   4.305143803E-18
 150.690002   4.305142562E-18
 150.880005   4.305137599E-18
 151.070007   4.3051285E-18
 151.259995   4.305116092E-18
 151.449997   4.30510203E-18
 151.639999   4.305088795E-18
 151.830002   4.305077628E-18
 152.020004   4.305070597E-18
 152.210007   4.305066875E-18
 152.399994   4.305066048E-18
 152.589996   4.305067288E-18
 152.779999   4.305068943E-18
 152.970001   4.305069356E-18
 153.160004   4.305068529E-18
 153.350006   4.305066875E-18
 153.539993   4.305064393E-18
 153.729996   4.305062739E-18
 153.919998   4.305062739E-18
 154.110001   4.305066048E-18
 154.300003   4.305071424E-18
 154.490005   4.305079282E-18
 154.679993   4.305087968E-18
 154.869995   4.305093758E-18
 155.059998   4.30509624E-18
 155.25   4.305094172E-18
 155.440002   4.305088381E-18
 155.630005   4.305079696E-18
 155.820007   4.305071011E-18
 156.009995   4.305063152E-18
 156.199997   4.305059016E-18
 156.389999   4.305058189E-18
 156.580002   4.305061912E-18
 156.770004   4.305068529E-18
 156.960007   4.305077628E-18
 157.149994   4.305086727E-18
 157.339996   4.305094172E-18
 157.529999   4.305098721E-18
 157.720001   4.305099548E-18
 157.910004   4.305096653E-18
 158.100006   4.305091277E-18
 158.289993   4.305084659E-18
 158.479996   4.305077628E-18
 158.669998   4.305071424E-18
 158.860001   4.305066048E-18
 159.050003   4.305061498E-18
 159.240005   4.305057362E-18
 159.429993   4.305051158E-18
 159.619995   4.3050433E-18
 159.809998   4.30503296E-18
 160.   4.305020966E-18
 160.190002   4.305008972E-18
 160.380005   4.304999459E-18
 160.570007   4.304994083E-18
 160.759995   4.304993669E-18
 160.949997   4.305000287E-18
 161.139999   4.305012281E-18
 161.330002   4.305029652E-18
 161.520004   4.305049918E-18