-30.00000 9.7423422E-18
-29.81000 9.7078587E-18
-29.62000 9.6518428E-18
-29.43000 9.5936118E-18
-29.24000 9.5504702E-18
-29.05000 9.5303482E-18
-28.86000 9.5287517E-18
-28.67000 9.5313863E-18
-28.48000 9.5211930E-18
-28.29000 9.4865986E-18
-28.10000 9.4271847E-18
-27.91000 9.3542075E-18
-27.72000 9.2857211E-18
-27.53000 9.2385156E-18
-27.34000 9.2205459E-18
-27.15000 9.2272841E-18
-26.96000 9.2436854E-18
-26.77000 9.2508736E-18
-26.58000 9.2345517E-18
-26.39000 9.1913315E-18
-26.20000 9.1301276E-18
-26.01000 9.0679964E-18
-25.82000 9.0223087E-18
-25.63000 9.0028154E-18
-25.44000 9.0072003E-18
-25.25000 9.0221317E-18
-25.06000 9.0293472E-18
-24.87000 9.0139881E-18
-24.68000 8.9714074E-18
-24.49000 8.9093539E-18
-24.30000 8.8445352E-18
-24.11000 8.7951153E-18
-23.92000 8.7725490E-18
-23.73000 8.7764508E-18
-23.54000 8.7948258E-18
-23.35000 8.8095596E-18
-23.16000 8.8046651E-18
-22.97000 8.7735565E-18
-22.78000 8.7220422E-18
-22.59000 8.6656855E-18
-22.40000 8.6227334E-18
-22.21000 8.6058183E-18
-22.02000 8.6161962E-18
-21.83000 8.6431383E-18
-21.64000 8.6687486E-18
-21.45000 8.6760294E-18
-21.26000 8.6565378E-18
-21.07000 8.6141555E-18
-20.88000 8.5632814E-18
-20.69000 8.5222499E-18
-20.50000 8.5049693E-18
-20.31000 8.5145696E-18
-20.12000 8.5419377E-18
-19.93000 8.5698137E-18
-19.74000 8.5805811E-18
-19.55000 8.5642327E-18
-19.36000 8.5228985E-18
-19.17000 8.4698894E-18
-18.98000 8.4237013E-18
-18.79000 8.3996940E-18
-18.60000 8.4032261E-18
-18.41000 8.4273483E-18
-18.22000 8.4560887E-18
-18.03000 8.4718258E-18
-17.84000 8.4633903E-18
-17.65000 8.4312071E-18
-17.46000 8.3871407E-18
-17.27000 8.3491028E-18
-17.08000 8.3328760E-18
-16.89000 8.3448561E-18
-16.70000 8.3790195E-18
-16.51000 8.4194951E-18
-16.32000 8.4476019E-18
-16.13000 8.4501620E-18
-15.94000 8.4253474E-18
-15.75000 8.3834217E-18
-15.56000 8.3420329E-18
-15.37000 8.3182035E-18
-15.18000 8.3206487E-18
-14.99000 8.3458818E-18
-14.80000 8.3798847E-18
-14.61000 8.4045570E-18
-14.42000 8.4060294E-18
-14.23000 8.3810345E-18
-14.04000 8.3384554E-18
-13.85000 8.2953336E-18
-13.66000 8.2691459E-18
-13.47000 8.2698532E-18
-13.28000 8.2953402E-18
-13.09000 8.3323194E-18
-12.90000 8.3622848E-18
-12.71000 8.3698353E-18
-12.52000 8.3495884E-18
-12.33000 8.3085660E-18
-12.14000 8.2629751E-18
-11.95000 8.2308599E-18
-11.76000 8.2239413E-18
-11.57000 8.2423494E-18
-11.38000 8.2746177E-18
-11.19000 8.3029387E-18
-11.00000 8.3112792E-18
-10.81000 8.2926833E-18
-10.62000 8.2524460E-18
-10.43000 8.2057119E-18
-10.24000 8.1705998E-18
-10.05000 8.1599622E-18
-9.860000 8.1755331E-18
-9.670000 8.2071132E-18
-9.480000 8.2371770E-18
-9.290000 8.2488031E-18
-9.100000 8.2333257E-18
-8.910000 8.1942505E-18
-8.720000 8.1456478E-18
-8.530000 8.1057562E-18
-8.340000 8.0887180E-18
-8.150000 8.0981768E-18
-7.960000 8.1256615E-18
-7.770000 8.1544672E-18
-7.580000 8.1672811E-18
-7.390000 8.1540859E-18
-7.200000 8.1167619E-18
-7.010000 8.0682949E-18
-6.820000 8.0269474E-18
-6.630000 8.0080215E-18
-6.440000 8.0169410E-18
-6.250000 8.0467799E-18
-6.060000 8.0813585E-18
-5.870000 8.1025029E-18
-5.680000 8.0981933E-18
-5.490000 8.0679045E-18
-5.300000 8.0227387E-18
-5.110000 7.9802887E-18
-4.920000 7.9565817E-18
-4.730000 7.9587588E-18
-4.540000 7.9818189E-18
-4.350000 8.0109092E-18
-4.160000 8.0281104E-18
-3.970000 8.0206410E-18
-3.780000 7.9867539E-18
-3.590000 7.9366309E-18
-3.400000 7.8878818E-18
-3.210000 7.8576666E-18
-3.020000 7.8550088E-18
-2.830000 7.8767744E-18
-2.640000 7.9091280E-18
-2.450000 7.9338168E-18
-2.260000 7.9364307E-18
-2.070000 7.9128991E-18
-1.880000 7.8712844E-18
-1.690000 7.8280626E-18
-1.500000 7.8005688E-18
-1.310000 7.7990451E-18
-1.120000 7.8219018E-18
-0.9300000 7.8563588E-18
-0.7400000 7.8841785E-18
-0.5500000 7.8899059E-18
-0.3600000 7.8678732E-18
-0.1700000 7.8247754E-18
2.0000000E-02 7.7766542E-18
0.2100000 7.7416413E-18
0.4000000 7.7317573E-18
0.5900000 7.7474936E-18
0.7800000 7.7776220E-18
0.9700000 7.8043308E-18
1.160000 7.8113577E-18
1.350000 7.7914193E-18
1.540000 7.7495888E-18
1.730000 7.7010614E-18
1.920000 7.6643321E-18
2.110000 7.6528583E-18
2.300000 7.6689784E-18
2.490000 7.7028448E-18
2.680000 7.7368535E-18
2.870000 7.7535609E-18
3.060000 7.7435090E-18
3.250000 7.7094135E-18
3.440000 7.6648086E-18
3.630000 7.6277972E-18
3.820000 7.6127343E-18
4.010000 7.6236497E-18
4.200000 7.6524125E-18
4.390000 7.6824623E-18
4.580000 7.6964135E-18
4.770000 7.6840645E-18
4.960000 7.6471549E-18
5.150000 7.5987111E-18
5.340000 7.5572544E-18
5.530000 7.5385138E-18
5.720000 7.5483697E-18
5.910000 7.5802418E-18
6.100000 7.6180729E-18
6.290000 7.6435633E-18
6.480000 7.6443665E-18
6.670000 7.6195436E-18
6.860000 7.5798108E-18
7.050000 7.5424760E-18
7.240000 7.5233748E-18
7.430000 7.5294703E-18
7.620000 7.5554892E-18
7.810000 7.5861470E-18
8.000000 7.6029603E-18
8.190000 7.5925800E-18
8.380000 7.5528604E-18
8.570000 7.4939172E-18
8.760000 7.4336844E-18
8.950000 7.3899944E-18
9.140000 7.3727725E-18
9.330000 7.3798689E-18
9.520000 7.3984209E-18
9.710000 7.4110668E-18
9.900000 7.4041880E-18
10.09000 7.3743846E-18
10.28000 7.3302546E-18
10.47000 7.2886507E-18
10.66000 7.2671159E-18
10.85000 7.2759278E-18
11.04000 7.3133437E-18
11.23000 7.3662121E-18
11.42000 7.4156560E-18
11.61000 7.4452914E-18
11.80000 7.4482668E-18
11.99000 7.4299720E-18
12.18000 7.4052128E-18
12.37000 7.3911516E-18
12.56000 7.3992274E-18
12.75000 7.4297421E-18
12.94000 7.4715626E-18
13.13000 7.5070942E-18
13.32000 7.5202472E-18
13.51000 7.5037805E-18
13.70000 7.4626490E-18
13.89000 7.4118443E-18
14.08000 7.3696739E-18
14.27000 7.3495659E-18
14.46000 7.3541005E-18
14.65000 7.3740008E-18
14.84000 7.3925115E-18
15.03000 7.3931832E-18
15.22000 7.3675091E-18
15.41000 7.3189544E-18
15.60000 7.2615564E-18
15.79000 7.2137354E-18
15.98000 7.1901037E-18
16.17000 7.1949725E-18
16.36000 7.2204505E-18
16.55000 7.2499916E-18
16.74000 7.2657717E-18
16.93000 7.2565710E-18
17.12000 7.2226384E-18
17.31000 7.1753385E-18
17.50000 7.1317866E-18
17.69000 7.1068959E-18
17.88000 7.1064625E-18
18.07000 7.1244462E-18
18.26000 7.1456899E-18
18.45000 7.1528682E-18
18.64000 7.1345122E-18
18.83000 7.0904483E-18
19.02000 7.0321660E-18
19.21000 6.9779095E-18
19.40000 6.9447197E-18
19.59000 6.9410074E-18
19.78000 6.9630203E-18
19.97000 6.9967742E-18
20.16000 7.0245311E-18
20.35000 7.0328873E-18
20.54000 7.0187756E-18
20.73000 6.9906944E-18
20.92000 6.9646416E-18
21.11000 6.9566063E-18
21.30000 6.9750442E-18
21.49000 7.0167399E-18
21.68000 7.0679349E-18
21.87000 7.1102369E-18
22.06000 7.1286715E-18
22.25000 7.1182523E-18
22.44000 7.0861263E-18
22.63000 7.0483018E-18
22.82000 7.0224094E-18
23.01000 7.0197640E-18
23.20000 7.0403087E-18
23.39000 7.0727541E-18
23.58000 7.0998426E-18
23.77000 7.1063748E-18
23.96000 7.0863041E-18
24.15000 7.0456614E-18
24.34000 6.9999547E-18
24.53000 6.9672075E-18
24.72000 6.9598125E-18
24.91000 6.9789079E-18
25.10000 7.0138340E-18
25.29000 7.0469022E-18
25.48000 7.0613051E-18
25.67000 7.0485963E-18
25.86000 7.0123757E-18
26.05000 6.9665474E-18
26.24000 6.9289682E-18
26.43000 6.9133646E-18
26.62000 6.9231556E-18
26.81000 6.9499541E-18
27.00000 6.9774132E-18
27.19000 6.9886720E-18
27.38000 6.9740516E-18
27.57000 6.9355058E-18
27.76000 6.8858009E-18
27.95000 6.8427635E-18
28.14000 6.8211844E-18
28.33000 6.8260632E-18
28.52000 6.8502756E-18
28.71000 6.8777661E-18
28.90000 6.8908397E-18
29.09000 6.8782450E-18
29.28000 6.8403568E-18
29.47000 6.7890931E-18
29.66000 6.7425944E-18
29.85000 6.7170813E-18
30.04000 6.7195914E-18
30.23000 6.7448928E-18
30.42000 6.7779456E-18
30.61000 6.8007762E-18
30.80000 6.8006348E-18
30.99000 6.7757375E-18
31.18000 6.7360092E-18
31.37000 6.6985065E-18
31.56000 6.6795939E-18
31.75000 6.6874149E-18
31.94000 6.7180578E-18
32.13000 6.7571636E-18
32.32000 6.7862646E-18
32.51000 6.7910139E-18
32.70000 6.7675989E-18
32.89000 6.7244295E-18
33.08000 6.6783126E-18
33.27000 6.6468330E-18
33.46000 6.6403834E-18
33.65000 6.6574734E-18
33.84000 6.6854652E-18
34.03000 6.7064210E-18
34.22000 6.7054114E-18
34.41000 6.6774796E-18
34.60000 6.6300875E-18
34.79000 6.5799070E-18
34.98000 6.5454082E-18
35.17000 6.5386113E-18
35.36000 6.5597433E-18
35.55000 6.5972071E-18
35.74000 6.6328586E-18
35.93000 6.6501797E-18
36.12000 6.6416366E-18
36.31000 6.6119098E-18
36.50000 6.5755523E-18
36.69000 6.5501686E-18
36.88000 6.5482111E-18
37.07000 6.5711298E-18
37.26000 6.6085341E-18
37.45000 6.6427690E-18
37.64000 6.6568551E-18
37.83000 6.6422103E-18
38.02000 6.6026508E-18
38.21000 6.5528235E-18
38.40000 6.5117453E-18
38.59000 6.4943381E-18
38.78000 6.5047883E-18
38.97000 6.5347434E-18
39.16000 6.5671734E-18
39.35000 6.5841529E-18
39.54000 6.5750242E-18
39.73000 6.5412277E-18
39.92000 6.4956037E-18
40.11000 6.4564987E-18
40.30000 6.4393699E-18
40.49000 6.4497311E-18
40.68000 6.4806474E-18
40.87000 6.5159035E-18
41.06000 6.5374052E-18
41.25000 6.5334232E-18
41.44000 6.5039441E-18
41.63000 6.4606958E-18
41.82000 6.4218349E-18
42.01000 6.4036973E-18
42.20000 6.4133418E-18
42.39000 6.4452627E-18
42.58000 6.4837804E-18
42.77000 6.5100421E-18
42.96000 6.5104995E-18
43.15000 6.4830247E-18
43.34000 6.4378942E-18
43.53000 6.3931607E-18
43.72000 6.3665085E-18
43.91000 6.3672782E-18
44.10000 6.3922901E-18
44.29000 6.4273749E-18
44.48000 6.4539154E-18
44.67000 6.4573946E-18
44.86000 6.4340416E-18
45.05000 6.3925213E-18
45.24000 6.3499107E-18
45.43000 6.3237954E-18
45.62000 6.3241147E-18
45.81000 6.3484822E-18
46.00000 6.3831154E-18
46.19000 6.4089602E-18
46.38000 6.4102349E-18
46.57000 6.3815359E-18
46.76000 6.3303020E-18
46.95000 6.2735226E-18
47.14000 6.2301929E-18
47.33000 6.2129093E-18
47.52000 6.2224058E-18
47.71000 6.2474983E-18
47.90000 6.2704464E-18
48.09000 6.2752957E-18
48.28000 6.2553846E-18
48.47000 6.2165820E-18
48.66000 6.1747370E-18
48.85000 6.1484984E-18
49.04000 6.1507579E-18
49.23000 6.1826333E-18
49.42000 6.2327497E-18
49.61000 6.2821510E-18
49.80000 6.3126098E-18
49.99000 6.3145508E-18
50.18000 6.2910080E-18
50.37000 6.2558412E-18
50.56000 6.2270715E-18
50.75000 6.2183997E-18
50.94000 6.2327778E-18
51.13000 6.2609569E-18
51.32000 6.2856561E-18
51.51000 6.2894665E-18
51.70000 6.2629012E-18
51.89000 6.2089434E-18
52.08000 6.1420195E-18
52.27000 6.0818388E-18
52.46000 6.0448577E-18
52.65000 6.0372124E-18
52.84000 6.0523172E-18
53.03000 6.0741982E-18
53.22000 6.0850512E-18
53.41000 6.0735621E-18
53.60000 6.0401961E-18
53.79000 5.9970276E-18
53.98000 5.9621967E-18
54.17000 5.9515265E-18
54.36000 5.9711377E-18
54.55000 6.0144319E-18
54.74000 6.0648204E-18
54.93000 6.1029468E-18
55.12000 6.1151424E-18
55.31000 6.0992837E-18
55.50000 6.0654511E-18
55.69000 6.0311215E-18
55.88000 6.0131038E-18
56.07000 6.0198776E-18
56.26000 6.0477892E-18
56.45000 6.0828211E-18
56.64000 6.1071191E-18
56.83000 6.1073152E-18
57.02000 6.0808644E-18
57.21000 6.0374912E-18
57.40000 5.9950531E-18
57.59000 5.9716617E-18
57.78000 5.9776120E-18
57.97000 6.0107886E-18
58.16000 6.0576393E-18
58.35000 6.0992750E-18
58.54000 6.1199235E-18
58.73000 6.1138817E-18
58.92000 6.0878082E-18
59.11000 6.0573423E-18
59.30000 6.0396353E-18
59.49000 6.0452299E-18
59.68000 6.0730207E-18
59.87000 6.1105838E-18
60.06000 6.1397092E-18
60.25000 6.1446156E-18
60.44000 6.1190996E-18
60.63000 6.0693848E-18
60.82000 6.0113928E-18
61.01000 5.9636633E-18
61.20000 5.9391307E-18
61.39000 5.9394608E-18
61.58000 5.9545006E-18
61.77000 5.9670808E-18
61.96000 5.9609952E-18
62.15000 5.9285387E-18
62.34000 5.8741851E-18
62.53000 5.8127189E-18
62.72000 5.7626757E-18
62.91000 5.7380613E-18
63.10000 5.7421191E-18
63.29000 5.7659824E-18
63.48000 5.7928141E-18
63.67000 5.8055287E-18
63.86000 5.7945681E-18
64.05000 5.7621844E-18
64.24000 5.7212973E-18
64.43000 5.6894794E-18
64.62000 5.6808299E-18
64.81000 5.6994514E-18
65.00000 5.7374749E-18
65.19000 5.7785038E-18
65.38000 5.8048979E-18
65.57000 5.8055899E-18
65.76000 5.7809229E-18
65.95000 5.7423581E-18
66.14000 5.7072125E-18
66.33000 5.6908235E-18
66.52000 5.6996686E-18
66.71000 5.7285277E-18
66.90000 5.7629566E-18
67.09000 5.7859431E-18
67.28000 5.7857375E-18
67.47000 5.7613101E-18
67.66000 5.7229541E-18
67.85000 5.6877423E-18
68.04000 5.6718741E-18
68.23000 5.6833835E-18
68.42000 5.7185043E-18
68.61000 5.7633569E-18
68.80000 5.8001797E-18
68.99000 5.8152691E-18
69.18000 5.8050113E-18
69.37000 5.7772817E-18
69.56000 5.7475996E-18
69.75000 5.7318244E-18
69.94000 5.7387446E-18
70.13000 5.7659249E-18
70.32000 5.8006830E-18
70.51000 5.8257404E-18
70.70000 5.8269804E-18
70.89000 5.7998232E-18
71.08000 5.7513715E-18
71.27000 5.6973789E-18
71.46000 5.6553983E-18
71.65000 5.6371805E-18
71.84000 5.6436858E-18
72.03000 5.6649386E-18
72.22000 5.6847694E-18
72.41000 5.6883122E-18
72.60000 5.6688809E-18
72.79000 5.6311036E-18
72.98000 5.5888715E-18
73.17000 5.5590061E-18
73.36000 5.5535157E-18
73.55000 5.5739772E-18
73.74000 5.6106433E-18
73.93000 5.6467133E-18
74.12000 5.6658485E-18
74.31000 5.6595011E-18
74.50000 5.6307198E-18
74.69000 5.5927021E-18
74.88000 5.5627694E-18
75.07000 5.5545137E-18
75.26000 5.5716781E-18
75.45000 5.6065098E-18
75.64000 5.6432822E-18
75.83000 5.6653642E-18
76.02000 5.6626340E-18
76.21000 5.6359219E-18
76.40000 5.5965196E-18
76.59000 5.5609942E-18
76.78000 5.5436491E-18
76.97000 5.5500122E-18
77.16000 5.5742969E-18
77.35000 5.6020042E-18
77.54000 5.6165349E-18
77.73000 5.6068573E-18
77.92000 5.5727435E-18
78.11000 5.5251537E-18
78.30000 5.4815191E-18
78.49000 5.4580144E-18
78.68000 5.4623236E-18
78.87000 5.4902045E-18
79.06000 5.5274516E-18
79.25000 5.5563620E-18
79.44000 5.5637467E-18
79.63000 5.5468155E-18
79.82000 5.5142556E-18
80.01000 5.4820535E-18
80.20000 5.4660054E-18
80.39000 5.4743735E-18
80.58000 5.5040234E-18
80.77000 5.5417768E-18
80.96000 5.5703306E-18
81.15000 5.5760506E-18
81.34000 5.5551175E-18
81.53000 5.5152776E-18
81.72000 5.4724143E-18
81.91000 5.4434787E-18
82.10000 5.4389408E-18
82.29000 5.4581459E-18
82.48000 5.4896768E-18
82.67000 5.5165788E-18
82.86000 5.5241090E-18
83.05000 5.5065012E-18
83.24000 5.4696569E-18
83.43000 5.4284906E-18
83.62000 5.4001225E-18
83.81000 5.3960060E-18
84.00000 5.4166148E-18
84.19000 5.4511438E-18
84.38000 5.4823703E-18
84.57000 5.4944546E-18
84.76000 5.4800997E-18
84.95000 5.4438166E-18
85.14000 5.3998230E-18
85.33000 5.3655869E-18
85.52000 5.3539778E-18
85.71000 5.3675899E-18
85.90000 5.3977696E-18
86.09000 5.4287235E-18
86.28000 5.4448072E-18
86.47000 5.4376661E-18
86.66000 5.4100247E-18
86.85000 5.3744203E-18
87.04000 5.3474671E-18
87.23000 5.3422273E-18
87.42000 5.3621276E-18
87.61000 5.3991754E-18
87.80000 5.4373129E-18
87.99000 5.4594446E-18
88.18000 5.4549943E-18
88.37000 5.4245851E-18
88.56000 5.3797106E-18
88.75000 5.3375256E-18
88.94000 5.3131089E-18
89.13000 5.3127089E-18
89.32000 5.3310628E-18
89.51000 5.3539972E-18
89.70000 5.3651166E-18
89.89000 5.3534951E-18
90.08000 5.3188421E-18
90.27000 5.2717821E-18
90.46000 5.2291277E-18
90.65000 5.2063248E-18
90.84000 5.2105104E-18
91.03000 5.2373267E-18
91.22000 5.2729153E-18
91.41000 5.3001544E-18
91.60000 5.3063181E-18
91.79000 5.2887079E-18
91.98000 5.2557489E-18
92.17000 5.2230847E-18
92.36000 5.2064324E-18
92.55000 5.2144188E-18
92.74000 5.2445993E-18
92.93000 5.2844607E-18
93.12000 5.3169631E-18
93.31000 5.3281487E-18
93.50000 5.3133860E-18
93.69000 5.2794253E-18
93.88000 5.2412993E-18
94.07000 5.2154602E-18
94.26000 5.2122578E-18
94.45000 5.2312002E-18
94.64000 5.2611793E-18
94.83000 5.2855886E-18
95.02000 5.2899863E-18
95.21000 5.2688014E-18
95.40000 5.2279895E-18
95.59000 5.1824346E-18
95.78000 5.1492812E-18
95.97000 5.1402587E-18
96.16000 5.1564880E-18
96.35000 5.1881000E-18
96.54000 5.2188024E-18
96.73000 5.2332905E-18
96.92000 5.2241357E-18
97.11000 5.1950677E-18
97.30000 5.1591892E-18
97.49000 5.1329506E-18
97.68000 5.1285843E-18
97.87000 5.1484048E-18
98.06000 5.1835356E-18
98.25000 5.2176651E-18
98.44000 5.2341954E-18
98.63000 5.2235906E-18
98.82000 5.1876136E-18
99.01000 5.1385241E-18
99.20000 5.0935594E-18
99.39000 5.0671976E-18
99.58000 5.0647276E-18
99.77000 5.0800937E-18
99.96000 5.0989985E-18
100.1500 5.1058447E-18
100.3400 5.0912826E-18
100.5300 5.0568636E-18
100.7200 5.0146394E-18
100.9100 4.9818847E-18
101.1000 4.9733639E-18
101.2900 4.9946762E-18
101.4800 5.0396827E-18
101.6700 5.0931446E-18
101.8600 5.1373458E-18
102.0500 5.1597033E-18
102.2400 5.1579711E-18
102.4300 5.1407497E-18
102.6200 5.1231369E-18
102.8100 5.1195064E-18
103.0000 5.1366808E-18
103.1900 5.1705757E-18
103.3800 5.2078506E-18
103.5700 5.2318421E-18
103.7600 5.2301356E-18
103.9500 5.2003340E-18
104.1400 5.1513843E-18
104.3300 5.0998034E-18
104.5200 5.0624723E-18
104.7100 5.0492544E-18
104.9000 5.0587967E-18
105.0900 5.0794361E-18
105.2800 5.0947795E-18
105.4700 5.0913910E-18
105.6600 5.0650535E-18
105.8500 5.0227354E-18
106.0400 4.9793944E-18
106.2300 4.9511044E-18
106.4200 4.9476621E-18
106.6100 4.9680455E-18
106.8000 5.0007655E-18
106.9900 5.0289314E-18
107.1800 5.0377347E-18
107.3700 5.0209793E-18
107.5600 4.9837380E-18
107.7500 4.9399665E-18
107.9400 4.9061567E-18
108.1300 4.8938797E-18
108.3200 4.9045697E-18
108.5100 4.9288984E-18
108.7000 4.9510250E-18
108.8900 4.9558310E-18
109.0800 4.9358645E-18
109.2700 4.8948425E-18
109.4600 4.8461046E-18
109.6500 4.8066845E-18
109.8400 4.7896963E-18
110.0300 4.7984967E-18
110.2200 4.8253035E-18
110.4100 4.8549116E-18
110.6000 4.8717935E-18
110.7900 4.8673375E-18
110.9800 4.8438874E-18
111.1700 4.8137354E-18
111.3600 4.7935381E-18
111.5500 4.7966992E-18
111.7400 4.8272011E-18
111.9300 4.8776620E-18
112.1200 4.9324871E-18
112.3100 4.9746592E-18
112.5000 4.9930954E-18
112.6900 4.9872816E-18
112.8800 4.9671245E-18
113.0700 4.9481415E-18
113.2600 4.9441768E-18
113.4500 4.9609371E-18
113.6400 4.9932617E-18
113.8300 5.0273602E-18
114.0200 5.0470243E-18
114.2100 5.0410165E-18
114.4000 5.0082957E-18
114.5900 4.9586860E-18
114.7800 4.9086519E-18
114.9700 4.8740621E-18
115.1600 4.8632136E-18
115.3500 4.8732998E-18
115.5400 4.8919383E-18
115.7300 4.9030618E-18
115.9200 4.8944744E-18
116.1100 4.8635941E-18
116.3000 4.8187609E-18
116.4900 4.7755147E-18
116.6800 4.7495685E-18
116.8700 4.7496951E-18
117.0600 4.7737557E-18
117.2500 4.8096450E-18
117.4400 4.8406849E-18
117.6300 4.8529963E-18
117.8200 4.8415324E-18
118.0100 4.8120955E-18
118.2000 4.7784685E-18
118.3900 4.7559936E-18
118.5800 4.7544927E-18
118.7700 4.7737077E-18
118.9600 4.8033162E-18
119.1500 4.8275299E-18
119.3400 4.8322299E-18
119.5300 4.8114317E-18
119.7200 4.7701463E-18
119.9100 4.7222984E-18
120.1000 4.6846034E-18
120.2900 4.6691521E-18
120.4800 4.6780761E-18
120.6700 4.7027377E-18
120.8600 4.7278199E-18
121.0500 4.7384450E-18
121.2400 4.7270518E-18
121.4300 4.6968783E-18
121.6200 4.6604716E-18
121.8100 4.6339378E-18
122.0000 4.6295748E-18
122.1900 4.6502580E-18
122.3800 4.6880912E-18
122.5700 4.7279005E-18
122.7600 4.7539555E-18
122.9500 4.7568787E-18
123.1400 4.7376563E-18
123.3300 4.7069836E-18
123.5200 4.6802665E-18
123.7100 4.6705339E-18
123.9000 4.6824395E-18
124.0900 4.7100611E-18
124.2800 4.7395075E-18
124.4700 4.7552033E-18
124.6600 4.7470361E-18
124.8500 4.7151317E-18
125.0400 4.6700508E-18
125.2300 4.6282583E-18
125.4200 4.6048826E-18
125.6100 4.6070304E-18
125.8000 4.6307188E-18
125.9900 4.6628229E-18
126.1800 4.6871515E-18
126.3700 4.6918565E-18
126.5600 4.6747819E-18
126.7500 4.6443185E-18
126.9400 4.6154019E-18
127.1300 4.6025256E-18
127.3200 4.6129737E-18
127.5100 4.6433647E-18
127.7000 4.6810461E-18
127.8900 4.7097025E-18
128.0800 4.7166194E-18
128.2700 4.6983396E-18
128.4600 4.6621748E-18
128.6500 4.6228994E-18
128.8400 4.5961149E-18
129.0300 4.5912585E-18
129.2200 4.6074039E-18
129.4100 4.6337459E-18
129.6000 4.6545805E-18
129.7900 4.6565297E-18
129.9800 4.6347500E-18
130.1700 4.5952778E-18
130.3600 4.5524199E-18
130.5500 4.5223503E-18
130.7400 4.5158238E-18
130.9300 4.5333394E-18
131.1200 4.5649645E-18
131.3100 4.5948998E-18
131.5000 4.6086773E-18
131.6900 4.5996850E-18
131.8800 4.5720481E-18
132.0700 4.5385688E-18
132.2600 4.5147187E-18
132.4500 4.5114439E-18
132.6400 4.5300749E-18
132.8300 4.5616376E-18
133.0200 4.5908512E-18
133.2100 4.6029847E-18
133.4000 4.5904847E-18
133.5900 4.5563941E-18
133.7800 4.5130486E-18
133.9700 4.4766353E-18
134.1600 4.4600590E-18
134.3500 4.4672832E-18
134.5400 4.4916850E-18
134.7300 4.5191590E-18
134.9200 4.5345657E-18
135.1100 4.5286339E-18
135.3000 4.5021791E-18
135.4900 4.4657161E-18
135.6800 4.4346282E-18
135.8700 4.4220803E-18
136.0600 4.4329250E-18
136.2500 4.4614007E-18
136.4400 4.4936930E-18
136.6300 4.5141963E-18
136.8200 4.5126115E-18
137.0100 4.4886274E-18
137.2000 4.4520660E-18
137.3900 4.4184419E-18
137.5800 4.4019864E-18
137.7700 4.4093057E-18
137.9600 4.4365237E-18
138.1500 4.4711465E-18
138.3400 4.4977594E-18
138.5300 4.5049571E-18
138.7200 4.4904108E-18
138.9100 4.4618126E-18
139.1000 4.4333150E-18
139.2900 4.4190586E-18
139.4800 4.4266930E-18
139.6700 4.4537857E-18
139.8600 4.4887585E-18
140.0500 4.5159702E-18
140.2400 4.5226844E-18
140.4300 4.5048025E-18
140.6200 4.4687349E-18
140.8100 4.4285170E-18
141.0000 4.3994519E-18
141.1900 4.3911710E-18
141.3800 4.4032900E-18
141.5700 4.4256773E-18
141.7600 4.4432110E-18
141.9500 4.4428264E-18
142.1400 4.4196029E-18
142.3300 4.3791000E-18
142.5200 4.3349037E-18
142.7100 4.3025312E-18
142.9000 4.2925016E-18
143.0900 4.3056922E-18
143.2800 4.3330471E-18
143.4700 4.3597096E-18
143.6600 4.3716975E-18
143.8500 4.3621374E-18
144.0400 4.3342920E-18
144.2300 4.3000422E-18
144.4200 4.2745125E-18
144.6100 4.2692069E-18
144.8000 4.2867316E-18
144.9900 4.3194892E-18
145.1800 4.3529842E-18
145.3700 4.3722989E-18
145.5600 4.3688255E-18
145.7500 4.3441867E-18
145.9400 4.3095068E-18
146.1300 4.2803288E-18
146.3200 4.2694973E-18
146.5100 4.2812767E-18
146.7000 4.3094232E-18
146.8900 4.3400909E-18
147.0800 4.3582232E-18
147.2700 4.3544769E-18
147.4600 4.3295237E-18
147.6500 4.2937994E-18
147.8400 4.2628587E-18
148.0300 4.2504692E-18
148.2200 4.2625457E-18
148.4100 4.2946217E-18
148.6000 4.3339363E-18
148.7900 4.3651768E-18
148.9800 4.3773153E-18
149.1700 4.3684790E-18
149.3600 4.3466683E-18
149.5500 4.3259883E-18
149.7400 4.3200463E-18
149.9300 4.3354910E-18
150.1200 4.3686609E-18
150.3100 4.4069218E-18
150.5000 4.4341616E-18
150.6900 4.4379692E-18
150.8800 4.4152167E-18
151.0700 4.3734685E-18
151.2600 4.3275451E-18
151.4500 4.2928362E-18
151.6400 4.2784317E-18
151.8300 4.2832181E-18
152.0200 4.2966950E-18
152.2100 4.3040792E-18
152.4000 4.2933197E-18
152.5900 4.2608214E-18
152.7800 4.2132978E-18
152.9700 4.1649598E-18
153.1600 4.1313250E-18
153.3500 4.1224295E-18
153.5400 4.1384586E-18
153.7300 4.1697285E-18
153.9200 4.2010183E-18
154.1100 4.2183366E-18
154.3000 4.2151035E-18
154.4900 4.1949704E-18
154.6800 4.1700007E-18
154.8700 4.1549977E-18
155.0600 4.1605497E-18
155.2500 4.1879662E-18
155.4400 4.2284724E-18
155.6300 4.2670604E-18
155.8200 4.2892607E-18
156.0100 4.2877288E-18
156.2000 4.2655971E-18
156.3900 4.2350460E-18
156.5800 4.2117559E-18
156.7700 4.2077867E-18
156.9600 4.2261538E-18
157.1500 4.2595331E-18
157.3400 4.2936592E-18
157.5300 4.3138168E-18
157.7200 4.3114796E-18
157.9100 4.2881192E-18
158.1000 4.2545113E-18
158.2900 4.2258842E-18
158.4800 4.2151023E-18
158.6700 4.2269235E-18
158.8600 4.2558835E-18
159.0500 4.2887536E-18
159.2400 4.3104861E-18
159.4300 4.3109978E-18
159.6200 4.2897429E-18
159.8100 4.2559907E-18
160.0000 4.2246364E-18
160.1900 4.2093956E-18
160.3800 4.2164767E-18
160.5700 4.2416304E-18
160.7600 4.2719747E-18
160.9500 4.2917968E-18
161.1400 4.2896966E-18
161.3300 4.2637823E-18
161.5200 4.2225333E-18
161.7100 4.1809397E-18
161.9000 4.1537056E-18
162.0900 4.1486487E-18
162.2800 4.1632989E-18
162.4700 4.1862114E-18
162.6600 4.2023310E-18
162.8500 4.1999405E-18
163.0400 4.1760350E-18
163.2300 4.1377320E-18
163.4200 4.0991200E-18
163.6100 4.0749845E-18
163.8000 4.0742219E-18
163.9900 4.0958609E-18
164.1800 4.1294784E-18
164.3700 4.1598288E-18
164.5600 4.1736486E-18
164.7500 4.1656067E-18
164.9400 4.1406966E-18
165.1300 4.1119525E-18
165.3200 4.0944510E-18
165.5100 4.0983015E-18
165.7000 4.1238295E-18
165.8900 4.1612036E-18
166.0800 4.1947359E-18
166.2700 4.2099163E-18
166.4600 4.1999475E-18
166.6500 4.1687831E-18
166.8400 4.1292769E-18
167.0300 4.0973349E-18
167.2200 4.0847792E-18
167.4100 4.0941945E-18
167.6000 4.1180579E-18
167.7900 4.1424614E-18
167.9800 4.1536614E-18
168.1700 4.1444553E-18
168.3600 4.1175169E-18
168.5500 4.0842365E-18
168.7400 4.0596110E-18
168.9300 4.0554717E-18
169.1200 4.0750672E-18
169.3100 4.1114218E-18
169.5000 4.1502385E-18
169.6900 4.1761136E-18
169.8800 4.1793189E-18
170.0700 4.1601109E-18
170.2600 4.1285780E-18
170.4500 4.1000299E-18
170.6400 4.0879808E-18
170.8300 4.0979210E-18
171.0200 4.1247634E-18
171.2100 4.1551611E-18
171.4000 4.1736515E-18
171.5900 4.1697782E-18
171.7800 4.1429027E-18
171.9700 4.1025028E-18
172.1600 4.0638598E-18
172.3500 4.0411594E-18
172.5400 4.0411830E-18
172.7300 4.0604204E-18
172.9200 4.0868575E-18
173.1100 4.1055567E-18
173.3000 4.1054839E-18
173.4900 4.0845194E-18
173.6800 4.0504458E-18
173.8700 4.0174831E-18
174.0600 3.9999166E-18
174.2500 4.0056387E-18
174.4400 4.0324918E-18
174.6300 4.0690764E-18
174.8200 4.0997172E-18
175.0100 4.1114078E-18
175.2000 4.0996118E-18
175.3900 4.0702737E-18
175.5800 4.0370732E-18
175.7700 4.0151413E-18
175.9600 4.0141069E-18
176.1500 4.0336776E-18
176.3400 4.0638019E-18
176.5300 4.0893431E-18
176.7200 4.0970955E-18
176.9100 4.0818981E-18
177.1000 4.0490466E-18
177.2900 4.0119203E-18
177.4800 3.9859340E-18
177.6700 3.9815987E-18
177.8600 3.9998157E-18
178.0500 4.0315091E-18
178.2400 4.0617182E-18
178.4300 4.0763043E-18
178.6200 4.0682633E-18
178.8100 4.0408373E-18
179.0000 4.0060390E-18
179.1900 3.9792338E-18
179.3800 3.9721887E-18
179.5700 3.9877029E-18
179.7600 4.0182556E-18
179.9500 4.0493320E-18
180.1400 4.0659625E-18
180.3300 4.0595357E-18
180.5200 4.0317705E-18
180.7100 3.9939965E-18
180.9000 3.9620392E-18
181.0900 3.9490368E-18
181.2800 3.9594807E-18
181.4700 3.9872285E-18
181.6600 4.0183983E-18
181.8500 4.0378003E-18
182.0400 4.0359370E-18
182.2300 4.0133592E-18
182.4200 3.9804006E-18
182.6100 3.9524423E-18
182.8000 3.9428842E-18
182.9900 3.9570228E-18
183.1800 3.9895955E-18
183.3700 4.0270717E-18
183.5600 4.0536474E-18
183.7500 4.0582378E-18
183.9400 4.0393446E-18
184.1300 4.0056163E-18
184.3200 3.9718719E-18
184.5100 3.9523707E-18
184.7000 3.9543655E-18
184.8900 3.9748485E-18
185.0800 4.0019879E-18
185.2700 4.0206036E-18
185.4600 4.0192168E-18
185.6500 3.9954424E-18
185.8400 3.9572498E-18
186.0300 3.9194762E-18
186.2200 3.8971792E-18
186.4100 3.8988426E-18
186.6000 3.9225566E-18
186.7900 3.9569032E-18
186.9800 3.9861408E-18
187.1700 3.9973019E-18
187.3600 3.9859683E-18
187.5500 3.9581138E-18
187.7400 3.9272104E-18
187.9300 3.9079528E-18
188.1200 3.9094727E-18
188.3100 3.9311122E-18
188.5000 3.9626468E-18
188.6900 3.9888390E-18
188.8800 3.9962609E-18
189.0700 3.9793194E-18
189.2600 3.9427911E-18
189.4500 3.8997368E-18
189.6400 3.8657306E-18
189.8300 3.8519841E-18
190.0200 3.8604565E-18
190.2100 3.8831469E-18
190.4000 3.9059051E-18
190.5900 3.9150326E-18
190.7800 3.9036882E-18
190.9700 3.8751613E-18
191.1600 3.8415016E-18
191.3500 3.8181019E-18
191.5400 3.8166957E-18
191.7300 3.8399734E-18
191.9200 3.8802819E-18
192.1100 3.9230124E-18
192.3000 3.9531218E-18
192.4900 3.9618175E-18
192.6800 3.9503590E-18
192.8700 3.9292750E-18
193.0600 3.9133816E-18
193.2500 3.9148808E-18
193.4400 3.9376808E-18
193.6300 3.9754838E-18
193.8200 4.0144928E-18
194.0100 4.0395072E-18
194.2000 4.0406685E-18
194.3900 4.0178387E-18
194.5800 3.9806508E-18
194.7700 3.9442089E-18
194.9600 3.9223527E-18
195.1500 3.9215082E-18
195.3400 3.9378938E-18
195.5300 3.9593567E-18
195.7200 3.9710286E-18
195.9100 3.9622406E-18
196.1000 3.9315485E-18
196.2900 3.8875487E-18
196.4800 3.8450920E-18
196.6700 3.8185991E-18
196.8600 3.8155435E-18
197.0500 3.8330855E-18
197.2400 3.8593973E-18
197.4300 3.8790775E-18
197.6200 3.8801649E-18
197.8100 3.8595519E-18
198.0000 3.8243533E-18
198.1900 3.7886245E-18
198.3800 3.7669474E-18
198.5700 3.7677945E-18
198.7600 3.7896639E-18
198.9500 3.8217122E-18
199.1400 3.8485910E-18
199.3300 3.8573140E-18
199.5200 3.8430700E-18
199.7100 3.8113798E-18
199.9000 3.7756113E-18
200.0900 3.7509667E-18
200.2800 3.7476439E-18
200.4700 3.7662662E-18
200.6600 3.7976726E-18
200.8500 3.8271790E-18
201.0400 3.8413862E-18
201.2300 3.8344143E-18
201.4200 3.8106978E-18
201.6100 3.7830382E-18
201.8000 3.7667874E-18
201.9900 3.7728192E-18
202.1800 3.8025079E-18
202.3700 3.8469920E-18
202.5600 3.8910605E-18
202.7500 3.9198708E-18
202.9400 3.9254489E-18
203.1300 3.9100468E-18
203.3200 3.8848724E-18
203.5100 3.8648161E-18
203.7000 3.8615827E-18
203.8900 3.8783372E-18
204.0800 3.9082721E-18
204.2700 3.9377197E-18
204.4600 3.9523901E-18
204.6500 3.9439111E-18
204.8400 3.9137037E-18
205.0300 3.8724386E-18
205.2200 3.8353015E-18
205.4100 3.8152084E-18
205.6000 3.8170394E-18
205.7900 3.8355108E-18
205.9800 3.8576680E-18
206.1700 3.8688648E-18
206.3600 3.8595139E-18
206.5500 3.8295464E-18
206.7400 3.7885389E-18
206.9300 3.7514672E-18
207.1200 3.7320098E-18
207.3100 3.7364439E-18
207.5000 3.7608887E-18
207.6900 3.7931223E-18
207.8800 3.8181238E-18
208.0700 3.8248195E-18
208.2600 3.8109766E-18
208.4500 3.7840539E-18
208.6400 3.7576478E-18
208.8300 3.7451483E-18
209.0200 3.7534946E-18
209.2100 3.7798465E-18
209.4000 3.8126897E-18
209.5900 3.8368880E-18
209.7800 3.8404230E-18
209.9700 3.8197910E-18
210.1600 3.7816208E-18
210.3500 3.7397803E-18
210.5400 3.7092627E-18
210.7300 3.6996054E-18
210.9200 3.7108100E-18
211.1100 3.7336021E-18
211.3000 3.7539049E-18
211.4900 3.7594697E-18
211.6800 3.7456459E-18
211.8700 3.7176421E-18
212.0600 3.6882490E-18
212.2500 3.6720595E-18
212.4400 3.6788151E-18
212.6300 3.7089013E-18
212.8200 3.7530239E-18
213.0100 3.7962110E-18
213.2000 3.8243236E-18
213.3900 3.8301440E-18
213.5800 3.8163297E-18
213.7700 3.7939197E-18
213.9600 3.7771019E-18
214.1500 3.7766035E-18
214.3400 3.7946964E-18
214.5300 3.8240663E-18
214.7200 3.8510787E-18
214.9100 3.8619797E-18
215.1000 3.8492440E-18
215.2900 3.8151778E-18
215.4800 3.7711189E-18
215.6700 3.7325524E-18
215.8600 3.7123237E-18
216.0500 3.7150303E-18