  -30.0000000         9.84048302E-18
  -29.8575001         9.85754445E-18
  -29.7150002         9.88337730E-18
  -29.5725002         9.90645398E-18
  -29.4300003         9.91866730E-18
  -29.2875004         9.91985927E-18
  -29.1450005         9.91752993E-18
  -29.0025005         9.92193798E-18
  -28.8600006         9.93959332E-18
  -28.7175007         9.96905832E-18
  -28.5750008         1.00016104E-17
  -28.4325008         1.00263447E-17
  -28.2900009         1.00366679E-17
  -28.1474991         1.00342377E-17
  -28.0049992         1.00279991E-17
  -27.8624992         1.00288767E-17
  -27.7199993         1.00433185E-17
  -27.5774994         1.00695409E-17
  -27.4349995         1.00987189E-17
  -27.2924995         1.01203687E-17
  -27.1499996         1.01286620E-17
  -27.0074997         1.01258843E-17
  -26.8649998         1.01209634E-17
  -26.7224998         1.01240050E-17
  -26.5799999         1.01401466E-17
  -26.4375000         1.01664559E-17
  -26.2950001         1.01937264E-17
  -26.1525002         1.02120790E-17
  -26.0100002         1.02169544E-17
  -25.8675003         1.02118755E-17
  -25.7250004         1.02063111E-17
  -25.5825005         1.02099482E-17
  -25.4400005         1.02268310E-17
  -25.2975006         1.02529310E-17
  -25.1550007         1.02785934E-17
  -25.0125008         1.02943794E-17
  -24.8700008         1.02967658E-17
  -24.7275009         1.02902501E-17
  -24.5849991         1.02845979E-17
  -24.4424992         1.02889125E-17
  -24.2999992         1.03061328E-17
  -24.1574993         1.03312848E-17
  -24.0149994         1.03545543E-17
  -23.8724995         1.03673028E-17
  -23.7299995         1.03673723E-17
  -23.5874996         1.03604363E-17
  -23.4449997         1.03565759E-17
  -23.3024998         1.03641372E-17
  -23.1599998         1.03845958E-17
  -23.0174999         1.04115561E-17
  -22.8750000         1.04345186E-17
  -22.7325001         1.04451570E-17
  -22.5900002         1.04423148E-17
  -22.4475002         1.04327046E-17
  -22.3050003         1.04268722E-17
  -22.1625004         1.04328469E-17
  -22.0200005         1.04513187E-17
  -21.8775005         1.04752523E-17
  -21.7350006         1.04941815E-17
  -21.5925007         1.05005938E-17
  -21.4500008         1.04945331E-17
  -21.3075008         1.04836226E-17
  -21.1650009         1.04784734E-17
  -21.0224991         1.04862331E-17
  -20.8799992         1.05061665E-17
  -20.7374992         1.05299604E-17
  -20.5949993         1.05466124E-17
  -20.4524994         1.05489748E-17
  -20.3099995         1.05380593E-17
  -20.1674995         1.05224769E-17
  -20.0249996         1.05133787E-17
  -19.8824997         1.05178893E-17
  -19.7399998         1.05349888E-17
  -19.5974998         1.05562879E-17
  -19.4549999         1.05712251E-17
  -19.3125000         1.05735313E-17
  -19.1700001         1.05650759E-17
  -19.0275002         1.05547518E-17
  -18.8850002         1.05530760E-17
  -18.7425003         1.05657417E-17
  -18.6000004         1.05900121E-17
  -18.4575005         1.06161419E-17
  -18.3150005         1.06329874E-17
  -18.1725006         1.06344738E-17
  -18.0300007         1.06230480E-17
  -17.8875008         1.06080917E-17
  -17.7450008         1.06002550E-17
  -17.6025009         1.06051404E-17
  -17.4599991         1.06201090E-17
  -17.3174992         1.06361059E-17
  -17.1749992         1.06433611E-17
  -17.0324993         1.06375071E-17
  -16.8899994         1.06223953E-17
  -16.7474995         1.06079313E-17
  -16.6049995         1.06042090E-17
  -16.4624996         1.06155091E-17
  -16.3199997         1.06377404E-17
  -16.1774998         1.06608857E-17
  -16.0349998         1.06749486E-17
  -15.8924999         1.06758362E-17
  -15.7500000         1.06676405E-17
  -15.6075001         1.06599874E-17
  -15.4650002         1.06620843E-17
  -15.3225002         1.06770720E-17
  -15.1800003         1.07001073E-17
  -15.0375004         1.07213030E-17
  -14.8950005         1.07317263E-17
  -14.7524996         1.07288047E-17
  -14.6099997         1.07178727E-17
  -14.4674997         1.07089126E-17
  -14.3249998         1.07104934E-17
  -14.1824999         1.07245670E-17
  -14.0400000         1.07452945E-17
  -13.8975000         1.07626000E-17
  -13.7550001         1.07683084E-17
  -13.6125002         1.07611334E-17
  -13.4700003         1.07475056E-17
  -13.3275003         1.07377242E-17
  -13.1850004         1.07397723E-17
  -13.0424995         1.07545292E-17
  -12.8999996         1.07752898E-17
  -12.7574997         1.07918673E-17
  -12.6149998         1.07967998E-17
  -12.4724998         1.07898845E-17
  -12.3299999         1.07782866E-17
  -12.1875000         1.07721523E-17
  -12.0450001         1.07783743E-17
  -11.9025002         1.07963183E-17
  -11.7600002         1.08180947E-17
  -11.6175003         1.08332726E-17
  -11.4750004         1.08351818E-17
  -11.3325005         1.08250017E-17
  -11.1899996         1.08111464E-17
  -11.0474997         1.08042965E-17
  -10.9049997         1.08110380E-17
  -10.7624998         1.08299523E-17
  -10.6199999         1.08525021E-17
  -10.4775000         1.08681970E-17
  -10.3350000         1.08709218E-17
  -10.1925001         1.08626119E-17
  -10.0500002         1.08520447E-17
  -9.90750027         1.08494788E-17
  -9.76500034         1.08603611E-17
  -9.62250042         1.08819191E-17
  -9.47999954         1.09047071E-17
  -9.33749962         1.09182199E-17
  -9.19499969         1.09171959E-17
  -9.05249977         1.09048295E-17
  -8.90999985         1.08909503E-17
  -8.76749992         1.08862329E-17
  -8.62500000         1.08958985E-17
  -8.48250008         1.09166739E-17
  -8.34000015         1.09388126E-17
  -8.19750023         1.09519664E-17
  -8.05500031         1.09513618E-17
  -7.91249990         1.09405877E-17
  -7.76999998         1.09293306E-17
  -7.62750006         1.09274364E-17
  -7.48500013         1.09388837E-17
  -7.34250021         1.09593126E-17
  -7.19999981         1.09786025E-17
  -7.05749989         1.09869405E-17
  -6.91499996         1.09807581E-17
  -6.77250004         1.09649474E-17
  -6.63000011         1.09500366E-17
  -6.48750019         1.09460281E-17
  -6.34499979         1.09565689E-17
  -6.20249987         1.09769481E-17
  -6.05999994         1.09970825E-17
  -5.91750002         1.10076489E-17
  -5.77500010         1.10056844E-17
  -5.63250017         1.09962586E-17
  -5.48999977         1.09892657E-17
  -5.34749985         1.09932949E-17
  -5.20499992         1.10103067E-17
  -5.06250000         1.10343379E-17
  -4.92000008         1.10550191E-17
  -4.77750015         1.10637616E-17
  -4.63500023         1.10588919E-17
  -4.49249983         1.10466273E-17
  -4.34999990         1.10373232E-17
  -4.20749998         1.10392563E-17
  -4.06500006         1.10537088E-17
  -3.92249990         1.10742990E-17
  -3.77999997         1.10909377E-17
  -3.63750005         1.10959960E-17
  -3.49499989         1.10889368E-17
  -3.35249996         1.10766093E-17
  -3.21000004         1.10690514E-17
  -3.06750011         1.10733494E-17
  -2.92499995         1.10893016E-17
  -2.78250003         1.11095253E-17
  -2.64000010         1.11239290E-17
  -2.49749994         1.11258671E-17
  -2.35500002         1.11162081E-17
  -2.21250010         1.11028690E-17
  -2.06999993         1.10960555E-17
  -1.92750001         1.11021171E-17
  -1.78499997         1.11197029E-17
  -1.64250004         1.11405744E-17
  -1.50000000         1.11545852E-17
  -1.35749996         1.11558077E-17
  -1.21500003         1.11461132E-17
  -1.07249999         1.11340148E-17
 -0.930000007         1.11294819E-17
 -0.787500024         1.11378529E-17
 -0.644999981         1.11565530E-17
 -0.502499998         1.11766064E-17
 -0.360000014         1.11880620E-17
 -0.217500001         1.11860602E-17
  -7.50000030E-02     1.11738452E-17
   6.75000027E-02     1.11609114E-17
  0.209999993         1.11573380E-17
  0.352499992         1.11677340E-17
  0.495000005         1.11884350E-17
  0.637499988         1.12096564E-17
  0.779999971         1.12213246E-17
  0.922500014         1.12190912E-17
   1.06500006         1.12069109E-17
   1.20749998         1.11946323E-17
   1.35000002         1.11920465E-17
   1.49249995         1.12029760E-17
   1.63499999         1.12229632E-17
   1.77750003         1.12419727E-17
   1.91999996         1.12504703E-17
   2.06250000         1.12452276E-17
   2.20499992         1.12313624E-17
   2.34750009         1.12193526E-17
   2.49000001         1.12188108E-17
   2.63249993         1.12327463E-17
   2.77500010         1.12557493E-17
   2.91750002         1.12771874E-17
   3.05999994         1.12874974E-17
   3.20250010         1.12838048E-17
   3.34500003         1.12715121E-17
   3.48749995         1.12609291E-17
   3.63000011         1.12609970E-17
   3.77250004         1.12738762E-17
   3.91499996         1.12936656E-17
   4.05749989         1.13100091E-17
   4.19999981         1.13143898E-17
   4.34250021         1.13053289E-17
   4.48500013         1.12893569E-17
   4.62750006         1.12771667E-17
   4.76999998         1.12772734E-17
   4.91249990         1.12909881E-17
   5.05499983         1.13117164E-17
   5.19750023         1.13289648E-17
   5.34000015         1.13346500E-17
   5.48250008         1.13278869E-17
   5.62500000         1.13154031E-17
   5.76749992         1.13073679E-17
   5.90999985         1.13111771E-17
   6.05249977         1.13269613E-17
   6.19500017         1.13475316E-17
   6.33750010         1.13627691E-17
   6.48000002         1.13657867E-17
   6.62249994         1.13571236E-17
   6.76499987         1.13444421E-17
   6.90749979         1.13379016E-17
   7.05000019         1.13440376E-17
   7.19250011         1.13618220E-17
   7.33500004         1.13833113E-17
   7.47749996         1.13984529E-17
   7.61999989         1.14011503E-17
   7.76249981         1.13929108E-17
   7.90500021         1.13818704E-17
   8.04749966         1.13778056E-17
   8.18999958         1.13861626E-17
   8.33250046         1.14047370E-17
   8.47500038         1.14250062E-17
   8.61750031         1.14373147E-17
   8.76000023         1.14367555E-17
   8.90250015         1.14261667E-17
   9.04500008         1.14144150E-17
   9.18750000         1.14109979E-17
   9.32999992         1.14202226E-17
   9.47249985         1.14385157E-17
   9.61499977         1.14564953E-17
   9.75749969         1.14645951E-17
   9.89999962         1.14588329E-17
   10.0424995         1.14432580E-17
   10.1850004         1.14275713E-17
   10.3275003         1.14213484E-17
   10.4700003         1.14283522E-17
   10.6125002         1.14443573E-17
   10.7550001         1.14598256E-17
   10.8975000         1.14657887E-17
   11.0400000         1.14594087E-17
   11.1824999         1.14458098E-17
   11.3249998         1.14350763E-17
   11.4674997         1.14361781E-17
   11.6099997         1.14515016E-17
   11.7524996         1.14752823E-17
   11.8950005         1.14969122E-17
   12.0375004         1.15071717E-17
   12.1800003         1.15036438E-17
   12.3225002         1.14920790E-17
   12.4650002         1.14828807E-17
   12.6075001         1.14848221E-17
   12.7500000         1.14997718E-17
   12.8924999         1.15215837E-17
   13.0349998         1.15398305E-17
   13.1774998         1.15461063E-17
   13.3199997         1.15391191E-17
   13.4624996         1.15255004E-17
   13.6049995         1.15158265E-17
   13.7475004         1.15182609E-17
   13.8900003         1.15336183E-17
   14.0325003         1.15548306E-17
   14.1750002         1.15711318E-17
   14.3175001         1.15744571E-17
   14.4600000         1.15642339E-17
   14.6025000         1.15476845E-17
   14.7449999         1.15354977E-17
   14.8874998         1.15354712E-17
   15.0299997         1.15479401E-17
   15.1724997         1.15657229E-17
   15.3149996         1.15785814E-17
   15.4575005         1.15794830E-17
   15.6000004         1.15688835E-17
   15.7425003         1.15544608E-17
   15.8850002         1.15464702E-17
   16.0275002         1.15515450E-17
   16.1700001         1.15686734E-17
   16.3125000         1.15897856E-17
   16.4549999         1.16045681E-17
   16.5974998         1.16066096E-17
   16.7399998         1.15971657E-17
   16.8824997         1.15843071E-17
   17.0249996         1.15779784E-17
   17.1674995         1.15839746E-17
   17.3099995         1.16004769E-17
   17.4524994         1.16192133E-17
   17.5949993         1.16305259E-17
   17.7374992         1.16292536E-17
   17.8799992         1.16178584E-17
   18.0224991         1.16049238E-17
   18.1650009         1.15999351E-17
   18.3075008         1.16075253E-17
   18.4500008         1.16246752E-17
   18.5925007         1.16425704E-17
   18.7350006         1.16519680E-17
   18.8775005         1.16488388E-17
   19.0200005         1.16368348E-17
   19.1625004         1.16251012E-17
   19.3050003         1.16227487E-17
   19.4475002         1.16333325E-17
   19.5900002         1.16526893E-17
   19.7325001         1.16714415E-17
   19.8750000         1.16806571E-17
   20.0174999         1.16772334E-17
   20.1599998         1.16657447E-17
   20.3024998         1.16556233E-17
   20.4449997         1.16553876E-17
   20.5874996         1.16674115E-17
   20.7299995         1.16864251E-17
   20.8724995         1.17026692E-17
   21.0149994         1.17078118E-17
   21.1574993         1.17000562E-17
   21.2999992         1.16853307E-17
   21.4424992         1.16738221E-17
   21.5849991         1.16739123E-17
   21.7275009         1.16871704E-17
   21.8700008         1.17074197E-17
   22.0125008         1.17244514E-17
   22.1550007         1.17301515E-17
   22.2975006         1.17233678E-17
   22.4400005         1.17105597E-17
   22.5825005         1.17018437E-17
   22.7250004         1.17048133E-17
   22.8675003         1.17198581E-17
   23.0100002         1.17398229E-17
   23.1525002         1.17542291E-17
   23.2950001         1.17555410E-17
   23.4375000         1.17437197E-17
   23.5799999         1.17263076E-17
   23.7224998         1.17140016E-17
   23.8649998         1.17143358E-17
   24.0074997         1.17272779E-17
   24.1499996         1.17453468E-17
   24.2924995         1.17581896E-17
   24.4349995         1.17588497E-17
   24.5774994         1.17479599E-17
   24.7199993         1.17333568E-17
   24.8624992         1.17253406E-17
   25.0049992         1.17304559E-17
   25.1474991         1.17475256E-17
   25.2900009         1.17683242E-17
   25.4325008         1.17824831E-17
   25.5750008         1.17836792E-17
   25.7175007         1.17733899E-17
   25.8600006         1.17599821E-17
   26.0025005         1.17536782E-17
   26.1450005         1.17604478E-17
   26.2875004         1.17784820E-17
   26.4300003         1.17993352E-17
   26.5725002         1.18130424E-17
   26.7150002         1.18140888E-17
   26.8575001         1.18046581E-17
   27.0000000         1.17932075E-17
   27.1424999         1.17892792E-17
   27.2849998         1.17976726E-17
   27.4274998         1.18155281E-17
   27.5699997         1.18340454E-17
   27.7124996         1.18438036E-17
   27.8549995         1.18404444E-17
   27.9974995         1.18273014E-17
   28.1399994         1.18133832E-17
   28.2824993         1.18079677E-17
   28.4249992         1.18150533E-17
   28.5674992         1.18310353E-17
   28.7099991         1.18469841E-17
   28.8525009         1.18541244E-17
   28.9950008         1.18491877E-17
   29.1375008         1.18363937E-17
   29.2800007         1.18248761E-17
   29.4225006         1.18231175E-17
   29.5650005         1.18337898E-17
   29.7075005         1.18521184E-17
   29.8500004         1.18687745E-17
   29.9925003         1.18755285E-17
   30.1350002         1.18702411E-17
   30.2775002         1.18581585E-17
   30.4200001         1.18487113E-17
   30.5625000         1.18497651E-17
   30.7049999         1.18628007E-17
   30.8474998         1.18819524E-17
   30.9899998         1.18975009E-17
   31.1324997         1.19017104E-17
   31.2749996         1.18934948E-17
   31.4174995         1.18790721E-17
   31.5599995         1.18682063E-17
   31.7024994         1.18683138E-17
   31.8449993         1.18799812E-17
   31.9874992         1.18966257E-17
   32.1300011         1.19085107E-17
   32.2724991         1.19086901E-17
   32.4150009         1.18972883E-17
   32.5574989         1.18815082E-17
   32.7000008         1.18713355E-17
   32.8424988         1.18735143E-17
   32.9850006         1.18874233E-17
   33.1274986         1.19053566E-17
   33.2700005         1.19170629E-17
   33.4124985         1.19158395E-17
   33.5550003         1.19025169E-17
   33.6974983         1.18849600E-17
   33.8400002         1.18733588E-17
   33.9824982         1.18741562E-17
   34.1250000         1.18862520E-17
   34.2675018         1.19017658E-17
   34.4099998         1.19108995E-17
   34.5525017         1.19079631E-17
   34.6949997         1.18949383E-17
   34.8375015         1.18804146E-17
   34.9799995         1.18745243E-17
   35.1225014         1.18829169E-17
   35.2649994         1.19033697E-17
   35.4075012         1.19270809E-17
   35.5499992         1.19438701E-17
   35.6925011         1.19481682E-17
   35.8349991         1.19422274E-17
   35.9775009         1.19346297E-17
   36.1199989         1.19350251E-17
   36.2625008         1.19482567E-17
   36.4049988         1.19714086E-17
   36.5475006         1.19955350E-17
   36.6899986         1.20109983E-17
   36.8325005         1.20132127E-17
   36.9749985         1.20053255E-17
   37.1175003         1.19962406E-17
   37.2599983         1.19951893E-17
   37.4025002         1.20061287E-17
   37.5449982         1.20253350E-17
   37.6875000         1.20436232E-17
   37.8300018         1.20518561E-17
   37.9724998         1.20464017E-17
   38.1150017         1.20312775E-17
   38.2574997         1.20157025E-17
   38.4000015         1.20085590E-17
   38.5424995         1.20131118E-17
   38.6850014         1.20251679E-17
   38.8274994         1.20357476E-17
   38.9700012         1.20366368E-17
   39.1124992         1.20254459E-17
   39.2550011         1.20071081E-17
   39.3974991         1.19909301E-17
   39.5400009         1.19849909E-17
   39.6824989         1.19912941E-17
   39.8250008         1.20045984E-17
   39.9674988         1.20156372E-17
   40.1100006         1.20167613E-17
   40.2524986         1.20065911E-17
   40.3950005         1.19908532E-17
   40.5374985         1.19788996E-17
   40.6800003         1.19780277E-17
   40.8224983         1.19890334E-17
   40.9650002         1.20057069E-17
   41.1074982         1.20185670E-17
   41.2500000         1.20205812E-17
   41.3925018         1.20113995E-17
   41.5349998         1.19975434E-17
   41.6775017         1.19884370E-17
   41.8199997         1.19906712E-17
   41.9625015         1.20039996E-17
   42.1049995         1.20214862E-17
   42.2475014         1.20337392E-17
   42.3899994         1.20346607E-17
   42.5325012         1.20252333E-17
   42.6749992         1.20130266E-17
   42.8175011         1.20076896E-17
   42.9599991         1.20151450E-17
   43.1025009         1.20339683E-17
   43.2449989         1.20561649E-17
   43.3875008         1.20718846E-17
   43.5299988         1.20752529E-17
   43.6725006         1.20678165E-17
   43.8149986         1.20575173E-17
   43.9575005         1.20538173E-17
   44.0999985         1.20619105E-17
   44.2425003         1.20795211E-17
   44.3849983         1.20982196E-17
   44.5275002         1.21084915E-17
   44.6699982         1.21055095E-17
   44.8125000         1.20921290E-17
   44.9550018         1.20772836E-17
   45.0974998         1.20707299E-17
   45.2400017         1.20772720E-17
   45.3824997         1.20939348E-17
   45.5250015         1.21117721E-17
   45.6674995         1.21212317E-17
   45.8100014         1.21178568E-17
   45.9524994         1.21049189E-17
   46.0950012         1.20913920E-17
   46.2374992         1.20865207E-17
   46.3800011         1.20942276E-17
   46.5224991         1.21107323E-17
   46.6650009         1.21268160E-17
   46.8074989         1.21333524E-17
   46.9500008         1.21267953E-17
   47.0924988         1.21113204E-17
   47.2350006         1.20963510E-17
   47.3774986         1.20909478E-17
   47.5200005         1.20984470E-17
   47.6624985         1.21145365E-17
   47.8050003         1.21299196E-17
   47.9474983         1.21359464E-17
   48.0900002         1.21298038E-17
   48.2324982         1.21161702E-17
   48.3750000         1.21043531E-17
   48.5175018         1.21026483E-17
   48.6599998         1.21133528E-17
   48.8025017         1.21313969E-17
   48.9449997         1.21474360E-17
   49.0875015         1.21534934E-17
   49.2299995         1.21477520E-17
   49.3725014         1.21356098E-17
   49.5149994         1.21263718E-17
   49.6575012         1.21275952E-17
   49.7999992         1.21405100E-17
   49.9425011         1.21592680E-17
   50.0849991         1.21744732E-17
   50.2275009         1.21788300E-17
   50.3699989         1.21715160E-17
   50.5125008         1.21586170E-17
   50.6549988         1.21493981E-17
   50.7975006         1.21506744E-17
   50.9399986         1.21626942E-17
   51.0825005         1.21790235E-17
   51.2249985         1.21904973E-17
   51.3675003         1.21908208E-17
   51.5099983         1.21804273E-17
   51.6525002         1.21662312E-17
   51.7949982         1.21574382E-17
   51.9375000         1.21599380E-17
   52.0800018         1.21726857E-17
   52.2224998         1.21882805E-17
   52.3650017         1.21974043E-17
   52.5074997         1.21944405E-17
   52.6500015         1.21808880E-17
   52.7924995         1.21644850E-17
   52.9350014         1.21545762E-17
   53.0774994         1.21565201E-17
   53.2200012         1.21685026E-17
   53.3624992         1.21827111E-17
   53.5050011         1.21901458E-17
   53.6474991         1.21861671E-17
   53.7900009         1.21733979E-17
   53.9324989         1.21602209E-17
   54.0750008         1.21557400E-17
   54.2174988         1.21642368E-17
   54.3600006         1.21824836E-17
   54.5024986         1.22015501E-17
   54.6450005         1.22120479E-17
   54.7874985         1.22096797E-17
   54.9300003         1.21977633E-17
   55.0724983         1.21852050E-17
   55.2150002         1.21811419E-17
   55.3574982         1.21894634E-17
   55.5000000         1.22065074E-17
   55.6425018         1.22233248E-17
   55.7849998         1.22311359E-17
   55.9275017         1.22267014E-17
   56.0699997         1.22143541E-17
   56.2125015         1.22034659E-17
   56.3549995         1.22028364E-17
   56.4975014         1.22153847E-17
   56.6399994         1.22363256E-17
   56.7825012         1.22559348E-17
   56.9249992         1.22652695E-17
   57.0675011         1.22614099E-17
   57.2099991         1.22491089E-17
   57.3525009         1.22378667E-17
   57.4949989         1.22361974E-17
   57.6375008         1.22465306E-17
   57.7799988         1.22638029E-17
   57.9225006         1.22785607E-17
   58.0649986         1.22826875E-17
   58.2075005         1.22743081E-17
   58.3499985         1.22589192E-17
   58.4925003         1.22460756E-17
   58.6349983         1.22436354E-17
   58.7775002         1.22530413E-17
   58.9199982         1.22684732E-17
   59.0625000         1.22803771E-17
   59.2050018         1.22812291E-17
   59.3474998         1.22700911E-17
   59.4900017         1.22532018E-17
   59.6324997         1.22402721E-17
   59.7750015         1.22387286E-17
   59.9174995         1.22493595E-17
   60.0600014         1.22659594E-17
   60.2024994         1.22791645E-17
   60.3450012         1.22821275E-17
   60.4874992         1.22745976E-17
   60.6300011         1.22629493E-17
   60.7724991         1.22561755E-17
   60.9150009         1.22602940E-17
   61.0574989         1.22745728E-17
   61.2000008         1.22918841E-17
   61.3424988         1.23029567E-17
   61.4850006         1.23019881E-17
   61.6274986         1.22901867E-17
   61.7700005         1.22751121E-17
   61.9124985         1.22662133E-17
   62.0550003         1.22692309E-17
   62.1974983         1.22828562E-17
   62.3400002         1.22996389E-17
   62.4824982         1.23105775E-17
   62.6250000         1.23105965E-17
   62.7675018         1.23015786E-17
   62.9099998         1.22911288E-17
   63.0525017         1.22878085E-17
   63.1949997         1.22957693E-17
   63.3375015         1.23120482E-17
   63.4799995         1.23282039E-17
   63.6225014         1.23353408E-17
   63.7649994         1.23294778E-17
   63.9075012         1.23140310E-17
   64.0500031         1.22978679E-17
   64.1924973         1.22900866E-17
   64.3349991         1.22946559E-17
   64.4775009         1.23081241E-17
   64.6200027         1.23217949E-17
   64.7624969         1.23270409E-17
   64.9049988         1.23205632E-17
   65.0475006         1.23064077E-17
   65.1900024         1.22935095E-17
   65.3324966         1.22902512E-17
   65.4749985         1.22993229E-17
   65.6175003         1.23160055E-17
   65.7600021         1.23309377E-17
   65.9024963         1.23357370E-17
   66.0449982         1.23280889E-17
   66.1875000         1.23132352E-17
   66.3300018         1.23009375E-17
   66.4725037         1.22997216E-17
   66.6149979         1.23118282E-17
   66.7574997         1.23319088E-17
   66.9000015         1.23502301E-17
   67.0425034         1.23584804E-17
   67.1849976         1.23546886E-17
   67.3274994         1.23443066E-17
   67.4700012         1.23368248E-17
   67.6125031         1.23399507E-17
   67.7549973         1.23548830E-17
   67.8974991         1.23755037E-17
   68.0400009         1.23919977E-17
   68.1825027         1.23967193E-17
   68.3249969         1.23887725E-17
   68.4674988         1.23745632E-17
   68.6100006         1.23639712E-17
   68.7525024         1.23644510E-17
   68.8949966         1.23765799E-17
   69.0374985         1.23937373E-17
   69.1800003         1.24060681E-17
   69.3225021         1.24063725E-17
   69.4649963         1.23943635E-17
   69.6074982         1.23767759E-17
   69.7500000         1.23632855E-17
   69.8925018         1.23607129E-17
   70.0350037         1.23690277E-17
   70.1774979         1.23815273E-17
   70.3199997         1.23890662E-17
   70.4625015         1.23857558E-17
   70.6050034         1.23726698E-17
   70.7474976         1.23573107E-17
   70.8899994         1.23491539E-17
   71.0325012         1.23539573E-17
   71.1750031         1.23702677E-17
   71.3174973         1.23902234E-17
   71.4599991         1.24041614E-17
   71.6025009         1.24062583E-17
   71.7450027         1.23978095E-17
   71.8874969         1.23862075E-17
   72.0299988         1.23802774E-17
   72.1725006         1.23848161E-17
   72.3150024         1.23976697E-17
   72.4574966         1.24111023E-17
   72.5999985         1.24166221E-17
   72.7425003         1.24103007E-17
   72.8850021         1.23953428E-17
   73.0274963         1.23803179E-17
   73.1699982         1.23740843E-17
   73.3125000         1.23804892E-17
   73.4550018         1.23960294E-17
   73.5975037         1.24119005E-17
   73.7399979         1.24192178E-17
   73.8824997         1.24142530E-17
   74.0250015         1.24005458E-17
   74.1675034         1.23866219E-17
   74.3099976         1.23807191E-17
   74.4524994         1.23857310E-17
   74.5950012         1.23974439E-17
   74.7375031         1.24071517E-17
   74.8799973         1.24070615E-17
   75.0224991         1.23952088E-17
   75.1650009         1.23768694E-17
   75.3075027         1.23615798E-17
   75.4499969         1.23575175E-17
   75.5924988         1.23666256E-17
   75.7350006         1.23834165E-17
   75.8775024         1.23982140E-17
   76.0199966         1.24028917E-17
   76.1624985         1.23956795E-17
   76.3050003         1.23821493E-17
   76.4475021         1.23717922E-17
   76.5899963         1.23722488E-17
   76.7324982         1.23846747E-17
   76.8750000         1.24030398E-17
   77.0175018         1.24177776E-17
   77.1600037         1.24216091E-17
   77.3024979         1.24139891E-17
   77.4449997         1.24015062E-17
   77.5875015         1.23939490E-17
   77.7300034         1.23983976E-17
   77.8724976         1.24148833E-17
   78.0149994         1.24362295E-17
   78.1575012         1.24521983E-17
   78.3000031         1.24554731E-17
   78.4424973         1.24459026E-17
   78.5849991         1.24304889E-17
   78.7275009         1.24191334E-17
   78.8700027         1.24187173E-17
   79.0124969         1.24290612E-17
   79.1549988         1.24431746E-17
   79.2975006         1.24516234E-17
   79.4400024         1.24483560E-17
   79.5824966         1.24344668E-17
   79.7249985         1.24176205E-17
   79.8675003         1.24074817E-17
   80.0100021         1.24099087E-17
   80.1524963         1.24233942E-17
   80.2949982         1.24399155E-17
   80.4375000         1.24496737E-17
   80.5800018         1.24468812E-17
   80.7225037         1.24331450E-17
   80.8649979         1.24164277E-17
   81.0074997         1.24062368E-17
   81.1500015         1.24079648E-17
   81.2925034         1.24197695E-17
   81.4349976         1.24338423E-17
   81.5774994         1.24412679E-17
   81.7200012         1.24374910E-17
   81.8625031         1.24250792E-17
   82.0049973         1.24121106E-17
   82.1474991         1.24071856E-17
   82.2900009         1.24140876E-17
   82.4325027         1.24293598E-17
   82.5749969         1.24442640E-17
   82.7174988         1.24499665E-17
   82.8600006         1.24428123E-17
   83.0025024         1.24265259E-17
   83.1449966         1.24100021E-17
   83.2874985         1.24020364E-17
   83.4300003         1.24061797E-17
   83.5725021         1.24187942E-17
   83.7149963         1.24314749E-17
   83.8574982         1.24363263E-17
   84.0000000         1.24308636E-17
   84.1425018         1.24195511E-17
   84.2850037         1.24110402E-17
   84.4274979         1.24127798E-17
   84.5699997         1.24262984E-17
   84.7125015         1.24460333E-17
   84.8550034         1.24624934E-17
   84.9974976         1.24678328E-17
   85.1399994         1.24605189E-17
   85.2825012         1.24462583E-17