-7.200000 -5.9167500E-19
-7.057088 -6.0033315E-19
-6.914176 -6.1685350E-19
-6.771265 -6.3988940E-19
-6.628353 -6.6765547E-19
-6.485441 -6.9807835E-19
-6.342530 -7.2897897E-19
-6.199618 -7.5826390E-19
-6.056706 -7.8411604E-19
-5.913795 -8.0516189E-19
-5.770883 -8.2059750E-19
-5.627971 -8.3026476E-19
-5.485059 -8.3465626E-19
-5.342147 -8.3486011E-19
-5.199236 -8.3243652E-19
-5.056324 -8.2925022E-19
-4.913413 -8.2726783E-19
-4.770501 -8.2834952E-19
-4.627589 -8.3405386E-19
-4.484677 -8.4547769E-19
-4.341765 -8.6314456E-19
-4.198854 -8.8695899E-19
-4.055942 -9.1621606E-19
-3.913030 -9.4967551E-19
-3.770118 -9.8567824E-19
-3.627207 -1.0223058E-18
-3.484295 -1.0575530E-18
-3.341383 -1.0895111E-18
-3.198472 -1.1165385E-18
-3.055560 -1.1374095E-18
-2.912648 -1.1514280E-18
-2.769737 -1.1584961E-18
-2.626825 -1.1591333E-18
-2.483913 -1.1544358E-18
-2.341001 -1.1459853E-18
-2.198090 -1.1357085E-18
-2.055178 -1.1256968E-18
-1.912266 -1.1180091E-18
-1.769354 -1.1144688E-18
-1.626443 -1.1164830E-18
-1.483531 -1.1249027E-18
-1.340619 -1.1399375E-18
-1.197708 -1.1611407E-18
-1.054796 -1.1874571E-18
-0.9118841 -1.2173395E-18
-0.7689723 -1.2489112E-18
-0.6260606 -1.2801580E-18
-0.4831489 -1.3091318E-18
-0.3402372 -1.3341386E-18
-0.1973254 -1.3538953E-18
-5.4413714E-02 -1.3676446E-18
8.8498011E-02 -1.3752136E-18
0.2314097 -1.3770197E-18
0.3743215 -1.3740203E-18
0.5172332 -1.3676168E-18
0.6601449 -1.3595234E-18
0.8030567 -1.3516083E-18
0.9459684 -1.3457199E-18
1.088880 -1.3435170E-18
1.231792 -1.3463127E-18
1.374704 -1.3549436E-18
1.517615 -1.3696865E-18
1.660527 -1.3902197E-18
1.803439 -1.4156482E-18
1.946350 -1.4445833E-18
2.089262 -1.4752736E-18
2.232174 -1.5057811E-18
2.375086 -1.5341752E-18
2.517997 -1.5587290E-18
2.660909 -1.5780972E-18
2.803821 -1.5914513E-18
2.946733 -1.5985599E-18
3.089644 -1.5998063E-18
3.232556 -1.5961409E-18
3.375468 -1.5889757E-18
3.518379 -1.5800382E-18
3.661291 -1.5711959E-18
3.804203 -1.5642734E-18
3.947115 -1.5608799E-18
4.090026 -1.5622621E-18
4.232938 -1.5691940E-18
4.375850 -1.5819121E-18
4.518762 -1.6000967E-18
4.661673 -1.6229065E-18
4.804585 -1.6490543E-18
4.947497 -1.6769230E-18
5.090408 -1.7047159E-18
5.233320 -1.7306198E-18
5.376232 -1.7529808E-18
5.519144 -1.7704604E-18
5.662055 -1.7821766E-18
5.804967 -1.7877925E-18
5.947879 -1.7875590E-18
6.090790 -1.7822946E-18
6.233702 -1.7733088E-18
6.376614 -1.7622709E-18
6.519526 -1.7510396E-18
6.662437 -1.7414739E-18
6.805349 -1.7352450E-18
6.948261 -1.7336713E-18
7.091173 -1.7375895E-18
7.234084 -1.7472819E-18
7.376996 -1.7624611E-18
7.519908 -1.7823099E-18
7.662819 -1.8055738E-18
7.805731 -1.8306890E-18
7.948643 -1.8559396E-18
8.091555 -1.8796186E-18
8.234467 -1.9001898E-18
8.377378 -1.9164273E-18
8.520289 -1.9275281E-18
8.663201 -1.9331881E-18
8.806113 -1.9336346E-18
8.949025 -1.9296122E-18
9.091937 -1.9223206E-18
9.234848 -1.9133068E-18
9.377760 -1.9043238E-18
9.520672 -1.8971615E-18
9.663584 -1.8934685E-18
9.806496 -1.8945811E-18
9.949407 -1.9013797E-18
10.09232 -1.9141900E-18
10.23523 -1.9327402E-18
10.37814 -1.9561804E-18
10.52105 -1.9831649E-18
10.66397 -2.0119861E-18
10.80688 -2.0407466E-18
10.94979 -2.0675499E-18
11.09270 -2.0906862E-18
11.23561 -2.1087956E-18
11.37852 -2.1209945E-18
11.52144 -2.1269489E-18
11.66435 -2.1268968E-18
11.80726 -2.1216167E-18
11.95017 -2.1123486E-18
12.09308 -2.1006773E-18
12.23599 -2.0883881E-18
12.37891 -2.0773074E-18
12.52182 -2.0691408E-18
12.66473 -2.0653192E-18
12.80764 -2.0668659E-18
12.95055 -2.0742968E-18
13.09346 -2.0875646E-18
13.23638 -2.1060504E-18
13.37929 -2.1286143E-18
13.52220 -2.1536960E-18
13.66511 -2.1794640E-18
13.80802 -2.2039965E-18
13.95094 -2.2254792E-18
14.09385 -2.2423948E-18
14.23676 -2.2536827E-18
14.37967 -2.2588553E-18
14.52258 -2.2580457E-18
14.66549 -2.2519957E-18
14.80841 -2.2419723E-18
14.95132 -2.2296327E-18
15.09423 -2.2168517E-18
15.23714 -2.2055299E-18
15.38005 -2.1974061E-18
15.52296 -2.1938902E-18
15.66588 -2.1959348E-18
15.80879 -2.2039535E-18
15.95170 -2.2177854E-18
16.09461 -2.2367181E-18
16.23752 -2.2595526E-18
16.38043 -2.2847117E-18
16.52335 -2.3103779E-18
16.66626 -2.3346579E-18
16.80917 -2.3557517E-18
16.95208 -2.3721226E-18
17.09499 -2.3826458E-18
17.23791 -2.3867258E-18
17.38082 -2.3843669E-18
17.52373 -2.3761849E-18
17.66664 -2.3633617E-18
17.80955 -2.3475344E-18
17.95246 -2.3306380E-18
18.09538 -2.3147107E-18
18.23829 -2.3016855E-18
18.38120 -2.2931934E-18
18.52411 -2.2903988E-18
18.66702 -2.2938845E-18
18.80993 -2.3036004E-18
18.95285 -2.3188813E-18
19.09576 -2.3385231E-18
19.23867 -2.3609135E-18
19.38158 -2.3841963E-18
19.52449 -2.4064531E-18
19.66740 -2.4258846E-18
19.81032 -2.4409738E-18
19.95323 -2.4506212E-18
20.09614 -2.4542387E-18
20.23905 -2.4518001E-18
20.38196 -2.4438423E-18
20.52488 -2.4314188E-18
20.66779 -2.4160089E-18
20.81070 -2.3993813E-18
20.95361 -2.3834361E-18
21.09652 -2.3700185E-18
21.23943 -2.3607379E-18
21.38235 -2.3568036E-18
21.52526 -2.3588923E-18
21.66817 -2.3670702E-18
21.81108 -2.3807795E-18
21.95399 -2.3988883E-18
22.09690 -2.4198058E-18
22.23981 -2.4416467E-18
22.38273 -2.4624255E-18
22.52564 -2.4802603E-18
22.66855 -2.4935608E-18
22.81146 -2.5011797E-18
22.95437 -2.5025196E-18
23.09729 -2.4975751E-18
23.24020 -2.4869216E-18
23.38311 -2.4716508E-18
23.52602 -2.4532609E-18
23.66893 -2.4335190E-18
23.81184 -2.4143016E-18
23.95476 -2.3974304E-18
24.09767 -2.3845169E-18
24.24058 -2.3768175E-18
24.38349 -2.3751197E-18
24.52640 -2.3796671E-18
24.66932 -2.3901245E-18
24.81223 -2.4056046E-18
24.95514 -2.4247393E-18
25.09805 -2.4458126E-18
25.24096 -2.4669280E-18
25.38387 -2.4862040E-18
25.52678 -2.5019732E-18
25.66970 -2.5129592E-18
25.81261 -2.5184132E-18
25.95552 -2.5181897E-18
26.09843 -2.5127563E-18
26.24134 -2.5031288E-18
26.38426 -2.4907525E-18
26.52717 -2.4773383E-18
26.67008 -2.4646808E-18
26.81299 -2.4544717E-18
26.95590 -2.4481374E-18
27.09881 -2.4467115E-18
27.24173 -2.4507476E-18
27.38464 -2.4602800E-18
27.52755 -2.4748307E-18
27.67046 -2.4934524E-18
27.81337 -2.5148121E-18
27.95629 -2.5373006E-18
28.09920 -2.5591680E-18
28.24211 -2.5786750E-18
28.38502 -2.5942502E-18
28.52793 -2.6046418E-18
28.67084 -2.6090492E-18
28.81376 -2.6072175E-18
28.95667 -2.5994800E-18
29.09958 -2.5867416E-18
29.24249 -2.5703972E-18
29.38540 -2.5521882E-18
29.52831 -2.5340252E-18
29.67122 -2.5177800E-18
29.81414 -2.5050861E-18
29.95705 -2.4971702E-18
30.09996 -2.4947341E-18
30.24287 -2.4978995E-18
30.38578 -2.5062175E-18
30.52870 -2.5187433E-18
30.67161 -2.5341528E-18
30.81452 -2.5508929E-18
30.95743 -2.5673380E-18
31.10034 -2.5819463E-18
31.24325 -2.5933936E-18
31.38617 -2.6006856E-18
31.52908 -2.6032393E-18
31.67199 -2.6009315E-18
31.81490 -2.5941114E-18
31.95781 -2.5835801E-18
32.10072 -2.5705293E-18
32.24364 -2.5564428E-18
32.38655 -2.5429652E-18
32.52946 -2.5317414E-18
32.67237 -2.5242465E-18
32.81528 -2.5216233E-18
32.95819 -2.5245436E-18
33.10111 -2.5331236E-18
33.24402 -2.5468945E-18
33.38693 -2.5648476E-18
33.52984 -2.5855424E-18
33.67275 -2.6072654E-18
33.81567 -2.6282208E-18
33.95858 -2.6467250E-18
34.10149 -2.6613817E-18
34.24440 -2.6712152E-18
34.38731 -2.6757521E-18
34.53022 -2.6750475E-18
34.67313 -2.6696537E-18
34.81605 -2.6605485E-18
34.95896 -2.6490310E-18
35.10187 -2.6365964E-18
35.24478 -2.6248037E-18
35.38770 -2.6151423E-18
35.53061 -2.6089049E-18
35.67352 -2.6070710E-18
35.81643 -2.6102137E-18
35.95934 -2.6184313E-18
36.10225 -2.6313184E-18
36.24516 -2.6479863E-18
36.38808 -2.6671295E-18
36.53099 -2.6871448E-18
36.67390 -2.7062936E-18
36.81681 -2.7228850E-18
36.95972 -2.7354662E-18
37.10263 -2.7429865E-18
37.24555 -2.7449186E-18
37.38846 -2.7413173E-18
37.53137 -2.7328073E-18
37.67428 -2.7205042E-18
37.81719 -2.7058834E-18
37.96011 -2.6906124E-18
38.10302 -2.6763731E-18
38.24593 -2.6646935E-18
38.38884 -2.6568082E-18
38.53175 -2.6535545E-18
38.67466 -2.6553157E-18
38.81758 -2.6620016E-18
38.96049 -2.6730701E-18
39.10340 -2.6875791E-18
39.24631 -2.7042681E-18
39.38922 -2.7216645E-18
39.53214 -2.7382065E-18
39.67505 -2.7523846E-18
39.81796 -2.7628862E-18
39.96087 -2.7687334E-18
40.10378 -2.7693976E-18
40.24669 -2.7648777E-18
40.38961 -2.7557218E-18
40.53252 -2.7429884E-18
40.67543 -2.7281486E-18
40.81834 -2.7129301E-18
40.96125 -2.6991336E-18
41.10416 -2.6884338E-18
41.24707 -2.6821987E-18
41.38999 -2.6813490E-18
41.53290 -2.6862686E-18
41.67581 -2.6967829E-18
41.81872 -2.7121941E-18
41.96163 -2.7313690E-18
42.10455 -2.7528602E-18
42.24746 -2.7750489E-18
42.39037 -2.7962903E-18
42.53328 -2.8150515E-18
42.67619 -2.8300355E-18
42.81910 -2.8402820E-18
42.96202 -2.8452480E-18
43.10493 -2.8448573E-18
43.24784 -2.8395183E-18
43.39075 -2.8301025E-18
43.53366 -2.8178820E-18
43.67657 -2.8044202E-18
43.81948 -2.7914271E-18
43.96240 -2.7805869E-18
44.10531 -2.7733767E-18
44.24822 -2.7709020E-18
44.39113 -2.7737670E-18
44.53405 -2.7820009E-18
44.67696 -2.7950563E-18
44.81987 -2.8118731E-18
44.96278 -2.8310027E-18
45.10569 -2.8507746E-18
45.24860 -2.8694788E-18
45.39151 -2.8855466E-18
45.53443 -2.8976999E-18
45.67734 -2.9050635E-18
45.82025 -2.9072286E-18
45.96316 -2.9042708E-18
46.10608 -2.8967255E-18
46.24899 -2.8855340E-18
46.39190 -2.8719574E-18
46.53481 -2.8574774E-18
46.67772 -2.8436774E-18
46.82063 -2.8321132E-18
46.96354 -2.8241764E-18
47.10646 -2.8209649E-18
47.24937 -2.8231623E-18
47.39228 -2.8309522E-18
47.53519 -2.8439750E-18
47.67810 -2.8613424E-18
47.82101 -2.8817116E-18
47.96392 -2.9034182E-18
48.10684 -2.9246540E-18
48.24975 -2.9436624E-18
48.39266 -2.9589334E-18
48.53557 -2.9693658E-18
48.67849 -2.9743756E-18
48.82140 -2.9739451E-18
48.96431 -2.9685972E-18
49.10722 -2.9593176E-18
49.25013 -2.9474302E-18
49.39304 -2.9344491E-18
49.53595 -2.9219247E-18
49.67887 -2.9113025E-18
49.82178 -2.9038027E-18
49.96469 -2.9003256E-18
50.10760 -2.9013856E-18
50.25051 -2.9070764E-18
50.39342 -2.9170609E-18
50.53634 -2.9305963E-18
50.67925 -2.9465859E-18
50.82216 -2.9636686E-18
50.96507 -2.9803398E-18
51.10798 -2.9950946E-18
51.25090 -3.0065856E-18
51.39381 -3.0137771E-18
51.53672 -3.0160707E-18
51.67963 -3.0133888E-18
51.82254 -3.0061969E-18
51.96545 -2.9954615E-18
52.10837 -2.9825451E-18
52.25128 -2.9690523E-18
52.39419 -2.9566508E-18
52.53710 -2.9468878E-18
52.68001 -2.9410283E-18
52.82293 -2.9399335E-18
52.96584 -2.9439906E-18
53.10875 -2.9530954E-18
53.25166 -2.9666826E-18
53.39457 -2.9838001E-18
53.53748 -3.0032037E-18
53.68040 -3.0234742E-18
53.82331 -3.0431379E-18
53.96622 -3.0607889E-18
54.10913 -3.0752071E-18
54.25204 -3.0854627E-18
54.39495 -3.0910029E-18
54.53786 -3.0917155E-18
54.68078 -3.0879496E-18
54.82369 -3.0804986E-18
54.96660 -3.0705281E-18
55.10951 -3.0594658E-18
55.25242 -3.0488467E-18
55.39534 -3.0401446E-18
55.53825 -3.0346016E-18
55.68116 -3.0330873E-18
55.82407 -3.0360004E-18
55.96698 -3.0432281E-18
56.10989 -3.0541709E-18
56.25281 -3.0678231E-18
56.39572 -3.0828953E-18
56.53863 -3.0979637E-18
56.68154 -3.1116208E-18
56.82445 -3.1226178E-18
56.96737 -3.1299753E-18
57.11028 -3.1330661E-18
57.25319 -3.1316613E-18
57.39610 -3.1259432E-18
57.53901 -3.1164896E-18
57.68192 -3.1042279E-18
57.82484 -3.0903623E-18
57.96775 -3.0762797E-18
58.11066 -3.0634291E-18
58.25357 -3.0531888E-18
58.39648 -3.0467275E-18
58.53939 -3.0448762E-18
58.68230 -3.0480268E-18
58.82522 -3.0560740E-18
58.96813 -3.0684168E-18
59.11104 -3.0840153E-18
59.25395 -3.1015069E-18
59.39687 -3.1193636E-18
59.53978 -3.1360688E-18
59.68269 -3.1502868E-18
59.82560 -3.1610074E-18
59.96851 -3.1676420E-18
60.11142 -3.1700644E-18
60.25433 -3.1685970E-18
60.39725 -3.1639495E-18
60.54016 -3.1571271E-18
60.68307 -3.1493169E-18
60.82598 -3.1417726E-18
60.96889 -3.1357031E-18
61.11180 -3.1321729E-18
61.25471 -3.1320150E-18
61.39763 -3.1357584E-18
61.54054 -3.1435763E-18
61.68345 -3.1552538E-18
61.82636 -3.1701889E-18
61.96928 -3.1874270E-18
62.11219 -3.2057368E-18
62.25510 -3.2237241E-18
62.39801 -3.2399771E-18
62.54092 -3.2532234E-18
62.68383 -3.2624810E-18
62.82674 -3.2671790E-18
62.96966 -3.2672309E-18
63.11257 -3.2630414E-18
63.25548 -3.2554578E-18
63.39839 -3.2456601E-18
63.54131 -3.2350171E-18
63.68422 -3.2249278E-18
63.82713 -3.2166676E-18
63.97004 -3.2112653E-18
64.11295 -3.2094145E-18
64.25586 -3.2114295E-18
64.39877 -3.2172379E-18
64.54169 -3.2264078E-18
64.68460 -3.2381977E-18
64.82751 -3.2516253E-18
64.97042 -3.2655488E-18
65.11333 -3.2787593E-18
65.25625 -3.2900817E-18
65.39915 -3.2984838E-18
65.54207 -3.3031805E-18
65.68498 -3.3037286E-18
65.82789 -3.3000925E-18
65.97080 -3.2926739E-18
66.11372 -3.2822884E-18
66.25663 -3.2700937E-18
66.39954 -3.2574654E-18
66.54245 -3.2458466E-18
66.68536 -3.2365832E-18
66.82828 -3.2307700E-18
66.97118 -3.2291355E-18
67.11410 -3.2319704E-18
67.25701 -3.2391154E-18
67.39992 -3.2499982E-18
67.54283 -3.2637147E-18
67.68575 -3.2791336E-18
67.82866 -3.2950150E-18
67.97157 -3.3101272E-18
68.11448 -3.3233491E-18
68.25739 -3.3337610E-18
68.40031 -3.3407139E-18
68.54321 -3.3438863E-18
68.68613 -3.3433141E-18
68.82904 -3.3394005E-18
68.97195 -3.3328960E-18
69.11486 -3.3248403E-18
69.25777 -3.3164762E-18
69.40069 -3.3091230E-18
69.54359 -3.3040367E-18
69.68651 -3.3022628E-18
69.82942 -3.3045076E-18
69.97233 -3.3110433E-18
70.11524 -3.3216689E-18
70.25816 -3.3357284E-18
70.40107 -3.3521842E-18
70.54398 -3.3697369E-18
70.68689 -3.3869717E-18
70.82980 -3.4025094E-18
70.97272 -3.4151438E-18
71.11562 -3.4239495E-18
71.25854 -3.4283586E-18
71.40145 -3.4281917E-18
71.54436 -3.4236615E-18
71.68727 -3.4153431E-18
71.83018 -3.4041251E-18
71.97310 -3.3911367E-18
72.11600 -3.3776589E-18
72.25892 -3.3650216E-18
72.40183 -3.3544879E-18
72.54475 -3.3471322E-18
72.68765 -3.3437291E-18
72.83057 -3.3446606E-18
72.97348 -3.3498600E-18
73.11639 -3.3588078E-18
73.25930 -3.3705769E-18
73.40221 -3.3839341E-18
73.54513 -3.3974810E-18
73.68803 -3.4098136E-18
73.83095 -3.4196858E-18
73.97386 -3.4261424E-18
74.11678 -3.4286177E-18
74.25968 -3.4269805E-18
74.40260 -3.4215271E-18
74.54551 -3.4129334E-18
74.68842 -3.4021705E-18
74.83133 -3.3904034E-18
74.97424 -3.3788825E-18
75.11716 -3.3688337E-18
75.26006 -3.3613562E-18
75.40298 -3.3573313E-18
75.54589 -3.3573404E-18
75.68880 -3.3616039E-18
75.83171 -3.3699415E-18
75.97462 -3.3817664E-18
76.11754 -3.3961193E-18
76.26044 -3.4117449E-18
76.40336 -3.4272117E-18
76.54627 -3.4410594E-18
76.68919 -3.4519618E-18
76.83209 -3.4588814E-18
76.97501 -3.4611882E-18
77.11792 -3.4587339E-18
77.26083 -3.4518613E-18
77.40374 -3.4413549E-18
77.54665 -3.4283388E-18
77.68957 -3.4141437E-18
77.83247 -3.4001571E-18
77.97539 -3.3876820E-18
78.11830 -3.3778177E-18
78.26122 -3.3713702E-18
78.40412 -3.3688002E-18
78.54704 -3.3701971E-18
78.68995 -3.3752851E-18
78.83286 -3.3834512E-18
78.97577 -3.3937951E-18
79.11868 -3.4051984E-18
79.26160 -3.4164205E-18
79.40450 -3.4262069E-18
79.54742 -3.4334174E-18
79.69033 -3.4371487E-18
79.83324 -3.4368498E-18
79.97615 -3.4324019E-18
80.11906 -3.4241487E-18
80.26198 -3.4128752E-18
80.40488 -3.3997225E-18
80.54780 -3.3860568E-18
80.69071 -3.3733085E-18
80.83363 -3.3628017E-18
80.97653 -3.3556019E-18
81.11945 -3.3524023E-18
81.26236 -3.3534578E-18
81.40527 -3.3585766E-18
81.54818 -3.3671592E-18
81.69109 -3.3782763E-18
81.83401 -3.3907724E-18
81.97691 -3.4033786E-18
82.11983 -3.4148276E-18
82.26274 -3.4239646E-18
82.40565 -3.4298434E-18
82.54856 -3.4318117E-18
82.69147 -3.4295744E-18
82.83439 -3.4232369E-18
82.97730 -3.4133095E-18
83.12021 -3.4006783E-18
83.26312 -3.3865306E-18
83.40604 -3.3722410E-18
83.54894 -3.3592231E-18
83.69186 -3.3487708E-18
83.83477 -3.3419038E-18
83.97768 -3.3392409E-18
84.12059 -3.3409234E-18
84.26350 -3.3465966E-18
84.40642 -3.3554532E-18
84.54933 -3.3663319E-18
84.69224 -3.3778547E-18
84.83515 -3.3885818E-18
84.97807 -3.3971660E-18
85.12097 -3.4024900E-18
85.26389 -3.4037688E-18
85.40680 -3.4006206E-18
85.54971 -3.3930924E-18
85.69262 -3.3816541E-18
85.83553 -3.3671553E-18
85.97845 -3.3507521E-18
86.12135 -3.3338059E-18
86.26427 -3.3177571E-18
86.40718 -3.3039864E-18
86.55009 -3.2936678E-18
86.69300 -3.2876349E-18
86.83591 -3.2862744E-18
86.97883 -3.2894655E-18
87.12174 -3.2965763E-18
87.26465 -3.3065265E-18
87.40756 -3.3179054E-18
87.55048 -3.3291360E-18
87.69338 -3.3386623E-18
87.83630 -3.3451323E-18
87.97921 -3.3475511E-18
88.12212 -3.3453922E-18
88.26503 -3.3386407E-18
88.40794 -3.3277854E-18
88.55086 -3.3137498E-18
88.69377 -3.2977873E-18
88.83668 -3.2813488E-18
88.97959 -3.2659376E-18
89.12251 -3.2529684E-18
89.26541 -3.2436366E-18
89.40833 -3.2388048E-18
89.55124 -3.2389167E-18
89.69415 -3.2439422E-18
89.83706 -3.2533632E-18
89.97997 -3.2662083E-18
90.12289 -3.2811325E-18
90.26580 -3.2965478E-18
90.40871 -3.3107902E-18
90.55162 -3.3223058E-18
90.69453 -3.3298348E-18
90.83744 -3.3325643E-18
90.98035 -3.3302302E-18
91.12327 -3.3231483E-18
91.26618 -3.3121747E-18
91.40909 -3.2985940E-18
91.55200 -3.2839591E-18
91.69492 -3.2699029E-18
91.83783 -3.2579484E-18
91.98074 -3.2493439E-18
92.12365 -3.2449390E-18
92.26656 -3.2451081E-18
92.40947 -3.2497308E-18
92.55238 -3.2582177E-18
92.69530 -3.2695776E-18
92.83821 -3.2825165E-18
92.98112 -3.2955595E-18
93.12403 -3.3071870E-18
93.26694 -3.3159818E-18
93.40986 -3.3207714E-18
93.55276 -3.3207581E-18
93.69568 -3.3156224E-18
93.83859 -3.3055794E-18
93.98150 -3.2913808E-18
94.12441 -3.2742555E-18
94.26733 -3.2557868E-18
94.41024 -3.2377398E-18
94.55315 -3.2218588E-18
94.69606 -3.2096628E-18
94.83897 -3.2022672E-18
94.98188 -3.2002565E-18
95.12479 -3.2036250E-18
95.26771 -3.2117899E-18
95.41062 -3.2236728E-18
95.55353 -3.2378356E-18
95.69644 -3.2526458E-18
95.83936 -3.2664550E-18
95.98227 -3.2777621E-18
96.12518 -3.2853552E-18
96.26809 -3.2884164E-18
96.41100 -3.2865861E-18
96.55391 -3.2799903E-18
96.69682 -3.2692217E-18
96.83974 -3.2552876E-18
96.98265 -3.2395151E-18
97.12556 -3.2234288E-18
97.26847 -3.2085976E-18
97.41138 -3.1964722E-18
97.55430 -3.1882211E-18
97.69720 -3.1845899E-18
97.84012 -3.1858061E-18
97.98303 -3.1915376E-18
98.12594 -3.2009214E-18
98.26885 -3.2126595E-18
98.41177 -3.2251716E-18
98.55468 -3.2367840E-18
98.69759 -3.2459254E-18
98.84050 -3.2513143E-18
98.98341 -3.2520988E-18
99.12633 -3.2479447E-18
99.26923 -3.2390592E-18
99.41215 -3.2261533E-18
99.55506 -3.2103539E-18
99.69797 -3.1930758E-18
99.84088 -3.1758731E-18
99.98380 -3.1602849E-18
100.1267 -3.1476849E-18
100.2696 -3.1391550E-18
100.4125 -3.1353787E-18
100.5554 -3.1365748E-18
100.6984 -3.1424722E-18
100.8413 -3.1523280E-18
100.9842 -3.1649967E-18
101.1271 -3.1790420E-18
101.2700 -3.1928857E-18
101.4129 -3.2049781E-18
101.5558 -3.2139683E-18
101.6987 -3.2188598E-18
101.8416 -3.2191218E-18
101.9846 -3.2147494E-18
102.1275 -3.2062588E-18
102.2704 -3.1946218E-18
102.4133 -3.1811470E-18
102.5562 -3.1673263E-18
102.6991 -3.1546652E-18
102.8420 -3.1445178E-18
102.9849 -3.1379477E-18
103.1279 -3.1356225E-18
103.2708 -3.1377539E-18
103.4137 -3.1440852E-18
103.5566 -3.1539216E-18
103.6995 -3.1662030E-18
103.8424 -3.1796097E-18
103.9853 -3.1926934E-18
104.1282 -3.2040221E-18
104.2711 -3.2123292E-18
104.4141 -3.2166515E-18
104.5570 -3.2164385E-18
104.6999 -3.2116259E-18
104.8428 -3.2026512E-18
104.9857 -3.1904162E-18
105.1286 -3.1761903E-18
105.2715 -3.1614690E-18
105.4144 -3.1478007E-18
105.5574 -3.1366079E-18
105.7003 -3.1290226E-18
105.8432 -3.1257594E-18
105.9861 -3.1270434E-18
106.1290 -3.1325940E-18
106.2719 -3.1416717E-18
106.4148 -3.1531724E-18
106.5577 -3.1657579E-18
106.7006 -3.1780017E-18
106.8436 -3.1885389E-18
106.9865 -3.1962017E-18
107.1294 -3.2001304E-18
107.2723 -3.1998537E-18
107.4152 -3.1953296E-18
107.5581 -3.1869520E-18
107.7010 -3.1755108E-18
107.8439 -3.1621192E-18
107.9869 -3.1481040E-18
108.1298 -3.1348702E-18
108.2727 -3.1237504E-18
108.4156 -3.1158541E-18
108.5585 -3.1119391E-18
108.7014 -3.1123142E-18
108.8443 -3.1167961E-18
108.9872 -3.1247221E-18
109.1301 -3.1350234E-18
109.2731 -3.1463467E-18
109.4160 -3.1572115E-18
109.5589 -3.1661802E-18
109.7018 -3.1720187E-18
109.8447 -3.1738279E-18
109.9876 -3.1711352E-18
110.1305 -3.1639284E-18
110.2734 -3.1526453E-18
110.4164 -3.1381133E-18
110.5593 -3.1214531E-18
110.7022 -3.1039611E-18
110.8451 -3.0869808E-18
110.9880 -3.0717718E-18
111.1309 -3.0593912E-18
111.2738 -3.0505947E-18
111.4167 -3.0457630E-18
111.5596 -3.0448636E-18
111.7026 -3.0474527E-18
111.8455 -3.0527183E-18
111.9884 -3.0595645E-18
112.1313 -3.0667312E-18
112.2742 -3.0729379E-18
112.4171 -3.0770318E-18
112.5600 -3.0781285E-18
112.7029 -3.0757187E-18
112.8458 -3.0697326E-18
112.9888 -3.0605492E-18
113.1317 -3.0489509E-18
113.2746 -3.0360302E-18
113.4175 -3.0230585E-18
113.5604 -3.0113409E-18
113.7033 -3.0020696E-18
113.8462 -2.9961973E-18
113.9891 -2.9943396E-18
114.1321 -2.9967180E-18
114.2750 -3.0031450E-18
114.4179 -3.0130465E-18
114.5608 -3.0255250E-18
114.7037 -3.0394443E-18
114.8466 -3.0535416E-18
114.9895 -3.0665461E-18
115.1324 -3.0773036E-18
115.2754 -3.0848928E-18
115.4183 -3.0887170E-18
115.5612 -3.0885737E-18
115.7041 -3.0846773E-18
115.8470 -3.0776404E-18
115.9899 -3.0684085E-18
116.1328 -3.0581512E-18
116.2757 -3.0481271E-18
116.4186 -3.0395343E-18
116.5616 -3.0333679E-18
116.7045 -3.0303007E-18
116.8474 -3.0306051E-18
116.9903 -3.0341270E-18
117.1332 -3.0403075E-18
117.2761 -3.0482551E-18
117.4190 -3.0568528E-18
117.5619 -3.0648874E-18
117.7048 -3.0711829E-18
117.8478 -3.0747269E-18
117.9907 -3.0747722E-18
118.1336 -3.0709107E-18
118.2765 -3.0631098E-18
118.4194 -3.0517166E-18
118.5623 -3.0374204E-18
118.7052 -3.0211889E-18
118.8481 -3.0041750E-18
118.9911 -2.9876035E-18
119.1340 -2.9726503E-18
119.2769 -2.9603206E-18
119.4198 -2.9513436E-18
119.5627 -2.9460900E-18
119.7056 -2.9445314E-18
119.8485 -2.9462401E-18
119.9914 -2.9504372E-18
120.1343 -2.9560827E-18
120.2773 -2.9619981E-18
120.4202 -2.9670036E-18
120.5631 -2.9700590E-18
120.7060 -2.9703837E-18
120.8489 -2.9675444E-18
120.9918 -2.9615016E-18
121.1347 -2.9526090E-18
121.2776 -2.9415674E-18
121.4206 -2.9293439E-18
121.5635 -2.9170619E-18
121.7064 -2.9058818E-18
121.8493 -2.8968775E-18
121.9922 -2.8909237E-18
122.1351 -2.8886065E-18
122.2780 -2.8901600E-18
122.4209 -2.8954376E-18
122.5639 -2.9039174E-18
122.7068 -2.9147485E-18
122.8497 -2.9268278E-18
122.9926 -2.9389084E-18
123.1355 -2.9497250E-18
123.2784 -2.9581277E-18
123.4213 -2.9632064E-18
123.5642 -2.9643940E-18
123.7071 -2.9615332E-18
123.8501 -2.9548939E-18
123.9930 -2.9451449E-18
124.1359 -2.9332749E-18
124.2788 -2.9204780E-18
124.4217 -2.9080140E-18
124.5646 -2.8970644E-18
124.7075 -2.8885999E-18
124.8504 -2.8832786E-18
124.9933 -2.8813803E-18
125.1363 -2.8827859E-18
125.2792 -2.8870030E-18
125.4221 -2.8932278E-18
125.5650 -2.9004369E-18
125.7079 -2.9074985E-18
125.8508 -2.9132896E-18
125.9937 -2.9168138E-18
126.1366 -2.9172998E-18
126.2795 -2.9142857E-18
126.4225 -2.9076722E-18
126.5654 -2.8977427E-18
126.7083 -2.8851460E-18
126.8512 -2.8708428E-18
126.9941 -2.8560156E-18
127.1370 -2.8419469E-18
127.2799 -2.8298846E-18
127.4228 -2.8209022E-18
127.5658 -2.8157710E-18
127.7087 -2.8148648E-18
127.8516 -2.8181086E-18
127.9945 -2.8249796E-18
128.1374 -2.8345600E-18
128.2803 -2.8456421E-18
128.4232 -2.8568624E-18
128.5661 -2.8668583E-18
128.7090 -2.8744189E-18
128.8520 -2.8786173E-18
128.9949 -2.8789080E-18
129.1378 -2.8751764E-18
129.2807 -2.8677444E-18
129.4236 -2.8573271E-18
129.5665 -2.8449516E-18
129.7094 -2.8318466E-18
129.8523 -2.8193150E-18
129.9953 -2.8086010E-18
130.1382 -2.8007624E-18
130.2811 -2.7965622E-18
130.4240 -2.7963870E-18
130.5669 -2.8002006E-18
130.7098 -2.8075418E-18
130.8527 -2.8175647E-18
130.9956 -2.8291223E-18
131.1385 -2.8408883E-18
131.2815 -2.8515019E-18
131.4244 -2.8597210E-18
131.5673 -2.8645666E-18
131.7102 -2.8654390E-18
131.8531 -2.8621901E-18
131.9960 -2.8551411E-18
132.1389 -2.8450449E-18
132.2818 -2.8329985E-18
132.4248 -2.8203145E-18
132.5677 -2.8083679E-18
132.7106 -2.7984432E-18
132.8535 -2.7915917E-18
132.9964 -2.7885218E-18
133.1393 -2.7895295E-18
133.2822 -2.7944727E-18
133.4251 -2.8027925E-18
133.5681 -2.8135804E-18
133.7110 -2.8256730E-18
133.8539 -2.8377765E-18
133.9968 -2.8486012E-18
134.1397 -2.8569985E-18
134.2826 -2.8620846E-18
134.4255 -2.8633366E-18
134.5684 -2.8606559E-18
134.7113 -2.8543848E-18
134.8542 -2.8452730E-18
134.9972 -2.8343968E-18
135.1401 -2.8230367E-18
135.2830 -2.8125286E-18
135.4259 -2.8041061E-18
135.5688 -2.7987505E-18
135.7117 -2.7970782E-18
135.8546 -2.7992702E-18
135.9975 -2.8050569E-18
136.1405 -2.8137605E-18
136.2834 -2.8243852E-18
136.4263 -2.8357455E-18
136.5692 -2.8466075E-18
136.7121 -2.8558309E-18
136.8550 -2.8624937E-18
136.9979 -2.8659829E-18
137.1408 -2.8660505E-18
137.2838 -2.8628254E-18
137.4267 -2.8567890E-18
137.5696 -2.8487157E-18
137.7125 -2.8395876E-18
137.8554 -2.8304940E-18
137.9983 -2.8225152E-18
138.1412 -2.8166122E-18
138.2841 -2.8135213E-18
138.4270 -2.8136708E-18
138.5700 -2.8171267E-18
138.7129 -2.8235759E-18
138.8558 -2.8323524E-18
138.9987 -2.8425077E-18
139.1416 -2.8529162E-18
139.2845 -2.8624074E-18
139.4274 -2.8699087E-18
139.5703 -2.8745732E-18
139.7133 -2.8758859E-18
139.8562 -2.8737218E-18
139.9991 -2.8683588E-18
140.1420 -2.8604338E-18
140.2849 -2.8508623E-18
140.4278 -2.8407237E-18
140.5707 -2.8311338E-18
140.7136 -2.8231203E-18
140.8566 -2.8175163E-18
140.9995 -2.8148795E-18
141.1424 -2.8154474E-18
141.2853 -2.8191242E-18
141.4282 -2.8255028E-18
141.5711 -2.8339119E-18
141.7140 -2.8434900E-18
141.8569 -2.8532737E-18
141.9998 -2.8622995E-18
142.1427 -2.8697048E-18
142.2857 -2.8748259E-18
142.4286 -2.8772768E-18
142.5715 -2.8770018E-18
142.7144 -2.8742915E-18
142.8573 -2.8697559E-18
143.0002 -2.8642570E-18
143.1431 -2.8588057E-18
143.2860 -2.8544367E-18
143.4290 -2.8520776E-18
143.5719 -2.8524304E-18
143.7148 -2.8558847E-18
143.8577 -2.8624717E-18
144.0006 -2.8718691E-18
144.1435 -2.8834474E-18
144.2864 -2.8963547E-18
144.4293 -2.9096254E-18
144.5723 -2.9222934E-18
144.7152 -2.9334986E-18
144.8581 -2.9425736E-18
145.0010 -2.9491065E-18
145.1439 -2.9529725E-18
145.2868 -2.9543364E-18
145.4297 -2.9536283E-18
145.5726 -2.9514977E-18
145.7155 -2.9487444E-18
145.8585 -2.9462364E-18
146.0014 -2.9448151E-18
146.1443 -2.9452012E-18
146.2872 -2.9479059E-18
146.4301 -2.9531626E-18
146.5730 -2.9608882E-18
146.7159 -2.9706804E-18
146.8588 -2.9818598E-18
147.0018 -2.9935484E-18
147.1447 -3.0047805E-18
147.2876 -3.0146225E-18
147.4305 -3.0222942E-18
147.5734 -3.0272660E-18
147.7163 -3.0293192E-18
147.8592 -3.0285642E-18
148.0021 -3.0254152E-18
148.1451 -3.0205253E-18
148.2880 -3.0147011E-18
148.4309 -3.0088023E-18
148.5738 -3.0036479E-18
148.7167 -2.9999355E-18
148.8596 -2.9981792E-18
149.0025 -2.9986716E-18
149.1454 -3.0014658E-18
149.2883 -3.0063807E-18
149.4312 -3.0130184E-18
149.5742 -3.0208034E-18
149.7171 -3.0290353E-18
149.8600 -3.0369545E-18
150.0029 -3.0438205E-18
150.1458 -3.0489935E-18
150.2887 -3.0520117E-18
150.4316 -3.0526552E-18
150.5745 -3.0509821E-18
150.7175 -3.0473278E-18
150.8604 -3.0422708E-18
151.0033 -3.0365625E-18
151.1462 -3.0310301E-18
151.2891 -3.0264713E-18
151.4320 -3.0235538E-18
151.5749 -3.0227336E-18
151.7178 -3.0242097E-18
151.8607 -3.0279101E-18
152.0037 -3.0335195E-18
152.1466 -3.0405294E-18
152.2895 -3.0483140E-18
152.4324 -3.0562059E-18
152.5753 -3.0635742E-18
152.7182 -3.0698885E-18
152.8611 -3.0747712E-18
153.0040 -3.0780334E-18
153.1470 -3.0796912E-18
153.2899 -3.0799677E-18
153.4328 -3.0792745E-18
153.5757 -3.0781781E-18
153.7186 -3.0773429E-18
153.8615 -3.0774599E-18
154.0044 -3.0791693E-18
154.1473 -3.0829731E-18
154.2903 -3.0891639E-18
154.4332 -3.0977746E-18
154.5761 -3.1085574E-18
154.7190 -3.1210033E-18
154.8619 -3.1343983E-18
155.0048 -3.1479084E-18
155.1477 -3.1606861E-18
155.2906 -3.1719727E-18
155.4335 -3.1811921E-18
155.5765 -3.1880138E-18
155.7194 -3.1923828E-18
155.8623 -3.1945124E-18
156.0052 -3.1948430E-18
156.1481 -3.1939834E-18
156.2910 -3.1926299E-18
156.4339 -3.1914903E-18
156.5768 -3.1912066E-18
156.7197 -3.1922937E-18
156.8627 -3.1950867E-18
157.0056 -3.1997089E-18
157.1485 -3.2060575E-18
157.2914 -3.2138084E-18
157.4343 -3.2224423E-18
157.5772 -3.2312981E-18
157.7201 -3.2396425E-18
157.8630 -3.2467604E-18
158.0060 -3.2520465E-18
158.1489 -3.2550930E-18
158.2918 -3.2557541E-18
158.4347 -3.2541792E-18
158.5776 -3.2508018E-18
158.7205 -3.2462869E-18
158.8634 -3.2414383E-18
159.0063 -3.2370884E-18
159.1492 -3.2339765E-18
159.2922 -3.2326471E-18
159.4351 -3.2333729E-18
159.5780 -3.2361258E-18
159.7209 -3.2405872E-18
159.8638 -3.2462008E-18
160.0067 -3.2522519E-18
160.1496 -3.2579619E-18
160.2925 -3.2625871E-18
160.4355 -3.2654998E-18
160.5784 -3.2662540E-18
160.7213 -3.2646298E-18
160.8642 -3.2606523E-18
161.0071 -3.2545920E-18
161.1500 -3.2469441E-18
161.2929 -3.2383920E-18
161.4358 -3.2297509E-18
161.5788 -3.2218985E-18
161.7217 -3.2156890E-18
161.8646 -3.2118658E-18
162.0075 -3.2109714E-18
162.1504 -3.2132770E-18
162.2933 -3.2187351E-18
162.4362 -3.2269743E-18
162.5791 -3.2373316E-18
162.7220 -3.2489266E-18
162.8650 -3.2607664E-18
163.0079 -3.2718658E-18
163.1508 -3.2813589E-18
163.2937 -3.2885957E-18
163.4366 -3.2931973E-18
163.5795 -3.2950733E-18
163.7224 -3.2943951E-18
163.8653 -3.2915398E-18
164.0083 -3.2870166E-18
164.1512 -3.2813850E-18
164.2941 -3.2751859E-18
164.4370 -3.2688885E-18
164.5799 -3.2628590E-18
164.7228 -3.2573446E-18
164.8657 -3.2524775E-18
165.0086 -3.2482845E-18
165.1515 -3.2447090E-18
165.2944 -3.2416346E-18
165.4374 -3.2389125E-18
165.5803 -3.2364018E-18
165.7232 -3.2340076E-18
165.8661 -3.2317250E-18
166.0090 -3.2296758E-18
166.1519 -3.2281300E-18
166.2948 -3.2275043E-18
166.4377 -3.2283298E-18
166.5807 -3.2311865E-18
166.7236 -3.2366111E-18
166.8665 -3.2449903E-18
167.0094 -3.2564546E-18
167.1523 -3.2707935E-18
167.2952 -3.2874093E-18
167.4381 -3.3053215E-18
167.5810 -3.3232207E-18
167.7240 -3.3395755E-18
167.8669 -3.3527719E-18
168.0098 -3.3612743E-18
168.1527 -3.3637800E-18
168.2956 -3.3593591E-18
168.4385 -3.3475592E-18
168.5814 -3.3284679E-18
168.7243 -3.3027332E-18
168.8672 -3.2715390E-18
169.0102 -3.2365416E-18
169.1531 -3.1997751E-18
169.2960 -3.1635303E-18
169.4389 -3.1302123E-18
169.5818 -3.1021891E-18
169.7247 -3.0816306E-18
169.8676 -3.0703617E-18
170.0105 -3.0697231E-18
170.1535 -3.0804665E-18
170.2964 -3.1026838E-18
170.4393 -3.1357819E-18
170.5822 -3.1785048E-18
170.7251 -3.2290037E-18