-7.200000 -3.3340704E-19
-7.057088 -3.4337870E-19
-6.914176 -3.6245049E-19
-6.771265 -3.8914864E-19
-6.628353 -4.2150521E-19
-6.485441 -4.5720134E-19
-6.342530 -4.9374654E-19
-6.199618 -5.2867124E-19
-6.056706 -5.5972386E-19
-5.913795 -5.8505347E-19
-5.770883 -6.0336425E-19
-5.627971 -6.1402542E-19
-5.485059 -6.1712027E-19
-5.342147 -6.1343652E-19
-5.199236 -6.0439130E-19
-5.056324 -5.9189870E-19
-4.913413 -5.7819361E-19
-4.770501 -5.6562781E-19
-4.627589 -5.5646275E-19
-4.484677 -5.5266853E-19
-4.341765 -5.5575799E-19
-4.198854 -5.6666023E-19
-4.055942 -5.8564506E-19
-3.913030 -6.1230711E-19
-3.770118 -6.4559761E-19
-3.627207 -6.8390854E-19
-3.484295 -7.2519865E-19
-3.341383 -7.6715150E-19
-3.198472 -8.0735547E-19
-3.055560 -8.4349623E-19
-2.912648 -8.7354388E-19
-2.769737 -8.9592770E-19
-2.626825 -9.0967409E-19
-2.483913 -9.1450628E-19
-2.341001 -9.1088488E-19
-2.198090 -8.9998574E-19
-2.055178 -8.8361274E-19
-1.912266 -8.6404836E-19
-1.769354 -8.4385911E-19
-1.626443 -8.2566785E-19
-1.483531 -8.1192027E-19
-1.340619 -8.0466377E-19
-1.197708 -8.0536946E-19
-1.054796 -8.1480615E-19
-0.9118841 -8.3298210E-19
-0.7689723 -8.5915761E-19
-0.6260606 -8.9191990E-19
-0.4831489 -9.2931601E-19
-0.3402372 -9.6902658E-19
-0.1973254 -1.0085612E-18
-5.4413714E-02 -1.0454618E-18
8.8498011E-02 -1.0775012E-18
0.2314097 -1.1028571E-18
0.3743215 -1.1202605E-18
0.5172332 -1.1290986E-18
0.6601449 -1.1294735E-18
0.8030567 -1.1222035E-18
0.9459684 -1.1087704E-18
1.088880 -1.0912035E-18
1.231792 -1.0719162E-18
1.374704 -1.0534928E-18
1.517615 -1.0384568E-18
1.660527 -1.0290332E-18
1.803439 -1.0269349E-18
1.946350 -1.0331944E-18
2.089262 -1.0480645E-18
2.232174 -1.0709989E-18
2.375086 -1.1007142E-18
2.517997 -1.1353250E-18
2.660909 -1.1725376E-18
2.803821 -1.2098729E-18
2.946733 -1.2448975E-18
3.089644 -1.2754355E-18
3.232556 -1.2997406E-18
3.375468 -1.3166229E-18
3.518379 -1.3255181E-18
3.661291 -1.3265063E-18
3.804203 -1.3202833E-18
3.947115 -1.3080942E-18
4.090026 -1.2916346E-18
4.232938 -1.2729246E-18
4.375850 -1.2541611E-18
4.518762 -1.2375555E-18
4.661673 -1.2251554E-18
4.804585 -1.2186730E-18
4.947497 -1.2193262E-18
5.090408 -1.2277128E-18
5.233320 -1.2437369E-18
5.376232 -1.2665939E-18
5.519144 -1.2948383E-18
5.662055 -1.3265149E-18
5.804967 -1.3593499E-18
5.947879 -1.3909820E-18
6.090790 -1.4192002E-18
6.233702 -1.4421650E-18
6.376614 -1.4585786E-18
6.519526 -1.4677952E-18
6.662437 -1.4698514E-18
6.805349 -1.4654284E-18
6.948261 -1.4557548E-18
7.091173 -1.4424650E-18
7.234084 -1.4274384E-18
7.376996 -1.4126359E-18
7.519908 -1.3999454E-18
7.662819 -1.3910478E-18
7.805731 -1.3873090E-18
7.948643 -1.3896882E-18
8.091555 -1.3986745E-18
8.234467 -1.4142433E-18
8.377378 -1.4358411E-18
8.520289 -1.4624007E-18
8.663201 -1.4924018E-18
8.806113 -1.5239715E-18
8.949025 -1.5550310E-18
9.091937 -1.5834808E-18
9.234848 -1.6074015E-18
9.377760 -1.6252581E-18
9.520672 -1.6360710E-18
9.663584 -1.6395345E-18
9.806496 -1.6360612E-18
9.949407 -1.6267417E-18
10.09232 -1.6132272E-18
10.23523 -1.5975431E-18
10.37814 -1.5818613E-18
10.52105 -1.5682683E-18
10.66397 -1.5585521E-18
10.80688 -1.5540355E-18
10.94979 -1.5554780E-18
11.09270 -1.5630428E-18
11.23561 -1.5763341E-18
11.37852 -1.5944800E-18
11.52144 -1.6162491E-18
11.66435 -1.6401797E-18
11.80726 -1.6647107E-18
11.95017 -1.6882971E-18
12.09308 -1.7095141E-18
12.23599 -1.7271505E-18
12.37891 -1.7402865E-18
12.52182 -1.7483620E-18
12.66473 -1.7512352E-18
12.80764 -1.7492118E-18
12.95055 -1.7430478E-18
13.09346 -1.7339090E-18
13.23638 -1.7232802E-18
13.37929 -1.7128291E-18
13.52220 -1.7042309E-18
13.66511 -1.6989796E-18
13.80802 -1.6982067E-18
13.95094 -1.7025393E-18
14.09385 -1.7120193E-18
14.23676 -1.7261002E-18
14.37967 -1.7437240E-18
14.52258 -1.7634668E-18
14.66549 -1.7837254E-18
14.80841 -1.8029227E-18
14.95132 -1.8196859E-18
15.09423 -1.8329911E-18
15.23714 -1.8422371E-18
15.38005 -1.8472647E-18
15.52296 -1.8483154E-18
15.66588 -1.8459536E-18
15.80879 -1.8409734E-18
15.95170 -1.8343051E-18
16.09461 -1.8269353E-18
16.23752 -1.8198435E-18
16.38043 -1.8139562E-18
16.52335 -1.8101020E-18
16.66626 -1.8089662E-18
16.80917 -1.8110404E-18
16.95208 -1.8165620E-18
17.09499 -1.8254677E-18
17.23791 -1.8373584E-18
17.38082 -1.8515026E-18
17.52373 -1.8668850E-18
17.66664 -1.8823061E-18
17.80955 -1.8965183E-18
17.95246 -1.9083838E-18
18.09538 -1.9170295E-18
18.23829 -1.9219682E-18
18.38120 -1.9231641E-18
18.52411 -1.9210304E-18
18.66702 -1.9163566E-18
18.80993 -1.9101815E-18
18.95285 -1.9036364E-18
19.09576 -1.8977831E-18
19.23867 -1.8934785E-18
19.38158 -1.8912860E-18
19.52449 -1.8914384E-18
19.66740 -1.8938565E-18
19.81032 -1.8982083E-18
19.95323 -1.9039853E-18
20.09614 -1.9105883E-18
20.23905 -1.9173966E-18
20.38196 -1.9238225E-18
20.52488 -1.9293429E-18
20.66779 -1.9335214E-18
20.81070 -1.9360218E-18
20.95361 -1.9366304E-18
21.09652 -1.9352788E-18
21.23943 -1.9320718E-18
21.38235 -1.9273079E-18
21.52526 -1.9214835E-18
21.66817 -1.9152662E-18
21.81108 -1.9094387E-18
21.95399 -1.9048098E-18
22.09690 -1.9021080E-18
22.23981 -1.9018733E-18
22.38273 -1.9043679E-18
22.52564 -1.9095239E-18
22.66855 -1.9169445E-18
22.81146 -1.9259540E-18
22.95437 -1.9356957E-18
23.09729 -1.9452571E-18
23.24020 -1.9538035E-18
23.38311 -1.9606958E-18
23.52602 -1.9655685E-18
23.66893 -1.9683658E-18
23.81184 -1.9693278E-18
23.95476 -1.9689368E-18
24.09767 -1.9678325E-18
24.24058 -1.9667154E-18
24.38349 -1.9662565E-18
24.52640 -1.9670161E-18
24.66932 -1.9693880E-18
24.81223 -1.9735648E-18
24.95514 -1.9795272E-18
25.09805 -1.9870473E-18
25.24096 -1.9957124E-18
25.38387 -2.0049586E-18
25.52678 -2.0141174E-18
25.66970 -2.0224787E-18
25.81261 -2.0293594E-18
25.95552 -2.0341850E-18
26.09843 -2.0365675E-18
26.24134 -2.0363704E-18
26.38426 -2.0337563E-18
26.52717 -2.0291919E-18
26.67008 -2.0234217E-18
26.81299 -2.0173903E-18
26.95590 -2.0121367E-18
27.09881 -2.0086605E-18
27.24173 -2.0077903E-18
27.38464 -2.0100636E-18
27.52755 -2.0156448E-18
27.67046 -2.0242907E-18
27.81337 -2.0353724E-18
27.95629 -2.0479429E-18
28.09920 -2.0608531E-18
28.24211 -2.0728910E-18
28.38502 -2.0829270E-18
28.52793 -2.0900484E-18
28.67084 -2.0936692E-18
28.81376 -2.0935950E-18
28.95667 -2.0900519E-18
29.09958 -2.0836620E-18
29.24249 -2.0753773E-18
29.38540 -2.0663826E-18
29.52831 -2.0579689E-18
29.67122 -2.0513980E-18
29.81414 -2.0477625E-18
29.95705 -2.0478632E-18
30.09996 -2.0521160E-18
30.24287 -2.0604931E-18
30.38578 -2.0725124E-18
30.52870 -2.0872798E-18
30.67161 -2.1035745E-18
30.81452 -2.1199800E-18
30.95743 -2.1350355E-18
31.10034 -2.1473975E-18
31.24325 -2.1559898E-18
31.38617 -2.1601253E-18
31.52908 -2.1595837E-18
31.67199 -2.1546376E-18
31.81490 -2.1460244E-18
31.95781 -2.1348684E-18
32.10072 -2.1225670E-18
32.24364 -2.1106446E-18
32.38655 -2.1006022E-18
32.52946 -2.0937651E-18
32.67237 -2.0911519E-18
32.81528 -2.0933669E-18
32.95819 -2.1005340E-18
33.10111 -2.1122692E-18
33.24402 -2.1277015E-18
33.38693 -2.1455427E-18
33.52984 -2.1642006E-18
33.67275 -2.1819331E-18
33.81567 -2.1970275E-18
33.95858 -2.2079909E-18
34.10149 -2.2137291E-18
34.24440 -2.2136886E-18
34.38731 -2.2079456E-18
34.53022 -2.1972223E-18
34.67313 -2.1828213E-18
34.81605 -2.1664896E-18
34.95896 -2.1502173E-18
35.10187 -2.1360078E-18
35.24478 -2.1256424E-18
35.38770 -2.1204763E-18
35.53061 -2.1212931E-18
35.67352 -2.1282327E-18
35.81643 -2.1408019E-18
35.95934 -2.1579562E-18
36.10225 -2.1782389E-18
36.24516 -2.1999493E-18
36.38808 -2.2213176E-18
36.53099 -2.2406687E-18
36.67390 -2.2565524E-18
36.81681 -2.2678490E-18
36.95972 -2.2738376E-18
37.10263 -2.2742460E-18
37.24555 -2.2692784E-18
37.38846 -2.2596211E-18
37.53137 -2.2464306E-18
37.67428 -2.2312862E-18
37.81719 -2.2160969E-18
37.96011 -2.2029588E-18
38.10302 -2.1939646E-18
38.24593 -2.1909719E-18
38.38884 -2.1953599E-18
38.53175 -2.2078063E-18
38.67466 -2.2281243E-18
38.81758 -2.2551870E-18
38.96049 -2.2869734E-18
39.10340 -2.3207288E-18
39.24631 -2.3532362E-18
39.38922 -2.3811600E-18
39.53214 -2.4014209E-18
39.67505 -2.4115555E-18
39.81796 -2.4100099E-18
39.96087 -2.3963416E-18
40.10378 -2.3713035E-18
40.24669 -2.3368123E-18
40.38961 -2.2958135E-18
40.53252 -2.2520534E-18
40.67543 -2.2097898E-18
40.81834 -2.1734607E-18
40.96125 -2.1473232E-18
41.10416 -2.1350932E-18
41.24707 -2.1395866E-18
41.38999 -2.1624003E-18
41.53290 -2.2036466E-18
41.67581 -2.2617844E-18
41.81872 -2.3335673E-18
41.96163 -2.4141508E-18
42.10455 -2.4973553E-18
42.24746 -2.5760929E-18
42.39037 -2.6429229E-18
42.53328 -2.6906905E-18
42.67619 -2.7131840E-18
42.81910 -2.7057415E-18
42.96202 -2.6657454E-18
43.10493 -2.5929606E-18
43.24784 -2.4896943E-18
43.39075 -2.3607768E-18
43.53366 -2.2133918E-18
43.67657 -2.0567838E-18
43.81948 -1.9018729E-18
43.96240 -1.7607993E-18
44.10531 -1.6463985E-18
44.24822 -1.5715882E-18
44.39113 -1.5486425E-18
44.53405 -1.5883278E-18
44.67696 -1.6988907E-18
44.81987 -1.8849252E-18
44.96278 -2.1461842E-18
45.10569 -2.4764483E-18
45.24860 -2.8626132E-18
45.39151 -3.2841666E-18
45.53443 -3.7132514E-18
45.67734 -4.1154667E-18
45.82025 -4.4515221E-18
45.96316 -4.6797826E-18
46.10608 -4.7596336E-18
46.24899 -4.6555003E-18
46.39190 -4.3412362E-18
46.53481 -3.8045138E-18
46.67772 -3.0507482E-18
46.82063 -2.1060763E-18
46.96354 -1.0188929E-18
47.10646 1.4049285E-19
47.24937 1.2823954E-18
47.39228 2.3026460E-18
47.53519 3.0897828E-18
47.67810 3.5342247E-18
47.82101 3.5388611E-18
47.96392 3.0302366E-18
48.10684 1.9693107E-18
48.24975 3.6063650E-19
48.39266 -1.7412127E-18
48.53557 -4.2290341E-18
48.67849 -6.9450506E-18
48.82140 -9.6880982E-18
48.96431 -1.2225959E-17
49.10722 -1.4312324E-17
49.25013 -1.5707313E-17
49.39304 -1.6200028E-17
49.53595 -1.5631158E-17
49.67887 -1.3913517E-17
49.82178 -1.1048296E-17
49.96469 -7.1350738E-18
50.10760 -2.3740173E-18
50.25051 2.9406647E-18
50.39342 8.4362091E-18
50.53634 1.3685105E-17
50.67925 1.8235807E-17
50.82216 2.1648203E-17
50.96507 2.3531192E-17
51.10798 2.3579364E-17
51.25090 2.1605726E-17
51.39381 1.7567561E-17
51.53672 1.1582916E-17
51.67963 3.9358296E-18
51.82254 -4.9309659E-18
51.96545 -1.4436209E-17
52.10837 -2.3892748E-17
52.25128 -3.2551377E-17
52.39419 -3.9653755E-17
52.53710 -4.4491590E-17
52.68001 -4.6468456E-17
52.82293 -4.5160035E-17
52.96584 -4.0368128E-17
53.10875 -3.2163221E-17
53.25166 -2.0910740E-17
53.39457 -7.2760817E-18
53.53748 7.7953120E-18
53.68040 2.3125374E-17
53.82331 3.7378770E-17
53.96622 4.9164059E-17
54.10913 5.7155573E-17
54.25204 6.0227927E-17
54.39495 5.7591908E-17
54.53786 4.8918429E-17
54.68078 3.4435744E-17
54.82369 1.4985275E-17
54.96660 -7.9766590E-18
55.10951 -3.2440339E-17
55.25242 -5.5971084E-17
55.39534 -7.5901557E-17
55.53825 -8.9577136E-17
55.68116 -9.4636225E-17
55.82407 -8.9300506E-17
55.96698 -7.2645602E-17
56.10989 -4.4820381E-17
56.25281 -7.1846170E-18
56.39572 3.7660276E-17
56.53863 8.5964712E-17
56.68154 1.3305411E-16
56.82445 1.7367475E-16
56.96737 2.0244136E-16
57.11028 2.1435298E-16
57.25319 2.0533329E-16
57.39610 1.7274563E-16
57.53901 1.1583022E-16
57.68192 3.6015252E-17
57.82484 -6.2938697E-17
57.96775 -1.7498888E-16
58.11066 -2.9206739E-16
58.25357 -4.0453992E-16
58.39648 -5.0184309E-16
58.53939 -5.7326242E-16
58.68230 -6.0879773E-16
58.82522 -6.0005593E-16
58.96813 -5.4110392E-16
59.11104 -4.2921576E-16
59.25395 -2.6545057E-16
59.39687 -5.5007858E-17
59.53978 1.9268410E-16
59.68269 4.6417533E-16
59.82560 7.4251030E-16
59.96851 1.0080479E-15
60.11142 1.2395614E-15
60.25433 1.4155751E-15
60.39725 1.5158750E-15
60.54016 1.5231082E-15
60.68307 1.4243742E-15
60.82598 1.2126952E-15
60.96889 8.8824121E-16
61.11180 4.5919440E-16
61.25471 -5.7863752E-17
61.39763 -6.3813006E-16
61.54054 -1.2493847E-15
61.68345 -1.8534423E-15
61.82636 -2.4082172E-15
61.96928 -2.8703194E-15
62.11219 -3.1980383E-15
62.25510 -3.3545296E-15
62.39801 -3.3109690E-15
62.54092 -3.0494298E-15
62.68383 -2.5652211E-15
62.82674 -1.8684588E-15
62.96966 -9.8467178E-16
63.11257 4.5685685E-17
63.25548 1.1688641E-15
63.39839 2.3205507E-15
63.54131 3.4295767E-15
63.68422 4.4223709E-15
63.82713 5.2278763E-15
63.97004 5.7825792E-15
64.11295 6.0352825E-15
64.25586 5.9512505E-15
64.39877 5.5153932E-15
64.54169 4.7342120E-15
64.68460 3.6363103E-15
64.82751 2.2713834E-15
64.97042 7.0769899E-16
65.11333 -9.7179497E-16
65.25625 -2.6745019E-15
65.39915 -4.3040150E-15
65.54207 -5.7663631E-15
65.68498 -6.9762193E-15
65.82789 -7.8626113E-15
65.97080 -8.3736949E-15
66.11372 -8.4802059E-15
66.25663 -8.1772942E-15
66.39954 -7.4845534E-15
66.54245 -6.4441945E-15
66.68536 -5.1174800E-15
66.82828 -3.5796616E-15
66.97118 -1.9138246E-15
67.11410 -2.0415653E-16
67.25701 1.4707596E-15
67.39992 3.0439992E-15
67.54283 4.4650795E-15
67.68575 5.7029479E-15
67.82866 6.7467851E-15
67.97157 7.6044289E-15
68.11448 8.2984589E-15
68.25739 8.8602238E-15
68.40031 9.3223489E-15
68.54321 9.7104797E-15
68.68613 1.0035151E-14
68.82904 1.0284814E-14
68.97195 1.0420979E-14
69.11486 1.0376375E-14
69.25777 1.0056782E-14
69.40069 9.3469103E-15
69.54359 8.1203041E-15
69.68651 6.2528476E-15
69.82942 3.6390280E-15
69.97233 2.0969804E-16
70.11524 -4.0502193E-15
70.25816 -9.0858565E-15
70.40107 -1.4760208E-14
70.54398 -2.0847375E-14
70.68689 -2.7032741E-14
70.82980 -3.2921192E-14
70.97272 -3.8053826E-14
71.11562 -4.1933101E-14
71.25854 -4.4055441E-14
71.40145 -4.3949653E-14
71.54436 -4.1218900E-14
71.68727 -3.5583156E-14
71.83018 -2.6918968E-14
71.97310 -1.5292865E-14
72.11600 -9.8505951E-16
72.25892 1.5499627E-14
72.40183 3.3436063E-14
72.54475 5.1899789E-14
72.68765 6.9805103E-14
72.83057 8.5959268E-14
72.97348 9.9130807E-14
73.11639 1.0812819E-13
73.25930 1.1188453E-13
73.40221 1.0954269E-13
73.54513 1.0053497E-13
73.68803 8.4651077E-14
73.83095 6.2088796E-14
73.97386 3.3482220E-14
74.11678 -9.6223657E-17
74.25968 -3.7162337E-14
74.40260 -7.5875775E-14
74.54551 -1.1412327E-13
74.68842 -1.4962622E-13
74.83133 -1.8006720E-13
74.97424 -2.0322887E-13
75.11716 -2.1713705E-13
75.26006 -2.2019910E-13
75.40298 -2.1132893E-13
75.54589 -1.9004941E-13
75.68880 -1.5656472E-13
75.83171 -1.1179628E-13
75.97462 -5.7377436E-14
76.11754 4.3948698E-15
76.26044 7.0651269E-14
76.40336 1.3808076E-13
76.54627 2.0309543E-13
76.68919 2.6202085E-13
76.83209 3.1130198E-13
76.97501 3.4771247E-13
77.11792 3.6855509E-13
77.26083 3.7184023E-13
77.40374 3.5643049E-13
77.54665 3.2214116E-13
77.68957 2.6978823E-13
77.83247 2.0117950E-13
77.97539 1.1904690E-13
78.11830 2.6922817E-14
78.26122 -7.1033565E-14
78.40412 -1.7024995E-13
78.54704 -2.6598206E-13
78.68995 -3.5356746E-13
78.83286 -4.2867587E-13
78.97577 -4.8754035E-13
79.11868 -5.2715449E-13
79.26160 -5.4542314E-13
79.40450 -5.4125725E-13
79.54742 -5.1460805E-13
79.69033 -4.6643922E-13
79.83324 -3.9864076E-13
79.97615 -3.1389228E-13
80.11906 -2.1548738E-13
80.26198 -1.0713264E-13
80.40488 7.2624080E-15
80.54780 1.2378858E-13
80.69071 2.3871833E-13
80.83363 3.4865188E-13
80.97653 4.5061882E-13
81.11945 5.4212917E-13
81.26236 6.2117325E-13
81.40527 6.8617459E-13
81.54818 7.3590434E-13
81.69109 7.6936981E-13
81.83401 7.8569367E-13
81.97691 7.8400058E-13
82.11983 7.6332934E-13
82.26274 7.2258670E-13
82.40565 6.6055549E-13
82.54856 5.7596527E-13
82.69147 4.6762794E-13
82.83439 3.3463266E-13
82.97730 1.7658969E-13
83.12021 -6.0958014E-15
83.26312 -2.1194332E-13
83.40604 -4.3813743E-13
83.54894 -6.8031784E-13
83.69186 -9.3244759E-13
83.83477 -1.1867841E-12
83.97768 -1.4339711E-12
84.12059 -1.6632641E-12
84.26350 -1.8628887E-12
84.40642 -2.0205239E-12
84.54933 -2.1238898E-12
84.69224 -2.1614134E-12
84.83515 -2.1229325E-12
84.97807 -2.0003970E-12
85.12097 -1.7885254E-12
85.26389 -1.4853673E-12
85.40680 -1.0927392E-12
85.54971 -6.1649199E-13
85.69262 -6.6591481E-14
85.83553 5.4300412E-13
85.97845 1.1946719E-12
86.12135 1.8676473E-12
86.26427 2.5387199E-12
86.40718 3.1830725E-12
86.55009 3.7752206E-12
86.69300 4.2900093E-12
86.83591 4.7036142E-12
86.97883 4.9945039E-12
87.12174 5.1443064E-12
87.26465 5.1385432E-12
87.40756 4.9672037E-12
87.55048 4.6251167E-12
87.69338 4.1121342E-12
87.83630 3.4331049E-12
87.97921 2.5976721E-12
88.12212 1.6199103E-12
88.26503 5.1785258E-13
88.40794 -6.8705301E-13
88.55086 -1.9704999E-12
88.69377 -3.3058441E-12
88.83668 -4.6645409E-12
88.97959 -6.0164686E-12
89.12251 -7.3301122E-12
89.26541 -8.5726218E-12
89.40833 -9.7097608E-12
89.55124 -1.0705796E-11
89.69415 -1.1523405E-11
89.83706 -1.2123683E-11
89.97997 -1.2466351E-11
90.12289 -1.2510261E-11
90.26580 -1.2214295E-11
90.40871 -1.1538721E-11
90.55162 -1.0447050E-11
90.69453 -8.9083931E-12
90.83744 -6.9002542E-12
90.98035 -4.4116850E-12
91.12327 -1.4466170E-12
91.26618 1.9728134E-12
91.40909 5.8031934E-12
91.55200 9.9772751E-12
91.69492 1.4402226E-11
91.83783 1.8958926E-11
91.98074 2.3502577E-11
92.12365 2.7864802E-11
92.26656 3.1857347E-11
92.40947 3.5277444E-11
92.55238 3.7914772E-11
92.69530 3.9559842E-11
92.83821 4.0013593E-11
92.98112 3.9097815E-11
93.12403 3.6665952E-11
93.26694 3.2613828E-11
93.40986 2.6889701E-11
93.55276 1.9503090E-11
93.69568 1.0531822E-11
93.83859 1.2675261E-13
93.98150 -1.1486274E-11
94.12441 -2.4007629E-11
94.26733 -3.7068463E-11
94.41024 -5.0238751E-11
94.55315 -6.3038789E-11
94.69606 -7.4953856E-11
94.83897 -8.5451729E-11
94.98188 -9.4002417E-11
95.12479 -1.0009956E-10
95.26771 -1.0328248E-10
95.41062 -1.0315821E-10
95.55353 -9.9422477E-11
95.69644 -9.1878588E-11
95.83936 -8.0453512E-11
95.98227 -6.5210198E-11
96.12518 -4.6355485E-11
96.26809 -2.4243000E-11
96.41100 6.2921017E-13
96.55391 2.7626599E-11
96.69682 5.5991451E-11
96.83974 8.4861410E-11
96.98265 1.1329276E-10
97.12556 1.4028784E-10
97.26847 1.6482567E-10
97.41138 1.8589534E-10
97.55430 2.0253051E-10
97.69720 2.1384461E-10
97.84012 2.1906528E-10
97.98303 2.1756731E-10
98.12594 2.0890263E-10
98.26885 1.9282678E-10
98.41177 1.6932059E-10
98.55468 1.3860635E-10
98.69759 1.0115762E-10
98.84050 5.7702003E-11
98.98341 9.2161773E-12
99.12633 -4.3087093E-11
99.26923 -9.7780416E-11
99.41215 -1.5325168E-10
99.55506 -2.0774236E-10
99.69797 -2.5939365E-10
99.84088 -3.0630001E-10
99.98380 -3.4656863E-10
100.1267 -3.7838413E-10
100.2696 -4.0007597E-10
100.4125 -4.1018730E-10
100.5554 -4.0754250E-10
100.6984 -3.9131109E-10
100.8413 -3.6106526E-10
100.9842 -3.1682848E-10
101.1271 -2.5911218E-10
101.2700 -1.8893846E-10
101.4129 -1.0784624E-10
101.5558 -1.7879252E-11
101.6987 7.8445341E-11
101.8416 1.7818845E-10
101.9846 2.7806046E-10
102.1275 3.7451175E-10
102.2704 4.6384055E-10
102.4133 5.4231553E-10
102.5562 6.0630995E-10
102.6991 6.5244349E-10
102.8420 6.7772654E-10
102.9849 6.7970235E-10
103.1279 6.5658151E-10
103.2708 6.0736266E-10
103.4137 5.3193422E-10
103.5566 4.3115228E-10
103.6995 3.0688896E-10
103.8424 1.6204772E-10
103.9853 5.4254702E-13
104.1282 -1.7276132E-10
104.2711 -3.5214592E-10
104.4141 -5.3117766E-10
104.5570 -7.0288103E-10
104.6999 -8.5994589E-10
104.8428 -9.9496289E-10
104.9857 -1.1006817E-09
105.1286 -1.1702838E-09
105.2715 -1.1976622E-09
105.4144 -1.1776988E-09
105.5574 -1.1065298E-09
105.7003 -9.8178821E-10
105.8432 -8.0281615E-10
105.9861 -5.7083455E-10
106.1290 -2.8906513E-10
106.2719 3.7206790E-11
106.4148 4.0063028E-10
106.5577 7.9185530E-10
106.7006 1.1996686E-09
106.8436 1.6111982E-09
106.9865 2.0121880E-09
107.1294 2.3873334E-09
107.2723 2.7206757E-09
107.4152 2.9960434E-09
107.5581 3.1975333E-09
107.7010 3.3100163E-09
107.8439 3.3196563E-09
107.9869 3.2144269E-09
108.1298 2.9846126E-09
108.2727 2.6232772E-09
108.4156 2.1266904E-09
108.5585 1.4946911E-09
108.7014 7.3098499E-10
108.8443 -1.5664238E-10
108.9872 -1.1561989E-09
109.1301 -2.2514559E-09
109.2731 -3.4220162E-09
109.4160 -4.6434834E-09
109.5589 -5.8877281E-09
109.7018 -7.1232535E-09
109.8447 -8.3156504E-09
109.9876 -9.4281374E-09
110.1305 -1.0422176E-08
110.2734 -1.1258160E-08
110.4164 -1.1896153E-08
110.5593 -1.2296691E-08
110.7022 -1.2421606E-08
110.8451 -1.2234898E-08
110.9880 -1.1703627E-08
111.1309 -1.0798805E-08
111.2738 -9.4963291E-09
111.4167 -7.7778850E-09
111.5596 -5.6318696E-09
111.7026 -3.0542888E-09
111.8455 -4.9645784E-11
111.9884 3.3682048E-09
112.1313 7.1752431E-09
112.2742 1.1336527E-08
112.4171 1.5805517E-08
112.5600 2.0523496E-08
112.7029 2.5419133E-08
112.8458 3.0408209E-08
112.9888 3.5393541E-08
113.1317 4.0265178E-08
113.2746 4.4900858E-08
113.4175 4.9166854E-08
113.5604 5.2919187E-08
113.7033 5.6005273E-08
113.8462 5.8266053E-08
113.9891 5.9538628E-08
114.1321 5.9659428E-08
114.2750 5.8467869E-08
114.4179 5.5810613E-08
114.5608 5.1546206E-08
114.7037 4.5550209E-08
114.8466 3.7720653E-08
114.9895 2.7983749E-08
115.1324 1.6299674E-08
115.2754 2.6683649E-09
115.4183 -1.2864956E-08
115.5612 -3.0204621E-08
115.7041 -4.9200004E-08
115.8470 -6.9641821E-08
115.9899 -9.1259501E-08
116.1328 -1.1371980E-07
116.2757 -1.3662695E-07
116.4186 -1.5952438E-07
116.5616 -1.8189833E-07
116.7045 -2.0318340E-07
116.8474 -2.2277024E-07
116.9903 -2.4001514E-07
117.1332 -2.5425183E-07
117.2761 -2.6480552E-07
117.4190 -2.7100833E-07
117.5619 -2.7221714E-07
117.7048 -2.6783229E-07
117.8478 -2.5731816E-07
117.9907 -2.4022404E-07
118.1336 -2.1620583E-07
118.2765 -1.8504784E-07
118.4194 -1.4668400E-07
118.5623 -1.0121832E-07
118.7052 -4.8943932E-08
118.8481 9.6397113E-09
118.9911 7.3811954E-08
119.1340 1.4261893E-07
119.2769 2.1486467E-07
119.4198 2.8910586E-07
119.5627 3.6365043E-07
119.7056 4.3656036E-07
119.8485 5.0565859E-07
119.9914 5.6854049E-07
120.1343 6.2258943E-07
120.2773 6.6499683E-07
120.4202 6.9278616E-07
120.5631 7.0284051E-07
120.7060 6.9193413E-07
120.8489 6.5676642E-07
120.9918 5.9399844E-07
121.1347 5.0029217E-07
121.2776 3.7234969E-07
121.4206 2.0695487E-07
121.5635 1.0137985E-09
121.7064 -2.4840452E-07
121.8493 -5.4402881E-07
121.9922 -8.8834753E-07
122.1351 -1.2835739E-06
122.2780 -1.7316123E-06
122.4209 -2.2340298E-06
122.5639 -2.7920294E-06
122.7068 -3.4064269E-06
122.8497 -4.0776354E-06
122.9926 -4.8056486E-06
123.1355 -5.5900341E-06
123.2784 -6.4299270E-06
123.4213 -7.3240303E-06
123.5642 -8.2706174E-06
123.7071 -9.2675409E-06
123.8501 -1.0312245E-05
123.9930 -1.1401778E-05
124.1359 -1.2532820E-05
124.2788 -1.3701690E-05
124.4217 -1.4904386E-05
124.5646 -1.6136606E-05
124.7075 -1.7393773E-05
124.8504 -1.8671080E-05
124.9933 -1.9963509E-05
125.1363 -2.1265876E-05
125.2792 -2.2572865E-05
125.4221 -2.3879062E-05
125.5650 -2.5178995E-05
125.7079 -2.6467173E-05
125.8508 -2.7738128E-05
125.9937 -2.8986446E-05
126.1366 -3.0206806E-05
126.2795 -3.1394029E-05
126.4225 -3.2543099E-05
126.5654 -3.3649216E-05
126.7083 -3.4707820E-05
126.8512 -3.5714624E-05
126.9941 -3.6665646E-05
127.1370 -3.7557242E-05
127.2799 -3.8386137E-05
127.4228 -3.9149429E-05
127.5658 -3.9844625E-05
127.7087 -4.0469658E-05
127.8516 -4.1022886E-05
127.9945 -4.1503110E-05
128.1374 -4.1909589E-05
128.2803 -4.2242005E-05
128.4232 -4.2500509E-05
128.5661 -4.2685668E-05
128.7090 -4.2798485E-05
128.8520 -4.2840362E-05
128.9949 -4.2813088E-05
129.1378 -4.2718832E-05
129.2807 -4.2560092E-05
129.4236 -4.2339692E-05
129.5665 -4.2060732E-05
129.7094 -4.1726573E-05
129.8523 -4.1340805E-05
129.9953 -4.0907194E-05
130.1382 -4.0429677E-05
130.2811 -3.9912324E-05
130.4240 -3.9359289E-05
130.5669 -3.8774797E-05
130.7098 -3.8163107E-05
130.8527 -3.7528494E-05
130.9956 -3.6875201E-05
131.1385 -3.6207442E-05
131.2815 -3.5529360E-05
131.4244 -3.4845012E-05
131.5673 -3.4158358E-05
131.7102 -3.3473225E-05
131.8531 -3.2793308E-05
131.9960 -3.2122149E-05
132.1389 -3.1463122E-05
132.2818 -3.0819421E-05
132.4248 -3.0194058E-05
132.5677 -2.9589841E-05
132.7106 -2.9009365E-05
132.8535 -2.8455021E-05
132.9964 -2.7928962E-05
133.1393 -2.7433118E-05
133.2822 -2.6969179E-05
133.4251 -2.6538599E-05
133.5681 -2.6142579E-05
133.7110 -2.5782087E-05
133.8539 -2.5457830E-05
133.9968 -2.5170284E-05
134.1397 -2.4919676E-05
134.2826 -2.4706005E-05
134.4255 -2.4529034E-05
134.5684 -2.4388317E-05
134.7113 -2.4283196E-05
134.8542 -2.4212824E-05
134.9972 -2.4176185E-05
135.1401 -2.4172099E-05
135.2830 -2.4199253E-05
135.4259 -2.4256218E-05
135.5688 -2.4341478E-05
135.7117 -2.4453437E-05
135.8546 -2.4590458E-05
135.9975 -2.4750881E-05
136.1405 -2.4933042E-05
136.2834 -2.5135290E-05
136.4263 -2.5356016E-05
136.5692 -2.5593663E-05
136.7121 -2.5846737E-05
136.8550 -2.6113827E-05
136.9979 -2.6393605E-05
137.1408 -2.6684831E-05
137.2838 -2.6986356E-05
137.4267 -2.7297114E-05
137.5696 -2.7616123E-05
137.7125 -2.7942468E-05
137.8554 -2.8275286E-05
137.9983 -2.8613755E-05
138.1412 -2.8957074E-05
138.2841 -2.9304438E-05
138.4270 -2.9655013E-05
138.5700 -3.0007932E-05
138.7129 -3.0362240E-05
138.8558 -3.0716903E-05
138.9987 -3.1070766E-05
139.1416 -3.1422544E-05
139.2845 -3.1770785E-05
139.4274 -3.2113894E-05
139.5703 -3.2450080E-05
139.7133 -3.2777381E-05
139.8562 -3.3093649E-05
139.9991 -3.3396544E-05
140.1420 -3.3683558E-05
140.2849 -3.3952016E-05
140.4278 -3.4199100E-05
140.5707 -3.4421857E-05
140.7136 -3.4617242E-05
140.8566 -3.4782133E-05
140.9995 -3.4913370E-05
141.1424 -3.5007793E-05
141.2853 -3.5062276E-05
141.4282 -3.5073765E-05
141.5711 -3.5039331E-05
141.7140 -3.4956189E-05
141.8569 -3.4821769E-05
141.9998 -3.4633733E-05
142.1427 -3.4390017E-05
142.2857 -3.4088884E-05
142.4286 -3.3728931E-05
142.5715 -3.3309141E-05
142.7144 -3.2828899E-05
142.8573 -3.2288019E-05
143.0002 -3.1686755E-05
143.1431 -3.1025815E-05
143.2860 -3.0306366E-05
143.4290 -2.9530045E-05
143.5719 -2.8698934E-05
143.7148 -2.7815568E-05
143.8577 -2.6882910E-05
144.0006 -2.5904334E-05
144.1435 -2.4883586E-05
144.2864 -2.3824772E-05
144.4293 -2.2732309E-05
144.5723 -2.1610886E-05
144.7152 -2.0465417E-05
144.8581 -1.9301004E-05
145.0010 -1.8122873E-05
145.1439 -1.6936332E-05
145.2868 -1.5746713E-05
145.4297 -1.4559318E-05
145.5726 -1.3379364E-05
145.7155 -1.2211932E-05
145.8585 -1.1061917E-05
146.0014 -9.9339768E-06
146.1443 -8.8324859E-06
146.2872 -7.7614959E-06
146.4301 -6.7246983E-06
146.5730 -5.7253887E-06
146.7159 -4.7664466E-06
146.8588 -3.8503126E-06
147.0018 -2.9789735E-06
147.1447 -2.1539579E-06
147.2876 -1.3763290E-06
147.4305 -6.4669774E-07
147.5734 3.4765247E-08
147.7163 6.6832138E-07
147.8592 1.2546294E-06
148.0021 1.7947233E-06
148.1451 2.2899767E-06
148.2880 2.7420708E-06
148.4309 3.1529544E-06
148.5738 3.5248040E-06
148.7167 3.8599801E-06
148.8596 4.1609896E-06
149.0025 4.4304470E-06
149.1454 4.6710315E-06
149.2883 4.8854540E-06
149.4312 5.0764284E-06
149.5742 5.2466330E-06
149.7171 5.3986964E-06
149.8600 5.5351697E-06
150.0029 5.6585163E-06
150.1458 5.7710959E-06
150.2887 5.8751671E-06
150.4316 5.9728777E-06
150.5745 6.0662724E-06
150.7175 6.1573032E-06
150.8604 6.2478348E-06
151.0033 6.3396610E-06
151.1462 6.4345231E-06
151.2891 6.5341324E-06
151.4320 6.6401808E-06
151.5749 6.7543683E-06
151.7178 6.8784211E-06
151.8607 7.0141100E-06
152.0037 7.1632699E-06
152.1466 7.3278097E-06
152.2895 7.5097250E-06
152.4324 7.7111072E-06
152.5753 7.9341426E-06
152.7182 8.1811104E-06
152.8611 8.4543735E-06
153.0040 8.7563667E-06
153.1470 9.0895710E-06
153.2899 9.4564984E-06
153.4328 9.8596493E-06
153.5757 1.0301480E-05
153.7186 1.0784367E-05
153.8615 1.1310551E-05
154.0044 1.1882099E-05
154.1473 1.2500846E-05
154.2903 1.3168350E-05
154.4332 1.3885830E-05
154.5761 1.4654129E-05
154.7190 1.5473652E-05
154.8619 1.6344327E-05
155.0048 1.7265573E-05
155.1477 1.8236249E-05
155.2906 1.9254649E-05
155.4335 2.0318461E-05
155.5765 2.1424779E-05
155.7194 2.2570091E-05
155.8623 2.3750294E-05
156.0052 2.4960718E-05
156.1481 2.6196158E-05
156.2910 2.7450918E-05
156.4339 2.8718861E-05
156.5768 2.9993476E-05
156.7197 3.1267951E-05
156.8627 3.2535241E-05
157.0056 3.3788165E-05
157.1485 3.5019490E-05
157.2914 3.6222005E-05
157.4343 3.7388640E-05
157.5772 3.8512524E-05
157.7201 3.9587092E-05
157.8630 4.0606159E-05
158.0060 4.1563984E-05
158.1489 4.2455358E-05
158.2918 4.3275639E-05
158.4347 4.4020788E-05
158.5776 4.4687458E-05
158.7205 4.5272969E-05
158.8634 4.5775330E-05
159.0063 4.6193269E-05
159.1492 4.6526191E-05
159.2922 4.6774199E-05
159.4351 4.6938032E-05
159.5780 4.7019057E-05
159.7209 4.7019221E-05
159.8638 4.6940993E-05
160.0067 4.6787332E-05
160.1496 4.6561618E-05
160.2925 4.6267603E-05
160.4355 4.5909357E-05
160.5784 4.5491186E-05
160.7213 4.5017601E-05
160.8642 4.4493256E-05
161.0071 4.3922879E-05
161.1500 4.3311233E-05
161.2929 4.2663072E-05
161.4358 4.1983072E-05
161.5788 4.1275813E-05
161.7217 4.0545725E-05
161.8646 3.9797058E-05
162.0075 3.9033839E-05
162.1504 3.8259852E-05
162.2933 3.7478610E-05
162.4362 3.6693327E-05
162.5791 3.5906898E-05
162.7220 3.5121888E-05
162.8650 3.4340523E-05
163.0079 3.3564666E-05
163.1508 3.2795826E-05
163.2937 3.2035161E-05
163.4366 3.1283475E-05
163.5795 3.0541225E-05
163.7224 2.9808547E-05
163.8653 2.9085264E-05
164.0083 2.8370920E-05
164.1512 2.7664804E-05
164.2941 2.6965990E-05
164.4370 2.6273372E-05
164.5799 2.5585696E-05
164.7228 2.4901616E-05
164.8657 2.4219727E-05
165.0086 2.3538620E-05
165.1515 2.2856910E-05
165.2944 2.2173286E-05
165.4374 2.1486549E-05
165.5803 2.0795631E-05
165.7232 2.0099640E-05
165.8661 1.9397867E-05
166.0090 1.8689803E-05
166.1519 1.7975148E-05
166.2948 1.7253806E-05
166.4377 1.6525877E-05
166.5807 1.5791651E-05
166.7236 1.5051579E-05
166.8665 1.4306251E-05
167.0094 1.3556370E-05
167.1523 1.2802723E-05
167.2952 1.2046148E-05
167.4381 1.1287506E-05
167.5810 1.0527645E-05
167.7240 9.7673828E-06
167.8669 9.0074800E-06
168.0098 8.2486213E-06
168.1527 7.4914005E-06
168.2956 6.7363185E-06
168.4385 5.9837757E-06
168.5814 5.2340802E-06
168.7243 4.4874537E-06
168.8672 3.7440511E-06
169.0102 3.0039712E-06
169.1531 2.2672816E-06
169.2960 1.5340440E-06
169.4389 8.0433318E-07
169.5818 7.8262126E-08
169.7247 -6.4399728E-07
169.8676 -1.3621998E-06
170.0105 -2.0760117E-06
170.1535 -2.7850053E-06
170.2964 -3.4886582E-06
170.4393 -4.1863618E-06
170.5822 -4.8774336E-06
170.7251 -5.5611408E-06
170.8680 -6.2367280E-06
171.0109 -6.9034522E-06
171.1538 -7.5606176E-06
171.2968 -8.2076185E-06
171.4397 -8.8439783E-06
171.5826 -9.4693924E-06
171.7255 -1.0083760E-05
171.8684 -1.0687217E-05
172.0113 -1.1280161E-05
172.1542 -1.1863259E-05
172.2971 -1.2437460E-05
172.4400 -1.3003985E-05
172.5829 -1.3564309E-05
172.7259 -1.4120134E-05
172.8688 -1.4673344E-05
173.0117 -1.5225966E-05
173.1546 -1.5780106E-05
173.2975 -1.6337885E-05