-7.200000 1.0845388E-17
-7.057088 1.0856369E-17
-6.914176 1.0876113E-17
-6.771265 1.0900871E-17
-6.628353 1.0926148E-17
-6.485441 1.0947634E-17
-6.342530 1.0962095E-17
-6.199618 1.0968025E-17
-6.056706 1.0965928E-17
-5.913795 1.0958163E-17
-5.770883 1.0948405E-17
-5.627971 1.0940817E-17
-5.485059 1.0939134E-17
-5.342147 1.0945841E-17
-5.199236 1.0961621E-17
-5.056324 1.0985206E-17
-4.913413 1.1013627E-17
-4.770501 1.1042848E-17
-4.627589 1.1068615E-17
-4.484677 1.1087350E-17
-4.341765 1.1096908E-17
-4.198854 1.1097022E-17
-4.055942 1.1089361E-17
-3.913030 1.1077176E-17
-3.770118 1.1064613E-17
-3.627207 1.1055854E-17
-3.484295 1.1054238E-17
-3.341383 1.1061575E-17
-3.198472 1.1077770E-17
-3.055560 1.1100856E-17
-2.912648 1.1127410E-17
-2.769737 1.1153278E-17
-2.626825 1.1174450E-17
-2.483913 1.1187899E-17
-2.341001 1.1192226E-17
-2.198090 1.1187954E-17
-2.055178 1.1177429E-17
-1.912266 1.1164335E-17
-1.769354 1.1152923E-17
-1.626443 1.1147125E-17
-1.483531 1.1149725E-17
-1.340619 1.1161761E-17
-1.197708 1.1182291E-17
-1.054796 1.1208572E-17
-0.9118841 1.1236617E-17
-0.7689723 1.1262017E-17
-0.6260606 1.1280852E-17
-0.4831489 1.1290525E-17
-0.3402372 1.1290302E-17
-0.1973254 1.1281489E-17
-5.4413714E-02 1.1267155E-17
8.8498011E-02 1.1251503E-17
0.2314097 1.1238987E-17
0.3743215 1.1233360E-17
0.5172332 1.1236884E-17
0.6601449 1.1249837E-17
0.8030567 1.1270445E-17
0.9459684 1.1295265E-17
1.088880 1.1319916E-17
1.231792 1.1340032E-17
1.374704 1.1352218E-17
1.517615 1.1354808E-17
1.660527 1.1348250E-17
1.803439 1.1335045E-17
1.946350 1.1319222E-17
2.089262 1.1305493E-17
2.232174 1.1298223E-17
2.375086 1.1300483E-17
2.517997 1.1313353E-17
2.660909 1.1335648E-17
2.803821 1.1364141E-17
2.946733 1.1394211E-17
3.089644 1.1420817E-17
3.232556 1.1439553E-17
3.375468 1.1447587E-17
3.518379 1.1444265E-17
3.661291 1.1431254E-17
3.804203 1.1412182E-17
3.947115 1.1391868E-17
4.090026 1.1375290E-17
4.232938 1.1366526E-17
4.375850 1.1367888E-17
4.518762 1.1379444E-17
4.661673 1.1399029E-17
4.804585 1.1422736E-17
4.947497 1.1445790E-17
5.090408 1.1463603E-17
5.233320 1.1472796E-17
5.376232 1.1471940E-17
5.519144 1.1461884E-17
5.662055 1.1445570E-17
5.804967 1.1427393E-17
5.947879 1.1412239E-17
6.090790 1.1404398E-17
6.233702 1.1406613E-17
6.376614 1.1419452E-17
6.519526 1.1441136E-17
6.662437 1.1467896E-17
6.805349 1.1494743E-17
6.948261 1.1516525E-17
7.091173 1.1529018E-17
7.234084 1.1529832E-17
7.376996 1.1518941E-17
7.519908 1.1498696E-17
7.662819 1.1473357E-17
7.805731 1.1448202E-17
7.948643 1.1428430E-17
8.091555 1.1418076E-17
8.234467 1.1419176E-17
8.377378 1.1431365E-17
8.520289 1.1451976E-17
8.663201 1.1476645E-17
8.806113 1.1500264E-17
8.949025 1.1518106E-17
9.091937 1.1526846E-17
9.234848 1.1525281E-17
9.377760 1.1514581E-17
9.520672 1.1498010E-17
9.663584 1.1480193E-17
9.806496 1.1466067E-17
9.949407 1.1459758E-17
10.09232 1.1463631E-17
10.23523 1.1477721E-17
10.37814 1.1499679E-17
10.52105 1.1525249E-17
10.66397 1.1549177E-17
10.80688 1.1566362E-17
10.94979 1.1572995E-17
11.09270 1.1567430E-17
11.23561 1.1550602E-17
11.37852 1.1525883E-17
11.52144 1.1498404E-17
11.66435 1.1473993E-17
11.80726 1.1457930E-17
11.95017 1.1453833E-17
12.09308 1.1462872E-17
12.23599 1.1483517E-17
12.37891 1.1511869E-17
12.52182 1.1542497E-17
12.66473 1.1569613E-17
12.80764 1.1588311E-17
12.95055 1.1595618E-17
13.09346 1.1591110E-17
13.23638 1.1576962E-17
13.37929 1.1557423E-17
13.52220 1.1537835E-17
13.66511 1.1523413E-17
13.80802 1.1518057E-17
13.95094 1.1523469E-17
14.09385 1.1538760E-17
14.23676 1.1560663E-17
14.37967 1.1584272E-17
14.52258 1.1604163E-17
14.66549 1.1615647E-17
14.80841 1.1615860E-17
14.95132 1.1604462E-17
15.09423 1.1583766E-17
15.23714 1.1558275E-17
15.38005 1.1533728E-17
15.52296 1.1515856E-17
15.66588 1.1509121E-17
15.80879 1.1515731E-17
15.95170 1.1535127E-17
16.09461 1.1564083E-17
16.23752 1.1597380E-17
16.38043 1.1628908E-17
16.52335 1.1652977E-17
16.66626 1.1665521E-17
16.80917 1.1664949E-17
16.95208 1.1652454E-17
17.09499 1.1631716E-17
17.23791 1.1608064E-17
17.38082 1.1587280E-17
17.52373 1.1574321E-17
17.66664 1.1572232E-17
17.80955 1.1581502E-17
17.95246 1.1599990E-17
18.09538 1.1623439E-17
18.23829 1.1646481E-17
18.38120 1.1663875E-17
18.52411 1.1671720E-17
18.66702 1.1668373E-17
18.80993 1.1654841E-17
18.95285 1.1634584E-17
19.09576 1.1612751E-17
19.23867 1.1595022E-17
19.38158 1.1586323E-17
19.52449 1.1589685E-17
19.66740 1.1605537E-17
19.81032 1.1631555E-17
19.95323 1.1663144E-17
20.09614 1.1694431E-17
20.23905 1.1719545E-17
20.38196 1.1733914E-17
20.52488 1.1735282E-17
20.66779 1.1724201E-17
20.81070 1.1703907E-17
20.95361 1.1679593E-17
21.09652 1.1657240E-17
21.23943 1.1642283E-17
21.38235 1.1638388E-17
21.52526 1.1646653E-17
21.66817 1.1665382E-17
21.81108 1.1690513E-17
21.95399 1.1716563E-17
22.09690 1.1737922E-17
22.23981 1.1750145E-17
22.38273 1.1750985E-17
22.52564 1.1740896E-17
22.66855 1.1722919E-17
22.81146 1.1701950E-17
22.95437 1.1683584E-17
23.09729 1.1672789E-17
23.24020 1.1672739E-17
23.38311 1.1684056E-17
23.52602 1.1704663E-17
23.66893 1.1730267E-17
23.81184 1.1755365E-17
23.95476 1.1774527E-17
24.09767 1.1783679E-17
24.24058 1.1781052E-17
24.38349 1.1767603E-17
24.52640 1.1746792E-17
24.66932 1.1723785E-17
24.81223 1.1704255E-17
24.95514 1.1693074E-17
25.09805 1.1693203E-17
25.24096 1.1705028E-17
25.38387 1.1726307E-17
25.52678 1.1752714E-17
25.66970 1.1778875E-17
25.81261 1.1799619E-17
25.95552 1.1811170E-17
26.09843 1.1811989E-17
26.24134 1.1803085E-17
26.38426 1.1787715E-17
26.52717 1.1770569E-17
26.67008 1.1756628E-17
26.81299 1.1749972E-17
26.95590 1.1752820E-17
27.09881 1.1765019E-17
27.24173 1.1784112E-17
27.38464 1.1805934E-17
27.52755 1.1825612E-17
27.67046 1.1838725E-17
27.81337 1.1842330E-17
27.95629 1.1835653E-17
28.09920 1.1820253E-17
28.24211 1.1799651E-17
28.38502 1.1778513E-17
28.52793 1.1761583E-17
28.67084 1.1752614E-17
28.81376 1.1753551E-17
28.95667 1.1764146E-17
29.09958 1.1782070E-17
29.24249 1.1803512E-17
29.38540 1.1824087E-17
29.52831 1.1839853E-17
29.67122 1.1848198E-17
29.81414 1.1848382E-17
29.95705 1.1841640E-17
30.09996 1.1830810E-17
30.24287 1.1819605E-17
30.38578 1.1811695E-17
30.52870 1.1809818E-17
30.67161 1.1815144E-17
30.81452 1.1827009E-17
30.95743 1.1843098E-17
31.10034 1.1860015E-17
31.24325 1.1874099E-17
31.38617 1.1882301E-17
31.52908 1.1882906E-17
31.67199 1.1875940E-17
31.81490 1.1863168E-17
31.95781 1.1847696E-17
32.10072 1.1833263E-17
32.24364 1.1823385E-17
32.38655 1.1820576E-17
32.52946 1.1825782E-17
32.67237 1.1838183E-17
32.81528 1.1855400E-17
32.95819 1.1874030E-17
33.10111 1.1890419E-17
33.24402 1.1901461E-17
33.38693 1.1905273E-17
33.52984 1.1901570E-17
33.67275 1.1891688E-17
33.81567 1.1878243E-17
33.95858 1.1864517E-17
34.10149 1.1853715E-17
34.24440 1.1848267E-17
34.38731 1.1849325E-17
34.53022 1.1856560E-17
34.67313 1.1868305E-17
34.81605 1.1882000E-17
34.95896 1.1894806E-17
35.10187 1.1904283E-17
35.24478 1.1908937E-17
35.38770 1.1908540E-17
35.53061 1.1904132E-17
35.67352 1.1897748E-17
35.81643 1.1891888E-17
35.95934 1.1888909E-17
36.10225 1.1890443E-17
36.24516 1.1896996E-17
36.38808 1.1907817E-17
36.53099 1.1921045E-17
36.67390 1.1934137E-17
36.81681 1.1944438E-17
36.95972 1.1949794E-17
37.10263 1.1949047E-17
37.24555 1.1942322E-17
37.38846 1.1931027E-17
37.53137 1.1917562E-17
37.67428 1.1904824E-17
37.81719 1.1895593E-17
37.96011 1.1891942E-17
38.10302 1.1894807E-17
38.24593 1.1903789E-17
38.38884 1.1917256E-17
38.53175 1.1932695E-17
38.67466 1.1947250E-17
38.81758 1.1958328E-17
38.96049 1.1964139E-17
39.10340 1.1964048E-17
39.24631 1.1958688E-17
39.38922 1.1949780E-17
39.53214 1.1939738E-17
39.67505 1.1931120E-17
39.81796 1.1926069E-17
39.96087 1.1925844E-17
40.10378 1.1930559E-17
40.24669 1.1939180E-17
40.38961 1.1949780E-17
40.53252 1.1959984E-17
40.67543 1.1967523E-17
40.81834 1.1970763E-17
40.96125 1.1969078E-17
41.10416 1.1963021E-17
41.24707 1.1954214E-17
41.38999 1.1944998E-17
41.53290 1.1937924E-17
41.67581 1.1935174E-17
41.81872 1.1938065E-17
41.96163 1.1946722E-17
42.10455 1.1960018E-17
42.24746 1.1975779E-17
42.39037 1.1991230E-17
42.53328 1.2003585E-17
42.67619 1.2010647E-17
42.81910 1.2011294E-17
42.96202 1.2005748E-17
43.10493 1.1995543E-17
43.24784 1.1983217E-17
43.39075 1.1971768E-17
43.53366 1.1964013E-17
43.67657 1.1961956E-17
43.81948 1.1966350E-17
43.96240 1.1976502E-17
44.10531 1.1990421E-17
44.24822 1.2005246E-17
44.39113 1.2017879E-17
44.53405 1.2025685E-17
44.67696 1.2027095E-17
44.81987 1.2021986E-17
44.96278 1.2011727E-17
45.10569 1.1998898E-17
45.24860 1.1986712E-17
45.39151 1.1978300E-17
45.53443 1.1975973E-17
45.67734 1.1980689E-17
45.82025 1.1991795E-17
45.96316 1.2007158E-17
46.10608 1.2023619E-17
46.24899 1.2037719E-17
46.39190 1.2046485E-17
46.53481 1.2048143E-17
46.67772 1.2042545E-17
46.82063 1.2031246E-17
46.96354 1.2017173E-17
47.10646 1.2003973E-17
47.24937 1.1995181E-17
47.39228 1.1993391E-17
47.53519 1.1999627E-17
47.67810 1.2013065E-17
47.82101 1.2031178E-17
47.96392 1.2050265E-17
48.10684 1.2066271E-17
48.24975 1.2075705E-17
48.39266 1.2076447E-17
48.53557 1.2068251E-17
48.67849 1.2052850E-17
48.82140 1.2033606E-17
48.96431 1.2014798E-17
49.10722 1.2000690E-17
49.25013 1.1994592E-17
49.39304 1.1998131E-17
49.53595 1.2010877E-17
49.67887 1.2030425E-17
49.82178 1.2052911E-17
49.96469 1.2073843E-17
50.10760 1.2089073E-17
50.25051 1.2095685E-17
50.39342 1.2092615E-17
50.53634 1.2080859E-17
50.67925 1.2063238E-17
50.82216 1.2043763E-17
50.96507 1.2026747E-17
51.10798 1.2015875E-17
51.25090 1.2013418E-17
51.39381 1.2019772E-17
51.53672 1.2033424E-17
51.67963 1.2051336E-17
51.82254 1.2069659E-17
51.96545 1.2084622E-17
52.10837 1.2093376E-17
52.25128 1.2094623E-17
52.39419 1.2088882E-17
52.53710 1.2078331E-17
52.68001 1.2066275E-17
52.82293 1.2056355E-17
52.96584 1.2051685E-17
53.10875 1.2054102E-17
53.25166 1.2063720E-17
53.39457 1.2078875E-17
53.53748 1.2096473E-17
53.68040 1.2112684E-17
53.82331 1.2123802E-17
53.96622 1.2127107E-17
54.10913 1.2121511E-17
54.25204 1.2107855E-17
54.39495 1.2088787E-17
54.53786 1.2068238E-17
54.68078 1.2050610E-17
54.82369 1.2039849E-17
54.96660 1.2038604E-17
55.10951 1.2047652E-17
55.25242 1.2065706E-17
55.39534 1.2089664E-17
55.53825 1.2115221E-17
55.68116 1.2137743E-17
55.82407 1.2153194E-17
55.96698 1.2158939E-17
56.10989 1.2154250E-17
56.25281 1.2140421E-17
56.39572 1.2120472E-17
56.53863 1.2098506E-17
56.68154 1.2078870E-17
56.82445 1.2065288E-17
56.96737 1.2060139E-17
57.11028 1.2064039E-17
57.25319 1.2075781E-17
57.39610 1.2092665E-17
57.53901 1.2111105E-17
57.68192 1.2127411E-17
57.82484 1.2138554E-17
57.96775 1.2142780E-17
58.11066 1.2139933E-17
58.25357 1.2131435E-17
58.39648 1.2119927E-17
58.53939 1.2108671E-17
58.68230 1.2100813E-17
58.82522 1.2098692E-17
58.96813 1.2103326E-17
59.11104 1.2114177E-17
59.25395 1.2129264E-17
59.39687 1.2145578E-17
59.53978 1.2159735E-17
59.68269 1.2168704E-17
59.82560 1.2170489E-17
59.96851 1.2164585E-17
60.11142 1.2152134E-17
60.25433 1.2135727E-17
60.39725 1.2118892E-17
60.54016 1.2105366E-17
60.68307 1.2098306E-17
60.82598 1.2099603E-17
60.96889 1.2109444E-17
61.11180 1.2126227E-17
61.25471 1.2146853E-17
61.39763 1.2167343E-17
61.54054 1.2183656E-17
61.68345 1.2192539E-17
61.82636 1.2192233E-17
61.96928 1.2182873E-17
62.11219 1.2166499E-17
62.25510 1.2146662E-17
62.39801 1.2127703E-17
62.54092 1.2113856E-17
62.68383 1.2108354E-17
62.82674 1.2112741E-17
62.96966 1.2126519E-17
63.11257 1.2147237E-17
63.25548 1.2170979E-17
63.39839 1.2193181E-17
63.54131 1.2209575E-17
63.68422 1.2217087E-17
63.82713 1.2214491E-17
63.97004 1.2202655E-17
64.11295 1.2184370E-17
64.25586 1.2163744E-17
64.39877 1.2145333E-17
64.54169 1.2133163E-17
64.68460 1.2129864E-17
64.82751 1.2136110E-17
64.97042 1.2150473E-17
65.11333 1.2169733E-17
65.25625 1.2189581E-17
65.39915 1.2205567E-17
65.54207 1.2214084E-17
65.68498 1.2213192E-17
65.82789 1.2203068E-17
65.97080 1.2186026E-17
66.11372 1.2166048E-17
66.25663 1.2147950E-17
66.39954 1.2136343E-17
66.54245 1.2134615E-17
66.68536 1.2144144E-17
66.82828 1.2163934E-17
66.97118 1.2190747E-17
67.11410 1.2219719E-17
67.25701 1.2245342E-17
67.39992 1.2262609E-17
67.54283 1.2268078E-17
67.68575 1.2260630E-17
67.82866 1.2241751E-17
67.97157 1.2215269E-17
68.11448 1.2186589E-17
68.25739 1.2161582E-17
68.40031 1.2145367E-17
68.54321 1.2141224E-17
68.68613 1.2149902E-17
68.82904 1.2169447E-17
68.97195 1.2195618E-17
69.11486 1.2222787E-17
69.25777 1.2245155E-17
69.40069 1.2257999E-17
69.54359 1.2258696E-17
69.68651 1.2247292E-17
69.82942 1.2226486E-17
69.97233 1.2201028E-17
70.11524 1.2176661E-17
70.25816 1.2158839E-17
70.40107 1.2151504E-17
70.54398 1.2156194E-17
70.68689 1.2171695E-17
70.82980 1.2194307E-17
70.97272 1.2218681E-17
71.11562 1.2239035E-17
71.25854 1.2250487E-17
71.40145 1.2250192E-17
71.54436 1.2238030E-17
71.68727 1.2216677E-17
71.83018 1.2191045E-17
71.97310 1.2167188E-17
72.11600 1.2150942E-17
72.25892 1.2146575E-17
72.40183 1.2155784E-17
72.54475 1.2177241E-17
72.68765 1.2206818E-17
72.83057 1.2238435E-17
72.97348 1.2265375E-17
73.11639 1.2281740E-17
73.25930 1.2283763E-17
73.40221 1.2270661E-17
73.54513 1.2244840E-17
73.68803 1.2211413E-17
73.83095 1.2177119E-17
73.97386 1.2148891E-17
74.11678 1.2132371E-17
74.25968 1.2130715E-17
74.40260 1.2143925E-17
74.54551 1.2168880E-17
74.68842 1.2200031E-17
74.83133 1.2230622E-17
74.97424 1.2254165E-17
75.11716 1.2265837E-17
75.26006 1.2263514E-17
75.40298 1.2248197E-17
75.54589 1.2223755E-17
75.68880 1.2196039E-17
75.83171 1.2171571E-17
75.97462 1.2156083E-17
76.11754 1.2153252E-17
76.26044 1.2163875E-17
76.40336 1.2185692E-17
76.54627 1.2213886E-17
76.68919 1.2242139E-17
76.83209 1.2264032E-17
76.97501 1.2274469E-17
77.11792 1.2270814E-17
77.26083 1.2253503E-17
77.40374 1.2225972E-17
77.54665 1.2193941E-17
77.68957 1.2164186E-17
77.83247 1.2143074E-17
77.97539 1.2135184E-17
78.11830 1.2142301E-17
78.26122 1.2163022E-17
78.40412 1.2193051E-17
78.54704 1.2226118E-17
78.68995 1.2255334E-17
78.83286 1.2274676E-17
78.97577 1.2280280E-17
79.11868 1.2271265E-17
79.26160 1.2249896E-17
79.40450 1.2221063E-17
79.54742 1.2191186E-17
79.69033 1.2166794E-17
79.83324 1.2153088E-17
79.97615 1.2152813E-17
80.11906 1.2165683E-17
80.26198 1.2188486E-17
80.40488 1.2215837E-17
80.54780 1.2241413E-17
80.69071 1.2259374E-17
80.83363 1.2265676E-17
80.97653 1.2258953E-17
81.11945 1.2240796E-17
81.26236 1.2215354E-17
81.40527 1.2188378E-17
81.54818 1.2165895E-17
81.69109 1.2152849E-17
81.83401 1.2151991E-17
81.97691 1.2163281E-17
82.11983 1.2183920E-17
82.26274 1.2209015E-17
82.40565 1.2232689E-17
82.54856 1.2249423E-17
82.69147 1.2255291E-17
82.83439 1.2248826E-17
82.97730 1.2231334E-17
83.12021 1.2206583E-17
83.26312 1.2179946E-17
83.40604 1.2157206E-17
83.54894 1.2143280E-17
83.69186 1.2141155E-17
83.83477 1.2151261E-17
83.97768 1.2171418E-17
84.12059 1.2197343E-17
84.26350 1.2223621E-17
84.40642 1.2244882E-17
84.54933 1.2256957E-17
84.69224 1.2257744E-17
84.83515 1.2247601E-17
84.97807 1.2229204E-17
85.12097 1.2206904E-17
85.26389 1.2185744E-17
85.40680 1.2170341E-17
85.54971 1.2163902E-17
85.69262 1.2167561E-17
85.83553 1.2180183E-17
85.97845 1.2198656E-17
86.12135 1.2218607E-17
86.26427 1.2235379E-17
86.40718 1.2245036E-17
86.55009 1.2245200E-17
86.69300 1.2235550E-17
86.83591 1.2217859E-17
86.97883 1.2195605E-17
87.12174 1.2173227E-17
87.26465 1.2155193E-17
87.40756 1.2145079E-17
87.55048 1.2144858E-17
87.69338 1.2154523E-17
87.83630 1.2172136E-17
87.97921 1.2194260E-17
88.12212 1.2216686E-17
88.26503 1.2235306E-17
88.40794 1.2246933E-17
88.55086 1.2249906E-17
88.69377 1.2244377E-17
88.83668 1.2232208E-17
88.97959 1.2216524E-17
89.12251 1.2201022E-17
89.26541 1.2189180E-17
89.40833 1.2183537E-17
89.55124 1.2185185E-17
89.69415 1.2193575E-17
89.83706 1.2206678E-17
89.97997 1.2221441E-17
90.12289 1.2234464E-17
90.26580 1.2242730E-17
90.40871 1.2244248E-17
90.55162 1.2238485E-17
90.69453 1.2226474E-17
90.83744 1.2210614E-17
90.98035 1.2194173E-17
91.12327 1.2180622E-17
91.26618 1.2172923E-17
91.40909 1.2172919E-17
91.55200 1.2180956E-17
91.69492 1.2195802E-17
91.83783 1.2214890E-17
91.98074 1.2234819E-17
92.12365 1.2252031E-17
92.26656 1.2263512E-17
92.40947 1.2267385E-17
92.55238 1.2263269E-17
92.69530 1.2252344E-17
92.83821 1.2237092E-17
92.98112 1.2220785E-17
93.12403 1.2206811E-17
93.26694 1.2197983E-17
93.40986 1.2195962E-17
93.55276 1.2200926E-17
93.69568 1.2211544E-17
93.83859 1.2225262E-17
93.98150 1.2238855E-17
94.12441 1.2249120E-17
94.26733 1.2253569E-17
94.41024 1.2250986E-17
94.55315 1.2241708E-17
94.69606 1.2227590E-17
94.83897 1.2211624E-17
94.98188 1.2197322E-17
95.12479 1.2187953E-17
95.26771 1.2185827E-17
95.41062 1.2191750E-17
95.55353 1.2204802E-17
95.69644 1.2222474E-17
95.83936 1.2241156E-17
95.98227 1.2256871E-17
96.12518 1.2266119E-17
96.26809 1.2266634E-17
96.41100 1.2257900E-17
96.55391 1.2241314E-17
96.69682 1.2219920E-17
96.83974 1.2197813E-17
96.98265 1.2179280E-17
97.12556 1.2167900E-17
97.26847 1.2165767E-17
97.41138 1.2173037E-17
97.55430 1.2187869E-17
97.69720 1.2206813E-17
97.84012 1.2225553E-17
97.98303 1.2239844E-17
98.12594 1.2246450E-17
98.26885 1.2243882E-17
98.41177 1.2232746E-17
98.55468 1.2215644E-17
98.69759 1.2196625E-17
98.84050 1.2180302E-17
98.98341 1.2170819E-17
99.12633 1.2170910E-17
99.26923 1.2181232E-17
99.41215 1.2200159E-17
99.55506 1.2224059E-17
99.69797 1.2248034E-17
99.84088 1.2266946E-17
99.98380 1.2276535E-17
100.1267 1.2274349E-17
100.2696 1.2260322E-17
100.4125 1.2236839E-17
100.5554 1.2208260E-17
100.6984 1.2180029E-17
100.8413 1.2157522E-17
100.9842 1.2144909E-17
101.1271 1.2144262E-17
101.2700 1.2155120E-17
101.4129 1.2174595E-17
101.5558 1.2198016E-17
101.6987 1.2219963E-17
101.8416 1.2235456E-17
101.9846 1.2241053E-17
102.1275 1.2235597E-17
102.2704 1.2220453E-17
102.4133 1.2199173E-17
102.5562 1.2176674E-17
102.6991 1.2158107E-17
102.8420 1.2147672E-17
102.9849 1.2147660E-17
103.1279 1.2157927E-17
103.2708 1.2175924E-17
103.4137 1.2197287E-17
103.5566 1.2216841E-17
103.6995 1.2229794E-17
103.8424 1.2232851E-17
103.9853 1.2224991E-17
104.1282 1.2207713E-17
104.2711 1.2184726E-17
104.4141 1.2161121E-17
104.5570 1.2142218E-17
104.6999 1.2132370E-17
104.8428 1.2133961E-17
104.9857 1.2146864E-17
105.1286 1.2168438E-17
105.2715 1.2194109E-17
105.4144 1.2218359E-17
105.5574 1.2235946E-17
105.7003 1.2243035E-17
105.8432 1.2238027E-17
105.9861 1.2221881E-17
106.1290 1.2197868E-17
106.2719 1.2170822E-17
106.4148 1.2146063E-17
106.5577 1.2128215E-17
106.7006 1.2120224E-17
106.8436 1.2122750E-17
106.9865 1.2134089E-17
107.1294 1.2150625E-17
107.2723 1.2167704E-17
107.4152 1.2180726E-17
107.5581 1.2186197E-17
107.7010 1.2182523E-17
107.8439 1.2170346E-17
107.9869 1.2152368E-17
108.1298 1.2132707E-17
108.2727 1.2115925E-17
108.4156 1.2105964E-17
108.5585 1.2105228E-17
108.7014 1.2114018E-17
108.8443 1.2130444E-17
108.9872 1.2150837E-17
109.1301 1.2170564E-17
109.2731 1.2185055E-17
109.4160 1.2190825E-17
109.5589 1.2186242E-17
109.7018 1.2171896E-17
109.8447 1.2150462E-17
109.9876 1.2126117E-17
110.1305 1.2103626E-17
110.2734 1.2087309E-17
110.4164 1.2080119E-17
110.5593 1.2083032E-17
110.7022 1.2094873E-17
110.8451 1.2112620E-17
110.9880 1.2132094E-17
111.1309 1.2148890E-17
111.2738 1.2159324E-17
111.4167 1.2161204E-17
111.5596 1.2154240E-17
111.7026 1.2140031E-17
111.8455 1.2121637E-17
111.9884 1.2102843E-17
112.1313 1.2087289E-17
112.2742 1.2077673E-17
112.4171 1.2075192E-17
112.5600 1.2079338E-17
112.7029 1.2088092E-17
112.8458 1.2098451E-17
112.9888 1.2107147E-17
113.1317 1.2111415E-17
113.2746 1.2109610E-17
113.4175 1.2101557E-17
113.5604 1.2088559E-17
113.7033 1.2073066E-17
113.8462 1.2058112E-17
113.9891 1.2046630E-17
114.1321 1.2040812E-17
114.2750 1.2041655E-17
114.4179 1.2048772E-17
114.5608 1.2060513E-17
114.7037 1.2074349E-17
114.8466 1.2087417E-17
114.9895 1.2097127E-17
115.1324 1.2101671E-17
115.2754 1.2100352E-17
115.4183 1.2093660E-17
115.5612 1.2083113E-17
115.7041 1.2070877E-17
115.8470 1.2059287E-17
115.9899 1.2050358E-17
116.1328 1.2045382E-17
116.2757 1.2044703E-17
116.4186 1.2047701E-17
116.5616 1.2052969E-17
116.7045 1.2058653E-17
116.8474 1.2062868E-17
116.9903 1.2064107E-17
117.1332 1.2061549E-17
117.2761 1.2055234E-17
117.4190 1.2046040E-17
117.5619 1.2035489E-17
117.7048 1.2025431E-17
117.8478 1.2017651E-17
117.9907 1.2013499E-17
118.1336 1.2013612E-17
118.2765 1.2017773E-17
118.4194 1.2024957E-17
118.5623 1.2033532E-17
118.7052 1.2041600E-17
118.8481 1.2047379E-17
118.9911 1.2049579E-17
119.1340 1.2047667E-17
119.2769 1.2041988E-17
119.4198 1.2033692E-17
119.5627 1.2024501E-17
119.7056 1.2016346E-17
119.8485 1.2010958E-17
119.9914 1.2009499E-17
120.1343 1.2012300E-17
120.2773 1.2018785E-17
120.4202 1.2027570E-17
120.5631 1.2036746E-17
120.7060 1.2044270E-17
120.8489 1.2048389E-17
120.9918 1.2048011E-17
121.1347 1.2042928E-17
121.2776 1.2033874E-17
121.4206 1.2022362E-17
121.5635 1.2010380E-17
121.7064 1.1999970E-17
121.8493 1.1992804E-17
121.9922 1.1989833E-17
122.1351 1.1991096E-17
122.2780 1.1995715E-17
122.4209 1.2002096E-17
122.5639 1.2008278E-17
122.7068 1.2012364E-17
122.8497 1.2012950E-17
122.9926 1.2009441E-17
123.1355 1.2002192E-17
123.2784 1.1992457E-17
123.4213 1.1982118E-17
123.5642 1.1973281E-17
123.7071 1.1967807E-17
123.8501 1.1966886E-17
123.9930 1.1970755E-17
124.1359 1.1978613E-17
124.2788 1.1988774E-17
124.4217 1.1999032E-17
124.5646 1.2007139E-17
124.7075 1.2011317E-17
124.8504 1.2010680E-17
124.9933 1.2005454E-17
125.1363 1.1996953E-17
125.2792 1.1987294E-17
125.4221 1.1978922E-17
125.5650 1.1974040E-17
125.7079 1.1974083E-17
125.8508 1.1979354E-17
125.9937 1.1988927E-17
126.1366 1.2000838E-17
126.2795 1.2012529E-17
126.4225 1.2021443E-17
126.5654 1.2025640E-17
126.7083 1.2024275E-17
126.8512 1.2017809E-17
126.9941 1.2007933E-17
127.1370 1.1997159E-17
127.2799 1.1988222E-17
127.4228 1.1983411E-17
127.5658 1.1983990E-17
127.7087 1.1989866E-17
127.8516 1.1999577E-17
127.9945 1.2010624E-17
128.1374 1.2020056E-17
128.2803 1.2025180E-17
128.4232 1.2024226E-17
128.5661 1.2016789E-17
128.7090 1.2003964E-17
128.8520 1.1988108E-17
128.9949 1.1972312E-17
129.1378 1.1959681E-17
129.2807 1.1952620E-17
129.4236 1.1952270E-17
129.5665 1.1958250E-17
129.7094 1.1968754E-17
129.8523 1.1980985E-17
129.9953 1.1991814E-17
130.1382 1.1998516E-17
130.2811 1.1999413E-17
130.4240 1.1994252E-17
130.5669 1.1984268E-17
130.7098 1.1971887E-17
130.8527 1.1960158E-17
130.9956 1.1952058E-17
131.1385 1.1949798E-17
131.2815 1.1954318E-17
131.4244 1.1965077E-17
131.5673 1.1980170E-17
131.7102 1.1996744E-17
131.8531 1.2011634E-17
131.9960 1.2022044E-17
132.1389 1.2026151E-17
132.2818 1.2023481E-17
132.4248 1.2014993E-17
132.5677 1.2002835E-17
132.7106 1.1989865E-17
132.8535 1.1979007E-17
132.9964 1.1972613E-17
133.1393 1.1971955E-17
133.2822 1.1976966E-17
133.4251 1.1986271E-17
133.5681 1.1997517E-17
133.7110 1.2007912E-17
133.8539 1.2014864E-17
133.9968 1.2016568E-17
134.1397 1.2012425E-17
134.2826 1.2003188E-17
134.4255 1.1990792E-17
134.5684 1.1977934E-17
134.7113 1.1967459E-17
134.8542 1.1961712E-17
134.9972 1.1961993E-17
135.1401 1.1968253E-17
135.2830 1.1979077E-17
135.4259 1.1991993E-17
135.5688 1.2004029E-17
135.7117 1.2012387E-17
135.8546 1.2015092E-17
135.9975 1.2011460E-17
136.1405 1.2002273E-17
136.2834 1.1989622E-17
136.4263 1.1976430E-17
136.5692 1.1965795E-17
136.7121 1.1960257E-17
136.8550 1.1961205E-17
136.9979 1.1968518E-17
137.1408 1.1980578E-17
137.2838 1.1994599E-17
137.4267 1.2007256E-17
137.5696 1.2015437E-17
137.7125 1.2016952E-17
137.8554 1.2011060E-17
137.9983 1.1998651E-17
138.1412 1.1982084E-17
138.2841 1.1964682E-17
138.4270 1.1950005E-17
138.5700 1.1941072E-17
138.7129 1.1939701E-17
138.8558 1.1946102E-17
138.9987 1.1958834E-17
139.1416 1.1975115E-17
139.2845 1.1991436E-17
139.4274 1.2004318E-17
139.5703 1.2011064E-17
139.7133 1.2010342E-17
139.8562 1.2002458E-17
139.9991 1.1989269E-17
140.1420 1.1973769E-17
140.2849 1.1959410E-17
140.4278 1.1949350E-17
140.5707 1.1945742E-17
140.7136 1.1949267E-17
140.8566 1.1958982E-17
140.9995 1.1972525E-17
141.1424 1.1986639E-17
141.2853 1.1997892E-17
141.4282 1.2003440E-17
141.5711 1.2001672E-17
141.7140 1.1992574E-17
141.8569 1.1977756E-17
141.9998 1.1960115E-17
142.1427 1.1943197E-17
142.2857 1.1930428E-17
142.4286 1.1924345E-17
142.5715 1.1926029E-17
142.7144 1.1934850E-17
142.8573 1.1948595E-17
143.0002 1.1963952E-17
143.1431 1.1977243E-17
143.2860 1.1985255E-17
143.4290 1.1985957E-17
143.5719 1.1978972E-17
143.7148 1.1965662E-17
143.8577 1.1948822E-17
144.0006 1.1932049E-17
144.1435 1.1918913E-17
144.2864 1.1912142E-17
144.4293 1.1912978E-17
144.5723 1.1920889E-17
144.7152 1.1933680E-17
144.8581 1.1947986E-17
145.0010 1.1960049E-17
145.1439 1.1966584E-17
145.2868 1.1965541E-17
145.4297 1.1956600E-17
145.5726 1.1941260E-17
145.7155 1.1922516E-17
145.8585 1.1904203E-17
146.0014 1.1890127E-17
146.1443 1.1883219E-17
146.2872 1.1884857E-17
146.4301 1.1894564E-17
146.5730 1.1910082E-17
146.7159 1.1927874E-17
146.8588 1.1943877E-17
147.0018 1.1954378E-17
147.1447 1.1956808E-17
147.2876 1.1950271E-17
147.4305 1.1935710E-17
147.5734 1.1915675E-17
147.7163 1.1893747E-17
147.8592 1.1873753E-17
148.0021 1.1858948E-17
148.1451 1.1851338E-17
148.2880 1.1851290E-17
148.4309 1.1857503E-17
148.5738 1.1867347E-17
148.7167 1.1877481E-17
148.8596 1.1884609E-17
149.0025 1.1886221E-17
149.1454 1.1881141E-17
149.2883 1.1869786E-17
149.4312 1.1854066E-17
149.5742 1.1836960E-17
149.7171 1.1821869E-17
149.8600 1.1811866E-17
150.0029 1.1809020E-17
150.1458 1.1813937E-17
150.2887 1.1825610E-17
150.4316 1.1841606E-17
150.5745 1.1858569E-17
150.7175 1.1872908E-17
150.8604 1.1881550E-17
151.0033 1.1882578E-17
151.1462 1.1875631E-17
151.2891 1.1861983E-17
151.4320 1.1844265E-17
151.5749 1.1825905E-17
151.7178 1.1810397E-17
151.8607 1.1800550E-17
152.0037 1.1797888E-17
152.1466 1.1802320E-17
152.2895 1.1812165E-17
152.4324 1.1824529E-17
152.5753 1.1835950E-17
152.7182 1.1843165E-17
152.8611 1.1843871E-17
153.0040 1.1837244E-17
153.1470 1.1824167E-17
153.2899 1.1807054E-17
153.4328 1.1789342E-17
153.5757 1.1774723E-17
153.7186 1.1766321E-17
153.8615 1.1765962E-17
154.0044 1.1773726E-17
154.1473 1.1787882E-17
154.2903 1.1805221E-17
154.4332 1.1821734E-17
154.5761 1.1833480E-17
154.7190 1.1837453E-17
154.8619 1.1832266E-17
155.0048 1.1818479E-17
155.1477 1.1798506E-17
155.2906 1.1776100E-17
155.4335 1.1755553E-17
155.5765 1.1740753E-17
155.7194 1.1734335E-17
155.8623 1.1737095E-17
156.0052 1.1747822E-17
156.1481 1.1763565E-17
156.2910 1.1780294E-17
156.4339 1.1793807E-17
156.5768 1.1800672E-17
156.7197 1.1798995E-17
156.8627 1.1788852E-17
157.0056 1.1772273E-17
157.1485 1.1752787E-17
157.2914 1.1734629E-17
157.4343 1.1721790E-17
157.5772 1.1717109E-17
157.7201 1.1721636E-17
157.8630 1.1734387E-17
158.0060 1.1752550E-17
158.1489 1.1772106E-17
158.2918 1.1788718E-17
158.4347 1.1798688E-17
158.5776 1.1799773E-17
158.7205 1.1791669E-17
158.8634 1.1776068E-17
159.0063 1.1756268E-17
159.1492 1.1736422E-17
159.2922 1.1720611E-17
159.4351 1.1711933E-17
159.5780 1.1711824E-17
159.7209 1.1719751E-17
159.8638 1.1733352E-17
160.0067 1.1748995E-17
160.1496 1.1762610E-17
160.2925 1.1770620E-17
160.4355 1.1770766E-17
160.5784 1.1762619E-17
160.7213 1.1747696E-17
160.8642 1.1729128E-17
161.0071 1.1710975E-17
161.1500 1.1697318E-17
161.2929 1.1691364E-17
161.4358 1.1694718E-17
161.5788 1.1707025E-17
161.7217 1.1726018E-17
161.8646 1.1747993E-17
162.0075 1.1768586E-17
162.1504 1.1783690E-17
162.2933 1.1790302E-17
162.4362 1.1787145E-17
162.5791 1.1774905E-17
162.7220 1.1756059E-17
162.8650 1.1734326E-17
163.0079 1.1713876E-17
163.1508 1.1698451E-17
163.2937 1.1690609E-17
163.4366 1.1691227E-17
163.5795 1.1699379E-17
163.7224 1.1712597E-17
163.8653 1.1727463E-17
164.0083 1.1740370E-17
164.1512 1.1748324E-17
164.2941 1.1749571E-17
164.4370 1.1743952E-17
164.5799 1.1732889E-17
164.7228 1.1719024E-17
164.8657 1.1705599E-17
165.0086 1.1695701E-17
165.1515 1.1691566E-17
165.2944 1.1694072E-17
165.4374 1.1702553E-17
165.5803 1.1714949E-17
165.7232 1.1728289E-17
165.8661 1.1739359E-17
166.0090 1.1745443E-17
166.1519 1.1744937E-17
166.2948 1.1737728E-17
166.4377 1.1725224E-17
166.5807 1.1710057E-17
166.7236 1.1695496E-17
166.8665 1.1684729E-17
167.0094 1.1680141E-17
167.1523 1.1682785E-17
167.2952 1.1692132E-17
167.4381 1.1706169E-17
167.5810 1.1721832E-17
167.7240 1.1735657E-17
167.8669 1.1744530E-17
168.0098 1.1746353E-17
168.1527 1.1740496E-17
168.2956 1.1727935E-17
168.4385 1.1711039E-17
168.5814 1.1693069E-17
168.7243 1.1677496E-17
168.8672 1.1667272E-17
169.0102 1.1664221E-17
169.1531 1.1668680E-17
169.2960 1.1679448E-17
169.4389 1.1694057E-17
169.5818 1.1709302E-17
169.7247 1.1721919E-17
169.8676 1.1729252E-17
170.0105 1.1729793E-17
170.1535 1.1723465E-17
170.2964 1.1711604E-17
170.4393 1.1696661E-17
170.5822 1.1681653E-17
170.7251 1.1669533E-17
170.8680 1.1662564E-17
171.0109 1.1661853E-17
171.1538 1.1667137E-17
171.2968 1.1676853E-17
171.4397 1.1688489E-17
171.5826 1.1699124E-17
171.7255 1.1706061E-17
171.8684 1.1707403E-17
172.0113 1.1702467E-17
172.1542 1.1691928E-17
172.2971 1.1677683E-17
172.4400 1.1662453E-17
172.5829 1.1649200E-17
172.7259 1.1640502E-17
172.8688 1.1637997E-17
173.0117 1.1642034E-17
173.1546 1.1651593E-17
173.2975 1.1664506E-17
173.4404 1.1677914E-17
173.5833 1.1688878E-17
173.7262 1.1695012E-17
173.8692 1.1694987E-17
174.0121 1.1688816E-17
174.1550 1.1677839E-17
174.2979 1.1664432E-17
174.4408 1.1651482E-17
174.5837 1.1641769E-17
174.7266 1.1637355E-17
174.8695 1.1639149E-17
175.0125 1.1646710E-17
175.1554 1.1658352E-17
175.2983 1.1671504E-17
175.4412 1.1683270E-17
175.5841 1.1691041E-17
175.7270 1.1693046E-17
175.8699 1.1688716E-17
176.0128 1.1678786E-17
176.1557 1.1665118E-17
176.2987 1.1650286E-17
176.4416 1.1637019E-17
176.5845 1.1627614E-17
176.7274 1.1623456E-17
176.8703 1.1624736E-17
177.0132 1.1630439E-17
177.1561 1.1638575E-17
177.2990 1.1646638E-17
177.4420 1.1652158E-17
177.5849 1.1653250E-17
177.7278 1.1649032E-17
177.8707 1.1639820E-17
178.0136 1.1627076E-17
178.1565 1.1613085E-17
178.2994 1.1600468E-17
178.4423 1.1591605E-17
178.5853 1.1588098E-17