-7.200000 9.8275864E-18
-7.057088 9.8448770E-18
-6.914176 9.8705287E-18
-6.771265 9.8927799E-18
-6.628353 9.9037971E-18
-6.485441 9.9038972E-18
-6.342530 9.9008498E-18
-6.199618 9.9047897E-18
-6.056706 9.9218238E-18
-5.913795 9.9501515E-18
-5.770883 9.9809945E-18
-5.627971 1.0003766E-17
-5.485059 1.0012369E-17
-5.342147 1.0008858E-17
-5.199236 1.0002254E-17
-5.056324 1.0003218E-17
-4.913413 1.0017761E-17
-4.770501 1.0043751E-17
-4.627589 1.0072300E-17
-4.484677 1.0093179E-17
-4.341765 1.0100990E-17
-4.198854 1.0098376E-17
-4.055942 1.0094347E-17
-3.913030 1.0098768E-17
-3.770118 1.0116337E-17
-3.627207 1.0143742E-17
-3.484295 1.0171681E-17
-3.341383 1.0190531E-17
-3.198472 1.0196200E-17
-3.055560 1.0192619E-17
-2.912648 1.0189332E-17
-2.769737 1.0195681E-17
-2.626825 1.0215090E-17
-2.483913 1.0242951E-17
-2.341001 1.0269393E-17
-2.198090 1.0285251E-17
-2.055178 1.0287620E-17
-1.912266 1.0281607E-17
-1.769354 1.0277210E-17
-1.626443 1.0283233E-17
-1.483531 1.0301933E-17
-1.340619 1.0327650E-17
-1.197708 1.0350288E-17
-1.054796 1.0361503E-17
-0.9118841 1.0359840E-17
-0.7689723 1.0351663E-17
-0.6260606 1.0347291E-17
-0.4831489 1.0354668E-17
-0.3402372 1.0374437E-17
-0.1973254 1.0399431E-17
-5.4413714E-02 1.0418921E-17
8.8498011E-02 1.0425086E-17
0.2314097 1.0417767E-17
0.3743215 1.0404595E-17
0.5172332 1.0396407E-17
0.6601449 1.0400692E-17
0.8030567 1.0417062E-17
0.9459684 1.0437511E-17
1.088880 1.0451332E-17
1.231792 1.0451713E-17
1.374704 1.0440009E-17
1.517615 1.0425037E-17
1.660527 1.0417798E-17
1.803439 1.0424766E-17
1.946350 1.0443856E-17
2.089262 1.0465510E-17
2.232174 1.0478320E-17
2.375086 1.0475821E-17
2.517997 1.0460351E-17
2.660909 1.0441657E-17
2.803821 1.0431052E-17
2.946733 1.0434659E-17
3.089644 1.0449821E-17
3.232556 1.0466846E-17
3.375468 1.0475032E-17
3.518379 1.0469329E-17
3.661291 1.0453547E-17
3.804203 1.0438163E-17
3.947115 1.0434000E-17
4.090026 1.0445597E-17
4.232938 1.0468287E-17
4.375850 1.0490786E-17
4.518762 1.0501771E-17
4.661673 1.0496499E-17
4.804585 1.0479505E-17
4.947497 1.0461756E-17
5.090408 1.0454005E-17
5.233320 1.0460349E-17
5.376232 1.0475899E-17
5.519144 1.0489933E-17
5.662055 1.0492609E-17
5.804967 1.0481126E-17
5.947879 1.0461591E-17
6.090790 1.0445425E-17
6.233702 1.0442504E-17
6.376614 1.0455192E-17
6.519526 1.0476884E-17
6.662437 1.0495981E-17
6.805349 1.0502852E-17
6.948261 1.0495603E-17
7.091173 1.0481117E-17
7.234084 1.0470780E-17
7.376996 1.0473477E-17
7.519908 1.0490135E-17
7.662819 1.0513139E-17
7.805731 1.0530951E-17
7.948643 1.0535125E-17
8.091555 1.0525422E-17
8.234467 1.0509901E-17
8.377378 1.0499945E-17
8.520289 1.0503257E-17
8.663201 1.0519120E-17
8.806113 1.0538831E-17
8.949025 1.0551062E-17
9.091937 1.0548871E-17
9.234848 1.0534057E-17
9.377760 1.0516199E-17
9.520672 1.0506908E-17
9.663584 1.0512802E-17
9.806496 1.0531497E-17
9.949407 1.0553053E-17
10.09232 1.0566031E-17
10.23523 1.0564470E-17
10.37814 1.0551498E-17
10.52105 1.0537368E-17
10.66397 1.0533120E-17
10.80688 1.0543697E-17
10.94979 1.0564793E-17
11.09270 1.0585362E-17
11.23561 1.0594321E-17
11.37852 1.0587350E-17
11.52144 1.0569649E-17
11.66435 1.0552896E-17
11.80726 1.0548247E-17
11.95017 1.0559585E-17
12.09308 1.0581169E-17
12.23599 1.0601109E-17
12.37891 1.0608606E-17
12.52182 1.0600555E-17
12.66473 1.0583475E-17
12.80764 1.0569572E-17
12.95055 1.0569300E-17
13.09346 1.0584946E-17
13.23638 1.0609133E-17
13.37929 1.0629225E-17
13.52220 1.0634957E-17
13.66511 1.0624672E-17
13.80802 1.0606383E-17
13.95094 1.0592965E-17
14.09385 1.0594385E-17
14.23676 1.0611675E-17
14.37967 1.0636305E-17
14.52258 1.0655350E-17
14.66549 1.0659332E-17
14.80841 1.0647967E-17
14.95132 1.0630338E-17
15.09423 1.0619367E-17
15.23714 1.0623945E-17
15.38005 1.0643489E-17
15.52296 1.0668236E-17
15.66588 1.0685113E-17
15.80879 1.0685613E-17
15.95170 1.0670914E-17
16.09461 1.0651148E-17
16.23752 1.0639253E-17
16.38043 1.0643173E-17
16.52335 1.0661128E-17
16.66626 1.0682816E-17
16.80917 1.0695792E-17
16.95208 1.0693128E-17
17.09499 1.0677673E-17
17.23791 1.0660329E-17
17.38082 1.0653389E-17
17.52373 1.0663019E-17
17.66664 1.0685459E-17
17.80955 1.0709266E-17
17.95246 1.0722229E-17
18.09538 1.0718730E-17
18.23829 1.0703088E-17
18.38120 1.0686846E-17
18.52411 1.0681678E-17
18.66702 1.0692262E-17
18.80993 1.0713465E-17
18.95285 1.0733551E-17
19.09576 1.0741425E-17
19.23867 1.0733477E-17
19.38158 1.0715819E-17
19.52449 1.0700547E-17
19.66740 1.0698322E-17
19.81032 1.0711823E-17
19.95323 1.0734083E-17
20.09614 1.0752756E-17
20.23905 1.0757711E-17
20.38196 1.0747283E-17
20.52488 1.0729365E-17
20.66779 1.0716629E-17
20.81070 1.0718799E-17
20.95361 1.0736682E-17
21.09652 1.0761627E-17
21.23943 1.0780762E-17
21.38235 1.0784804E-17
21.52526 1.0773686E-17
21.66817 1.0756545E-17
21.81108 1.0746062E-17
21.95399 1.0750615E-17
22.09690 1.0769062E-17
22.23981 1.0791361E-17
22.38273 1.0804697E-17
22.52564 1.0801375E-17
22.66855 1.0783674E-17
22.81146 1.0762641E-17
22.95437 1.0751524E-17
23.09729 1.0757813E-17
23.24020 1.0778711E-17
23.38311 1.0802823E-17
23.52602 1.0817043E-17
23.66893 1.0814467E-17
23.81184 1.0798535E-17
23.95476 1.0780858E-17
24.09767 1.0774068E-17
24.24058 1.0784031E-17
24.38349 1.0806187E-17
24.52640 1.0828257E-17
24.66932 1.0837696E-17
24.81223 1.0829371E-17
24.95514 1.0808780E-17
25.09805 1.0788851E-17
25.24096 1.0782222E-17
25.38387 1.0793684E-17
25.52678 1.0817351E-17
25.66970 1.0840279E-17
25.81261 1.0850312E-17
25.95552 1.0843414E-17
26.09843 1.0826034E-17
26.24134 1.0811082E-17
26.38426 1.0809994E-17
26.52717 1.0825716E-17
26.67008 1.0850868E-17
26.81299 1.0872204E-17
26.95590 1.0878643E-17
27.09881 1.0867977E-17
27.24173 1.0848179E-17
27.38464 1.0832546E-17
27.52755 1.0831613E-17
27.67046 1.0846797E-17
27.81337 1.0869591E-17
27.95629 1.0886806E-17
28.09920 1.0888633E-17
28.24211 1.0874613E-17
28.38502 1.0853895E-17
28.52793 1.0839656E-17
28.67084 1.0841088E-17
28.81376 1.0857872E-17
28.95667 1.0880475E-17
29.09958 1.0896067E-17
29.24249 1.0896414E-17
29.38540 1.0882911E-17
29.52831 1.0865687E-17
29.67122 1.0857336E-17
29.81414 1.0865133E-17
29.95705 1.0886506E-17
30.09996 1.0910544E-17
30.24287 1.0924608E-17
30.38578 1.0922019E-17
30.52870 1.0906101E-17
30.67161 1.0888128E-17
30.81452 1.0880429E-17
30.95743 1.0888872E-17
31.10034 1.0909331E-17
31.24325 1.0930290E-17
31.38617 1.0939987E-17
31.52908 1.0933701E-17
31.67199 1.0916708E-17
31.81490 1.0901082E-17
31.95781 1.0898285E-17
32.10072 1.0912067E-17
32.24364 1.0936063E-17
32.38655 1.0957555E-17
32.52946 1.0965144E-17
32.67237 1.0955657E-17
32.81528 1.0936065E-17
32.95819 1.0919229E-17
33.10111 1.0916074E-17
33.24402 1.0928936E-17
33.38693 1.0950174E-17
33.52984 1.0966894E-17
33.67275 1.0968907E-17
33.81567 1.0955072E-17
33.95858 1.0934122E-17
34.10149 1.0919462E-17
34.24440 1.0921047E-17
34.38731 1.0939323E-17
34.53022 1.0964883E-17
34.67313 1.0984092E-17
34.81605 1.0987280E-17
34.95896 1.0974515E-17
35.10187 1.0955484E-17
35.24478 1.0943528E-17
35.38770 1.0947495E-17
35.53061 1.0966321E-17
35.67352 1.0989684E-17
35.81643 1.1004299E-17
35.95934 1.1002033E-17
36.10225 1.0984920E-17
36.24516 1.0964004E-17
36.38808 1.0952720E-17
36.53099 1.0958817E-17
36.67390 1.0979725E-17
36.81681 1.1004141E-17
36.95972 1.1018879E-17
37.10263 1.1016806E-17
37.24555 1.1001059E-17
37.38846 1.0983010E-17
37.53137 1.0975247E-17
37.67428 1.0983866E-17
37.81719 1.1004770E-17
37.96011 1.1026191E-17
38.10302 1.1035895E-17
38.24593 1.1028666E-17
38.38884 1.1009502E-17
38.53175 1.0990606E-17
38.67466 1.0984016E-17
38.81758 1.0994357E-17
38.96049 1.1016136E-17
39.10340 1.1037173E-17
39.24631 1.1046062E-17
39.38922 1.1039099E-17
39.53214 1.1022450E-17
39.67505 1.1008292E-17
39.81796 1.1007287E-17
39.96087 1.1022034E-17
40.10378 1.1045468E-17
40.24669 1.1065183E-17
40.38961 1.1071006E-17
40.53252 1.1061182E-17
40.67543 1.1043391E-17
40.81834 1.1029986E-17
40.96125 1.1030396E-17
41.10416 1.1045328E-17
41.24707 1.1066341E-17
41.38999 1.1081033E-17
41.53290 1.1080670E-17
41.67581 1.1065580E-17
41.81872 1.1045019E-17
41.96163 1.1031582E-17
42.10455 1.1033578E-17
42.24746 1.1050036E-17
42.39037 1.1071374E-17
42.53328 1.1085328E-17
42.67619 1.1084487E-17
42.81910 1.1070836E-17
42.96202 1.1054505E-17
43.10493 1.1047480E-17
43.24784 1.1056149E-17
43.39075 1.1077230E-17
43.53366 1.1099612E-17
43.67657 1.1111021E-17
43.81948 1.1105451E-17
43.96240 1.1086848E-17
44.10531 1.1066780E-17
44.24822 1.1057514E-17
44.39113 1.1064673E-17
44.53405 1.1083958E-17
44.67696 1.1103898E-17
44.81987 1.1112953E-17
44.96278 1.1106635E-17
45.10569 1.1090286E-17
45.24860 1.1075830E-17
45.39151 1.1074456E-17
45.53443 1.1089690E-17
45.67734 1.1115092E-17
45.82025 1.1137992E-17
45.96316 1.1147021E-17
46.10608 1.1138894E-17
46.24899 1.1120323E-17
46.39190 1.1103931E-17
46.53481 1.1100636E-17
46.67772 1.1113114E-17
46.82063 1.1134310E-17
46.96354 1.1151834E-17
47.10646 1.1155589E-17
47.24937 1.1143946E-17
47.39228 1.1124750E-17
47.53519 1.1110538E-17
47.67810 1.1110906E-17
47.82101 1.1126665E-17
47.96392 1.1149323E-17
48.10684 1.1166214E-17
48.24975 1.1168132E-17
48.39266 1.1154860E-17
48.53557 1.1135241E-17
48.67849 1.1121794E-17
48.82140 1.1123150E-17
48.96431 1.1138910E-17
49.10722 1.1160021E-17
49.25013 1.1174387E-17
49.39304 1.1174279E-17
49.53595 1.1161018E-17
49.67887 1.1144107E-17
49.82178 1.1135364E-17
49.96469 1.1141672E-17
50.10760 1.1160767E-17
50.25051 1.1182613E-17
50.39342 1.1195515E-17
50.53634 1.1193206E-17
50.67925 1.1178611E-17
50.82216 1.1161989E-17
50.96507 1.1154632E-17
51.10798 1.1161963E-17
51.25090 1.1180262E-17
51.39381 1.1198997E-17
51.53672 1.1207305E-17
51.67963 1.1200652E-17
51.82254 1.1183617E-17
51.96545 1.1167086E-17
52.10837 1.1161612E-17
52.25128 1.1171000E-17
52.39419 1.1190028E-17
52.53710 1.1207714E-17
52.68001 1.1214093E-17
52.82293 1.1206357E-17
52.96584 1.1190610E-17
53.10875 1.1178135E-17
53.25166 1.1178473E-17
53.39457 1.1193534E-17
53.53748 1.1216337E-17
53.68040 1.1235175E-17
53.82331 1.1240661E-17
53.96622 1.1231362E-17
54.10913 1.1214602E-17
54.25204 1.1201943E-17
54.39495 1.1202090E-17
54.53786 1.1215578E-17
54.68078 1.1234449E-17
54.82369 1.1247153E-17
54.96660 1.1245661E-17
55.10951 1.1230472E-17
55.25242 1.1210436E-17
55.39534 1.1197498E-17
55.53825 1.1199532E-17
55.68116 1.1215613E-17
55.82407 1.1236606E-17
55.96698 1.1250709E-17
56.10989 1.1250586E-17
56.25281 1.1237775E-17
56.39572 1.1221690E-17
56.53863 1.1213845E-17
56.68154 1.1220804E-17
56.82445 1.1240148E-17
56.96737 1.1261890E-17
57.11028 1.1274501E-17
57.25319 1.1271864E-17
57.39610 1.1256965E-17
57.53901 1.1240082E-17
57.68192 1.1232574E-17
57.82484 1.1240056E-17
57.96775 1.1259051E-17
58.11066 1.1279169E-17
58.25357 1.1289427E-17
58.39648 1.1284897E-17
58.53939 1.1269636E-17
58.68230 1.1254164E-17
58.82522 1.1249033E-17
58.96813 1.1258412E-17
59.11104 1.1277583E-17
59.25395 1.1295830E-17
59.39687 1.1302962E-17
59.53978 1.1295485E-17
59.68269 1.1278692E-17
59.82560 1.1263421E-17
59.96851 1.1259479E-17
60.11142 1.1269738E-17
60.25433 1.1288467E-17
60.39725 1.1304886E-17
60.54016 1.1309752E-17
60.68307 1.1300948E-17
60.82598 1.1284703E-17
60.96889 1.1271724E-17
61.11180 1.1270627E-17
61.25471 1.1282700E-17
61.39763 1.1301155E-17
61.54054 1.1315339E-17
61.68345 1.1317274E-17
61.82636 1.1306552E-17
61.96928 1.1290589E-17
62.11219 1.1280107E-17
62.25510 1.1282598E-17
62.39801 1.1297775E-17
62.54092 1.1317763E-17
62.68383 1.1331911E-17
62.82674 1.1333266E-17
62.96966 1.1322763E-17
63.11257 1.1308592E-17
63.25548 1.1301124E-17
63.39839 1.1306532E-17
63.54131 1.1322989E-17
63.68422 1.1341777E-17
63.82713 1.1352623E-17
63.97004 1.1349995E-17
64.11295 1.1336516E-17
64.25586 1.1321397E-17
64.39877 1.1314836E-17
64.54169 1.1321801E-17
64.68460 1.1338986E-17
64.82751 1.1356787E-17
64.97042 1.1365127E-17
65.11333 1.1359577E-17
65.25625 1.1344044E-17
65.39915 1.1328414E-17
65.54207 1.1322549E-17
65.68498 1.1330320E-17
65.82789 1.1347279E-17
65.97080 1.1363404E-17
66.11372 1.1369234E-17
66.25663 1.1361671E-17
66.39954 1.1345917E-17
66.54245 1.1332359E-17
66.68536 1.1330282E-17
66.82828 1.1342234E-17
66.97118 1.1362444E-17
67.11410 1.1380260E-17
67.25701 1.1386546E-17
67.39992 1.1379145E-17
67.54283 1.1364113E-17
67.68575 1.1352013E-17
67.82866 1.1351485E-17
67.97157 1.1364015E-17
68.11448 1.1383059E-17
68.25739 1.1398030E-17
68.40031 1.1400727E-17
68.54321 1.1390300E-17
68.68613 1.1373761E-17
68.82904 1.1361729E-17
68.97195 1.1362021E-17
69.11486 1.1374952E-17
69.25777 1.1393191E-17
69.40069 1.1406246E-17
69.54359 1.1406831E-17
69.68651 1.1395270E-17
69.82942 1.1379276E-17
69.97233 1.1369267E-17
70.11524 1.1372080E-17
70.25816 1.1386876E-17
70.40107 1.1405721E-17
70.54398 1.1418435E-17
70.68689 1.1418751E-17
70.82980 1.1408050E-17
70.97272 1.1394405E-17
71.11562 1.1387575E-17
71.25854 1.1392996E-17
71.40145 1.1408446E-17
71.54436 1.1425400E-17
71.68727 1.1434227E-17
71.83018 1.1430054E-17
71.97310 1.1415738E-17
72.11600 1.1400123E-17
72.25892 1.1392706E-17
72.40183 1.1397913E-17
72.54475 1.1412509E-17
72.68765 1.1427670E-17
72.83057 1.1434430E-17
72.97348 1.1429185E-17
73.11639 1.1415863E-17
73.25930 1.1403484E-17
73.40221 1.1400595E-17
73.54513 1.1410001E-17
73.68803 1.1427010E-17
73.83095 1.1442267E-17
73.97386 1.1447441E-17
74.11678 1.1440307E-17
74.25968 1.1426097E-17
74.40260 1.1414324E-17
74.54551 1.1412988E-17
74.68842 1.1423713E-17
74.83133 1.1440767E-17
74.97424 1.1454574E-17
75.11716 1.1457552E-17
75.26006 1.1448751E-17
75.40298 1.1434442E-17
75.54589 1.1424297E-17
75.68880 1.1425498E-17
75.83171 1.1438339E-17
75.97462 1.1456030E-17
76.11754 1.1468808E-17
76.26044 1.1469867E-17
76.40336 1.1459508E-17
76.54627 1.1444975E-17
76.68919 1.1436076E-17
76.83209 1.1439238E-17
76.97501 1.1453604E-17
77.11792 1.1471536E-17
77.26083 1.1483234E-17
77.40374 1.1482656E-17
77.54665 1.1471166E-17
77.68957 1.1456700E-17
77.83247 1.1448953E-17
77.97539 1.1453507E-17
78.11830 1.1468455E-17
78.26122 1.1485563E-17
78.40412 1.1495251E-17
78.54704 1.1492392E-17
78.68995 1.1479394E-17
78.83286 1.1464737E-17
78.97577 1.1457834E-17
79.11868 1.1463351E-17
79.26160 1.1478416E-17
79.40450 1.1494381E-17
79.54742 1.1502078E-17
79.69033 1.1497364E-17
79.83324 1.1483608E-17
79.97615 1.1469632E-17
80.11906 1.1464371E-17
80.26198 1.1471496E-17
80.40488 1.1487241E-17
80.54780 1.1502731E-17
80.69071 1.1509380E-17
80.83363 1.1504065E-17
80.97653 1.1490956E-17
81.11945 1.1478915E-17
81.26236 1.1476061E-17
81.40527 1.1484831E-17
81.54818 1.1500509E-17
81.69109 1.1514113E-17
81.83401 1.1517868E-17
81.97691 1.1509908E-17
82.11983 1.1495395E-17
82.26274 1.1483365E-17
82.40565 1.1481246E-17
82.54856 1.1490400E-17
82.69147 1.1505364E-17
82.83439 1.1517254E-17
82.97730 1.1519212E-17
83.12021 1.1510594E-17
83.26312 1.1497338E-17
83.40604 1.1488318E-17
83.54894 1.1489906E-17
83.69186 1.1502084E-17
83.83477 1.1518449E-17
83.97768 1.1530119E-17
84.12059 1.1531136E-17
84.26350 1.1522082E-17
84.40642 1.1509688E-17
84.54933 1.1502706E-17
84.69224 1.1506536E-17
84.83515 1.1519917E-17
84.97807 1.1535678E-17
85.12097 1.1545101E-17
85.26389 1.1543240E-17
85.40680 1.1531945E-17
85.54971 1.1518758E-17
85.69262 1.1512337E-17
85.83553 1.1517205E-17
85.97845 1.1531000E-17
86.12135 1.1545919E-17
86.26427 1.1553469E-17
86.40718 1.1549642E-17
86.55009 1.1537364E-17
86.69300 1.1524723E-17
86.83591 1.1520053E-17
86.97883 1.1526850E-17
87.12174 1.1541625E-17
87.26465 1.1555982E-17
87.40756 1.1561704E-17
87.55048 1.1555731E-17
87.69338 1.1542042E-17
87.83630 1.1529270E-17
87.97921 1.1525522E-17
88.12212 1.1533496E-17
88.26503 1.1548882E-17
88.40794 1.1562988E-17
88.55086 1.1568015E-17
88.69377 1.1561773E-17
88.83668 1.1548999E-17
88.97959 1.1538471E-17
89.12251 1.1537681E-17
89.26541 1.1548277E-17
89.40833 1.1565043E-17
89.55124 1.1579020E-17
89.69415 1.1582881E-17
89.83706 1.1575321E-17
89.97997 1.1561801E-17
90.12289 1.1551218E-17
90.26580 1.1550533E-17
90.40871 1.1560598E-17
90.55162 1.1575693E-17
90.69453 1.1587037E-17
90.83744 1.1588136E-17
90.98035 1.1578717E-17
91.12327 1.1564877E-17
91.26618 1.1555376E-17
91.40909 1.1556334E-17
91.55200 1.1567548E-17
91.69492 1.1582639E-17
91.83783 1.1592936E-17
91.98074 1.1592720E-17
92.12365 1.1582648E-17
92.26656 1.1569301E-17
92.40947 1.1561158E-17
92.55238 1.1563441E-17
92.69530 1.1574988E-17
92.83821 1.1589018E-17
92.98112 1.1597308E-17
93.12403 1.1595233E-17
93.26694 1.1584593E-17
93.40986 1.1572508E-17
93.55276 1.1567088E-17
93.69568 1.1572494E-17
93.83859 1.1586422E-17
93.98150 1.1601510E-17
94.12441 1.1609816E-17
94.26733 1.1607623E-17
94.41024 1.1597659E-17
94.55315 1.1587373E-17
94.69606 1.1584344E-17
94.83897 1.1591624E-17
94.98188 1.1605852E-17
95.12479 1.1619305E-17
95.26771 1.1624607E-17
95.41062 1.1619246E-17
95.55353 1.1607137E-17
95.69644 1.1596253E-17
95.83936 1.1593784E-17
95.98227 1.1601765E-17
96.12518 1.1615826E-17
96.26809 1.1627852E-17
96.41100 1.1630917E-17
96.55391 1.1623511E-17
96.69682 1.1610474E-17
96.83974 1.1600077E-17
96.98265 1.1598992E-17
97.12556 1.1608235E-17
97.26847 1.1622539E-17
97.41138 1.1633539E-17
97.55430 1.1634857E-17
97.69720 1.1625985E-17
97.84012 1.1612612E-17
97.98303 1.1603188E-17
98.12594 1.1603794E-17
98.26885 1.1614437E-17
98.41177 1.1629024E-17
98.55468 1.1639023E-17
98.69759 1.1638638E-17
98.84050 1.1628319E-17
98.98341 1.1614532E-17
99.12633 1.1605876E-17
99.26923 1.1607922E-17
99.41215 1.1619878E-17
99.55506 1.1635083E-17
99.69797 1.1645049E-17
99.84088 1.1644583E-17
99.98380 1.1634896E-17
100.1267 1.1622836E-17
100.2696 1.1616700E-17
100.4125 1.1621175E-17
100.5554 1.1634472E-17
100.6984 1.1649379E-17
100.8413 1.1657602E-17
100.9842 1.1654755E-17
101.1271 1.1642996E-17
101.2700 1.1629723E-17
101.4129 1.1623116E-17
101.5558 1.1627249E-17
101.6987 1.1639696E-17
101.8416 1.1653083E-17
101.9846 1.1659608E-17
102.1275 1.1655781E-17
102.2704 1.1644523E-17
102.4133 1.1633344E-17
102.5562 1.1629756E-17
102.6991 1.1636683E-17
102.8420 1.1650691E-17
102.9849 1.1664063E-17
103.1279 1.1669490E-17
103.2708 1.1664484E-17
103.4137 1.1652868E-17
103.5566 1.1642430E-17
103.6995 1.1640194E-17
103.8424 1.1648178E-17
103.9853 1.1662207E-17
104.1282 1.1674495E-17
104.2711 1.1678397E-17
104.4141 1.1672434E-17
104.5570 1.1661139E-17
104.6999 1.1652233E-17
104.8428 1.1651855E-17
104.9857 1.1660779E-17
105.1286 1.1673925E-17
105.2715 1.1683459E-17
105.4144 1.1683602E-17
105.5574 1.1674201E-17
105.7003 1.1660878E-17
105.8432 1.1651664E-17
105.9861 1.1652162E-17
106.1290 1.1662171E-17
106.2719 1.1675840E-17
106.4148 1.1685250E-17
106.5577 1.1685236E-17
106.7006 1.1676525E-17
106.8436 1.1665270E-17
106.9865 1.1659261E-17
107.1294 1.1663135E-17
107.2723 1.1675492E-17
107.4152 1.1689711E-17
107.5581 1.1697950E-17
107.7010 1.1695934E-17
107.8439 1.1685590E-17
107.9869 1.1673923E-17
108.1298 1.1668802E-17
108.2727 1.1674194E-17
108.4156 1.1687738E-17
108.5585 1.1702154E-17
108.7014 1.1709619E-17
108.8443 1.1706485E-17
108.9872 1.1695474E-17
109.1301 1.1684013E-17
109.2731 1.1679725E-17
109.4160 1.1685796E-17
109.5589 1.1699035E-17
109.7018 1.1711800E-17
109.8447 1.1716633E-17
109.9876 1.1710793E-17
110.1305 1.1697944E-17
110.2734 1.1685969E-17
110.4164 1.1682235E-17
110.5593 1.1689158E-17
110.7022 1.1702759E-17
110.8451 1.1715075E-17
110.9880 1.1718971E-17
111.1309 1.1712437E-17
111.2738 1.1699789E-17
111.4167 1.1689051E-17
111.5596 1.1687117E-17
111.7026 1.1695605E-17
111.8455 1.1709933E-17
111.9884 1.1722128E-17
112.1313 1.1725680E-17
112.2742 1.1719477E-17
112.4171 1.1708453E-17
112.5600 1.1700562E-17
112.7029 1.1701923E-17
112.8458 1.1713087E-17
112.9888 1.1728671E-17
113.1317 1.1740586E-17
113.2746 1.1742888E-17
113.4175 1.1735298E-17
113.5604 1.1723312E-17
113.7033 1.1714805E-17
113.8462 1.1715257E-17
113.9891 1.1724470E-17
114.1321 1.1736766E-17
114.2750 1.1744541E-17
114.4179 1.1742963E-17
114.5608 1.1732967E-17
114.7037 1.1720715E-17
114.8466 1.1713858E-17
114.9895 1.1716884E-17
115.1324 1.1728386E-17
115.2754 1.1741921E-17
115.4183 1.1749914E-17
115.5612 1.1748249E-17
115.7041 1.1738743E-17
115.8470 1.1727996E-17
115.9899 1.1723340E-17
116.1328 1.1728361E-17
116.2757 1.1740711E-17
116.4186 1.1753562E-17
116.5616 1.1759794E-17
116.7045 1.1756366E-17
116.8474 1.1746190E-17
116.9903 1.1736355E-17
117.1332 1.1733792E-17
117.2761 1.1741000E-17
117.4190 1.1754476E-17
117.5619 1.1766791E-17
117.7048 1.1771089E-17
117.8478 1.1765243E-17
117.9907 1.1753181E-17
118.1336 1.1742522E-17
118.2765 1.1739978E-17
118.4194 1.1747296E-17
118.5623 1.1760220E-17
118.7052 1.1771106E-17
118.8481 1.1773588E-17
118.9911 1.1766493E-17
119.1340 1.1754576E-17
119.2769 1.1745656E-17
119.4198 1.1745847E-17
119.5627 1.1755807E-17
119.7056 1.1770277E-17
119.8485 1.1781210E-17
119.9914 1.1782615E-17
120.1343 1.1774175E-17
120.2773 1.1761464E-17
120.4202 1.1752600E-17
120.5631 1.1753382E-17
120.7060 1.1763814E-17
120.8489 1.1778141E-17
120.9918 1.1788363E-17
121.1347 1.1789088E-17
121.2776 1.1780791E-17
121.4206 1.1769516E-17
121.5635 1.1763179E-17
121.7064 1.1766742E-17
121.8493 1.1779164E-17
121.9922 1.1793985E-17
122.1351 1.1803198E-17
122.2780 1.1802048E-17
122.4209 1.1791886E-17
122.5639 1.1779337E-17
122.7068 1.1772301E-17
122.8497 1.1775216E-17
122.9926 1.1786430E-17
123.1355 1.1799273E-17
123.2784 1.1806150E-17
123.4213 1.1803161E-17
123.5642 1.1792456E-17
123.7071 1.1780893E-17
123.8501 1.1775844E-17
123.9930 1.1780704E-17
124.1359 1.1792825E-17
124.2788 1.1805141E-17
124.4217 1.1810466E-17
124.5646 1.1805862E-17
124.7075 1.1794421E-17
124.8504 1.1783383E-17
124.9933 1.1779747E-17
125.1363 1.1786055E-17
125.2792 1.1798900E-17
125.4221 1.1811054E-17
125.5650 1.1815902E-17
125.7079 1.1811477E-17
125.8508 1.1801625E-17
125.9937 1.1793616E-17
126.1366 1.1793656E-17
126.2795 1.1803052E-17
126.4225 1.1817385E-17
126.5654 1.1829179E-17
126.7083 1.1832456E-17
126.8512 1.1826377E-17
126.9941 1.1815753E-17
127.1370 1.1808116E-17
127.2799 1.1809115E-17
127.4228 1.1819063E-17
127.5658 1.1832740E-17
127.7087 1.1842560E-17
127.8516 1.1843193E-17
127.9945 1.1834813E-17
128.1374 1.1822985E-17
128.2803 1.1815265E-17
128.4232 1.1816582E-17
128.5661 1.1826228E-17
128.7090 1.1838286E-17
128.8520 1.1845274E-17
128.9949 1.1842748E-17
129.1378 1.1832097E-17
129.2807 1.1819775E-17
129.4236 1.1813446E-17
129.5665 1.1817353E-17
129.7094 1.1829723E-17
129.8523 1.1843813E-17
129.9953 1.1851949E-17
130.1382 1.1850135E-17
130.2811 1.1840430E-17
130.4240 1.1829662E-17
130.5669 1.1825251E-17
130.7098 1.1830679E-17
130.8527 1.1843364E-17
130.9956 1.1856226E-17
131.1385 1.1861999E-17
131.2815 1.1857670E-17
131.4244 1.1846357E-17
131.5673 1.1835466E-17
131.7102 1.1832240E-17
131.8531 1.1839391E-17
131.9960 1.1853457E-17
132.1389 1.1866879E-17
132.2818 1.1872532E-17
132.4248 1.1867988E-17
132.5677 1.1856919E-17
132.7106 1.1846824E-17
132.8535 1.1844454E-17
132.9964 1.1851716E-17
133.1393 1.1864545E-17
133.2822 1.1875395E-17
133.4251 1.1877846E-17
133.5681 1.1870517E-17
133.7110 1.1857919E-17
133.8539 1.1847726E-17
133.9968 1.1846162E-17
134.1397 1.1854251E-17
134.2826 1.1867250E-17
134.4255 1.1877554E-17
134.5684 1.1879314E-17
134.7113 1.1871963E-17
134.8542 1.1860508E-17
134.9972 1.1852444E-17
135.1401 1.1853181E-17
135.2830 1.1862760E-17
135.4259 1.1875868E-17
135.5688 1.1885106E-17
135.7117 1.1885531E-17
135.8546 1.1877663E-17
135.9975 1.1867173E-17
136.1405 1.1861418E-17
136.2834 1.1864949E-17
136.4263 1.1876755E-17
136.5692 1.1890879E-17
136.7121 1.1900049E-17
136.8550 1.1900092E-17
136.9979 1.1892434E-17
137.1408 1.1883178E-17
137.2838 1.1879332E-17
137.4267 1.1884480E-17
137.5696 1.1896576E-17
137.7125 1.1909174E-17
137.8554 1.1915372E-17
137.9983 1.1912029E-17
138.1412 1.1901710E-17
138.2841 1.1891132E-17
138.4270 1.1887094E-17
138.5700 1.1892329E-17
138.7129 1.1903854E-17
138.8558 1.1914794E-17
138.9987 1.1918592E-17
139.1416 1.1913035E-17
139.2845 1.1901633E-17
139.4274 1.1891520E-17
139.5703 1.1889126E-17
139.7133 1.1896266E-17
139.8562 1.1909032E-17
139.9991 1.1920158E-17
140.1420 1.1923433E-17
140.2849 1.1917481E-17
140.4278 1.1906606E-17
140.5707 1.1898189E-17
140.7136 1.1898193E-17
140.8566 1.1907529E-17
140.9995 1.1921472E-17
141.1424 1.1932493E-17
141.2853 1.1934808E-17
141.4282 1.1927858E-17
141.5711 1.1916651E-17
141.7140 1.1908715E-17
141.8569 1.1909543E-17
141.9998 1.1919263E-17
142.1427 1.1932565E-17
142.2857 1.1941914E-17
142.4286 1.1942126E-17
142.5715 1.1933501E-17
142.7144 1.1921655E-17
142.8573 1.1914133E-17
143.0002 1.1915857E-17
143.1431 1.1926172E-17
143.2860 1.1939264E-17
143.4290 1.1947676E-17
143.5719 1.1946816E-17
143.7148 1.1937694E-17
143.8577 1.1926274E-17
144.0006 1.1919838E-17
144.1435 1.1922574E-17
144.2864 1.1933058E-17
144.4293 1.1945167E-17
144.5723 1.1951823E-17
144.7152 1.1949308E-17
144.8581 1.1939516E-17
145.0010 1.1928799E-17
145.1439 1.1924107E-17
145.2868 1.1928788E-17
145.4297 1.1940567E-17
145.5726 1.1952953E-17
145.7155 1.1959171E-17
145.8585 1.1956245E-17
146.0014 1.1946747E-17
146.1443 1.1937169E-17
146.2872 1.1933932E-17
146.4301 1.1939473E-17
146.5730 1.1950779E-17
146.7159 1.1961269E-17
146.8588 1.1964843E-17
147.0018 1.1959624E-17
147.1447 1.1949114E-17
147.2876 1.1940063E-17
147.4305 1.1938348E-17
147.5734 1.1945393E-17
147.7163 1.1957303E-17
147.8592 1.1967230E-17
148.0021 1.1969551E-17
148.1451 1.1963280E-17
148.2880 1.1952665E-17
148.4309 1.1944583E-17
148.5738 1.1944354E-17
148.7167 1.1952504E-17
148.8596 1.1964460E-17
149.0025 1.1973366E-17
149.1454 1.1974285E-17
149.2883 1.1967231E-17
149.4312 1.1957174E-17
149.5742 1.1950995E-17
149.7171 1.1953263E-17
149.8600 1.1963392E-17
150.0029 1.1975931E-17
150.1458 1.1983815E-17
150.2887 1.1982621E-17
150.4316 1.1973250E-17
150.5745 1.1961386E-17
150.7175 1.1954076E-17
150.8604 1.1955490E-17
151.0033 1.1964431E-17
151.1462 1.1975110E-17
151.2891 1.1980709E-17
151.4320 1.1977575E-17
151.5749 1.1967480E-17
151.7178 1.1956585E-17
151.8607 1.1951720E-17
152.0037 1.1956232E-17
152.1466 1.1967914E-17
152.2895 1.1980302E-17
152.4324 1.1986525E-17
152.5753 1.1983424E-17
152.7182 1.1973434E-17
152.8611 1.1963094E-17
153.0040 1.1959104E-17
153.1470 1.1964293E-17
153.2899 1.1975946E-17
153.4328 1.1987472E-17
153.5757 1.1992425E-17
153.7186 1.1988397E-17
153.8615 1.1978464E-17
154.0044 1.1969298E-17
154.1473 1.1967101E-17
154.2903 1.1973839E-17
154.4332 1.1986036E-17
154.5761 1.1996873E-17
154.7190 1.2000299E-17
154.8619 1.1994680E-17
155.0048 1.1983762E-17
155.1477 1.1974409E-17
155.2906 1.1972461E-17
155.4335 1.1979248E-17
155.5765 1.1990853E-17
155.7194 1.2000542E-17
155.8623 1.2002876E-17
156.0052 1.1997004E-17
156.1481 1.1987133E-17
156.2910 1.1979921E-17
156.4339 1.1980391E-17
156.5768 1.1988846E-17
156.7197 1.2000683E-17
156.8627 1.2009188E-17
157.0056 1.2009611E-17
157.1485 1.2002045E-17
157.2914 1.1991352E-17
157.4343 1.1984199E-17
157.5772 1.1985003E-17
157.7201 1.1993275E-17
157.8630 1.2003945E-17
158.0060 1.2010487E-17
158.1489 1.2008909E-17
158.2918 1.2000181E-17
158.4347 1.1989632E-17
158.5776 1.1983674E-17
158.7205 1.1985874E-17
158.8634 1.1994771E-17
159.0063 1.2004773E-17
159.1492 1.2009584E-17
159.2922 1.2006084E-17
159.4351 1.1996279E-17
159.5780 1.1986121E-17
159.7209 1.1981925E-17
159.8638 1.1986537E-17
160.0067 1.1997598E-17
160.1496 1.2008959E-17
160.2925 1.2014396E-17
160.4355 1.2011364E-17
160.5784 1.2002504E-17
160.7213 1.1993997E-17
160.8642 1.1991756E-17
161.0071 1.1997778E-17
161.1500 1.2008887E-17
161.2929 1.2018640E-17
161.4358 1.2021262E-17
161.5788 1.2015192E-17
161.7217 1.2004116E-17
161.8646 1.1994805E-17
162.0075 1.1993084E-17
162.1504 1.2000336E-17
162.2933 1.2012673E-17
162.4362 1.2023273E-17
162.5791 1.2026471E-17
162.7220 1.2021141E-17
162.8650 1.2011317E-17
163.0079 1.2003695E-17
163.1508 1.2003532E-17
163.2937 1.2011424E-17
163.4366 1.2022930E-17
163.5795 1.2031253E-17
163.7224 1.2031380E-17
163.8653 1.2023146E-17
164.0083 1.2011382E-17
164.1512 1.2003045E-17
164.2941 1.2003066E-17
164.4370 1.2011409E-17
164.5799 1.2023129E-17
164.7228 1.2031366E-17
164.8657 1.2031469E-17
165.0086 1.2023768E-17
165.1515 1.2013314E-17
165.2944 1.2006778E-17
165.4374 1.2008392E-17
165.5803 1.2017393E-17
165.7232 1.2028518E-17
165.8661 1.2035222E-17
166.0090 1.2033667E-17
166.1519 1.2025054E-17
166.2948 1.2014884E-17
166.4377 1.2009620E-17
166.5807 1.2012766E-17
166.7236 1.2022758E-17
166.8665 1.2033920E-17
167.0094 1.2039917E-17
167.1523 1.2037572E-17
167.2952 1.2028761E-17
167.4381 1.2019221E-17
167.5810 1.2015037E-17
167.7240 1.2018946E-17
167.8669 1.2028695E-17
168.0098 1.2038475E-17
168.1527 1.2042499E-17
168.2956 1.2038576E-17
168.4385 1.2029457E-17
168.5814 1.2021166E-17
168.7243 1.2019313E-17
168.8672 1.2025652E-17
169.0102 1.2036987E-17
169.1531 1.2047086E-17
169.2960 1.2050446E-17
169.4389 1.2045613E-17
169.5818 1.2036040E-17
169.7247 1.2027952E-17
169.8676 1.2026548E-17
170.0105 1.2032830E-17
170.1535 1.2043020E-17
170.2964 1.2050906E-17
170.4393 1.2051691E-17
170.5822 1.2044981E-17
170.7251 1.2035097E-17
170.8680 1.2028487E-17
171.0109 1.2029803E-17
171.1538 1.2039055E-17
171.2968 1.2051544E-17
171.4397 1.2060664E-17
171.5826 1.2061852E-17
171.7255 1.2055321E-17
171.8684 1.2045902E-17
172.0113 1.2040082E-17
172.1542 1.2042059E-17
172.2971 1.2051176E-17
172.4400 1.2062327E-17
172.5829 1.2069063E-17
172.7259 1.2067539E-17
172.8688 1.2058879E-17
173.0117 1.2048542E-17
173.1546 1.2043035E-17
173.2975 1.2045981E-17
173.4404 1.2055918E-17
173.5833 1.2067151E-17
173.7262 1.2073183E-17
173.8692 1.2070623E-17
174.0121 1.2061225E-17
174.1550 1.2050835E-17
174.2979 1.2045874E-17
174.4408 1.2049486E-17
174.5837 1.2059672E-17
174.7266 1.2070535E-17
174.8695 1.2075867E-17
175.0125 1.2072896E-17
175.1554 1.2063951E-17
175.2983 1.2055005E-17
175.4412 1.2052034E-17
175.5841 1.2057370E-17
175.7270 1.2068277E-17
175.8699 1.2078605E-17
176.0128 1.2082510E-17
176.1557 1.2077984E-17
176.2987 1.2068078E-17
176.4416 1.2059048E-17
176.5845 1.2056606E-17
176.7274 1.2062495E-17
176.8703 1.2073496E-17
177.0132 1.2083422E-17
177.1561 1.2086883E-17
177.2990 1.2082526E-17
177.4420 1.2073793E-17
177.5849 1.2066748E-17
177.7278 1.2066320E-17
177.8707 1.2073257E-17
178.0136 1.2083645E-17
178.1565 1.2091291E-17
178.2994 1.2091496E-17
178.4423 1.2083936E-17
178.5853 1.2072882E-17