 -7.19999981   -3.33642964E-19
 -7.07296753   -3.336260068E-19
 -6.94593477   -3.335926094E-19
 -6.81890202   -3.335446846E-19
 -6.69186926   -3.334846882E-19
 -6.56483698   -3.334153343E-19
 -6.43780422   -3.333398799E-19
 -6.31077147   -3.332617113E-19
 -6.18373871   -3.331852488E-19
 -6.05670643   -3.331129998E-19
 -5.92967367   -3.33047911E-19
 -5.80264091   -3.329931361E-19
 -5.67560816   -3.329504588E-19
 -5.5485754   -3.329204993E-19
 -5.42154312   -3.329044727E-19
 -5.29451036   -3.329005436E-19
 -5.16747761   -3.329078848E-19
 -5.04044485   -3.329241182E-19
 -4.91341257   -3.329441774E-19
 -4.78637981   -3.329653222E-19
 -4.65934706   -3.329817107E-19
 -4.5323143   -3.329899566E-19
 -4.40528202   -3.329850711E-19
 -4.27824926   -3.329632542E-19
 -4.15121651   -3.32922102E-19
 -4.02418375   -3.3285859E-19
 -3.89715123   -3.327737006E-19
 -3.77011847   -3.326687779E-19
 -3.64308596   -3.325462776E-19
 -3.5160532   -3.324108268E-19
 -3.38902068   -3.32267311E-19
 -3.26198792   -3.321223476E-19
 -3.13495541   -3.31982218E-19
 -3.00792265   -3.318527384E-19
 -2.88089013   -3.317406554E-19
 -2.75385737   -3.316504669E-19
 -2.62682486   -3.315867998E-19
 -2.4997921   -3.315506882E-19
 -2.37275958   -3.315431402E-19
 -2.24572682   -3.315622429E-19
 -2.11869431   -3.316050236E-19
 -1.99166155   -3.31665201E-19
 -1.86462891   -3.31736778E-19
 -1.73759627   -3.318124133E-19
 -1.61056364   -3.318838094E-19
 -1.483531   -3.319421773E-19
 -1.35649836   -3.319800984E-19
 -1.22946572   -3.319915496E-19
 -1.10243309   -3.319711286E-19
 -0.975400388   -3.319156558E-19
 -0.848367751   -3.318249244E-19
 -0.721335113   -3.316999943E-19
 -0.594302475   -3.315455442E-19
 -0.467269808   -3.313675453E-19
 -0.34023717   -3.311742435E-19
 -0.213204518   -3.309754358E-19
 -8.617187291E-2   -3.307806865E-19
 4.086076841E-2   -3.306001543E-19
 0.16789341   -3.304437138E-19
 0.294926047   -3.303191455E-19
 0.421958715   -3.302328603E-19
 0.548991323   -3.301888387E-19
 0.67602402   -3.301884768E-19
 0.803056657   -3.302307665E-19
 0.930089295   -3.303118043E-19
 1.05712187   -3.304262913E-19
 1.18415463   -3.305659039E-19
 1.31118727   -3.307215948E-19
 1.4382199   -3.308830759E-19
 1.56525254   -3.31041145E-19
 1.69228518   -3.311858757E-19
 1.81931782   -3.313093066E-19
 1.94635046   -3.314048976E-19
 2.07338309   -3.314684871E-19
 2.20041585   -3.314987568E-19
 2.32744837   -3.31496482E-19
 2.45448112   -3.314639894E-19
 2.58151364   -3.31406552E-19
 2.7085464   -3.313309167E-19
 2.83557892   -3.312442954E-19
 2.96261168   -3.31154753E-19
 3.08964419   -3.310695534E-19
 3.21667695   -3.309960378E-19
 3.34370947   -3.309398929E-19
 3.47074223   -3.309051513E-19
 3.59777474   -3.308940619E-19
 3.7248075   -3.309072193E-19
 3.85184002   -3.309427363E-19
 3.97887278   -3.309974595E-19
 4.10590553   -3.310668134E-19
 4.23293829   -3.311444133E-19
 4.35997057   -3.312241328E-19
 4.48700333   -3.312991478E-19
 4.61403608   -3.313635903E-19
 4.74106884   -3.314108688E-19
 4.86810112   -3.31436925E-19
 4.99513388   -3.314387862E-19
 5.12216663   -3.31415134E-19
 5.24919939   -3.313667698E-19
 5.37623167   -3.312957615E-19
 5.50326443   -3.312061675E-19
 5.63029718   -3.31103442E-19
 5.75732994   -3.309938406E-19
 5.88436222   -3.308847303E-19
 6.01139498   -3.307829612E-19
 6.13842773   -3.306953318E-19
 6.26546049   -3.306280458E-19
 6.39249325   -3.305854977E-19
 6.51952553   -3.305705309E-19
 6.64655828   -3.305846964E-19
 6.77359104   -3.306273737E-19
 6.9006238   -3.306952284E-19
 7.02765608   -3.307837108E-19
 7.15468884   -3.308869533E-19
 7.28172159   -3.309966582E-19
 7.40875435   -3.311057167E-19
 7.53578663   -3.312057798E-19
 7.66281939   -3.312896093E-19
 7.78985214   -3.313506656E-19
 7.9168849   -3.31383727E-19
 8.04391766   -3.313863119E-19
 8.17094994   -3.313568178E-19
 8.29798317   -3.312982172E-19
 8.42501545   -3.312131727E-19
 8.55204773   -3.311071902E-19
 8.67908096   -3.309878177E-19
 8.80611324   -3.308614141E-19
 8.93314552   -3.307359153E-19
 9.06017876   -3.306188693E-19
 9.18721104   -3.305166091E-19
 9.31424427   -3.304337359E-19
 9.44127655   -3.303737136E-19
 9.56830883   -3.303374986E-19
 9.69534206   -3.303252201E-19
 9.82237434   -3.303348361E-19
 9.94940662   -3.303628569E-19
 10.0764399   -3.304046553E-19
 10.2034721   -3.304556045E-19
 10.3305054   -3.305106895E-19
 10.4575377   -3.305649474E-19
 10.5845699   -3.306142422E-19
 10.7116032   -3.306542829E-19
 10.8386354   -3.306828982E-19
 10.9656687   -3.306981494E-19
 11.092701   -3.306998296E-19
 11.2197332   -3.30688249E-19
 11.3467665   -3.306646485E-19
 11.4737988   -3.306310185E-19
 11.600831   -3.305904091E-19
 11.7278643   -3.30545457E-19
 11.8548965   -3.304986954E-19
 11.9819298   -3.304532522E-19
 12.1089621   -3.304121E-19
 12.2359943   -3.303773325E-19
 12.3630276   -3.303506559E-19
 12.4900599   -3.303331042E-19
 12.6170931   -3.303247032E-19
 12.7441254   -3.303251684E-19
 12.8711576   -3.303339831E-19
 12.9981909   -3.303488465E-19
 13.1252232   -3.303675873E-19
 13.2522554   -3.303880083E-19
 13.3792887   -3.304073437E-19
 13.506321   -3.304224397E-19
 13.6333542   -3.304313578E-19
 13.7603865   -3.304314612E-19
 13.8874187   -3.304216901E-19
 14.014452   -3.304010623E-19
 14.1414843   -3.30370043E-19
 14.2685175   -3.303294077E-19
 14.3955498   -3.302801129E-19
 14.5225821   -3.302251313E-19
 14.6496153   -3.30167513E-19
 14.7766476   -3.30110877E-19
 14.9036798   -3.300585319E-19
 15.0307131   -3.300139676E-19
 15.1577454   -3.29979562E-19
 15.2847786   -3.299577193E-19
 15.4118109   -3.299494475E-19
 15.5388432   -3.299554187E-19
 15.6658764   -3.299732031E-19
 15.7929087   -3.30002051E-19
 15.9199409   -3.300400496E-19
 16.0469742   -3.300826494E-19
 16.1740074   -3.30127524E-19
 16.3010387   -3.301704857E-19
 16.428072   -3.302083809E-19
 16.5551052   -3.302388056E-19
 16.6821365   -3.302598729E-19
 16.8091698   -3.302701092E-19
 16.936203   -3.302692304E-19
 17.0632343   -3.302572621E-19
 17.1902676   -3.302355227E-19
 17.3173008   -3.302060027E-19
 17.444334   -3.301705115E-19
 17.5713654   -3.301311946E-19
 17.6983986   -3.300900682E-19
 17.8254318   -3.300480629E-19
 17.9524632   -3.300080739E-19
 18.0794964   -3.299706699E-19
 18.2065296   -3.299364194E-19
 18.3335609   -3.299061756E-19
 18.4605942   -3.298801453E-19
 18.5876274   -3.298585093E-19
 18.7146587   -3.29841061E-19
 18.841692   -3.298277227E-19
 18.9687252   -3.298189856E-19
 19.0957584   -3.29814462E-19
 19.2227898   -3.298138933E-19
 19.349823   -3.298180033E-19
 19.4768562   -3.298266629E-19
 19.6038876   -3.298392257E-19
 19.7309208   -3.298562087E-19
 19.857954   -3.298764488E-19
 19.9849854   -3.299002044E-19
 20.1120186   -3.299263898E-19
 20.2390518   -3.299537902E-19
 20.3660831   -3.299816558E-19
 20.4931164   -3.300080739E-19
 20.6201496   -3.30033122E-19
 20.7471828   -3.300547321E-19
 20.8742142   -3.300718444E-19
 21.0012474   -3.300836834E-19
 21.1282806   -3.300894478E-19
 21.255312   -3.300892927E-19
 21.3823452   -3.300832957E-19
 21.5093784   -3.300722838E-19
 21.6364098   -3.300558695E-19
 21.763443   -3.300357845E-19
 21.8904762   -3.300137608E-19
 22.0175076   -3.299904446E-19
 22.1445408   -3.299678264E-19
 22.271574   -3.299465265E-19
 22.3986073   -3.299276823E-19
 22.5256386   -3.299114747E-19
 22.6526718   -3.298984466E-19
 22.779705   -3.298883137E-19
 22.9067364   -3.298806106E-19
 23.0337696   -3.298739931E-19
 23.1608028   -3.298663675E-19
 23.2878342   -3.298578372E-19
 23.4148674   -3.298466703E-19
 23.5419006   -3.298312641E-19
 23.668932   -3.298112308E-19
 23.7959652   -3.29785795E-19
 23.9229984   -3.297552669E-19
 24.0500298   -3.297203702E-19
 24.177063   -3.296819321E-19
 24.3040962   -3.296404697E-19
 24.4311295   -3.295990848E-19
 24.5581608   -3.295589407E-19
 24.685194   -3.2952164E-19
 24.8122272   -3.294900262E-19
 24.9392586   -3.294645904E-19
 25.0662918   -3.294472196E-19
 25.193325   -3.294379655E-19
 25.3203564   -3.294369574E-19
 25.4473896   -3.294438592E-19
 25.5744228   -3.294576628E-19
 25.7014542   -3.294763519E-19
 25.8284874   -3.294980137E-19
 25.9555206   -3.2952027E-19
 26.0825539   -3.295414407E-19
 26.2095852   -3.295588115E-19
 26.3366184   -3.295701593E-19
 26.4636517   -3.29573649E-19
 26.590683   -3.295675227E-19
 26.7177162   -3.29550824E-19
 26.8447495   -3.295231651E-19
 26.9717808   -3.294839775E-19
 27.098814   -3.294350704E-19
 27.2258472   -3.293762372E-19
 27.3528786   -3.293095974E-19
 27.4799118   -3.292367797E-19
 27.606945   -3.291602655E-19
 27.7339783   -3.290816316E-19
 27.8610096   -3.290033597E-19
 27.9880428   -3.28927776E-19
 28.1150761   -3.288564576E-19
 28.2421074   -3.287919892E-19
 28.3691406   -3.287359218E-19
 28.4961739   -3.286894963E-19
 28.6232052   -3.286540051E-19
 28.7502384   -3.286291897E-19
 28.8772717   -3.286153344E-19
 29.004303   -3.286120774E-19
 29.1313362   -3.286178418E-19
 29.2583694   -3.286296808E-19
 29.3854027   -3.286452163E-19
 29.512434   -3.286617858E-19
 29.6394672   -3.286756669E-19
 29.7665005   -3.286840938E-19
 29.8935318   -3.286838612E-19
 30.020565   -3.286728493E-19
 30.1475983   -3.28650412E-19
 30.2746296   -3.286168078E-19
 30.4016628   -3.285732775E-19
 30.5286961   -3.285226902E-19
 30.6557274   -3.284679929E-19
 30.7827606   -3.284139935E-19
 30.9097939   -3.283650347E-19
 31.0368271   -3.283245546E-19
 31.1638584   -3.282969733E-19
 31.2908916   -3.282839452E-19
 31.4179249   -3.282865818E-19
 31.5449562   -3.283053743E-19
 31.6719894   -3.283388234E-19
 31.7990227   -3.283843959E-19
 31.926054   -3.28439817E-19
 32.0530891   -3.285008733E-19
 32.1801186   -3.285620847E-19
 32.3071518   -3.286197288E-19
 32.434185   -3.286683257E-19
 32.5612183   -3.287037393E-19
 32.6882515   -3.28721136E-19
 32.8152847   -3.287161988E-19
 32.9423141   -3.286853863E-19
 33.0693474   -3.286269408E-19
 33.1963806   -3.285388202E-19
 33.3234138   -3.284222394E-19
 33.4504471   -3.282787495E-19
 33.5774803   -3.281129514E-19
 33.7045135   -3.279323934E-19
 33.831543   -3.277460968E-19
 33.9585762   -3.275635226E-19
 34.0856094   -3.27395424E-19
 34.2126427   -3.27251753E-19
 34.3396759   -3.271416863E-19
 34.4667091   -3.270709107E-19
 34.5937386   -3.270423988E-19
 34.7207718   -3.270548582E-19
 34.847805   -3.271028088E-19
 34.9748383   -3.271778755E-19
 35.1018715   -3.272698476E-19
 35.2289047   -3.273687474E-19
 35.355938   -3.274674921E-19
 35.4829674   -3.275621784E-19
 35.6100006   -3.276556498E-19
 35.7370338   -3.277565141E-19
 35.8640671   -3.278799967E-19
 35.9911003   -3.280436234E-19
 36.1181335   -3.282651527E-19
 36.245163   -3.285552087E-19
 36.3721962   -3.289138174E-19
 36.4992294   -3.293236337E-19
 36.6262627   -3.297446169E-19
 36.7532959   -3.301130483E-19
 36.8803291   -3.303424875E-19
 37.0073624   -3.30330571E-19
 37.1343918   -3.299685761E-19
 37.261425   -3.29156569E-19
 37.3884583   -3.278212927E-19
 37.5154915   -3.259359672E-19
 37.6425247   -3.235394698E-19
 37.769558   -3.207491053E-19
 37.8965874   -3.177704538E-19
 38.0236206   -3.148928475E-19
 38.1506538   -3.124764461E-19
 38.2776871   -3.109262321E-19
 38.4047203   -3.106519442E-19
 38.5317535   -3.120192479E-19
 38.6587868   -3.152952192E-19
 38.7858162   -3.205952755E-19
 38.9128494   -3.278340882E-19
 39.0398827   -3.366910987E-19
 39.1669159   -3.465984736E-19
 39.2939491   -3.567528135E-19
 39.4209824   -3.661546259E-19
 39.5480118   -3.736826674E-19
 39.675045   -3.781865108E-19
 39.8020782   -3.786071838E-19
 39.9291115   -3.740996957E-19
 40.0561447   -3.641614567E-19
 40.1831779   -3.487350553E-19
 40.3102074   -3.282889858E-19
 40.4372406   -3.038529848E-19
 40.5642738   -2.770015389E-19
 40.6913071   -2.497826697E-19
 40.8183403   -2.245914012E-19
 40.9453735   -2.039944488E-19
 41.0724068   -1.905179318E-19
 41.1994362   -1.864165118E-19
 41.3264694   -1.93443088E-19
 41.4535027   -2.126358496E-19
 41.5805359   -2.441534472E-19
 41.7075691   -2.871688294E-19
 41.8346024   -3.398336871E-19
 41.9616318   -3.993267915E-19
 42.088665   -4.619820265E-19
 42.2156982   -5.234892123E-19
 42.3427315   -5.791529874E-19
 42.4697647   -6.241991756E-19
 42.5967979   -6.540947237E-19
 42.7238312   -6.648701988E-19
 42.8508606   -6.53419124E-19
 42.9778938   -6.177571964E-19
 43.1049271   -5.572242743E-19
 43.2319603   -4.726267036E-19
 43.3589935   -3.663133412E-19
 43.4860268   -2.421775195E-19
 43.6130562   -1.056012697E-19
 43.7400894   3.667492977E-20
 43.8671227   1.767364954E-19
 43.9941559   3.057479522E-19
 44.1211891   4.142685427E-19
 44.2482224   4.926418895E-19
 44.3752556   5.31459356E-19
 44.502285   5.220971707E-19
 44.6293182   4.573281016E-19
 44.7563515   3.319904123E-19
 44.8833847   1.436911986E-19
 45.0104179   -1.064999433E-19
 45.1374512   -4.134131087E-19
 45.2644806   -7.672743314E-19
 45.3915138   -1.153401311E-18
 45.5185471   -1.552190254E-18
 45.6455803   -1.939462051E-18
 45.7726135   -2.287235457E-18
 45.8996468   -2.564960934E-18
 46.02668   -2.741226092E-18
 46.1537094   -2.785886607E-18
 46.2807426   -2.672543425E-18
 46.4077759   -2.381223234E-18
 46.5348091   -1.901085214E-18
 46.6618423   -1.232926765E-18
 46.7888756   -3.912397827E-19
 46.915905   5.94436907E-19
 47.0429382   1.679108711E-18
 47.1699715   2.803064667E-18
 47.2970047   3.893900621E-18
 47.4240379   4.869872828E-18
 47.5510712   5.644533262E-18
 47.6781044   6.132460222E-18
 47.8051338   6.255804432E-18
 47.9321671   5.951235289E-18
 48.0592003   5.176790336E-18
 48.1862335   3.918070839E-18
 48.3132668   2.19319805E-18
 48.4403   5.596490767E-20
 48.5673294   -2.403290759E-18
 48.6943626   -5.059458075E-18
 48.8213959   -7.757259253E-18
 48.9484291   -1.0318672E-17
 49.0754623   -1.255292819E-17
 49.2024956   -1.426860749E-17
 49.3295288   -1.528715468E-17
 49.4565582   -1.545693681E-17
 49.5835915   -1.466686517E-17
 49.7106247   -1.285850939E-17
 49.8376579   -1.003569516E-17
 49.9646912   -6.270649015E-18
 50.0917244   -1.705949792E-18
 50.2187538   3.448213019E-18
 50.345787   8.921659894E-18
 50.4728203   1.439657398E-17
 50.5998535   1.952411771E-17
 50.7268867   2.394448487E-17
 50.85392   2.730933814E-17
 50.9809532   2.930529518E-17
 51.1079826   2.967706655E-17
 51.2350159   2.824872084E-17
 51.3620491   2.494167592E-17
 51.4890823   1.978804622E-17
 51.6161156   1.293822726E-17
 51.7431488   4.661896461E-18
 51.8701782   -4.658208063E-18
 51.9972115   -1.453985655E-17
 52.1242447   -2.442213535E-17
 52.2512779   -3.369293578E-17
 52.3783112   -4.172217284E-17
 52.5053444   -4.789940876E-17
 52.6323776   -5.167418132E-17
 52.759407   -5.259691783E-17
 52.8864403   -5.03581502E-17
 53.0134735   -4.482326965E-17
 53.1405067   -3.606019765E-17
 53.26754   -2.435706602E-17
 53.3945732   -1.022745135E-17
 53.5216026   5.599116497E-18
 53.6486359   2.220278992E-17
 53.7756691   3.85158719E-17
 53.9027023   5.338151188E-17
 54.0297356   6.562675618E-17
 54.1567688   7.414655767E-17
 54.283802   7.799404601E-17
 54.4108315   7.647075652E-17
 54.5378647   6.920979157E-17
 54.6648979   5.624419207E-17
 54.7919312   3.805269708E-17
 54.9189644   1.557607563E-17
 55.0459976   -9.801622902E-18
 55.173027   -3.631009884E-17
 55.3000603   -6.188868728E-17
 55.4270935   -8.431821237E-17
 55.5541267   -1.013825514E-16
 55.68116   -1.110501354E-16
 55.8081932   -1.116627123E-16
 55.9352264   -1.021165253E-16
 56.0622559   -8.201973553E-17
 56.1892891   -5.18104312E-17
 56.3163223   -1.282057488E-17
 56.4433556   3.272502527E-17
 56.5703888   8.178204353E-17
 56.697422   1.306338945E-16
 56.8244514   1.75108577E-16
 56.9514847   2.108551409E-16
 57.0785179   2.336634617E-16
 57.2055511   2.398066741E-16
 57.3325844   2.263822077E-16
 57.4596176   1.916248328E-16
 57.5866508   1.351667119E-16
 57.7136803   5.82201545E-17
 57.8407135   -3.633587379E-17
 57.9677467   -1.439796265E-16
 58.09478   -2.586872767E-16
 58.2218132   -3.731899052E-16
 58.3488464   -4.79337533E-16
 58.4758759   -5.685547722E-16
 58.6029091   -6.323643052E-16
 58.7299423   -6.629509297E-16
 58.8569756   -6.537337818E-16
 58.9840088   -5.999132554E-16
 59.111042   -4.989582042E-16
 59.2380753   -3.510010566E-16
 59.3651047   -1.591114466E-16
 59.4921379   7.057662481E-17
 59.6191711   3.289033169E-16
 59.7462044   6.038987043E-16
 59.8732376   8.811810276E-16
 60.0002708   1.144532094E-15
 60.1273003   1.376637121E-15
 60.2543335   1.559965121E-15
 60.3813667   1.677756593E-15
 60.5084   1.7150775E-15
 60.6354332   1.659885362E-15
 60.7624664   1.50405057E-15
 60.8894997   1.244268953E-15
 61.0165291   8.827985429E-16
 61.1435623   4.279567792E-16
 61.2705956   -1.056813561E-16
 61.3976288   -6.974308351E-16
 61.524662   -1.321022844E-15
 61.6516953   -1.945521601E-15
 61.7787247   -2.536619732E-15
 61.9057579   -3.058274713E-15
 62.0327911   -3.474620841E-15
 62.1598244   -3.752065001E-15
 62.2868576   -3.861457612E-15
 62.4138908   -3.780201741E-15
 62.5409203   -3.494168032E-15
 62.6679535   -2.999276539E-15
 62.7949867   -2.302609304E-15
 62.92202   -1.422954789E-15
 63.0490532   -3.906941322E-16
 63.1760864   7.530077902E-16
 63.3031197   1.957708499E-15
 63.4301491   3.16584938E-15
 63.5571823   4.315479553E-15
 63.6842155   5.34341248E-15
 63.8112488   6.188649294E-15
 63.938282   6.79587832E-15
 64.0653152   7.118840971E-15
 64.1923447   7.12336328E-15
 64.3193817   6.789856339E-15
 64.4464111   6.115107776E-15
 64.5734482   5.11324017E-15
 64.7004776   3.815741973E-15
 64.827507   2.270529202E-15
 64.9545441   5.400616427E-16
 65.0815735   -1.301417313E-15
 65.2086105   -3.171387916E-15
 65.33564   -4.983137604E-15
 65.4626694   -6.650199664E-15
 65.5897064   -8.090918852E-15
 65.7167358   -9.232866648E-15
 65.8437729   -1.001686933E-14
 65.9708023   -1.040037875E-14
 66.0978394   -1.035998798E-14
 66.2248688   -9.892900132E-15
 66.3518982   -9.01723493E-15
 66.4789352   -7.77111648E-15
 66.6059647   -6.210555684E-15
 66.7330017   -4.406233204E-15
 66.8600311   -2.439332492E-15
 66.9870682   -3.96690252E-16
 67.1140976   1.634448645E-15
 67.241127   3.571720675E-15
 67.3681641   5.342606105E-15
 67.4951935   6.888693649E-15
 67.6222305   8.16890941E-15
 67.7492599   9.161427889E-15
 67.876297   9.864054425E-15
 68.0033264   1.02929936E-14
 68.1303558   1.048001763E-14
 68.2573929   1.046819813E-14
 68.3844223   1.030648091E-14
 68.5114594   1.004350598E-14
 68.6384888   9.721174366E-15
 68.7655182   9.368515587E-15
 68.8925552   8.996447047E-15
 69.0195847   8.593987813E-15
 69.1466217   8.126422237E-15
 69.2736511   7.535786163E-15
 69.4006882   6.743909884E-15
 69.5277176   5.658034398E-15
 69.654747   4.178837045E-15
 69.7817841   2.210461648E-15
 69.9088135   -3.280424138E-16
 70.0358505   -3.490641622E-15
 70.1628799   -7.292530159E-15
 70.289917   -1.169961124E-14
 70.4169464   -1.662025857E-14
 70.5439758   -2.19003079E-14
 70.6710129   -2.732208956E-14
 70.7980423   -3.260809523E-14
 70.9250793   -3.742964733E-14
 71.0521088   -4.142056503E-14
 71.1791458   -4.41955195E-14
 71.3061752   -4.537238369E-14
 71.4332047   -4.459761282E-14
 71.5602417   -4.157319359E-14
 71.6872711   -3.608374247E-14
 71.8143082   -2.802189294E-14
 71.9413376   -1.741020658E-14
 72.068367   -4.417829932E-15
 72.1954041   1.06297451E-14
 72.3224335   2.724914139E-14
 72.4494705   4.480674864E-14
 72.5764999   6.253608335E-14
 72.703537   7.956483373E-14
 72.8305664   9.49508755E-14
 72.9575958   1.077261652E-13
 73.0846329   1.169466271E-13
 73.2116623   1.217458209E-13
 73.3386993   1.213895114E-13
 73.4657288   1.153284282E-13
 73.5927658   1.032458217E-13
 73.7197952   8.509681268E-14
 73.8468246   6.113681203E-14
 73.9738617   3.193628291E-14
 74.1008911   -1.619796352E-15
 74.2279282   -3.834914225E-14
 74.3549576   -7.680632524E-14
 74.481987   -1.153333342E-13
 74.609024   -1.521251387E-13
 74.7360535   -1.853078102E-13
 74.8630905   -2.130260893E-13
 74.9901199   -2.335364161E-13
 75.117157   -2.453010668E-13
 75.2441864   -2.470785891E-13
 75.3712158   -2.380055517E-13
 75.4982529   -2.176651464E-13
 75.6252823   -1.861380516E-13
 75.7523193   -1.440320709E-13
 75.8793488   -9.248758172E-14
 76.0063858   -3.315735205E-14
 76.1334152   3.184001592E-14
 76.2604446   9.999202936E-14
 76.3874817   1.68487579E-13
 76.5145111   2.343319224E-13
 76.6415482   2.944767639E-13
 76.7685776   3.459597788E-13
 76.8956146   3.86046826E-13
 77.022644   4.123702248E-13
 77.1496735   4.230558232E-13
 77.2767105   4.168319336E-13
 77.4037399   3.931138997E-13
 77.530777   3.520592563E-13
 77.6578064   2.945890873E-13
 77.7848358   2.223738636E-13
 77.9118729   1.377826211E-13
 78.0389023   4.379720734E-14
 78.1659393   -5.610524659E-14
 78.2929688   -1.580964634E-13
 78.4200058   -2.581611682E-13
 78.5470352   -3.522732778E-13
 78.6740646   -4.365754448E-13
 78.8011017   -5.075524961E-13
 78.9281311   -5.621901599E-13
 79.0551682   -5.981104284E-13
 79.1821976   -6.13676319E-13
 79.3092346   -6.080609107E-13
 79.436264   -5.812760755E-13
 79.5632935   -5.341607148E-13
 79.6903305   -4.683282299E-13
 79.8173599   -3.860772921E-13
 79.944397   -2.9027071E-13
 80.0714264   -1.841899165E-13
 80.1984634   -7.137365243E-14
 80.3254929   4.454981983E-14
 80.4525223   1.600266144E-13
 80.5795593   2.717279255E-13
 80.7065887   3.766786416E-13
 80.8336258   4.723562036E-13
 80.9606552   5.567548918E-13
 81.0876846   6.284117649E-13
 81.2147217   6.863938671E-13
 81.3417511   7.302493571E-13
 81.4687881   7.599263016E-13
 81.5958176   7.756670198E-13
 81.7228546   7.778868153E-13
 81.849884   7.670475583E-13
 81.9769135   7.435370679E-13
 82.1039505   7.075660045E-13
 82.2309799   6.59092518E-13
 82.358017   5.977831077E-13
 82.4850464   5.230163633E-13
 82.6120834   4.339337049E-13
 82.7391129   3.295358235E-13
 82.8661423   2.088228679E-13
 82.9931793   7.097002429E-14
 83.1202087   -8.44713771E-14
 83.2472458   -2.573610541E-13
 83.3742752   -4.467602232E-13
 83.5013123   -6.50742806E-13
 83.6283417   -8.662433834E-13
 83.7553711   -1.088957483E-12
 83.8824081   -1.313308945E-12
 84.0094376   -1.532492666E-12
 84.1364746   -1.738599607E-12
 84.263504   -1.922825831E-12
 84.3905334   -2.07576057E-12
 84.5175705   -2.187744126E-12
 84.6445999   -2.249283008E-12
 84.771637   -2.251502587E-12
 84.8986664   -2.18661699E-12
 85.0257034   -2.048392705E-12
 85.1527328   -1.832580528E-12
 85.2797623   -1.537295465E-12
 85.4067993   -1.163318899E-12
 85.5338287   -7.143079531E-13
 85.6608658   -1.968966033E-13
 85.7878952   3.793205171E-13
 85.9149323   1.001925431E-12
 86.0419617   1.655932986E-12
 86.1689911   2.324157793E-12
 86.2960281   2.987681066E-12
 86.4230576   3.626398227E-12
 86.5500946   4.219626384E-12
 86.677124   4.746748567E-12
 86.8041611   5.187872701E-12
 86.9311905   5.524471072E-12
 87.0582199   5.739984443E-12
 87.185257   5.820365891E-12
 87.3122864   5.754538773E-12
 87.4393234   5.53476015E-12
 87.5663528   5.156874927E-12
 87.6933823   4.620456795E-12
 87.8204193   3.928831219E-12
 87.9474487   3.088998458E-12
 88.0744858   2.111454674E-12
 88.2015152   1.009938118E-12
 88.3285522   -1.988818859E-13
 88.4555817   -1.495747103E-12
 88.5826111   -2.859160608E-12
 88.7096481   -4.265718421E-12
 88.8366776   -5.690398673E-12
 88.9637146   -7.106800391E-12
 89.090744   -8.487307211E-12
 89.2177811   -9.803195582E-12
 89.3448105   -1.10246777E-11
 89.4718399   -1.212090931E-11
 89.598877   -1.30599984E-11
 89.7259064   -1.380904158E-11
 89.8529434   -1.433424386E-11
 89.9799728   -1.46011727E-11
 90.1070099   -1.457519001E-11
 90.2340393   -1.422211827E-11
 90.3610687   -1.350916427E-11
 90.4881058   -1.240613601E-11
 90.6151352   -1.088694846E-11
 90.7421722   -8.931397288E-12
 90.8692017   -6.527163792E-12
 90.9962311   -3.671978954E-12
 91.1232681   -3.758559219E-13
 91.2502975   3.33673757E-12
 91.3773346   7.42488189E-12
 91.504364   1.182955036E-11
 91.6314011   1.647243106E-11
 91.7584305   2.125538287E-11
 91.8854599   2.606067272E-11
 92.0124969   3.075206756E-11
 92.1395264   3.517693775E-11
 92.2665634   3.916931016E-11
 92.3935928   4.255400546E-11
 92.5206299   4.515167407E-11
 92.6476593   4.678474275E-11
 92.7746887   4.728406555E-11
 92.9017258   4.649607088E-11
 93.0287552   4.429019998E-11
 93.1557922   4.056635583E-11
 93.2828217   3.526202247E-11
 93.4098587   2.83587806E-11
 93.5368881   1.988787086E-11
 93.6639175   9.93452022E-12
 93.7909546   -1.359258409E-12
 93.917984   -1.379365806E-11
 94.0450211   -2.711200708E-11
 94.1720505   -4.100381493E-11
 94.2990799   -5.510996867E-11
 94.4261169   -6.903005945E-11
 94.5531464   -8.23317664E-11
 94.6801834   -9.456211508E-11
 94.8072128   -1.052602727E-10
 94.9342499   -1.139717209E-10
 95.0612793   -1.202631744E-10
 95.1883087   -1.237380476E-10
 95.3153458   -1.240516856E-10
 95.4423752   -1.209261025E-10
 95.5694122   -1.141636022E-10
 95.6964417   -1.03658658E-10
 95.8234787   -8.940773122E-11
 95.9505081   -7.151657738E-11
 96.0775375   -5.020452803E-11
 96.2045746   -2.580563888E-11
 96.331604   1.23358268E-12
 96.4586411   3.035991944E-11
 96.5856705   6.092266275E-11
 96.7126999   9.218616148E-11
 96.8397369   1.233454727E-10
 96.9667664   1.535448574E-10
 97.0938034   1.81898413E-10
 97.2208328   2.075129513E-10
 97.3478699   2.295118123E-10
 97.4748993   2.470596505E-10
 97.6019287   2.593872062E-10
 97.7289658   2.658157028E-10
 97.8559952   2.657798703E-10
 97.9830322   2.588493586E-10
 98.1100616   2.447478054E-10
 98.2370987   2.233689761E-10
 98.3641281   1.947894762E-10
 98.4911575   1.592777854E-10
 98.6181946   1.1729899E-10
 98.745224   6.951490772E-11
 98.872261   1.677963671E-11
 98.9992905   -3.987001701E-11
 99.1263275   -9.922907634E-11
 99.2533569   -1.59943947E-10
 99.3803864   -2.205369914E-10
 99.5074234   -2.794357801E-10
 99.6344528   -3.350067723E-10
 99.7614899   -3.85592891E-10
 99.8885193   -4.295545586E-10
 100.015549   -4.653133434E-10
 100.142586   -4.913973117E-10
 100.269615   -5.06487241E-10
 100.396652   -5.094624167E-10
 100.523682   -4.994448188E-10
 100.650719   -4.758404781E-10
 100.777748   -4.383765295E-10
 100.904778   -3.871323262E-10
 101.031815   -3.225639478E-10
 101.158844   -2.455199932E-10
 101.285881   -1.572479369E-10
 101.41291   -5.938992353E-11
 101.539948   4.603285461E-11
 101.666977   1.56647556E-10
 101.794006   2.697693458E-10
 101.921043   3.824528749E-10
 102.048073   4.91555352E-10
 102.17511   5.938102232E-10
 102.302139   6.85910162E-10
 102.429176   7.645974409E-10
 102.556206   8.267604379E-10
 102.683235   8.695327791E-10
 102.810272   8.903935367E-10
 102.937302   8.872648172E-10
 103.064339   8.586041322E-10
 103.191368   8.03488609E-10
 103.318398   7.216871545E-10
 103.445435   6.137187425E-10
 103.572464   4.808931586E-10
 103.699501   3.253326775E-10
 103.82653   1.499713409E-10
 103.953568   -4.14681102E-11
 104.080597   -2.445217917E-10
 104.207626   -4.540564869E-10
 104.334663   -6.643656181E-10
 104.461693   -8.692879749E-10
 104.58873   -1.062348098E-9
 104.715759   -1.236914682E-9
 104.842796   -1.386375237E-9
 104.969826   -1.504322111E-9
 105.096855   -1.584746112E-9
 105.223892   -1.622232904E-9
 105.350922   -1.612156519E-9
 105.477959   -1.550865103E-9
 105.604988   -1.435854213E-9
 105.732025   -1.265919924E-9
 105.859055   -1.041288722E-9
 105.986084   -7.637185884E-10
 106.113121   -4.365670048E-10
 106.24015   -6.482069048E-11
 106.367188   3.449131258E-10
 106.494217   7.844587202E-10
 106.621246   1.244167214E-9
 106.748283   1.713054365E-9
 106.875313   2.178982772E-9
 107.00235   2.628882667E-9
 107.129379   3.049011488E-9
 107.256416   3.425245421E-9
 107.383446   3.74339848E-9
 107.510475   3.989564679E-9
 107.637512   4.150471966E-9
 107.764542   4.213846161E-9
 107.891579   4.16876933E-9
 108.018608   4.006032839E-9
 108.145645   3.71847042E-9
 108.272675   3.301263263E-9
 108.399704   2.75221379E-9
 108.526741   2.07197548E-9
 108.65377   1.264236715E-9
 108.780807   3.358486267E-10
 108.907837   -7.031019655E-10
 109.034874   -1.839283503E-9
 109.161903   -3.056172204E-9
 109.288933   -4.334169024E-9
 109.41597   -5.650778068E-9
 109.542999   -6.980848788E-9
 109.670036   -8.296875187E-9
 109.797066   -9.569345316E-9
 109.924095   -1.076714629E-8
 110.051132   -1.185800613E-8
 110.178162   -1.280897877E-8
 110.305199   -1.358695645E-8
 110.432228   -1.415920625E-8
 110.559265   -1.449392872E-8
 110.686295   -1.456082455E-8
 110.813324   -1.433167451E-8
 110.940361   -1.37809133E-8
 111.06739   -1.288621032E-8
 111.194427   -1.162903374E-8
 111.321457   -9.995213546E-9
 111.448494   -7.975485161E-9
 111.575523   -5.566023198E-9
 111.702553   -2.768948848E-9
 111.82959   4.071848414E-10
 111.956619   3.94693167E-9
 112.083656   7.827529735E-9
 112.210686   1.20185133E-8
 112.337723   1.648137982E-8
 112.464752   2.116930808E-8
 112.591782   2.602695659E-8
 112.718819   3.099033208E-8
 112.845848   3.598677623E-8
 112.972885   4.093505623E-8
 113.099915   4.574560819E-8
 113.226944   5.032092432E-8
 113.353981   5.455613916E-8
 113.48101   5.833978989E-8
 113.608047   6.155485011E-8
 113.735077   6.407993425E-8
 113.862114   6.579083589E-8
 113.989143   6.656225793E-8
 114.116173   6.626989091E-8
 114.24321   6.479270809E-8
 114.370239   6.201556602E-8
 114.497276   5.783203605E-8
 114.624306   5.214744903E-8
 114.751343   4.4882146E-8
 114.878372   3.59748924E-8
 115.005402   2.538630284E-8
 115.132439   1.310236897E-8
 115.259468   -8.621525716E-10
 115.386505   -1.646045433E-8
 115.513535   -3.361065026E-8
 115.640572   -5.21931085E-8
 115.767601   -7.204820918E-8
 115.89463   -9.297470172E-8
 116.021667   -1.147286639E-7
 116.148697   -1.370233065E-7
 116.275734   -1.595295629E-7
 116.402763   -1.818776809E-7
 116.529793   -2.036598516E-7
 116.65683   -2.244338191E-7
 116.783859   -2.437277544E-7
 116.910896   -2.61046182E-7
 117.037926   -2.758770279E-7
 117.164963   -2.876999758E-7
 117.291992   -2.959955339E-7
 117.419022   -3.002554934E-7
 117.546059   -2.999940989E-7
 117.673088   -2.947596727E-7
 117.800125   -2.841476601E-7