 -7.19999981   1.083861291E-17
 -7.07296753   1.08386154E-17
 -6.94593477   1.083862119E-17
 -6.81890202   1.083862863E-17
 -6.69186926   1.083863607E-17
 -6.56483698   1.083864186E-17
 -6.43780422   1.083864683E-17
 -6.31077147   1.083865014E-17
 -6.18373871   1.083865096E-17
 -6.05670643   1.083865096E-17
 -5.92967367   1.083865096E-17
 -5.80264091   1.083865096E-17
 -5.67560816   1.083865345E-17
 -5.5485754   1.083865758E-17
 -5.42154312   1.083866503E-17
 -5.29451036   1.083867412E-17
 -5.16747761   1.083868571E-17
 -5.04044485   1.083869729E-17
 -4.91341257   1.083870804E-17
 -4.78637981   1.083871714E-17
 -4.65934706   1.083872293E-17
 -4.5323143   1.083872541E-17
 -4.40528202   1.083872541E-17
 -4.27824926   1.083872293E-17
 -4.15121651   1.083871962E-17
 -4.02418375   1.083871714E-17
 -3.89715123   1.083871714E-17
 -3.77011847   1.083871962E-17
 -3.64308596   1.083872541E-17
 -3.5160532   1.083873534E-17
 -3.38902068   1.08387494E-17
 -3.26198792   1.083876511E-17
 -3.13495541   1.083878331E-17
 -3.00792265   1.083880399E-17
 -2.88089013   1.083882798E-17
 -2.75385737   1.08388561E-17
 -2.62682486   1.083889002E-17
 -2.4997921   1.083893138E-17
 -2.37275958   1.083898101E-17
 -2.24572682   1.083904057E-17
 -2.11869431   1.083911088E-17
 -1.99166155   1.083919111E-17
 -1.86462891   1.083928045E-17
 -1.73759627   1.083937723E-17
 -1.61056364   1.08394798E-17
 -1.483531   1.083958568E-17
 -1.35649836   1.083969238E-17
 -1.22946572   1.083979826E-17
 -1.10243309   1.083990166E-17
 -0.975400388   1.084000258E-17
 -0.848367751   1.084010018E-17
 -0.721335113   1.084019531E-17
 -0.594302475   1.084028713E-17
 -0.467269808   1.084037398E-17
 -0.34023717   1.084045753E-17
 -0.213204518   1.084053445E-17
 -8.617187291E-2   1.084060559E-17
 4.086076841E-2   1.084066763E-17
 0.16789341   1.084071974E-17
 0.294926047   1.08407611E-17
 0.421958715   1.084078923E-17
 0.548991323   1.084080742E-17
 0.67602402   1.084081404E-17
 0.803056657   1.084081321E-17
 0.930089295   1.084080494E-17
 1.05712187   1.084079253E-17
 1.18415463   1.084077682E-17
 1.31118727   1.084076027E-17
 1.4382199   1.084074125E-17
 1.56525254   1.084071974E-17
 1.69228518   1.084069493E-17
 1.81931782   1.084066598E-17
 1.94635046   1.084063206E-17
 2.07338309   1.084059236E-17
 2.20041585   1.084054686E-17
 2.32744837   1.084049723E-17
 2.45448112   1.084044512E-17
 2.58151364   1.084039301E-17
 2.7085464   1.08403442E-17
 2.83557892   1.084030036E-17
 2.96261168   1.084026314E-17
 3.08964419   1.084023501E-17
 3.21667695   1.084021268E-17
 3.34370947   1.084019779E-17
 3.47074223   1.084018787E-17
 3.59777474   1.084018042E-17
 3.7248075   1.084017463E-17
 3.85184002   1.084016719E-17
 3.97887278   1.084015891E-17
 4.10590553   1.084014816E-17
 4.23293829   1.084013658E-17
 4.35997057   1.084012417E-17
 4.48700333   1.084011342E-17
 4.61403608   1.084010515E-17
 4.74106884   1.084010018E-17
 4.86810112   1.08400977E-17
 4.99513388   1.084009688E-17
 5.12216663   1.084009853E-17
 5.24919939   1.084010018E-17
 5.37623167   1.084010184E-17
 5.50326443   1.084010018E-17
 5.63029718   1.084009605E-17
 5.75732994   1.08400886E-17
 5.88436222   1.084007868E-17
 6.01139498   1.084006875E-17
 6.13842773   1.084005883E-17
 6.26546049   1.084005138E-17
 6.39249325   1.084004642E-17
 6.51952553   1.084004559E-17
 6.64655828   1.084004807E-17
 6.77359104   1.084005303E-17
 6.9006238   1.084006048E-17
 7.02765608   1.08400671E-17
 7.15468884   1.084007041E-17
 7.28172159   1.084007041E-17
 7.40875435   1.084006379E-17
 7.53578663   1.084005303E-17
 7.66281939   1.084003649E-17
 7.78985214   1.084001747E-17
 7.9168849   1.083999679E-17
 8.04391766   1.083997776E-17
 8.17094994   1.083996205E-17
 8.29798317   1.083995129E-17
 8.42501545   1.083994716E-17
 8.55204773   1.083994964E-17
 8.67908096   1.083995708E-17
 8.80611324   1.083996866E-17
 8.93314552   1.083998355E-17
 9.06017876   1.083999927E-17
 9.18721104   1.084001416E-17
 9.31424427   1.084002739E-17
 9.44127655   1.084003815E-17
 9.56830883   1.084004724E-17
 9.69534206   1.084005469E-17
 9.82237434   1.084006296E-17
 9.94940662   1.084007123E-17
 10.0764399   1.084008116E-17
 10.2034721   1.084009274E-17
 10.3305054   1.084010597E-17
 10.4575377   1.084012169E-17
 10.5845699   1.084013823E-17
 10.7116032   1.084015478E-17
 10.8386354   1.084017132E-17
 10.9656687   1.084018456E-17
 11.092701   1.084019779E-17
 11.2197332   1.084020937E-17
 11.3467665   1.084022013E-17
 11.4737988   1.084023171E-17
 11.600831   1.084024494E-17
 11.7278643   1.084026148E-17
 11.8548965   1.084028051E-17
 11.9819298   1.084030284E-17
 12.1089621   1.084032766E-17
 12.2359943   1.084035247E-17
 12.3630276   1.084037729E-17
 12.4900599   1.084039962E-17
 12.6170931   1.084041699E-17
 12.7441254   1.08404294E-17
 12.8711576   1.084043602E-17
 12.9981909   1.084043767E-17
 13.1252232   1.084043602E-17
 13.2522554   1.084043188E-17
 13.3792887   1.084042857E-17
 13.506321   1.084042692E-17
 13.6333542   1.084042857E-17
 13.7603865   1.084043354E-17
 13.8874187   1.084044346E-17
 14.014452   1.08404567E-17
 14.1414843   1.084047324E-17
 14.2685175   1.084048979E-17
 14.3955498   1.084050633E-17
 14.5225821   1.084052122E-17
 14.6496153   1.08405328E-17
 14.7766476   1.08405419E-17
 14.9036798   1.084054852E-17
 15.0307131   1.084055431E-17
 15.1577454   1.08405601E-17
 15.2847786   1.084056754E-17
 15.4118109   1.084057664E-17
 15.5388432   1.084058905E-17
 15.6658764   1.084060394E-17
 15.7929087   1.084062296E-17
 15.9199409   1.084064364E-17
 16.0469742   1.084066515E-17
 16.1740074   1.084068831E-17
 16.3010387   1.084070982E-17
 16.428072   1.08407305E-17
 16.5551052   1.084074952E-17
 16.6821365   1.084076855E-17
 16.8091698   1.084078757E-17
 16.936203   1.084080742E-17
 17.0632343   1.084082893E-17
 17.1902676   1.084085292E-17
 17.3173008   1.084087939E-17
 17.444334   1.084090751E-17
 17.5713654   1.084093729E-17
 17.6983986   1.084096624E-17
 17.8254318   1.084099271E-17
 17.9524632   1.084101587E-17
 18.0794964   1.084103324E-17
 18.2065296   1.084104565E-17
 18.3335609   1.084105392E-17
 18.4605942   1.084105641E-17
 18.5876274   1.084105806E-17
 18.7146587   1.084105971E-17
 18.841692   1.084106385E-17
 18.9687252   1.084107129E-17
 19.0957584   1.084108205E-17
 19.2227898   1.084109942E-17
 19.349823   1.08411201E-17
 19.4768562   1.084114491E-17
 19.6038876   1.084117056E-17
 19.7309208   1.084119537E-17
 19.857954   1.084121771E-17
 19.9849854   1.084123756E-17
 20.1120186   1.084125245E-17
 20.2390518   1.084126485E-17
 20.3660831   1.084127313E-17
 20.4931164   1.084128057E-17
 20.6201496   1.084128884E-17
 20.7471828   1.084129711E-17
 20.8742142   1.084130952E-17
 21.0012474   1.084132358E-17
 21.1282806   1.08413393E-17
 21.255312   1.084135667E-17
 21.3823452   1.084137404E-17
 21.5093784   1.084139059E-17
 21.6364098   1.084140548E-17
 21.763443   1.084141871E-17
 21.8904762   1.084143029E-17
 22.0175076   1.084144022E-17
 22.1445408   1.084145014E-17
 22.271574   1.084146007E-17
 22.3986073   1.084147165E-17
 22.5256386   1.084148406E-17
 22.6526718   1.084149729E-17
 22.779705   1.084151053E-17
 22.9067364   1.084152293E-17
 23.0337696   1.084153369E-17
 23.1608028   1.084154196E-17
 23.2878342   1.084154775E-17
 23.4148674   1.084155106E-17
 23.5419006   1.084155271E-17
 23.668932   1.084155437E-17
 23.7959652   1.084155768E-17
 23.9229984   1.084156347E-17
 24.0500298   1.084157505E-17
 24.177063   1.084159325E-17
 24.3040962   1.084161723E-17
 24.4311295   1.084164784E-17
 24.5581608   1.084168341E-17
 24.685194   1.084172146E-17
 24.8122272   1.084175868E-17
 24.9392586   1.084179508E-17
 25.0662918   1.084182816E-17
 25.193325   1.084185546E-17
 25.3203564   1.08418778E-17
 25.4473896   1.084189599E-17
 25.5744228   1.084191006E-17
 25.7014542   1.084192164E-17
 25.8284874   1.084193239E-17
 25.9555206   1.084194397E-17
 26.0825539   1.08419572E-17
 26.2095852   1.084197127E-17
 26.3366184   1.084198698E-17
 26.4636517   1.084200353E-17
 26.590683   1.084202007E-17
 26.7177162   1.084203413E-17
 26.8447495   1.084204654E-17
 26.9717808   1.084205481E-17
 27.098814   1.084205895E-17
 27.2258472   1.084205729E-17
 27.3528786   1.08420515E-17
 27.4799118   1.08420424E-17
 27.606945   1.084203082E-17
 27.7339783   1.084201842E-17
 27.8610096   1.084200684E-17
 27.9880428   1.084199691E-17
 28.1150761   1.084199029E-17
 28.2421074   1.084198864E-17
 28.3691406   1.084199195E-17
 28.4961739   1.08420027E-17
 28.6232052   1.084202007E-17
 28.7502384   1.084204489E-17
 28.8772717   1.084207549E-17
 29.004303   1.084211106E-17
 29.1313362   1.084214828E-17
 29.2583694   1.084218551E-17
 29.3854027   1.084222025E-17
 29.512434   1.084225003E-17
 29.6394672   1.084227236E-17
 29.7665005   1.08422856E-17
 29.8935318   1.084229139E-17
 30.020565   1.084229056E-17
 30.1475983   1.08422856E-17
 30.2746296   1.084227981E-17
 30.4016628   1.084227567E-17
 30.5286961   1.084227732E-17
 30.6557274   1.084228394E-17
 30.7827606   1.084229635E-17
 30.9097939   1.084231372E-17
 31.0368271   1.084233357E-17
 31.1638584   1.084234929E-17
 31.2908916   1.084235839E-17
 31.4179249   1.084235673E-17
 31.5449562   1.084234433E-17
 31.6719894   1.084232447E-17
 31.7990227   1.084230131E-17
 31.926054   1.084228394E-17
 32.0530891   1.084228477E-17
 32.1801186   1.084231537E-17
 32.3071518   1.084238486E-17
 32.434185   1.084250149E-17
 32.5612183   1.084266527E-17
 32.6882515   1.084286876E-17
 32.8152847   1.084309623E-17
 32.9423141   1.084332702E-17
 33.0693474   1.084353381E-17
 33.1963806   1.084369015E-17
 33.3234138   1.084377204E-17
 33.4504471   1.084376294E-17
 33.5774803   1.084365458E-17
 33.7045135   1.084345192E-17
 33.831543   1.084317316E-17
 33.9585762   1.084284477E-17
 34.0856094   1.084249901E-17
 34.2126427   1.084216979E-17
 34.3396759   1.084188772E-17
 34.4667091   1.0841671E-17
 34.5937386   1.084152542E-17
 34.7207718   1.084144353E-17
 34.847805   1.084140961E-17
 34.9748383   1.084139803E-17
 35.1018715   1.084139059E-17
 35.2289047   1.084137818E-17
 35.355938   1.084137487E-17
 35.4829674   1.084141871E-17
 35.6100006   1.084157174E-17
 35.7370338   1.084191915E-17
 35.8640671   1.084255112E-17
 35.9911003   1.084354787E-17
 36.1181335   1.084495573E-17
 36.245163   1.084676395E-17
 36.3721962   1.084888815E-17
 36.4992294   1.085115463E-17
 36.6262627   1.085330281E-17
 36.7532959   1.085500019E-17
 36.8803291   1.085587121E-17
 37.0073624   1.085554365E-17
 37.1343918   1.085369986E-17
 37.261425   1.085014298E-17
 37.3884583   1.08448482E-17
 37.5154915   1.083800659E-17
 37.6425247   1.083005077E-17
 37.769558   1.082164661E-17
 37.8965874   1.08136577E-17
 38.0236206   1.080707334E-17
 38.1506538   1.08029118E-17
 38.2776871   1.080210116E-17
 38.4047203   1.080535694E-17
 38.5317535   1.08130613E-17
 38.6587868   1.082517206E-17
 38.7858162   1.084116725E-17
 38.9128494   1.086003772E-17
 39.0398827   1.08803359E-17
 39.1669159   1.090028006E-17
 39.2939491   1.091790479E-17
 39.4209824   1.093124225E-17
 39.5480118   1.093852558E-17
 39.675045   1.093837751E-17
 39.8020782   1.092997419E-17
 39.9291115   1.091316257E-17
 40.0561447   1.088851093E-17
 40.1831779   1.085730223E-17
 40.3102074   1.082144726E-17
 40.4372406   1.078335063E-17
 40.5642738   1.07457288E-17
 40.6913071   1.071141487E-17
 40.8183403   1.068314928E-17
 40.9453735   1.066339952E-17
 41.0724068   1.065421285E-17
 41.1994362   1.065709971E-17
 41.3264694   1.067296503E-17
 41.4535027   1.070207931E-17
 41.5805359   1.074405542E-17
 41.7075691   1.079785276E-17
 41.8346024   1.08617657E-17
 41.9616318   1.093340781E-17
 42.088665   1.100968793E-17
 42.2156982   1.108678778E-17
 42.3427315   1.116016201E-17
 42.4697647   1.122459441E-17
 42.5967979   1.127432451E-17
 42.7238312   1.130328824E-17
 42.8508606   1.130548275E-17
 42.9778938   1.127545692E-17
 43.1049271   1.120891355E-17
 43.2319603   1.110338185E-17
 43.3589935   1.095890235E-17
 43.4860268   1.077864728E-17
 43.6130562   1.056938548E-17
 43.7400894   1.034169905E-17
 43.8671227   1.010988582E-17
 43.9941559   9.891472914E-18
 44.1211891   9.706328386E-18
 44.2482224   9.575382387E-18
 44.3752556   9.519007546E-18
 44.502285   9.555165265E-18
 44.6293182   9.697456874E-18
 44.7563515   9.9532327E-18
 44.8833847   1.032195342E-17
 45.0104179   1.079396749E-17
 45.1374512   1.134986678E-17
 45.2644806   1.196055934E-17
 45.3915138   1.258812059E-17
 45.5185471   1.318746175E-17
 45.6455803   1.370877165E-17
 45.7726135   1.410063854E-17
 45.8996468   1.431369048E-17
 46.02668   1.430454352E-17
 46.1537094   1.403982256E-17
 46.2807426   1.349996893E-17
 46.4077759   1.268254739E-17
 46.5348091   1.160477738E-17
 46.6618423   1.030502269E-17
 46.7888756   8.843005771E-18
 46.915905   7.298585121E-18
 47.0429382   5.768981758E-18
 47.1699715   4.364437763E-18
 47.2970047   3.202386935E-18
 47.4240379   2.400322628E-18
 47.5510712   2.067658296E-18
 47.6781044   2.296994948E-18
 47.8051338   3.155305055E-18
 47.9321671   4.67563469E-18
 48.0592003   6.849964543E-18
 48.1862335   9.6239139E-18
 48.3132668   1.289390527E-17
 48.4403   1.650736023E-17
 48.5673294   2.026633363E-17
 48.6943626   2.393482009E-17
 48.8213959   2.724971828E-17
 48.9484291   2.993521307E-17
 49.0754623   3.171997767E-17
 49.2024956   3.235642036E-17
 49.3295288   3.164084957E-17
 49.4565582   2.943332951E-17
 49.5835915   2.567575404E-17
 49.7106247   2.04066913E-17
 49.8376579   1.377155631E-17
 49.9646912   6.026821813E-18
 50.0917244   -2.462763183E-18
 50.2187538   -1.123466947E-17
 50.345787   -1.974702634E-17
 50.4728203   -2.740477328E-17
 50.5998535   -3.359273443E-17
 50.7268867   -3.7714228E-17
 50.85392   -3.923333196E-17
 50.9809532   -3.771835067E-17
 51.1079826   -3.288373807E-17
 51.2350159   -2.462733074E-17
 51.3620491   -1.30598286E-17
 51.4890823   1.476563819E-18
 51.6161156   1.84029935E-17
 51.7431488   3.691430465E-17
 51.8701782   5.600617581E-17
 51.9972115   7.451910658E-17
 52.1242447   9.119829043E-17
 52.2512779   1.047669575E-16
 52.3783112   1.140095627E-16
 52.5053444   1.178600024E-16
 52.6323776   1.154892366E-16
 52.759407   1.063856573E-16
 52.8864403   9.042205752E-17
 53.0134735   6.790271385E-17
 53.1405067   3.958542966E-17
 53.26754   6.674383464E-18
 53.3945732   -2.921822946E-17
 53.5216026   -6.61419375E-17
 53.6486359   -1.019067258E-16
 53.7756691   -1.342063221E-16
 53.9027023   -1.607590316E-16
 54.0297356   -1.794579589E-16
 54.1567688   -1.885205364E-16
 54.283802   -1.866273781E-16
 54.4108315   -1.730400564E-16
 54.5378647   -1.476889161E-16
 54.6648979   -1.112229566E-16
 54.7919312   -6.501668731E-17
 54.9189644   -1.11309981E-17
 55.0459976   4.777178803E-17
 55.173027   1.085555837E-16
 55.3000603   1.677751908E-16
 55.4270935   2.218694279E-16
 55.5541267   2.673724349E-16
 55.68116   3.011311183E-16
 55.8081932   3.205160232E-16
 55.9352264   3.236125639E-16
 56.0622559   3.093798428E-16
 56.1892891   2.777660321E-16
 56.3163223   2.297698366E-16
 56.4433556   1.674412877E-16
 56.5703888   9.38171641E-17
 56.697422   1.278960772E-17
 56.8244514   -7.108860329E-17
 56.9514847   -1.528558039E-16
 57.0785179   -2.274385901E-16
 57.2055511   -2.899794002E-16
 57.3325844   -3.361749889E-16
 57.4596176   -3.626043227E-16
 57.5866508   -3.670215995E-16
 57.7136803   -3.485904273E-16
 57.8407135   -3.080364485E-16
 57.9677467   -2.476987183E-16
 58.09478   -1.714662956E-16
 58.2218132   -8.459292236E-17
 58.3488464   6.608034894E-18
 58.4758759   9.51766983E-17
 58.6029091   1.740060181E-16
 58.7299423   2.363967841E-16
 58.8569756   2.766288904E-16
 58.9840088   2.905053282E-16
 59.111042   2.758223562E-16
 59.2380753   2.327205023E-16
 59.3651047   1.63877926E-16
 59.4921379   7.451430893E-17
 59.6191711   -2.78111059E-17
 59.7462044   -1.336107918E-16
 59.8732376   -2.320759102E-16
 60.0002708   -3.118481762E-16
 60.1273003   -3.619108674E-16
 60.2543335   -3.725403897E-16
 60.3813667   -3.362499249E-16
 60.5084   -2.486528479E-16
 60.6354332   -1.09173706E-16
 60.7624664   7.846006633E-17
 60.8894997   3.060005519E-16
 61.0165291   5.607765216E-16
 61.1435623   8.261257918E-16
 61.2705956   1.082162623E-15
 61.3976288   1.306857594E-15
 61.524662   1.477382902E-15
 61.6516953   1.571658728E-15
 61.7787247   1.570013472E-15
 61.9057579   1.456860988E-15
 62.0327911   1.222283789E-15
 62.1598244   8.634109646E-16
 62.2868576   3.85480565E-16
 62.4138908   -1.975166351E-16
 62.5409203   -8.62695857E-16
 62.6679535   -1.578704348E-15
 62.7949867   -2.306747695E-15
 62.92202   -3.002218284E-15
 63.0490532   -3.616887436E-15
 63.1760864   -4.101580864E-15
 63.3031197   -4.409221113E-15
 63.4301491   -4.498082069E-15
 63.5571823   -4.335057873E-15
 63.6842155   -3.898746543E-15
 63.8112488   -3.18211453E-15
 63.938282   -2.194526206E-15
 64.0653152   -9.62934583E-16
 64.1923447   4.679357284E-16
 64.3193817   2.036528303E-15
 64.4464111   3.666568036E-15
 64.5734482   5.27032963E-15
 64.7004776   6.752946879E-15
 64.827507   8.017582739E-15
 64.9545441   8.971189372E-15
 65.0815735   9.530539437E-15
 65.2086105   9.628142196E-15
 65.33564   9.217656478E-15
 65.4626694   8.278407053E-15
 65.5897064   6.818635978E-15
 65.7167358   4.877199193E-15
 65.8437729   2.523477168E-15
 65.9708023   -1.445989135E-16
 66.0978394   -3.004410194E-15
 66.2248688   -5.914257206E-15
 66.3518982   -8.720475243E-15
 66.4789352   -1.126567881E-14
 66.6059647   -1.339768699E-14
 66.7330017   -1.497861724E-14
 66.8600311   -1.589357037E-14
 66.9870682   -1.605838943E-14
 67.1140976   -1.542594211E-14
 67.241127   -1.399050502E-14
 67.3681641   -1.178988886E-14
 67.4951935   -8.905107249E-15
 67.6222305   -5.457486219E-15
 67.7492599   -1.60331362E-15
 67.876297   2.473753793E-15
 68.0033264   6.57214092E-15
 68.1303558   1.048317622E-14
 68.2573929   1.400267096E-14
 68.3844223   1.694258849E-14
 68.5114594   1.914211282E-14
 68.6384888   2.047742299E-14
 68.7655182   2.086951793E-14
 68.8925552   2.028959852E-14
 69.0195847   1.876155955E-14
 69.1466217   1.636135109E-14
 69.2736511   1.321317018E-14
 69.4006882   9.48261516E-15
 69.5277176   5.367135332E-15
 69.654747   1.084313451E-15
 69.7817841   -3.141342175E-15
 69.9088135   -7.092277171E-15
 70.0358505   -1.057154716E-14
 70.1628799   -1.341536288E-14
 70.289917   -1.550364214E-14
 70.4169464   -1.676778968E-14
 70.5439758   -1.719512289E-14
 70.6710129   -1.682949773E-14
 70.7980423   -1.57679791E-14
 70.9250793   -1.415367576E-14
 71.0521088   -1.216506262E-14
 71.1791458   -1.000242742E-14
 71.3061752   -7.872285248E-15
 71.4332047   -5.970775903E-15
 71.5602417   -4.46716579E-15
 71.6872711   -3.488651942E-15
 71.8143082   -3.107606124E-15
 71.9413376   -3.332305118E-15
 72.068367   -4.102027251E-15
 72.1954041   -5.287098765E-15
 72.3224335   -6.694264012E-15
 72.4494705   -8.077328208E-15
 72.5764999   -9.152745802E-15
 72.703537   -9.619436392E-15
 72.8305664   -9.181793103E-15
 72.9575958   -7.574553167E-15
 73.0846329   -4.588030192E-15
 73.2116623   -9.193810753E-17
 73.3386993   5.943828397E-15
 73.4657288   1.343325306E-14
 73.5927658   2.216454999E-14
 73.7197952   3.179809118E-14
 73.8468246   4.187281964E-14
 73.9738617   5.182151976E-14
 74.1008911   6.099481543E-14
 74.2279282   6.869330815E-14
 74.3549576   7.420634067E-14
 74.481987   7.685575809E-14
 74.609024   7.604218633E-14
 74.7360535   7.129109721E-14
 74.8630905   6.229572928E-14
 74.9901199   4.895374741E-14
 75.117157   3.139490011E-14
 75.2441864   9.996956435E-15
 75.3712158   -1.461191635E-14
 75.4982529   -4.156569904E-14
 75.6252823   -6.978829813E-14
 75.7523193   -9.803594568E-14
 75.8793488   -1.249527012E-13
 76.0063858   -1.491363998E-13
 76.1334152   -1.69211799E-13
 76.2604446   -1.839066822E-13
 76.3874817   -1.921265203E-13
 76.5145111   -1.930231555E-13
 76.6415482   -1.860527791E-13
 76.7685776   -1.710194622E-13
 76.8956146   -1.481007428E-13
 77.022644   -1.178531963E-13
 77.1496735   -8.119691714E-14
 77.2767105   -3.937900217E-14
 77.4037399   6.082223839E-15
 77.530777   5.346937154E-14
 77.6578064   1.009506267E-13
 77.7848358   1.466720896E-13
 77.9118729   1.888519994E-13
 78.0389023   2.258715133E-13
 78.1659393   2.563559716E-13
 78.2929688   2.792416363E-13
 78.4200058   2.938236677E-13
 78.5470352   2.997817381E-13
 78.6740646   2.971815231E-13
 78.8011017   2.864517976E-13
 78.9281311   2.683383572E-13
 79.0551682   2.438373125E-13
 79.1821976   2.141128258E-13
 79.3092346   1.80403747E-13
 79.436264   1.439269575E-13
 79.5632935   1.057834579E-13
 79.6903305   6.687508755E-14
 79.8173599   2.783839342E-14
 79.944397   -1.099819512E-14
 80.0714264   -4.962939171E-14
 80.1984634   -8.835726611E-14
 80.3254929   -1.277438984E-13
 80.4525223   -1.685337796E-13
 80.5795593   -2.115497176E-13
 80.7065887   -2.575682723E-13
 80.8336258   -3.071826918E-13
 80.9606552   -3.606626174E-13
 81.0876846   -4.178215391E-13
 81.2147217   -4.779024941E-13
 81.3417511   -5.394926584E-13
 81.4687881   -6.004762659E-13
 81.5958176   -6.580336861E-13
 81.7228546   -7.086913521E-13
 81.849884   -7.484254102E-13
 81.9769135   -7.728174112E-13
 82.1039505   -7.772585201E-13
 82.2309799   -7.571936242E-13
 82.358017   -7.083954191E-13
 82.4850464   -6.272545959E-13
 82.6120834   -5.110723585E-13
 82.7391129   -3.58337329E-13
 82.8661423   -1.68972231E-13
 82.9931793   5.546576043E-14
 83.1202087   3.11645539E-13
 83.2472458   5.943946507E-13
 83.3742752   8.967127171E-13
 83.5013123   1.209871396E-12
 83.6283417   1.523602533E-12
 83.7553711   1.826370001E-12
 83.8824081   2.105723148E-12
 84.0094376   2.348716274E-12
 84.1364746   2.542385139E-12
 84.263504   2.674260336E-12
 84.3905334   2.732899844E-12
 84.5175705   2.708422679E-12
 84.6445999   2.593015646E-12
 84.771637   2.381398681E-12
 84.8986664   2.071222317E-12
 85.0257034   1.663380371E-12
 85.1527328   1.162221252E-12
 85.2797623   5.756440246E-13
 85.4067993   -8.493142442E-14
 85.5338287   -8.047235296E-13
 85.6608658   -1.565876985E-12
 85.7878952   -2.347876234E-12
 85.9149323   -3.12807137E-12
 86.0419617   -3.882301598E-12
 86.1689911   -4.585597527E-12
 86.2960281   -5.212936853E-12
 86.4230576   -5.740029545E-12
 86.5500946   -6.144099986E-12
 86.677124   -6.404645043E-12
 86.8041611   -6.504140542E-12
 86.9311905   -6.428665326E-12
 87.0582199   -6.168432952E-12
 87.185257   -5.718210627E-12
 87.3122864   -5.077614978E-12
 87.4393234   -4.251280317E-12
 87.5663528   -3.248900931E-12
 87.6933823   -2.085151279E-12
 87.8204193   -7.794922477E-13
 87.9474487   6.441223965E-13
 88.0744858   2.157628893E-12
 88.2015152   3.729313299E-12
 88.3285522   5.324332555E-12
 88.4555817   6.905291443E-12
 88.5826111   8.432863782E-12
 88.7096481   9.866453141E-12
 88.8366776   1.116489973E-11
 88.9637146   1.228722332E-11
 89.090744   1.319340817E-11
 89.2177811   1.384524353E-11
 89.3448105   1.420719271E-11
 89.4718399   1.424733161E-11
 89.598877   1.393830971E-11
 89.7259064   1.325834928E-11
 89.8529434   1.219226456E-11
 89.9799728   1.073246006E-11
 90.1070099   8.879907226E-12
 90.2340393   6.645029579E-12
 90.3610687   4.048490276E-12
 90.4881058   1.121806532E-12
 90.6151352   -2.092233938E-12
 90.7421722   -5.539412245E-12
 90.8692017   -9.154219917E-12
 90.9962311   -1.286032825E-11
 91.1232681   -1.657143693E-11
 91.2502975   -2.019251606E-11
 91.3773346   -2.362143987E-11
 91.504364   -2.675103541E-11
 91.6314011   -2.947152591E-11
 91.7584305   -3.167329246E-11
 91.8854599   -3.324999304E-11
 92.0124969   -3.410186022E-11
 92.1395264   -3.413921229E-11
 92.2665634   -3.328600243E-11
 92.3935928   -3.148332636E-11
 92.5206299   -2.869278252E-11
 92.6476593   -2.48995425E-11
 92.7746887   -2.011502423E-11
 92.9017258   -1.437902141E-11
 93.0287552   -7.761190995E-12
 93.1557922   -3.617937384E-13
 93.2828217   7.688422815E-12
 93.4098587   1.622925926E-11
 93.5368881   2.507306689E-11
 93.6639175   3.400772025E-11
 93.7909546   4.280057905E-11
 93.917984   5.120337487E-11
 94.0450211   5.895792882E-11
 94.1720505   6.580265499E-11
 94.2990799   7.147960002E-11
 94.4261169   7.574198907E-11
 94.5531464   7.836196275E-11
 94.6801834   7.913832784E-11
 94.8072128   7.790421086E-11
 94.9342499   7.453412193E-11
 95.0612793   6.895053278E-11
 95.1883087   6.112941403E-11
 95.3153458   5.110475931E-11
 95.4423752   3.897179801E-11
 95.5694122   2.48886918E-11
 95.6964417   9.076692523E-12
 95.8234787   -8.181475462E-12
 95.9505081   -2.654494506E-11
 96.0775375   -4.561986205E-11
 96.2045746   -6.496626848E-11
 96.331604   -8.410666608E-11
 96.4586411   -1.025360977E-10
 96.5856705   -1.197336397E-10
 96.7126999   -1.351748991E-10
 96.8397369   -1.483455164E-10
 96.9667664   -1.58755134E-10
 97.0938034   -1.659514332E-10
 97.2208328   -1.695342616E-10
 97.3478699   -1.69168915E-10
 97.4748993   -1.645986403E-10
 97.6019287   -1.556557383E-10
 97.7289658   -1.422709311E-10
 97.8559952   -1.244807035E-10
 97.9830322   -1.024322918E-10
 98.1100616   -7.638614741E-11
 98.2370987   -4.671549259E-11
 98.3641281   -1.390317115E-11
 98.4911575   2.14645593E-11
 98.6181946   5.87069976E-11
 98.745224   9.706076221E-11
 98.872261   1.356940671E-10
 98.9992905   1.737233274E-10
 99.1263275   2.102315683E-10
 99.2533569   2.442884228E-10
 99.3803864   2.749712402E-10
 99.5074234   3.013866101E-10
 99.6344528   3.22692123E-10
 99.7614899   3.381175062E-10
 99.8885193   3.469849685E-10
 100.015549   3.487277134E-10
 100.142586   3.429069251E-10
 100.269615   3.292260353E-10
 100.396652   3.075424637E-10
 100.523682   2.778759445E-10
 100.650719   2.404139665E-10
 100.777748   1.955135082E-10
 100.904778   1.436992608E-10
 101.031815   8.565837623E-11
 101.158844   2.223194545E-11
 101.285881   -4.559698452E-11
 101.41291   -1.167180935E-10
 101.539948   -1.899112118E-10
 101.666977   -2.638659291E-10
 101.794006   -3.372029878E-10
 101.921043   -4.08497125E-10
 102.048073   -4.763006656E-10
 102.17511   -5.39167655E-10
 102.302139   -5.956781735E-10
 102.429176   -6.444622058E-10
 102.556206   -6.84222512E-10
 102.683235   -7.13757331E-10
 102.810272   -7.319811979E-10
 102.937302   -7.379446498E-10
 103.064339   -7.308524341E-10
 103.191368   -7.100802724E-10
 103.318398   -6.751895154E-10
 103.445435   -6.259405216E-10
 103.572464   -5.623034816E-10
 103.699501   -4.844681323E-10
 103.82653   -3.928504189E-10
 103.953568   -2.880976568E-10
 104.080597   -1.710908082E-10
 104.207626   -4.294424885E-11
 104.334663   9.499738496E-11
 104.461693   2.411653377E-10
 104.58873   3.937762338E-10
 104.715759   5.508449807E-10
 104.842796   7.102012312E-10
 104.969826   8.695091314E-10
 105.096855   1.026290941E-9
 105.223892   1.177954179E-9
 105.350922   1.321821319E-9
 105.477959   1.455162657E-9
 105.604988   1.575232167E-9
 105.732025   1.67930414E-9
 105.859055   1.764712487E-9
 105.986084   1.828889928E-9
 106.113121   1.869407962E-9
 106.24015   1.88401561E-9
 106.367188   1.870678057E-9
 106.494217   1.827612839E-9
 106.621246   1.753324486E-9
 106.748283   1.646634495E-9
 106.875313   1.506710534E-9
 107.00235   1.333090971E-9
 107.129379   1.125705751E-9
 107.256416   8.848931587E-10
 107.383446   6.114135309E-10
 107.510475   3.064591636E-10
 107.637512   -2.833975415E-11
 107.764542   -3.909113588E-10
 107.891579   -7.787424039E-10
 108.018608   -1.188879328E-9
 108.145645   -1.617931455E-9
 108.272675   -2.062075621E-9
 108.399704   -2.517063002E-9
 108.526741   -2.978221669E-9
 108.65377   -3.440465024E-9
 108.780807   -3.898295908E-9
 108.907837   -4.345810822E-9
 109.034874   -4.776706142E-9
 109.161903   -5.184282781E-9
 109.288933   -5.561449967E-9
 109.41597   -5.900734568E-9
 109.542999   -6.194288193E-9
 109.670036   -6.433901856E-9
 109.797066   -6.611024173E-9
 109.924095   -6.716787126E-9
 110.051132   -6.742042924E-9
 110.178162   -6.677411069E-9
 110.305199   -6.513342754E-9
 110.432228   -6.240200356E-9
 110.559265   -5.848362239E-9
 110.686295   -5.328344876E-9
 110.813324   -4.670960507E-9
 110.940361   -3.867496545E-9
 111.06739   -2.909933405E-9
 111.194427   -1.791191195E-9
 111.321457   -5.054134888E-10
 111.448494   9.517130417E-10
 111.575523   2.582605019E-9
 111.702553   4.387399333E-9
 111.82959   6.363540805E-9
 111.956619   8.505346649E-9
 112.083656   1.080355982E-8
 112.210686   1.324489141E-8
 112.337723   1.58115725E-8
 112.464752   1.848092523E-8
 112.591782   2.122495957E-8
 112.718819   2.40100313E-8
 112.845848   2.679656319E-8
 112.972885   2.953883715E-8
 113.099915   3.218492495E-8
 113.226944   3.46767095E-8
 113.353981   3.695008388E-8
 113.48101   3.893527989E-8
 113.608047   4.055742764E-8
 113.735077   4.173724122E-8
 113.862114   4.239201346E-8
 113.989143   4.243671725E-8
 114.116173   4.178544444E-8
 114.24321   4.035297962E-8
 114.370239   3.805666537E-8
 114.497276   3.481843436E-8
 114.624306   3.056704756E-8
 114.751343   2.524049947E-8
 114.878372   1.87885778E-8
 115.005402   1.117548543E-8
 115.132439   2.382534392E-9
 115.259468   -7.589181727E-9
 115.386505   -1.871618061E-8
 115.513535   -3.095012602E-8
 115.640572   -4.421556454E-8
 115.767601   -5.840799844E-8
 115.89463   -7.339226471E-8
 116.021667   -8.900145332E-8
 116.148697   -1.050362997E-7
 116.275734   -1.212652165E-7
 116.402763   -1.374250616E-7
 116.529793   -1.53222615E-7
 116.65683   -1.68336868E-7
 116.783859   -1.824222551E-7
 116.910896   -1.951126762E-7
 117.037926   -2.060265558E-7
 117.164963   -2.147726548E-7
 117.291992   -2.209569772E-7
 117.419022   -2.241902592E-7
 117.546059   -2.240966097E-7
 117.673088   -2.203223772E-7
 117.800125   -2.125461691E-7
 117.927155   -2.0048887E-7
 118.054192   -1.839242856E-7
 118.181221   -1.626899007E-7
 118.30825   -1.366975795E-7
 118.435287   -1.059441317E-7
 118.562317   -7.052152995E-8
 118.689354   -3.06264667E-8
 118.816383   1.343075429E-8
 118.943413   6.121840812E-8
 119.07045   1.121766857E-7
 119.197479   1.656123914E-7
 119.324516   2.206951564E-7
 119.451546   2.764553813E-7