 -7.19999981   -4.435892933E-18
 -7.07315636   -4.43590865E-18
 -6.9463129   -4.435939255E-18
 -6.81946898   -4.435982269E-18
 -6.69262552   -4.436034381E-18
 -6.56578159   -4.43609187E-18
 -6.43893814   -4.436151014E-18
 -6.31209469   -4.436208916E-18
 -6.18525076   -4.436261029E-18
 -6.05840731   -4.436305696E-18
 -5.93156338   -4.436340438E-18
 -5.80471992   -4.436365667E-18
 -5.67787647   -4.43638097E-18
 -5.55103254   -4.436387587E-18
 -5.42418909   -4.436387587E-18
 -5.29734564   -4.436383451E-18
 -5.17050171   -4.436377247E-18
 -5.04365826   -4.436371457E-18
 -4.91681433   -4.436368976E-18
 -4.78997087   -4.436371457E-18
 -4.66312742   -4.436380556E-18
 -4.53628349   -4.4363971E-18
 -4.40944004   -4.436420261E-18
 -4.28259611   -4.436450453E-18
 -4.15575266   -4.436484781E-18
 -4.02890921   -4.436521177E-18
 -3.90206528   -4.4365584E-18
 -3.77522182   -4.436593142E-18
 -3.64837813   -4.43662292E-18
 -3.52153444   -4.436646081E-18
 -3.39469075   -4.436662211E-18
 -3.2678473   -4.436669242E-18
 -3.14100361   -4.436667588E-18
 -3.01415992   -4.436659316E-18
 -2.88731623   -4.436645254E-18
 -2.76047254   -4.436627056E-18
 -2.63362908   -4.436606376E-18
 -2.50678539   -4.436586111E-18
 -2.3799417   -4.436567913E-18
 -2.25309801   -4.436553023E-18
 -2.12625432   -4.436542684E-18
 -1.99941075   -4.436536893E-18
 -1.87256718   -4.43653648E-18
 -1.74572349   -4.436539788E-18
 -1.61887991   -4.43654806E-18
 -1.49203622   -4.436558814E-18
 -1.36519253   -4.436571635E-18
 -1.23834896   -4.436584043E-18
 -1.11150527   -4.43659521E-18
 -0.984661698   -4.436604309E-18
 -0.857818007   -4.436610512E-18
 -0.730974376   -4.436611753E-18
 -0.604130745   -4.436608444E-18
 -0.477287114   -4.436600586E-18
 -0.350443482   -4.436587765E-18
 -0.223599836   -4.436571221E-18
 -9.675619751E-2   -4.436551369E-18
 3.008744121E-2   -4.436529035E-18
 0.156931072   -4.436505874E-18
 0.283774734   -4.43648354E-18
 0.410618365   -4.436462861E-18
 0.537461996   -4.436444663E-18
 0.664305627   -4.436431014E-18
 0.791149259   -4.436420261E-18
 0.91799289   -4.436412403E-18
 1.04483652   -4.436406612E-18
 1.17168021   -4.436401649E-18
 1.29852378   -4.436395859E-18
 1.42536747   -4.436388828E-18
 1.55221117   -4.436379729E-18
 1.67905474   -4.436368148E-18
 1.80589843   -4.436352432E-18
 1.932742   -4.43633382E-18
 2.05958557   -4.436312727E-18
 2.18642926   -4.436289566E-18
 2.31327295   -4.436265164E-18
 2.44011664   -4.436240763E-18
 2.56696033   -4.436217188E-18
 2.69380379   -4.436194441E-18
 2.82064748   -4.436173347E-18
 2.94749117   -4.436153495E-18
 3.07433486   -4.436136124E-18
 3.20117831   -4.436119994E-18
 3.328022   -4.436105932E-18
 3.45486569   -4.436093525E-18
 3.58170938   -4.436082771E-18
 3.70855308   -4.436073672E-18
 3.83539653   -4.436065814E-18
 3.96224022   -4.436058369E-18
 4.08908367   -4.436050925E-18
 4.2159276   -4.436043894E-18
 4.34277105   -4.436036449E-18
 4.46961498   -4.43602735E-18
 4.59645844   -4.436016597E-18
 4.72330189   -4.436004189E-18
 4.85014582   -4.435990541E-18
 4.97698927   -4.435974824E-18
 5.1038332   -4.435957453E-18
 5.23067665   -4.435938842E-18
 5.3575201   -4.435919817E-18
 5.48436403   -4.435900378E-18
 5.61120749   -4.435880525E-18
 5.73805141   -4.435860673E-18
 5.86489487   -4.435840407E-18
 5.99173832   -4.435820968E-18
 6.11858225   -4.435801943E-18
 6.2454257   -4.435782918E-18
 6.37226963   -4.43576472E-18
 6.49911308   -4.435748177E-18
 6.62595654   -4.43573246E-18
 6.75280046   -4.435717985E-18
 6.87964392   -4.435705163E-18
 7.00648737   -4.435693169E-18
 7.1333313   -4.435681589E-18
 7.26017475   -4.435670835E-18
 7.38701868   -4.435659255E-18
 7.51386213   -4.435647261E-18
 7.64070559   -4.435633612E-18
 7.76754951   -4.435618723E-18
 7.89439297   -4.435602179E-18
 8.02123642   -4.435583981E-18
 8.14808083   -4.435564956E-18
 8.27492428   -4.435545104E-18
 8.40176773   -4.435525665E-18
 8.52861118   -4.435507053E-18
 8.65545464   -4.435488855E-18
 8.78229809   -4.435471485E-18
 8.90914249   -4.435455768E-18
 9.03598595   -4.435440465E-18
 9.1628294   -4.435425163E-18
 9.28967285   -4.435410273E-18
 9.4165163   -4.43539497E-18
 9.54336071   -4.435379254E-18
 9.67020416   -4.435363124E-18
 9.79704762   -4.43534658E-18
 9.92389107   -4.435330037E-18
 10.0507345   -4.43531432E-18
 10.1775789   -4.435299431E-18
 10.3044224   -4.435285783E-18
 10.4312658   -4.435274616E-18
 10.5581093   -4.435265103E-18
 10.6849527   -4.435257245E-18
 10.8117971   -4.435250214E-18
 10.9386406   -4.435243183E-18
 11.065484   -4.435236152E-18
 11.1923275   -4.43522788E-18
 11.319171   -4.435216713E-18
 11.4460154   -4.435203065E-18
 11.5728588   -4.435185694E-18
 11.6997023   -4.435165014E-18
 11.8265457   -4.435141026E-18
 11.9533892   -4.435113315E-18
 12.0802336   -4.435083123E-18
 12.207077   -4.435052104E-18
 12.3339205   -4.435021085E-18
 12.4607639   -4.434991306E-18
 12.5876074   -4.434964009E-18
 12.7144518   -4.434940848E-18
 12.8412952   -4.434922237E-18
 12.9681387   -4.434908588E-18
 13.0949821   -4.434900316E-18
 13.2218256   -4.434895767E-18
 13.34867   -4.43489494E-18
 13.4755135   -4.434895767E-18
 13.6023569   -4.434897008E-18
 13.7292004   -4.434895767E-18
 13.8560438   -4.434891217E-18
 13.9828882   -4.434882118E-18
 14.1097317   -4.434867229E-18
 14.2365751   -4.434844895E-18
 14.3634186   -4.434816358E-18
 14.490262   -4.434782443E-18
 14.6171055   -4.434744807E-18
 14.7439499   -4.434704688E-18
 14.8707933   -4.434664156E-18
 14.9976368   -4.434625693E-18
 15.1244802   -4.434590124E-18
 15.2513237   -4.434559104E-18
 15.3781681   -4.434533462E-18
 15.5050116   -4.43451361E-18
 15.631855   -4.43449872E-18
 15.7586985   -4.434487553E-18
 15.8855419   -4.434480109E-18
 16.0123863   -4.434474318E-18
 16.1392288   -4.434468528E-18
 16.2660732   -4.434461084E-18
 16.3929176   -4.434450744E-18
 16.5197601   -4.434436268E-18
 16.6466045   -4.434417243E-18
 16.773447   -4.434393255E-18
 16.9002914   -4.434364303E-18
 17.0271358   -4.434330803E-18
 17.1539783   -4.434293579E-18
 17.2808228   -4.434254288E-18
 17.4076653   -4.43421417E-18
 17.5345097   -4.434175293E-18
 17.6613541   -4.434138483E-18
 17.7881966   -4.434105809E-18
 17.915041   -4.434078513E-18
 18.0418835   -4.434057419E-18
 18.1687279   -4.43404253E-18
 18.2955723   -4.434033431E-18
 18.4224148   -4.434028882E-18
 18.5492592   -4.434028055E-18
 18.6761017   -4.434028882E-18
 18.8029461   -4.434028882E-18
 18.9297905   -4.4340264E-18
 19.056633   -4.434020196E-18
 19.1834774   -4.434008202E-18
 19.3103199   -4.433991659E-18
 19.4371643   -4.433969325E-18
 19.5640087   -4.433942028E-18
 19.6908512   -4.433910181E-18
 19.8176956   -4.43387544E-18
 19.9445381   -4.433839457E-18
 20.0713825   -4.433803475E-18
 20.1982269   -4.433768733E-18
 20.3250694   -4.433736887E-18
 20.4519138   -4.433707936E-18
 20.5787563   -4.433682707E-18
 20.7056007   -4.433662027E-18
 20.8324451   -4.43364507E-18
 20.9592876   -4.433631835E-18
 21.086132   -4.433621909E-18
 21.2129745   -4.433614051E-18
 21.339819   -4.43360702E-18
 21.4666634   -4.433599989E-18
 21.5935059   -4.433590476E-18
 21.7203503   -4.433578068E-18
 21.8471928   -4.433561111E-18
 21.9740372   -4.433539604E-18
 22.1008816   -4.433512721E-18
 22.2277241   -4.433480461E-18
 22.3545685   -4.433443238E-18
 22.481411   -4.433401879E-18
 22.6082554   -4.433358865E-18
 22.7350998   -4.433315852E-18
 22.8619423   -4.433273666E-18
 22.9887867   -4.433235615E-18
 23.1156292   -4.433202115E-18
 23.2424736   -4.433173991E-18
 23.369318   -4.433152484E-18
 23.4961605   -4.433136767E-18
 23.6230049   -4.433127255E-18
 23.7498474   -4.433122292E-18
 23.8766918   -4.433120637E-18
 24.0035343   -4.433121465E-18
 24.1303787   -4.433122292E-18
 24.2572231   -4.433121465E-18
 24.3840656   -4.433117742E-18
 24.51091   -4.433109057E-18
 24.6377525   -4.433094995E-18
 24.7645969   -4.433074729E-18
 24.8914413   -4.433047845E-18
 25.0182838   -4.433014345E-18
 25.1451283   -4.432976294E-18
 25.2719707   -4.432934108E-18
 25.3988152   -4.432889854E-18
 25.5256596   -4.432846427E-18
 25.6525021   -4.432804654E-18
 25.7793465   -4.432766604E-18
 25.906189   -4.432734344E-18
 26.0330334   -4.432709529E-18
 26.1598778   -4.432692158E-18
 26.2867203   -4.432682645E-18
 26.4135647   -4.432678923E-18
 26.5404072   -4.432680991E-18
 26.6672516   -4.432686781E-18
 26.794096   -4.432694226E-18
 26.9209385   -4.432700843E-18
 27.0477829   -4.432704979E-18
 27.1746254   -4.432704566E-18
 27.3014698   -4.432698775E-18
 27.4283142   -4.432686368E-18
 27.5551567   -4.432666515E-18
 27.6820011   -4.432639632E-18
 27.8088436   -4.432605304E-18
 27.935688   -4.432564772E-18
 28.0625324   -4.432519691E-18
 28.1893749   -4.432471301E-18
 28.3162193   -4.432421256E-18
 28.4430618   -4.432371625E-18
 28.5699062   -4.43232489E-18
 28.6967506   -4.432282703E-18
 28.8235931   -4.432247135E-18
 28.9504375   -4.432219838E-18
 29.07728   -4.432200399E-18
 29.2041245   -4.432189646E-18
 29.3309689   -4.432187164E-18
 29.4578114   -4.432190886E-18
 29.5846558   -4.432199572E-18
 29.7114983   -4.432209498E-18
 29.8383427   -4.432219011E-18
 29.9651871   -4.432224387E-18
 30.0920296   -4.432223974E-18
 30.218874   -4.432214875E-18
 30.3457165   -4.432196263E-18
 30.4725609   -4.432168552E-18
 30.5994053   -4.432131743E-18
 30.7262478   -4.432087489E-18
 30.8530922   -4.432037444E-18
 30.9799347   -4.431984918E-18
 31.1067791   -4.431931565E-18
 31.2336235   -4.431879866E-18
 31.360466   -4.431833131E-18
 31.4873104   -4.431792599E-18
 31.6141529   -4.43176158E-18
 31.7409973   -4.431739659E-18
 31.8678417   -4.431727665E-18
 31.9946842   -4.43172477E-18
 32.1215286   -4.431729733E-18
 32.2483711   -4.431741727E-18
 32.3752136   -4.431757444E-18
 32.5020599   -4.431774401E-18
 32.6289024   -4.431789704E-18
 32.7557449   -4.431800044E-18
 32.8825912   -4.431803352E-18
 33.0094337   -4.431797148E-18
 33.1362762   -4.431780191E-18
 33.2631226   -4.43175124E-18
 33.3899651   -4.431710708E-18
 33.5168076   -4.431659836E-18
 33.6436501   -4.431600279E-18
 33.7704964   -4.431535346E-18
 33.8973389   -4.431468344E-18
 34.0241814   -4.431401756E-18
 34.1510277   -4.43133889E-18
 34.2778702   -4.431281815E-18
 34.4047127   -4.431232598E-18
 34.531559   -4.431192479E-18
 34.6584015   -4.431160219E-18
 34.785244   -4.431137058E-18
 34.9120865   -4.431121342E-18
 35.0389328   -4.431111002E-18
 35.1657753   -4.431103557E-18
 35.2926178   -4.431096526E-18
 35.4194641   -4.431087841E-18
 35.5463066   -4.431074606E-18
 35.6731491   -4.431055167E-18
 35.7999954   -4.431026216E-18
 35.9268379   -4.430988166E-18
 36.0536804   -4.430939776E-18
 36.1805229   -4.430880632E-18
 36.3073692   -4.43081239E-18
 36.4342117   -4.430735876E-18
 36.5610542   -4.430654398E-18
 36.6879005   -4.43057044E-18
 36.814743   -4.430488549E-18
 36.9415855   -4.430411207E-18
 37.0684319   -4.430342138E-18
 37.1952744   -4.430283408E-18
 37.3221169   -4.430236672E-18
 37.4489594   -4.430203585E-18
 37.5758057   -4.430182492E-18
 37.7026482   -4.430172152E-18
 37.8294907   -4.430170084E-18
 37.956337   -4.430173393E-18
 38.0831795   -4.430176702E-18
 38.210022   -4.430177115E-18
 38.3368683   -4.430170911E-18
 38.4637108   -4.430154368E-18
 38.5905533   -4.430125416E-18
 38.7173958   -4.43008323E-18
 38.8442421   -4.430027395E-18
 38.9710846   -4.429959153E-18
 39.0979271   -4.429880571E-18
 39.2247734   -4.429795371E-18
 39.3516159   -4.429706863E-18
 39.4784584   -4.429617941E-18
 39.6053047   -4.429534396E-18
 39.7321472   -4.429458295E-18
 39.8589897   -4.429393362E-18
 39.9858322   -4.429340836E-18
 40.1126785   -4.429301958E-18
 40.239521   -4.429275488E-18
 40.3663635   -4.429260185E-18
 40.4932098   -4.429252741E-18
 40.6200523   -4.429250673E-18
 40.7468948   -4.429249019E-18
 40.8737411   -4.42924571E-18
 41.0005836   -4.429234956E-18
 41.1274261   -4.429215518E-18
 41.2542686   -4.429184085E-18
 41.381115   -4.429140244E-18
 41.5079575   -4.429083582E-18
 41.6348   -4.429016167E-18
 41.7616463   -4.428939239E-18
 41.8884888   -4.428855694E-18
 42.0153313   -4.42876884E-18
 42.1421776   -4.428681573E-18
 42.2690201   -4.4285972E-18
 42.3958626   -4.428518618E-18
 42.5227051   -4.428447894E-18
 42.6495514   -4.428387924E-18
 42.7763939   -4.428337879E-18
 42.9032364   -4.428299829E-18
 43.0300827   -4.428272532E-18
 43.1569252   -4.428254747E-18
 43.2837677   -4.428244408E-18
 43.4106102   -4.428238617E-18
 43.5374565   -4.428234482E-18
 43.664299   -4.428227864E-18
 43.7911415   -4.428216284E-18
 43.9179878   -4.428195604E-18
 44.0448303   -4.428163758E-18
 44.1716728   -4.428118263E-18
 44.2985191   -4.428059533E-18
 44.4253616   -4.427986741E-18
 44.5522041   -4.427903196E-18
 44.6790466   -4.427810551E-18
 44.8058929   -4.427712944E-18
 44.9327354   -4.42761451E-18
 45.0595779   -4.427519797E-18
 45.1864243   -4.427432116E-18
 45.3132668   -4.427354775E-18
 45.4401093   -4.427291496E-18
 45.5669556   -4.427242278E-18
 45.6937981   -4.42720795E-18
 45.8206406   -4.427185616E-18
 45.9474831   -4.427174036E-18
 46.0743294   -4.4271699E-18
 46.2011719   -4.427168246E-18
 46.3280144   -4.427165351E-18
 46.4548607   -4.427157492E-18
 46.5817032   -4.427140949E-18
 46.7085457   -4.427112411E-18
 46.835392   -4.427070638E-18
 46.9622345   -4.427014804E-18
 47.089077   -4.426945734E-18
 47.2159195   -4.426863843E-18
 47.3427658   -4.426772853E-18
 47.4696083   -4.426674419E-18
 47.5964508   -4.426572676E-18
 47.7232971   -4.426472173E-18
 47.8501396   -4.426375807E-18
 47.9769821   -4.426286471E-18
 48.1038284   -4.426206648E-18
 48.2306709   -4.426138406E-18
 48.3575134   -4.426082158E-18
 48.4843559   -4.42603749E-18
 48.6112022   -4.426003162E-18
 48.7380447   -4.425977106E-18
 48.8648872   -4.425956013E-18
 48.9917336   -4.425938228E-18
 49.118576   -4.425919617E-18
 49.2454185   -4.425897696E-18
 49.3722649   -4.425870399E-18
 49.4991074   -4.425835244E-18
 49.6259499   -4.425790163E-18
 49.7527924   -4.425735982E-18
 49.8796387   -4.425671876E-18
 50.0064812   -4.42559867E-18
 50.1333237   -4.425517193E-18
 50.26017   -4.425430339E-18
 50.3870125   -4.425339349E-18
 50.513855   -4.425247532E-18
 50.6407013   -4.42515737E-18
 50.7675438   -4.425071343E-18
 50.8943863   -4.424991934E-18
 51.0212288   -4.424920382E-18
 51.1480751   -4.424858757E-18
 51.2749176   -4.424807059E-18
 51.4017601   -4.424766113E-18
 51.5286064   -4.424734267E-18
 51.6554489   -4.424710279E-18
 51.7822914   -4.424692494E-18
 51.9091377   -4.424677605E-18
 52.0359802   -4.424663129E-18
 52.1628227   -4.424645758E-18
 52.2896652   -4.424622597E-18
 52.4165115   -4.424591992E-18
 52.543354   -4.424552701E-18
 52.6701965   -4.42450307E-18
 52.7970428   -4.424442272E-18
 52.9238853   -4.424371962E-18
 53.0507278   -4.424293379E-18
 53.1775742   -4.42420818E-18
 53.3044167   -4.424120085E-18
 53.4312592   -4.424031163E-18
 53.5581017   -4.423944309E-18
 53.684948   -4.423863246E-18
 53.8117905   -4.423789213E-18
 53.938633   -4.423723452E-18
 54.0654793   -4.423668031E-18
 54.1923218   -4.423622536E-18
 54.3191643   -4.42358614E-18
 54.4460106   -4.42355843E-18
 54.5728531   -4.423536923E-18
 54.6996956   -4.423519138E-18
 54.8265381   -4.423501768E-18
 54.9533844   -4.423482742E-18
 55.0802269   -4.423459581E-18
 55.2070694   -4.423430217E-18
 55.3339157   -4.42339258E-18
 55.4607582   -4.423346258E-18
 55.5876007   -4.423290009E-18
 55.7144432   -4.423224662E-18
 55.8412895   -4.423151043E-18
 55.968132   -4.423069979E-18
 56.0949745   -4.42298478E-18
 56.2218208   -4.422897512E-18
 56.3486633   -4.422810658E-18
 56.4755058   -4.422727527E-18
 56.6023521   -4.422650185E-18
 56.7291946   -4.422581529E-18
 56.8560371   -4.422522386E-18
 56.9828796   -4.422476064E-18
 57.109726   -4.422440081E-18
 57.2365685   -4.422416093E-18
 57.3634109   -4.422401204E-18
 57.4902573   -4.422394173E-18
 57.6170998   -4.42239045E-18
 57.7439423   -4.422388383E-18
 57.8707886   -4.422384247E-18
 57.9976311   -4.422373493E-18
 58.1244736   -4.422353641E-18
 58.2513161   -4.422321794E-18
 58.3781624   -4.422276713E-18
 58.5050049   -4.42221757E-18
 58.6318474   -4.422145191E-18
 58.7586937   -4.422061233E-18
 58.8855362   -4.421969002E-18
 59.0123787   -4.421870567E-18
 59.139225   -4.421770892E-18
 59.2660675   -4.421672458E-18
 59.39291   -4.421580227E-18
 59.5197525   -4.421495441E-18
 59.6465988   -4.421419754E-18
 59.7734413   -4.421353993E-18
 59.9002838   -4.421296918E-18
 60.0271301   -4.42124646E-18
 60.1539726   -4.421200138E-18
 60.2808151   -4.421154229E-18
 60.4076614   -4.421105012E-18
 60.5345039   -4.421047936E-18
 60.6613464   -4.420979694E-18
 60.7881889   -4.420897389E-18
 60.9150352   -4.420797714E-18
 61.0418777   -4.420680668E-18
 61.1687202   -4.420546251E-18
 61.2955666   -4.420394877E-18
 61.4224091   -4.420229028E-18
 61.5492516   -4.420050357E-18
 61.6760979   -4.419863414E-18
 61.8029404   -4.419671094E-18
 61.9297829   -4.41947712E-18
 62.0566254   -4.419283974E-18
 62.1834717   -4.419094549E-18
 62.3103142   -4.418910088E-18
 62.4371567   -4.418731003E-18
 62.564003   -4.418558123E-18
 62.6908455   -4.418389791E-18
 62.817688   -4.418225596E-18
 62.9445343   -4.418062642E-18
 63.0713768   -4.41789886E-18
 63.1982193   -4.417732183E-18
 63.3250618   -4.417559716E-18
 63.4519081   -4.417378977E-18
 63.5787506   -4.417188312E-18
 63.7055931   -4.416986066E-18
 63.8324394   -4.416771826E-18
 63.9592819   -4.416544351E-18
 64.0861282   -4.41630571E-18
 64.2129669   -4.416055901E-18
 64.3398132   -4.415797821E-18
 64.4666595   -4.41553395E-18
 64.5934982   -4.415268012E-18
 64.7203445   -4.415002073E-18
 64.8471909   -4.41473903E-18
 64.9740295   -4.414483431E-18
 65.1008759   -4.41423569E-18
 65.2277145   -4.413997462E-18
 65.3545609   -4.413768747E-18
 65.4814072   -4.413549131E-18
 65.6082458   -4.413336545E-18
 65.7350922   -4.413128509E-18
 65.8619385   -4.412920887E-18
 65.9887772   -4.412710369E-18
 66.1156235   -4.412493234E-18
 66.2424698   -4.41226576E-18
 66.3693085   -4.412025464E-18
 66.4961548   -4.411770692E-18
 66.6230011   -4.411500204E-18
 66.7498398   -4.411214827E-18
 66.8766861   -4.410916628E-18
 67.0035324   -4.410607676E-18
 67.1303711   -4.41029128E-18
 67.2572174   -4.409971574E-18
 67.3840637   -4.409652696E-18
 67.5109024   -4.409337954E-18
 67.6377487   -4.40903107E-18
 67.7645874   -4.408733285E-18
 67.8914337   -4.408446667E-18
 68.01828   -4.408171216E-18
 68.1451187   -4.407905277E-18
 68.271965   -4.40764637E-18
 68.3988113   -4.407392012E-18
 68.52565   -4.407139308E-18
 68.6524963   -4.406884123E-18
 68.7793427   -4.406623147E-18
 68.9061813   -4.406353073E-18
 69.0330276   -4.406071418E-18
 69.159874   -4.405775701E-18
 69.2867126   -4.405465922E-18
 69.413559   -4.405142494E-18
 69.5404053   -4.404806245E-18
 69.667244   -4.404459656E-18
 69.7940903   -4.404105623E-18
 69.920929   -4.403746627E-18
 70.0477753   -4.403385976E-18
 70.1746216   -4.40302698E-18
 70.3014603   -4.402672533E-18
 70.4283066   -4.40232553E-18
 70.5551529   -4.401987213E-18
 70.6819916   -4.401658823E-18
 70.8088379   -4.401339531E-18
 70.9356842   -4.401030166E-18
 71.0625229   -4.400728245E-18
 71.1893692   -4.400431287E-18
 71.3162155   -4.400136397E-18
 71.4430542   -4.399841921E-18
 71.5699005   -4.399544549E-18
 71.6967468   -4.399240974E-18
 71.8235855   -4.3989283E-18
 71.9504318   -4.398605286E-18
 72.0772781   -4.398270277E-18
 72.2041168   -4.397923275E-18
 72.3309631   -4.397563452E-18
 72.4578018   -4.397192047E-18
 72.5846481   -4.396811958E-18
 72.7114944   -4.396425665E-18
 72.8383331   -4.396035649E-18
 72.9651794   -4.395646047E-18
 73.0920258   -4.395259754E-18
 73.2188644   -4.394880491E-18
 73.3457108   -4.394510742E-18
 73.4725571   -4.394152572E-18
 73.5993958   -4.393805984E-18
 73.7262421   -4.393470975E-18
 73.8530884   -4.393145894E-18
 73.9799271   -4.392827015E-18
 74.1067734   -4.392512273E-18
 74.2336197   -4.392196704E-18
 74.3604584   -4.391876585E-18
 74.4873047   -4.391546953E-18
 74.614151   -4.391204914E-18
 74.7409897   -4.390849227E-18
 74.867836   -4.390476582E-18
 74.9946747   -4.39008822E-18
 75.121521   -4.38968497E-18
 75.2483673   -4.389268898E-18
 75.375206   -4.388843727E-18
 75.5020523   -4.388412352E-18
 75.6288986   -4.387978083E-18
 75.7557373   -4.387545054E-18
 75.8825836   -4.387115747E-18
 76.0094299   -4.386692644E-18
 76.1362686   -4.386276572E-18
 76.2631149   -4.385868358E-18
 76.3899612   -4.385467589E-18
 76.5167999   -4.385072197E-18
 76.6436462   -4.384681768E-18
 76.7704926   -4.384294234E-18
 76.8973312   -4.38390794E-18
 77.0241776   -4.38352082E-18
 77.1510239   -4.383129563E-18
 77.2778625   -4.382734585E-18
 77.4047089   -4.382334229E-18
 77.5315475   -4.38192767E-18
 77.6583939   -4.381514493E-18
 77.7852402   -4.381095526E-18
 77.9120789   -4.380671183E-18
 78.0389252   -4.380243117E-18
 78.1657715   -4.379811328E-18
 78.2926102   -4.37937954E-18
 78.4194565   -4.378948165E-18
 78.5463028   -4.378519272E-18
 78.6731415   -4.378095342E-18
 78.7999878   -4.377678857E-18
 78.9268341   -4.377271057E-18
 79.0536728   -4.37687401E-18
 79.1805191   -4.376487303E-18
 79.3073654   -4.376111763E-18
 79.4342041   -4.375746563E-18
 79.5610504   -4.375390048E-18
 79.6878967   -4.375040978E-18
 79.8147354   -4.374697284E-18
 79.9415817   -4.374356072E-18
 80.0684204   -4.374014447E-18
 80.1952667   -4.373669926E-18
 80.322113   -4.373319615E-18
 80.4489517   -4.372963514E-18
 80.575798   -4.372599141E-18
 80.7026443   -4.372226909E-18
 80.829483   -4.371847647E-18
 80.9563293   -4.371462181E-18
 81.0831757   -4.371072579E-18
 81.2100143   -4.370681322E-18
 81.3368607   -4.37029172E-18
 81.463707   -4.369905841E-18
 81.5905457   -4.369526165E-18
 81.717392   -4.369154347E-18
 81.8442383   -4.368791215E-18
 81.971077   -4.368436768E-18
 82.0979233   -4.36809142E-18
 82.224762   -4.367752689E-18
 82.3516083   -4.367418922E-18
 82.4784546   -4.36708805E-18
 82.6052933   -4.366757591E-18
 82.7321396   -4.366425065E-18
 82.8589859   -4.366088816E-18
 82.9858246   -4.36574719E-18
 83.1126709   -4.365399361E-18
 83.2395172   -4.365045741E-18
 83.3663559   -4.364685917E-18
 83.4932022   -4.364321544E-18
 83.6200485   -4.36395469E-18
 83.7468872   -4.363587008E-18
 83.8737335   -4.36322098E-18
 84.0005798   -4.362857848E-18
 84.1274185   -4.362500506E-18
 84.2542648   -4.362149782E-18
 84.3811111   -4.361807329E-18
 84.5079498   -4.361473148E-18
 84.6347961   -4.361147652E-18
 84.7616348   -4.360829188E-18
 84.8884811   -4.360518168E-18
 85.0153275   -4.360212525E-18
 85.1421661   -4.359910604E-18
 85.2690125   -4.359610337E-18
 85.3958588   -4.359310898E-18
 85.5226974   -4.35900939E-18
 85.6495438   -4.358704574E-18
 85.7763901   -4.358396036E-18
 85.9032288   -4.358082948E-18
 86.0300751   -4.357764897E-18
 86.1569214   -4.357442297E-18
 86.2837601   -4.35711556E-18
 86.4106064   -4.356785515E-18
 86.5374527   -4.356454229E-18
 86.6642914   -4.356122944E-18
 86.7911377   -4.355792899E-18
 86.917984   -4.355466162E-18
 87.0448227   -4.355143562E-18
 87.171669   -4.354826752E-18
 87.2985077   -4.354516559E-18
 87.425354   -4.35421257E-18
 87.5522003   -4.353914371E-18
 87.679039   -4.353621549E-18
 87.8058853   -4.353332863E-18
 87.9327316   -4.353047486E-18
 88.0595703   -4.35276335E-18
 88.1864166   -4.352478799E-18
 88.3132629   -4.352192181E-18
 88.4401016   -4.351903082E-18
 88.5669479   -4.351609019E-18
 88.6937943   -4.351310407E-18
 88.8206329   -4.351006004E-18
 88.9474792   -4.350696639E-18
 89.0743256   -4.350383137E-18
 89.2011642   -4.350066741E-18
 89.3280106   -4.349748276E-18
 89.4548569   -4.349428571E-18
 89.5816956   -4.349110934E-18
 89.7085419   -4.348794951E-18
 89.8353806   -4.348483517E-18
 89.9622269   -4.348176633E-18
 90.0890732   -4.347875126E-18
 90.2159119   -4.347578995E-18
 90.3427582   -4.347287414E-18
 90.4696045   -4.346999969E-18
 90.5964432   -4.346715419E-18
 90.7232895   -4.346432523E-18
 90.8501358   -4.346150041E-18
 90.9769745   -4.345866731E-18
 91.1038208   -4.345581354E-18
 91.2306671   -4.345293495E-18
 91.3575058   -4.345002741E-18
 91.4843521   -4.344709092E-18
 91.6111984   -4.344412961E-18
 91.7380371   -4.344115176E-18
 91.8648834   -4.343816978E-18
 91.9917297   -4.34352002E-18
 92.1185684   -4.343225544E-18
 92.2454147   -4.342935203E-18
 92.3722534   -4.342650239E-18
 92.4990997   -4.342371893E-18
 92.625946   -4.342100992E-18
 92.7527847   -4.341839189E-18
 92.879631   -4.341586899E-18
 93.0064774   -4.341344535E-18
 93.133316   -4.341111683E-18
 93.2601624   -4.340888758E-18
 93.3870087   -4.340674519E-18
 93.5138474   -4.340467723E-18
 93.6406937   -4.340267959E-18
 93.76754   -4.340072745E-18
 93.8943787   -4.339881252E-18
 94.021225   -4.339691001E-18
 94.1480713   -4.339500749E-18
 94.27491   -4.339307603E-18
 94.4017563   -4.339111147E-18
 94.528595   -4.338909729E-18
 94.6554413   -4.33870252E-18
 94.7822876   -4.33848828E-18
 94.9091263   -4.338267423E-18
 95.0359726   -4.338040775E-18
 95.1628189   -4.337807511E-18
 95.2896576   -4.337568455E-18
 95.4165039   -4.337324437E-18
 95.5433502   -4.337075042E-18
 95.6701889   -4.336820684E-18
 95.7970352   -4.336560949E-18
 95.9238815   -4.336295424E-18
 96.0507202   -4.336022041E-18
 96.1775665   -4.335739559E-18
 96.3044128   -4.335446323E-18
 96.4312515   -4.335139026E-18
 96.5580978   -4.334816425E-18
 96.6849442   -4.3344748E-18
 96.8117828   -4.334112495E-18
 96.9386292   -4.333727856E-18
 97.0654678   -4.333319642E-18
 97.1923141   -4.332887027E-18
 97.3191605   -4.332430009E-18
 97.4459991   -4.331949417E-18
 97.5728455   -4.331446905E-18
 97.6996918   -4.330924541E-18
 97.8265305   -4.330383151E-18
 97.9533768   -4.329825218E-18
 98.0802231   -4.329252395E-18
 98.2070618   -4.328665097E-18
 98.3339081   -4.328064977E-18
 98.4607544   -4.327451209E-18
 98.5875931   -4.326823379E-18
 98.7144394   -4.326180246E-18
 98.8412857   -4.32552057E-18
 98.9681244   -4.324841868E-18
 99.0949707   -4.324143314E-18
 99.221817   -4.323422426E-18
 99.3486557   -4.322677964E-18
 99.475502   -4.321909513E-18
 99.6023407   -4.321115419E-18
 99.729187   -4.320296511E-18
 99.8560333   -4.3194532E-18
 99.982872   -4.318586728E-18
 100.109718   -4.317697509E-18
 100.236565   -4.316786783E-18
 100.363403   -4.315857859E-18
 100.49025   -4.314911565E-18
 100.617096   -4.31394914E-18
 100.743935   -4.312973894E-18
 100.870781   -4.311986654E-18
 100.997627   -4.310989488E-18
 101.124466   -4.309983223E-18
 101.251312   -4.30897034E-18
 101.378159   -4.307949599E-18
 101.504997   -4.306922241E-18
 101.631844   -4.305888265E-18
 101.75869   -4.304846845E-18
 101.885529   -4.303797566E-18
 102.012375   -4.302740429E-18
 102.139214   -4.301673366E-18
 102.26606   -4.300595136E-18
 102.392906   -4.299505739E-18
 102.519745   -4.298405176E-18
 102.646591   -4.297293031E-18
 102.773438   -4.296170961E-18
 102.900276   -4.295039378E-18
 103.027122   -4.293900764E-18
 103.153969   -4.292756773E-18
 103.280807   -4.291610301E-18
 103.407654   -4.290463828E-18
 103.5345   -4.289320251E-18
 103.661339   -4.288181637E-18
 103.788185   -4.28704964E-18
 103.915031   -4.285925088E-18
 104.04187   -4.284808808E-18
 104.168716   -4.283700799E-18
 104.295563   -4.282598995E-18
 104.422401   -4.281502981E-18
 104.549248   -4.280409448E-18
 104.676086   -4.279316329E-18
 104.802933   -4.278220728E-18
 104.929779   -4.277119751E-18
 105.056618   -4.276010088E-18
 105.183464   -4.274889672E-18
 105.31031   -4.273756848E-18
 105.437149   -4.272609962E-18
 105.563995   -4.271449427E-18
 105.690842   -4.270276485E-18
 105.81768   -4.269092376E-18
 105.944527   -4.267899168E-18
 106.071373   -4.266699756E-18
 106.198212   -4.265497036E-18
 106.325058   -4.264292661E-18
 106.451904   -4.263089113E-18
 106.578743   -4.261888047E-18
 106.705589   -4.260689048E-18
 106.832428   -4.259490877E-18
 106.959274   -4.258293947E-18
 107.086121   -4.257094949E-18
 107.212959   -4.255891401E-18
 107.339806   -4.254681649E-18
 107.466652   -4.253462385E-18
 107.593491   -4.252233608E-18
 107.720337   -4.250993664E-18
 107.847183   -4.24974214E-18
 107.974022   -4.248480276E-18
 108.100868   -4.247209727E-18
 108.227715   -4.245932973E-18
 108.354553   -4.244652498E-18
 108.4814   -4.243371609E-18
 108.608246   -4.242094028E-18
 108.735085   -4.240822652E-18
 108.861931   -4.239560788E-18
 108.988777   -4.238310918E-18
 109.115616   -4.237075523E-18
 109.242462   -4.235855432E-18
 109.369301   -4.234652711E-18
 109.496147   -4.233468189E-18
 109.622993   -4.232301451E-18
 109.749832   -4.23115167E-18
 109.876678   -4.230017605E-18
 110.003525   -4.228898016E-18
 110.130363   -4.227790008E-18
 110.25721   -4.226691098E-18
 110.384056   -4.225598806E-18
 110.510895   -4.224511477E-18
 110.637741   -4.223426216E-18
 110.764587   -4.222341369E-18
 110.891426   -4.221255694E-18
 111.018272   -4.220168779E-18
 111.145119   -4.219081864E-18
 111.271957   -4.217995362E-18
 111.398804   -4.216910928E-18
 111.52565   -4.21583063E-18
 111.652489   -4.21475695E-18
 111.779335   -4.213691955E-18
 111.906174   -4.212638127E-18
 112.03302   -4.211596293E-18
 112.159866   -4.210566039E-18
 112.286705   -4.209546953E-18
 112.413551   -4.208536965E-18
 112.540398   -4.207533181E-18
 112.667236   -4.206531879E-18
 112.794083   -4.205528923E-18
 112.920929   -4.204520176E-18
 113.047768   -4.203503158E-18
 113.174614   -4.202474145E-18
 113.30146   -4.201430243E-18
 113.428299   -4.200372279E-18
 113.555145   -4.199301494E-18
 113.681992   -4.198218714E-18
 113.80883   -4.197127663E-18
 113.935677   -4.196033303E-18
 114.062523   -4.194939357E-18
 114.189362   -4.193850373E-18
 114.316208   -4.192770489E-18
 114.443047   -4.191701772E-18
 114.569893   -4.190647944E-18
 114.696739   -4.189608178E-18
 114.823578   -4.188583714E-18
 114.950424   -4.187573313E-18
 115.077271   -4.186574493E-18
 115.204109   -4.185585185E-18
 115.330956   -4.184604149E-18
 115.457802   -4.183628075E-18
 115.584641   -4.182654897E-18
 115.711487   -4.181683787E-18
 115.838333   -4.180713504E-18
 115.965172   -4.179743222E-18