 -7.19999981   1.008669581E-17
 -7.07315636   1.008669167E-17
 -6.9463129   1.008668258E-17
 -6.81946898   1.0086671E-17
 -6.69262552   1.008665941E-17
 -6.56578159   1.008664866E-17
 -6.43893814   1.008664039E-17
 -6.31209469   1.008663708E-17
 -6.18525076   1.008663874E-17
 -6.05840731   1.008664453E-17
 -5.93156338   1.00866528E-17
 -5.80471992   1.008666438E-17
 -5.67787647   1.008667596E-17
 -5.55103254   1.008668837E-17
 -5.42418909   1.008669912E-17
 -5.29734564   1.008670905E-17
 -5.17050171   1.008671732E-17
 -5.04365826   1.008672476E-17
 -4.91681433   1.008673138E-17
 -4.78997087   1.008673717E-17
 -4.66312742   1.008674296E-17
 -4.53628349   1.008674958E-17
 -4.40944004   1.008675537E-17
 -4.28259611   1.008676033E-17
 -4.15575266   1.008676529E-17
 -4.02890921   1.008677026E-17
 -3.90206528   1.008677605E-17
 -3.77522182   1.008678184E-17
 -3.64837813   1.008679011E-17
 -3.52153444   1.008680086E-17
 -3.39469075   1.008681575E-17
 -3.2678473   1.008683395E-17
 -3.14100361   1.008685463E-17
 -3.01415992   1.008687696E-17
 -2.88731623   1.00868993E-17
 -2.76047254   1.008691998E-17
 -2.63362908   1.008693652E-17
 -2.50678539   1.008694727E-17
 -2.3799417   1.008695141E-17
 -2.25309801   1.008695058E-17
 -2.12625432   1.008694479E-17
 -1.99941075   1.008693569E-17
 -1.87256718   1.008692659E-17
 -1.74572349   1.008691667E-17
 -1.61887991   1.008691005E-17
 -1.49203622   1.008690509E-17
 -1.36519253   1.008690343E-17
 -1.23834896   1.008690343E-17
 -1.11150527   1.008690591E-17
 -0.984661698   1.00869084E-17
 -0.857818007   1.008691088E-17
 -0.730974376   1.00869117E-17
 -0.604130745   1.008691088E-17
 -0.477287114   1.008690922E-17
 -0.350443482   1.008690757E-17
 -0.223599836   1.008690591E-17
 -9.675619751E-2   1.008690509E-17
 3.008744121E-2   1.008690426E-17
 0.156931072   1.008690343E-17
 0.283774734   1.008690261E-17
 0.410618365   1.008690178E-17
 0.537461996   1.00868993E-17
 0.664305627   1.008689599E-17
 0.791149259   1.008689103E-17
 0.91799289   1.008688689E-17
 1.04483652   1.008688275E-17
 1.17168021   1.008688027E-17
 1.29852378   1.008688027E-17
 1.42536747   1.008688275E-17
 1.55221117   1.008688772E-17
 1.67905474   1.008689433E-17
 1.80589843   1.008690178E-17
 1.932742   1.008691005E-17
 2.05958557   1.008691584E-17
 2.18642926   1.008691998E-17
 2.31327295   1.008692246E-17
 2.44011664   1.008692246E-17
 2.56696033   1.008692163E-17
 2.69380379   1.00869208E-17
 2.82064748   1.008692246E-17
 2.94749117   1.008692742E-17
 3.07433486   1.008693735E-17
 3.20117831   1.008695058E-17
 3.328022   1.008696878E-17
 3.45486569   1.008699111E-17
 3.58170938   1.008701428E-17
 3.70855308   1.008703909E-17
 3.83539653   1.008706391E-17
 3.96224022   1.008708789E-17
 4.08908367   1.008711106E-17
 4.2159276   1.008713256E-17
 4.34277105   1.008715324E-17
 4.46961498   1.008717475E-17
 4.59645844   1.008719625E-17
 4.72330189   1.008721942E-17
 4.85014582   1.008724258E-17
 4.97698927   1.008726491E-17
 5.1038332   1.008728724E-17
 5.23067665   1.008730792E-17
 5.3575201   1.008732695E-17
 5.48436403   1.008734432E-17
 5.61120749   1.008736004E-17
 5.73805141   1.008737575E-17
 5.86489487   1.008739395E-17
 5.99173832   1.008741546E-17
 6.11858225   1.008744027E-17
 6.2454257   1.008747005E-17
 6.37226963   1.008750231E-17
 6.49911308   1.008753705E-17
 6.62595654   1.008757097E-17
 6.75280046   1.008760323E-17
 6.87964392   1.008763218E-17
 7.00648737   1.008765617E-17
 7.1333313   1.008767437E-17
 7.26017475   1.008768843E-17
 7.38701868   1.008769918E-17
 7.51386213   1.008770911E-17
 7.64070559   1.008771903E-17
 7.76754951   1.008773144E-17
 7.89439297   1.008774716E-17
 8.02123642   1.008776536E-17
 8.14808083   1.008778686E-17
 8.27492428   1.008781085E-17
 8.40176773   1.008783401E-17
 8.52861118   1.008785634E-17
 8.65545464   1.008787702E-17
 8.78229809   1.008789605E-17
 8.90914249   1.008791342E-17
 9.03598595   1.008793079E-17
 9.1628294   1.008794816E-17
 9.28967285   1.008796719E-17
 9.4165163   1.008798621E-17
 9.54336071   1.008800689E-17
 9.67020416   1.008802674E-17
 9.79704762   1.008804411E-17
 9.92389107   1.008805818E-17
 10.0507345   1.008806728E-17
 10.1775789   1.008807058E-17
 10.3044224   1.008806976E-17
 10.4312658   1.008806562E-17
 10.5581093   1.008805983E-17
 10.6849527   1.00880557E-17
 10.8117971   1.008805404E-17
 10.9386406   1.008805652E-17
 11.065484   1.008806397E-17
 11.1923275   1.00880772E-17
 11.319171   1.008809375E-17
 11.4460154   1.008811277E-17
 11.5728588   1.008813097E-17
 11.6997023   1.008814751E-17
 11.8265457   1.008816157E-17
 11.9533892   1.00881715E-17
 12.0802336   1.008817812E-17
 12.207077   1.008818308E-17
 12.3339205   1.008818639E-17
 12.4607639   1.00881897E-17
 12.5876074   1.008819466E-17
 12.7144518   1.008819962E-17
 12.8412952   1.008820542E-17
 12.9681387   1.008821203E-17
 13.0949821   1.0088217E-17
 13.2218256   1.008822113E-17
 13.34867   1.008822444E-17
 13.4755135   1.008822609E-17
 13.6023569   1.00882294E-17
 13.7292004   1.008823354E-17
 13.8560438   1.008824181E-17
 13.9828882   1.008825422E-17
 14.1097317   1.008826994E-17
 14.2365751   1.008828979E-17
 14.3634186   1.008831212E-17
 14.490262   1.008833528E-17
 14.6171055   1.008835762E-17
 14.7439499   1.008837664E-17
 14.8707933   1.00883907E-17
 14.9976368   1.00883998E-17
 15.1244802   1.008840477E-17
 15.2513237   1.008840559E-17
 15.3781681   1.008840477E-17
 15.5050116   1.008840477E-17
 15.631855   1.008840725E-17
 15.7586985   1.008841386E-17
 15.8855419   1.008842545E-17
 16.0123863   1.008844116E-17
 16.1392288   1.008846101E-17
 16.2660732   1.008848418E-17
 16.3929176   1.008850899E-17
 16.5197601   1.008853381E-17
 16.6466045   1.008855945E-17
 16.773447   1.008858509E-17
 16.9002914   1.008861156E-17
 17.0271358   1.008863886E-17
 17.1539783   1.008866781E-17
 17.2808228   1.008869841E-17
 17.4076653   1.008873067E-17
 17.5345097   1.008876293E-17
 17.6613541   1.008879354E-17
 17.7881966   1.008882084E-17
 17.915041   1.0088844E-17
 18.0418835   1.00888622E-17
 18.1687279   1.008887543E-17
 18.2955723   1.008888453E-17
 18.4224148   1.008889363E-17
 18.5492592   1.008890356E-17
 18.6761017   1.008891762E-17
 18.8029461   1.008893747E-17
 18.9297905   1.008896394E-17
 19.056633   1.00889962E-17
 19.1834774   1.00890326E-17
 19.3103199   1.008907147E-17
 19.4371643   1.008910952E-17
 19.5640087   1.008914509E-17
 19.6908512   1.008917487E-17
 19.8176956   1.008919886E-17
 19.9445381   1.008921706E-17
 20.0713825   1.008923029E-17
 20.1982269   1.008923939E-17
 20.3250694   1.008924849E-17
 20.4519138   1.008925593E-17
 20.5787563   1.008926503E-17
 20.7056007   1.008927579E-17
 20.8324451   1.008928571E-17
 20.9592876   1.008929647E-17
 21.086132   1.008930474E-17
 21.2129745   1.008931136E-17
 21.339819   1.008931549E-17
 21.4666634   1.008931715E-17
 21.5935059   1.00893188E-17
 21.7203503   1.008932211E-17
 21.8471928   1.008932873E-17
 21.9740372   1.008934031E-17
 22.1008816   1.008935768E-17
 22.2277241   1.008938167E-17
 22.3545685   1.008940896E-17
 22.481411   1.008943791E-17
 22.6082554   1.008946604E-17
 22.7350998   1.008949085E-17
 22.8619423   1.008950988E-17
 22.9887867   1.008952394E-17
 23.1156292   1.008953221E-17
 23.2424736   1.008953635E-17
 23.369318   1.008953883E-17
 23.4961605   1.008954297E-17
 23.6230049   1.008955124E-17
 23.7498474   1.008956365E-17
 23.8766918   1.008958267E-17
 24.0035343   1.0089605E-17
 24.1303787   1.008962982E-17
 24.2572231   1.008965464E-17
 24.3840656   1.008967697E-17
 24.51091   1.008969682E-17
 24.6377525   1.008971337E-17
 24.7645969   1.00897266E-17
 24.8914413   1.008973984E-17
 25.0182838   1.008975472E-17
 25.1451283   1.00897721E-17
 25.2719707   1.008979277E-17
 25.3988152   1.008981759E-17
 25.5256596   1.008984571E-17
 25.6525021   1.008987301E-17
 25.7793465   1.0089897E-17
 25.906189   1.008991768E-17
 26.0330334   1.008993009E-17
 26.1598778   1.00899367E-17
 26.2867203   1.00899367E-17
 26.4135647   1.00899334E-17
 26.5404072   1.008992843E-17
 26.6672516   1.008992678E-17
 26.794096   1.008992843E-17
 26.9209385   1.00899367E-17
 27.0477829   1.008995077E-17
 27.1746254   1.008997062E-17
 27.3014698   1.008999295E-17
 27.4283142   1.009001611E-17
 27.5551567   1.009003845E-17
 27.6820011   1.00900583E-17
 27.8088436   1.009007484E-17
 27.935688   1.009008891E-17
 28.0625324   1.009010131E-17
 28.1893749   1.009011455E-17
 28.3162193   1.009013026E-17
 28.4430618   1.009014929E-17
 28.5699062   1.00901708E-17
 28.6967506   1.009019478E-17
 28.8235931   1.00902196E-17
 28.9504375   1.009024276E-17
 29.07728   1.009026179E-17
 29.2041245   1.009027668E-17
 29.3309689   1.009028577E-17
 29.4578114   1.009029074E-17
 29.5846558   1.009029322E-17
 29.7114983   1.009029735E-17
 29.8383427   1.009030397E-17
 29.9651871   1.009031638E-17
 30.0920296   1.009033541E-17
 30.218874   1.009036105E-17
 30.3457165   1.009039165E-17
 30.4725609   1.009042557E-17
 30.5994053   1.009045948E-17
 30.7262478   1.009049174E-17
 30.8530922   1.009052069E-17
 30.9799347   1.009054551E-17
 31.1067791   1.009056702E-17
 31.2336235   1.009058604E-17
 31.360466   1.009060258E-17
 31.4873104   1.009061996E-17
 31.6141529   1.009063898E-17
 31.7409973   1.009066049E-17
 31.8678417   1.009068448E-17
 31.9946842   1.009070846E-17
 32.1215286   1.009073245E-17
 32.2483711   1.009075396E-17
 32.3752136   1.009077133E-17
 32.5020599   1.009078539E-17
 32.6289024   1.009079614E-17
 32.7557449   1.009080524E-17
 32.8825912   1.009081434E-17
 33.0094337   1.009082427E-17
 33.1362762   1.009083833E-17
 33.2631226   1.009085653E-17
 33.3899651   1.009087969E-17
 33.5168076   1.009090699E-17
 33.6436501   1.009093594E-17
 33.7704964   1.009096489E-17
 33.8973389   1.009099219E-17
 34.0241814   1.009101535E-17
 34.1510277   1.009103437E-17
 34.2778702   1.009105009E-17
 34.4047127   1.009106167E-17
 34.531559   1.00910716E-17
 34.6584015   1.009108152E-17
 34.785244   1.009109393E-17
 34.9120865   1.009110716E-17
 35.0389328   1.009112288E-17
 35.1657753   1.009113942E-17
 35.2926178   1.00911568E-17
 35.4194641   1.009117251E-17
 35.5463066   1.009118657E-17
 35.6731491   1.009119815E-17
 35.7999954   1.009120725E-17
 35.9268379   1.009121387E-17
 36.0536804   1.009122049E-17
 36.1805229   1.009122876E-17
 36.3073692   1.009123869E-17
 36.4342117   1.009125275E-17
 36.5610542   1.009127095E-17
 36.6879005   1.009129245E-17
 36.814743   1.009131727E-17
 36.9415855   1.009134208E-17
 37.0684319   1.00913669E-17
 37.1952744   1.009139006E-17
 37.3221169   1.009140909E-17
 37.4489594   1.00914248E-17
 37.5758057   1.009143886E-17
 37.7026482   1.009145044E-17
 37.8294907   1.009146203E-17
 37.956337   1.009147609E-17
 38.0831795   1.00914918E-17
 38.210022   1.009151166E-17
 38.3368683   1.009153482E-17
 38.4637108   1.009155963E-17
 38.5905533   1.00915861E-17
 38.7173958   1.009161092E-17
 38.8442421   1.009163408E-17
 38.9710846   1.009165476E-17
 39.0979271   1.009167213E-17
 39.2247734   1.009168785E-17
 39.3516159   1.009170191E-17
 39.4784584   1.00917168E-17
 39.6053047   1.009173334E-17
 39.7321472   1.009175154E-17
 39.8589897   1.009177305E-17
 39.9858322   1.009179621E-17
 40.1126785   1.009181937E-17
 40.239521   1.00918417E-17
 40.3663635   1.009186073E-17
 40.4932098   1.009187644E-17
 40.6200523   1.009188968E-17
 40.7468948   1.009189878E-17
 40.8737411   1.009190705E-17
 41.0005836   1.009191615E-17
 41.1274261   1.009192773E-17
 41.2542686   1.009194344E-17
 41.381115   1.009196164E-17
 41.5079575   1.009198398E-17
 41.6348   1.009200879E-17
 41.7616463   1.009203278E-17
 41.8884888   1.009205594E-17
 42.0153313   1.009207497E-17
 42.1421776   1.009208903E-17
 42.2690201   1.009209813E-17
 42.3958626   1.009210392E-17
 42.5227051   1.00921064E-17
 42.6495514   1.009210888E-17
 42.7763939   1.009211302E-17
 42.9032364   1.009212046E-17
 43.0300827   1.009213287E-17
 43.1569252   1.009214859E-17
 43.2837677   1.009216761E-17
 43.4106102   1.009218829E-17
 43.5374565   1.009220814E-17
 43.664299   1.009222634E-17
 43.7911415   1.009224206E-17
 43.9179878   1.009225695E-17
 44.0448303   1.009227101E-17
 44.1716728   1.00922859E-17
 44.2985191   1.009230492E-17
 44.4253616   1.009232726E-17
 44.5522041   1.009235455E-17
 44.6790466   1.009238681E-17
 44.8058929   1.009242073E-17
 44.9327354   1.009245547E-17
 45.0595779   1.009248607E-17
 45.1864243   1.009251337E-17
 45.3132668   1.009253405E-17
 45.4401093   1.009254894E-17
 45.5669556   1.009255969E-17
 45.6937981   1.009256879E-17
 45.8206406   1.009257706E-17
 45.9474831   1.009258782E-17
 46.0743294   1.009260271E-17
 46.2011719   1.009262173E-17
 46.3280144   1.009264489E-17
 46.4548607   1.009267054E-17
 46.5817032   1.009269701E-17
 46.7085457   1.009272099E-17
 46.835392   1.00927425E-17
 46.9622345   1.009275987E-17
 47.089077   1.009277393E-17
 47.2159195   1.009278551E-17
 47.3427658   1.009279709E-17
 47.4696083   1.009281116E-17
 47.5964508   1.009282687E-17
 47.7232971   1.009284673E-17
 47.8501396   1.009286906E-17
 47.9769821   1.009289305E-17
 48.1038284   1.009291538E-17
 48.2306709   1.009293689E-17
 48.3575134   1.009295343E-17
 48.4843559   1.009296501E-17
 48.6112022   1.009297411E-17
 48.7380447   1.00929799E-17
 48.8648872   1.009298652E-17
 48.9917336   1.009299396E-17
 49.118576   1.009300637E-17
 49.2454185   1.009302374E-17
 49.3722649   1.009304608E-17
 49.4991074   1.009307255E-17
 49.6259499   1.009310067E-17
 49.7527924   1.009312962E-17
 49.8796387   1.009315526E-17
 50.0064812   1.00931776E-17
 50.1333237   1.009319497E-17
 50.26017   1.009320903E-17
 50.3870125   1.009321896E-17
 50.513855   1.009322806E-17
 50.6407013   1.009323798E-17
 50.7675438   1.009324956E-17
 50.8943863   1.009326445E-17
 51.0212288   1.009328182E-17
 51.1480751   1.009330167E-17
 51.2749176   1.00933207E-17
 51.4017601   1.00933389E-17
 51.5286064   1.009335461E-17
 51.6554489   1.009336785E-17
 51.7822914   1.00933786E-17
 51.9091377   1.009338853E-17
 52.0359802   1.009339928E-17
 52.1628227   1.009341169E-17
 52.2896652   1.009342741E-17
 52.4165115   1.009344726E-17
 52.543354   1.009347042E-17
 52.6701965   1.009349689E-17
 52.7970428   1.009352336E-17
 52.9238853   1.009354817E-17
 53.0507278   1.009356968E-17
 53.1775742   1.009358705E-17
 53.3044167   1.009360029E-17
 53.4312592   1.009360939E-17
 53.5581017   1.0093616E-17
 53.684948   1.009362179E-17
 53.8117905   1.009362758E-17
 53.938633   1.009363668E-17
 54.0654793   1.009364744E-17
 54.1923218   1.009366067E-17
 54.3191643   1.009367556E-17
 54.4460106   1.009369045E-17
 54.5728531   1.009370368E-17
 54.6996956   1.009371527E-17
 54.8265381   1.009372354E-17
 54.9533844   1.009373015E-17
 55.0802269   1.009373594E-17
 55.2070694   1.009374174E-17
 55.3339157   1.009374835E-17
 55.4607582   1.009375911E-17
 55.5876007   1.009377317E-17
 55.7144432   1.009378971E-17
 55.8412895   1.009380956E-17
 55.968132   1.009383107E-17
 56.0949745   1.00938534E-17
 56.2218208   1.009387574E-17
 56.3486633   1.009389724E-17
 56.4755058   1.009391875E-17
 56.6023521   1.009394109E-17
 56.7291946   1.009396425E-17
 56.8560371   1.009399072E-17
 56.9828796   1.009402215E-17
 57.109726   1.009405937E-17
 57.2365685   1.009410156E-17
 57.3634109   1.009414954E-17
 57.4902573   1.009420247E-17
 57.6170998   1.009425955E-17
 57.7439423   1.009431828E-17
 57.8707886   1.009437784E-17
 57.9976311   1.009443574E-17
 58.1244736   1.009449116E-17
 58.2513161   1.009454493E-17
 58.3781624   1.009459539E-17
 58.5050049   1.009464336E-17
 58.6318474   1.009468803E-17
 58.7586937   1.009472939E-17
 58.8855362   1.009476827E-17
 59.0123787   1.009480135E-17
 59.139225   1.009482865E-17
 59.2660675   1.00948485E-17
 59.39291   1.009485843E-17
 59.5197525   1.009485677E-17
 59.6465988   1.009484106E-17
 59.7734413   1.009481293E-17
 59.9002838   1.009476992E-17
 60.0271301   1.009471285E-17
 60.1539726   1.009464171E-17
 60.2808151   1.009455734E-17
 60.4076614   1.009445807E-17
 60.5345039   1.00943464E-17
 60.6613464   1.009421902E-17
 60.7881889   1.009407426E-17
 60.9150352   1.009391296E-17
 61.0418777   1.009373181E-17
 61.1687202   1.00935308E-17
 61.2955666   1.009330829E-17
 61.4224091   1.009306345E-17
 61.5492516   1.009279875E-17
 61.6760979   1.009251337E-17
 61.8029404   1.009221062E-17
 61.9297829   1.009189133E-17
 62.0566254   1.009155715E-17
 62.1834717   1.009120974E-17
 62.3103142   1.009084826E-17
 62.4371567   1.009047437E-17
 62.564003   1.009008642E-17
 62.6908455   1.008968359E-17
 62.817688   1.008926586E-17
 62.9445343   1.008883242E-17
 63.0713768   1.008838243E-17
 63.1982193   1.008791838E-17
 63.3250618   1.00874411E-17
 63.4519081   1.008695141E-17
 63.5787506   1.008645097E-17
 63.7055931   1.008594059E-17
 63.8324394   1.00854203E-17
 63.9592819   1.008489256E-17
 64.0861282   1.008435489E-17
 64.2129669   1.008380978E-17
 64.3398132   1.008325308E-17
 64.4666595   1.008268729E-17
 64.5934982   1.008211075E-17
 64.7203445   1.00815251E-17
 64.8471909   1.008093119E-17
 64.9740295   1.008032983E-17
 65.1008759   1.007972433E-17
 65.2277145   1.007911635E-17
 65.3545609   1.007850672E-17
 65.4814072   1.007789626E-17
 65.6082458   1.00772858E-17
 65.7350922   1.007667534E-17
 65.8619385   1.007606323E-17
 65.9887772   1.007544946E-17
 66.1156235   1.007483321E-17
 66.2424698   1.007421531E-17
 66.3693085   1.007359327E-17
 66.4961548   1.007297123E-17
 66.6230011   1.007234836E-17
 66.7498398   1.007172632E-17
 66.8766861   1.007110676E-17
 67.0035324   1.007049052E-17
 67.1303711   1.006987757E-17
 67.2572174   1.006926794E-17
 67.3840637   1.006865914E-17
 67.5109024   1.006805033E-17
 67.6377487   1.006744235E-17
 67.7645874   1.006683355E-17
 67.8914337   1.006622392E-17
 68.01828   1.006561429E-17
 68.1451187   1.006500631E-17
 68.271965   1.006439998E-17
 68.3988113   1.00637978E-17
 68.52565   1.006319975E-17
 68.6524963   1.006260666E-17
 68.7793427   1.006201605E-17
 68.9061813   1.006142958E-17
 69.0330276   1.006084476E-17
 69.159874   1.006025995E-17
 69.2867126   1.005967513E-17
 69.413559   1.005908948E-17
 69.5404053   1.005850467E-17
 69.667244   1.005792068E-17
 69.7940903   1.005733834E-17
 69.920929   1.005675932E-17
 70.0477753   1.00561836E-17
 70.1746216   1.005561284E-17
 70.3014603   1.005504457E-17
 70.4283066   1.005447878E-17
 70.5551529   1.005391382E-17
 70.6819916   1.005334968E-17
 70.8088379   1.005278471E-17
 70.9356842   1.005221975E-17
 71.0625229   1.005165479E-17
 71.1893692   1.00510923E-17
 71.3162155   1.00505323E-17
 71.4430542   1.004997726E-17
 71.5699005   1.004942802E-17
 71.6967468   1.004888456E-17
 71.8235855   1.004834606E-17
 71.9504318   1.00478117E-17
 72.0772781   1.0047279E-17
 72.2041168   1.004674795E-17
 72.3309631   1.004621607E-17
 72.4578018   1.004568171E-17
 72.5846481   1.004514487E-17
 72.7114944   1.004460638E-17
 72.8383331   1.004406623E-17
 72.9651794   1.004352691E-17
 73.0920258   1.004298759E-17
 73.2188644   1.004245075E-17
 73.3457108   1.004191639E-17
 73.4725571   1.004138368E-17
 73.5993958   1.004085181E-17
 73.7262421   1.00403191E-17
 73.8530884   1.003978474E-17
 73.9799271   1.003924542E-17
 74.1067734   1.003870114E-17
 74.2336197   1.003815023E-17
 74.3604584   1.003759189E-17
 74.4873047   1.003702775E-17
 74.614151   1.003645617E-17
 74.7409897   1.00358788E-17
 74.867836   1.003529646E-17
 74.9946747   1.003470834E-17
 75.121521   1.003411359E-17
 75.2483673   1.003351058E-17
 75.375206   1.003289847E-17
 75.5020523   1.003227477E-17
 75.6288986   1.00316395E-17
 75.7557373   1.003099264E-17
 75.8825836   1.003033421E-17
 76.0094299   1.00296675E-17
 76.1362686   1.002899252E-17
 76.2631149   1.002831258E-17
 76.3899612   1.002763015E-17
 76.5167999   1.002694525E-17
 76.6436462   1.002625951E-17
 76.7704926   1.002557295E-17
 76.8973312   1.002488474E-17
 77.0241776   1.00241957E-17
 77.1510239   1.002350335E-17
 77.2778625   1.002280852E-17
 77.4047089   1.002211203E-17
 77.5315475   1.002141637E-17
 77.6583939   1.002072237E-17
 77.7852402   1.002003333E-17
 77.9120789   1.001935173E-17
 78.0389252   1.00186784E-17
 78.1657715   1.001801583E-17
 78.2926102   1.001736236E-17
 78.4194565   1.001671716E-17
 78.5463028   1.00160794E-17
 78.6731415   1.001544826E-17
 78.7999878   1.001482043E-17
 78.9268341   1.001419839E-17
 79.0536728   1.001358132E-17
 79.1805191   1.001297086E-17
 79.3073654   1.001237032E-17
 79.4342041   1.001178054E-17
 79.5610504   1.0011204E-17
 79.6878967   1.001064152E-17
 79.8147354   1.001009061E-17
 79.9415817   1.000955129E-17
 80.0684204   1.000902272E-17
 80.1952667   1.000849995E-17
 80.322113   1.000798296E-17
 80.4489517   1.000747011E-17
 80.575798   1.000696304E-17
 80.7026443   1.000646177E-17
 80.829483   1.000596877E-17
 80.9563293   1.00054857E-17
 81.0831757   1.000501503E-17
 81.2100143   1.000455926E-17
 81.3368607   1.000411589E-17
 81.463707   1.000368575E-17
 81.5905457   1.000326637E-17
 81.717392   1.000285444E-17
 81.8442383   1.000244747E-17
 81.971077   1.000204463E-17
 82.0979233   1.000164345E-17
 82.224762   1.000124557E-17
 82.3516083   1.000085183E-17
 82.4784546   1.00004614E-17
 82.6052933   1.000007677E-17
 82.7321396   9.999698744E-18
 82.8589859   9.999326513E-18
 82.9858246   9.998959245E-18
 83.1126709   9.998596112E-18
 83.2395172   9.998235462E-18
 83.3663559   9.997874811E-18
 83.4932022   9.99751416E-18
 83.6200485   9.997152682E-18
 83.7468872   9.996792031E-18
 83.8737335   9.996434689E-18
 84.0005798   9.99608231E-18
 84.1274185   9.995737376E-18
 84.2542648   9.995399886E-18
 84.3811111   9.995071496E-18
 84.5079498   9.994751377E-18
 84.6347961   9.994436221E-18
 84.7616348   9.994127683E-18
 84.8884811   9.993821626E-18
 85.0153275   9.99351805E-18
 85.1421661   9.99321613E-18
 85.2690125   9.99291669E-18
 85.3958588   9.992621387E-18
 85.5226974   9.992331873E-18
 85.6495438   9.992048151E-18
 85.7763901   9.991771872E-18
 85.9032288   9.991502211E-18
 86.0300751   9.991239995E-18
 86.1569214   9.990981915E-18
 86.2837601   9.99072797E-18
 86.4106064   9.990474853E-18
 86.5374527   9.990222563E-18
 86.6642914   9.989968618E-18
 86.7911377   9.989714674E-18
 86.917984   9.98946073E-18
 87.0448227   9.989206785E-18
 87.171669   9.988954495E-18
 87.2985077   9.988703032E-18
 87.425354   9.988452396E-18
 87.5522003   9.988202588E-18
 87.679039   9.987951125E-18
 87.8058853   9.987698008E-18
 87.9327316   9.987439927E-18
 88.0595703   9.98717523E-18
 88.1864166   9.986905569E-18
 88.3132629   9.98662929E-18
 88.4401016   9.98635053E-18
 88.5669479   9.986068462E-18
 88.6937943   9.985785566E-18
 88.8206329   9.985504325E-18
 88.9474792   9.985223083E-18
 89.0743256   9.984943496E-18
 89.2011642   9.984663082E-18
 89.3280106   9.984381841E-18
 89.4548569   9.98409729E-18
 89.5816956   9.983809432E-18
 89.7085419   9.983515783E-18
 89.8353806   9.983217997E-18
 89.9622269   9.982916904E-18
 90.0890732   9.982614156E-18
 90.2159119   9.98231058E-18
 90.3427582   9.982007005E-18
 90.4696045   9.981705084E-18
 90.5964432   9.981403163E-18
 90.7232895   9.981100415E-18
 90.8501358   9.980796013E-18
 90.9769745   9.980489129E-18
 91.1038208   9.980178109E-18
 91.2306671   9.97986378E-18
 91.3575058   9.979546143E-18
 91.4843521   9.979226024E-18
 91.6111984   9.978905905E-18
 91.7380371   9.978586613E-18
 91.8648834   9.97827063E-18
 91.9917297   9.977958783E-18
 92.1185684   9.977651072E-18
 92.2454147   9.977349151E-18
 92.3722534   9.977051366E-18
 92.4990997   9.976757717E-18
 92.625946   9.976469031E-18
 92.7527847   9.976186135E-18
 92.879631   9.975909857E-18
 93.0064774   9.975641023E-18
 93.133316   9.975380461E-18
 93.2601624   9.975129825E-18
 93.3870087   9.97489077E-18
 93.5138474   9.974661641E-18
 93.6406937   9.974443266E-18
 93.76754   9.974233989E-18
 93.8943787   9.974032157E-18
 94.021225   9.973836942E-18
 94.1480713   9.973645863E-18
 94.27491   9.973458093E-18
 94.4017563   9.973271978E-18
 94.528595   9.973087517E-18
 94.6554413   9.972901401E-18
 94.7822876   9.972715285E-18
 94.9091263   9.972525861E-18
 95.0359726   9.972333128E-18
 95.1628189   9.972133777E-18
 95.2896576   9.971926982E-18
 95.4165039   9.971709434E-18
 95.5433502   9.971480305E-18
 95.6701889   9.971238768E-18
 95.7970352   9.970983169E-18
 95.9238815   9.970712681E-18
 96.0507202   9.970427304E-18
 96.1775665   9.970127037E-18
 96.3044128   9.969811054E-18
 96.4312515   9.969479355E-18
 96.5580978   9.969131112E-18
 96.6849442   9.968765498E-18
 96.8117828   9.968381686E-18
 96.9386292   9.967978849E-18
 97.0654678   9.967556987E-18
 97.1923141   9.967114445E-18
 97.3191605   9.966651224E-18
 97.4459991   9.966167324E-18
 97.5728455   9.965662743E-18
 97.6996918   9.965137484E-18
 97.8265305   9.964593199E-18
 97.9533768   9.964029889E-18
 98.0802231   9.963447554E-18
 98.2070618   9.962847848E-18
 98.3339081   9.962229117E-18
 98.4607544   9.961593015E-18
 98.5875931   9.960938715E-18
 98.7144394   9.960264563E-18
 98.8412857   9.959571385E-18
 98.9681244   9.958858356E-18
 99.0949707   9.958125474E-18
 99.221817   9.957371085E-18
 99.3486557   9.956596017E-18
 99.475502   9.955799442E-18
 99.6023407   9.954982187E-18
 99.729187   9.954142599E-18
 99.8560333   9.953281504E-18
 99.982872   9.952399729E-18
 100.109718   9.951496448E-18
 100.236565   9.950572487E-18
 100.363403   9.949630329E-18
 100.49025   9.948668318E-18
 100.617096   9.947687281E-18
 100.743935   9.946689702E-18
 100.870781   9.945673924E-18
 100.997627   9.944641602E-18
 101.124466   9.943593565E-18
 101.251312   9.942530638E-18
 101.378159   9.941452821E-18
 101.504997   9.940360943E-18
 101.631844   9.939256657E-18
 101.75869   9.93814079E-18
 101.885529   9.937014997E-18
 102.012375   9.935880933E-18
 102.139214   9.934738596E-18
 102.26606   9.933589642E-18
 102.392906   9.932435725E-18
 102.519745   9.931276845E-18
 102.646591   9.930113829E-18
 102.773438   9.928948332E-18
 102.900276   9.927782834E-18
 103.027122   9.926617337E-18
 103.153969   9.925454321E-18
 103.280807   9.924296268E-18
 103.407654   9.923144833E-18
 103.5345   9.922004151E-18
 103.661339   9.920874222E-18
 103.788185   9.919755874E-18
 103.915031   9.918649933E-18
 104.04187   9.917555573E-18
 104.168716   9.916471967E-18
 104.295563   9.915398286E-18
 104.422401   9.914332878E-18
 104.549248   9.913275741E-18
 104.676086   9.912226876E-18
 104.802933   9.911184628E-18
 104.929779   9.910150652E-18
 105.056618   9.909124121E-18
 105.183464   9.908105035E-18
 105.31031   9.907092566E-18
 105.437149   9.90608506E-18
 105.563995   9.90508169E-18
 105.690842   9.904079147E-18
 105.81768   9.903075777E-18
 105.944527   9.902070752E-18
 106.071373   9.901062419E-18
 106.198212   9.90004995E-18
 106.325058   9.899033345E-18
 106.451904   9.898014258E-18
 106.578743   9.896993518E-18
 106.705589   9.895971122E-18
 106.832428   9.894948727E-18
 106.959274   9.893925505E-18
 107.086121   9.892901455E-18
 107.212959   9.891874097E-18
 107.339806   9.890844257E-18
 107.466652   9.889808627E-18
 107.593491   9.888768034E-18
 107.720337   9.88772165E-18
 107.847183   9.886671131E-18
 107.974022   9.885616475E-18
 108.100868   9.88456182E-18
 108.227715   9.883508819E-18
 108.354553   9.882460781E-18
 108.4814   9.881418534E-18
 108.608246   9.880382904E-18
 108.735085   9.879353891E-18
 108.861931   9.878332323E-18
 108.988777   9.877316545E-18
 109.115616   9.876307385E-18
 109.242462   9.875304015E-18
 109.369301   9.874308089E-18
 109.496147   9.873319608E-18
 109.622993   9.872341881E-18
 109.749832   9.871377388E-18
 109.876678   9.870426958E-18
 110.003525   9.869492244E-18
 110.130363   9.868574073E-18
 110.25721   9.867670792E-18
 110.384056   9.866780746E-18
 110.510895   9.865901453E-18
 110.637741   9.865028777E-18
 110.764587   9.864160238E-18
 110.891426   9.863295007E-18
 111.018272   9.862429776E-18
 111.145119   9.861565372E-18
 111.271957   9.860702623E-18
 111.398804   9.859841528E-18
 111.52565   9.858982914E-18
 111.652489   9.858126782E-18
 111.779335   9.857271477E-18
 111.906174   9.856416173E-18
 112.03302   9.855560041E-18
 112.159866   9.854698946E-18
 112.286705   9.853831233E-18
 112.413551   9.852956903E-18
 112.540398   9.852074302E-18
 112.667236   9.851186737E-18
 112.794083   9.850293382E-18
 112.920929   9.8493992E-18
 113.047768   9.848505017E-18
 113.174614   9.847614971E-18
 113.30146   9.846730715E-18
 113.428299   9.845852249E-18
 113.555145   9.844979574E-18
 113.681992   9.844112688E-18
 113.80883   9.843251593E-18
 113.935677   9.842393807E-18
 114.062523   9.841541811E-18
 114.189362   9.840696432E-18
 114.316208   9.839859326E-18
 114.443047   9.839035454E-18
 114.569893   9.838227298E-18
 114.696739   9.837438168E-18
 114.823578   9.836670544E-18
 114.950424   9.835925255E-18
 115.077271   9.835202299E-18
 115.204109   9.83450085E-18
 115.330956   9.83382008E-18
 115.457802   9.833155854E-18
 115.584641   9.832508171E-18
 115.711487   9.831874551E-18
 115.838333   9.831254993E-18
 115.965172   9.830649497E-18
 116.092018   9.830057235E-18
 116.218864   9.829479863E-18
 116.345703   9.828915726E-18
 116.472549   9.828364824E-18
 116.599396   9.827824675E-18
 116.726234   9.827292798E-18
 116.853081   9.826766711E-18
 116.979919   9.826241451E-18
 117.106766   9.825715364E-18
 117.233612   9.825186796E-18
 117.360451   9.824652437E-18
 117.487297   9.824113115E-18
 117.614143   9.823568003E-18
 117.740982   9.823017928E-18
 117.867828   9.82246289E-18
 117.994675   9.82190537E-18
 118.121513   9.821343715E-18
 118.24836   9.82077875E-18
 118.375206   9.82020965E-18
 118.502045   9.819635587E-18
 118.628891   9.81905656E-18
 118.755737   9.818470916E-18
 118.882576   9.817879482E-18
 119.009422   9.817283085E-18
 119.136261   9.816682552E-18
 119.263107   9.816082019E-18
 119.389954   9.815484794E-18
 119.516792   9.81489336E-18
 119.643639   9.814310198E-18
 119.770485   9.813736962E-18
 119.897324   9.813174479E-18
 120.02417   9.812623577E-18
 120.151016   9.812082601E-18