 -7.19999981   -5.919008746E-19
 -7.07296753   -5.918679425E-19
 -6.94593477   -5.918042496E-19
 -6.81890202   -5.917130012E-19
 -6.69186926   -5.916004013E-19
 -6.56483698   -5.914726536E-19
 -6.43780422   -5.913369443E-19
 -6.31077147   -5.912002527E-19
 -6.18373871   -5.910691445E-19
 -6.05670643   -5.90950289E-19
 -5.92967367   -5.908485458E-19
 -5.80264091   -5.907664998E-19
 -5.67560816   -5.907058054E-19
 -5.5485754   -5.906644981E-19
 -5.42154312   -5.906406133E-19
 -5.29451036   -5.906293946E-19
 -5.16747761   -5.90625207E-19
 -5.04044485   -5.906220017E-19
 -4.91341257   -5.906130578E-19
 -4.78637981   -5.905925851E-19
 -4.65934706   -5.905544314E-19
 -4.5323143   -5.904952363E-19
 -4.40528202   -5.90412208E-19
 -4.27824926   -5.903049847E-19
 -4.15121651   -5.901741868E-19
 -4.02418375   -5.900235365E-19
 -3.89715123   -5.898581521E-19
 -3.77011847   -5.896837721E-19
 -3.64308596   -5.895073758E-19
 -3.5160532   -5.893367698E-19
 -3.38902068   -5.891784164E-19
 -3.26198792   -5.890386229E-19
 -3.13495541   -5.889222489E-19
 -3.00792265   -5.888317244E-19
 -2.88089013   -5.887686518E-19
 -2.75385737   -5.887317906E-19
 -2.62682486   -5.887183489E-19
 -2.4997921   -5.887233637E-19
 -2.37275958   -5.887401141E-19
 -2.24572682   -5.887628616E-19
 -2.11869431   -5.887831792E-19
 -1.99166155   -5.887948114E-19
 -1.86462891   -5.887910891E-19
 -1.73759627   -5.887671526E-19
 -1.61056364   -5.88719538E-19
 -1.483531   -5.886466944E-19
 -1.35649836   -5.885497075E-19
 -1.22946572   -5.884307486E-19
 -1.10243309   -5.882940053E-19
 -0.975400388   -5.88144906E-19
 -0.848367751   -5.879890858E-19
 -0.721335113   -5.878333691E-19
 -0.594302475   -5.876837011E-19
 -0.467269808   -5.875460789E-19
 -0.34023717   -5.874247418E-19
 -0.213204518   -5.873229469E-19
 -8.617187291E-2   -5.872416247E-19
 4.086076841E-2   -5.871812406E-19
 0.16789341   -5.871399849E-19
 0.294926047   -5.871147042E-19
 0.421958715   -5.871006421E-19
 0.548991323   -5.870928873E-19
 0.67602402   -5.870854944E-19
 0.803056657   -5.870722595E-19
 0.930089295   -5.870482196E-19
 1.05712187   -5.870081013E-19
 1.18415463   -5.869483892E-19
 1.31118727   -5.868666017E-19
 1.4382199   -5.867629974E-19
 1.56525254   -5.866381448E-19
 1.69228518   -5.864957146E-19
 1.81931782   -5.86340153E-19
 1.94635046   -5.861768882E-19
 2.07338309   -5.860110902E-19
 2.20041585   -5.858507205E-19
 2.32744837   -5.857014661E-19
 2.45448112   -5.855687553E-19
 2.58151364   -5.854557418E-19
 2.7085464   -5.853656308E-19
 2.83557892   -5.852991979E-19
 2.96261168   -5.852549954E-19
 3.08964419   -5.852305419E-19
 3.21667695   -5.852214946E-19
 3.34370947   -5.852228905E-19
 3.47074223   -5.852285773E-19
 3.59777474   -5.852321962E-19
 3.7248075   -5.852282154E-19
 3.85184002   -5.852117235E-19
 3.97887278   -5.851794118E-19
 4.10590553   -5.851276096E-19
 4.23293829   -5.850558E-19
 4.35997057   -5.849654305E-19
 4.48700333   -5.848588793E-19
 4.61403608   -5.847391449E-19
 4.74106884   -5.846123795E-19
 4.86810112   -5.844835978E-19
 4.99513388   -5.843590554E-19
 5.12216663   -5.842445426E-19
 5.24919939   -5.841453326E-19
 5.37623167   -5.840653546E-19
 5.50326443   -5.840073485E-19
 5.63029718   -5.839723485E-19
 5.75732994   -5.839599925E-19
 5.88436222   -5.839673854E-19
 6.01139498   -5.839913219E-19
 6.13842773   -5.840266839E-19
 6.26546049   -5.840674742E-19
 6.39249325   -5.841079027E-19
 6.51952553   -5.841425926E-19
 6.64655828   -5.841661155E-19
 6.77359104   -5.841735601E-19
 6.9006238   -5.841621864E-19
 7.02765608   -5.841310637E-19
 7.15468884   -5.84080037E-19
 7.28172159   -5.840108124E-19
 7.40875435   -5.839267501E-19
 7.53578663   -5.838319346E-19
 7.66281939   -5.837319491E-19
 7.78985214   -5.836317051E-19
 7.9168849   -5.835373032E-19
 8.04391766   -5.834526722E-19
 8.17094994   -5.833831374E-19
 8.29798317   -5.833306114E-19
 8.42501545   -5.832973174E-19
 8.55204773   -5.83283307E-19
 8.67908096   -5.83287081E-19
 8.80611324   -5.833055375E-19
 8.93314552   -5.833344371E-19
 9.06017876   -5.833689719E-19
 9.18721104   -5.834037652E-19
 9.31424427   -5.834331818E-19
 9.44127655   -5.834518451E-19
 9.56830883   -5.834555674E-19
 9.69534206   -5.834407815E-19
 9.82237434   -5.834065052E-19
 9.94940662   -5.833522215E-19
 10.0764399   -5.832786541E-19
 10.2034721   -5.831891635E-19
 10.3305054   -5.830875237E-19
 10.4575377   -5.829782842E-19
 10.5845699   -5.828666665E-19
 10.7116032   -5.827583058E-19
 10.8386354   -5.82658734E-19
 10.9656687   -5.825723453E-19
 11.092701   -5.825029138E-19
 11.2197332   -5.824529728E-19
 11.3467665   -5.824237113E-19
 11.4737988   -5.824151293E-19
 11.600831   -5.824250037E-19
 11.7278643   -5.824508531E-19
 11.8548965   -5.824883347E-19
 11.9819298   -5.825323821E-19
 12.1089621   -5.825768948E-19
 12.2359943   -5.826159274E-19
 12.3630276   -5.826447753E-19
 12.4900599   -5.826585789E-19
 12.6170931   -5.826537192E-19
 12.7441254   -5.826278698E-19
 12.8711576   -5.825807722E-19
 12.9981909   -5.825134087E-19
 13.1252232   -5.824284676E-19
 13.2522554   -5.823304466E-19
 13.3792887   -5.822246192E-19
 13.506321   -5.821167239E-19
 13.6333542   -5.820131712E-19
 13.7603865   -5.819201651E-19
 13.8874187   -5.818430822E-19
 14.014452   -5.817854897E-19
 14.1414843   -5.817513685E-19
 14.2685175   -5.817409771E-19
 14.3955498   -5.817529712E-19
 14.5225821   -5.817848176E-19
 14.6496153   -5.818323288E-19
 14.7766476   -5.818896111E-19
 14.9036798   -5.819492198E-19
 15.0307131   -5.820045892E-19
 15.1577454   -5.820483264E-19
 15.2847786   -5.820748478E-19
 15.4118109   -5.820796041E-19
 15.5388432   -5.820596484E-19
 15.6658764   -5.820144637E-19
 15.7929087   -5.81945239E-19
 15.9199409   -5.818547661E-19
 16.0469742   -5.817489904E-19
 16.1740074   -5.81634064E-19
 16.3010387   -5.815172247E-19
 16.428072   -5.814063308E-19
 16.5551052   -5.813085167E-19
 16.6821365   -5.812303481E-19
 16.8091698   -5.811762195E-19
 16.936203   -5.811494395E-19
 17.0632343   -5.811500082E-19
 17.1902676   -5.81177512E-19
 17.3173008   -5.812272462E-19
 17.444334   -5.812943512E-19
 17.5713654   -5.813725198E-19
 17.6983986   -5.814543073E-19
 17.8254318   -5.815329411E-19
 17.9524632   -5.816007699E-19
 18.0794964   -5.816514865E-19
 18.2065296   -5.816809031E-19
 18.3335609   -5.816852975E-19
 18.4605942   -5.816639976E-19
 18.5876274   -5.816181924E-19
 18.7146587   -5.815501568E-19
 18.841692   -5.814641818E-19
 18.9687252   -5.813667295E-19
 19.0957584   -5.812647278E-19
 19.2227898   -5.811647941E-19
 19.349823   -5.81074528E-19
 19.4768562   -5.810004436E-19
 19.6038876   -5.809462116E-19
 19.7309208   -5.809163814E-19
 19.857954   -5.8091147E-19
 19.9849854   -5.809303401E-19
 20.1120186   -5.809706651E-19
 20.2390518   -5.81027327E-19
 20.3660831   -5.810946388E-19
 20.4931164   -5.811659314E-19
 20.6201496   -5.812334501E-19
 20.7471828   -5.81290267E-19
 20.8742142   -5.813310574E-19
 21.0012474   -5.813512199E-19
 21.1282806   -5.813483765E-19
 21.255312   -5.813213897E-19
 21.3823452   -5.81271397E-19
 21.5093784   -5.812014485E-19
 21.6364098   -5.811156802E-19
 21.763443   -5.810200375E-19
 21.8904762   -5.809204656E-19
 22.0175076   -5.808243058E-19
 22.1445408   -5.807370383E-19
 22.271574   -5.8066466E-19
 22.3986073   -5.806115653E-19
 22.5256386   -5.805814766E-19
 22.6526718   -5.805753245E-19
 22.779705   -5.805923334E-19
 22.9067364   -5.806312109E-19
 23.0337696   -5.806870973E-19
 23.1608028   -5.807553914E-19
 23.2878342   -5.808296825E-19
 23.4148674   -5.809033533E-19
 23.5419006   -5.809709753E-19
 23.668932   -5.810257243E-19
 23.7959652   -5.810627407E-19
 23.9229984   -5.810791292E-19
 24.0500298   -5.810720981E-19
 24.177063   -5.810431468E-19
 24.3040962   -5.80992999E-19
 24.4311295   -5.809248083E-19
 24.5581608   -5.808431242E-19
 24.685194   -5.80753737E-19
 24.8122272   -5.806628505E-19
 24.9392586   -5.805761517E-19
 25.0662918   -5.804989654E-19
 25.193325   -5.804355827E-19
 25.3203564   -5.803899326E-19
 25.4473896   -5.80363773E-19
 25.5744228   -5.803580862E-19
 25.7014542   -5.803711143E-19
 25.8284874   -5.804006343E-19
 25.9555206   -5.804426137E-19
 26.0825539   -5.804916758E-19
 26.2095852   -5.805419271E-19
 26.3366184   -5.805876805E-19
 26.4636517   -5.806230942E-19
 26.590683   -5.806439288E-19
 26.7177162   -5.806465137E-19
 26.8447495   -5.80627592E-19
 26.9717808   -5.805869567E-19
 27.098814   -5.805261589E-19
 27.2258472   -5.804476285E-19
 27.3528786   -5.803561216E-19
 27.4799118   -5.802574286E-19
 27.606945   -5.80157133E-19
 27.7339783   -5.800619555E-19
 27.8610096   -5.799783069E-19
 27.9880428   -5.799105298E-19
 28.1150761   -5.798635356E-19
 28.2421074   -5.798386168E-19
 28.3691406   -5.798370658E-19
 28.4961739   -5.798569181E-19
 28.6232052   -5.798955888E-19
 28.7502384   -5.79948942E-19
 28.8772717   -5.800110839E-19
 29.004303   -5.800767414E-19
 29.1313362   -5.801389867E-19
 29.2583694   -5.801922882E-19
 29.3854027   -5.80231786E-19
 29.512434   -5.802530859E-19
 29.6394672   -5.802540682E-19
 29.7665005   -5.802342676E-19
 29.8935318   -5.80194201E-19
 30.020565   -5.801371773E-19
 30.1475983   -5.800677975E-19
 30.2746296   -5.799904561E-19
 30.4016628   -5.79912029E-19
 30.5286961   -5.798387718E-19
 30.6557274   -5.797765782E-19
 30.7827606   -5.797294289E-19
 30.9097939   -5.797015633E-19
 31.0368271   -5.796945322E-19
 31.1638584   -5.797093181E-19
 31.2908916   -5.79742974E-19
 31.4179249   -5.797925014E-19
 31.5449562   -5.798526788E-19
 31.6719894   -5.799180261E-19
 31.7990227   -5.799824428E-19
 31.926054   -5.800400352E-19
 32.0530891   -5.800856853E-19
 32.1801186   -5.8011474E-19
 32.3071518   -5.801242526E-19
 32.434185   -5.801130339E-19
 32.5612183   -5.800809807E-19
 32.6882515   -5.80029437E-19
 32.8152847   -5.799615565E-19
 32.9423141   -5.798818369E-19
 33.0693474   -5.797951381E-19
 33.1963806   -5.797066297E-19
 33.3234138   -5.796214818E-19
 33.4504471   -5.795446574E-19
 33.5774803   -5.794807577E-19
 33.7045135   -5.794326779E-19
 33.831543   -5.794031062E-19
 33.9585762   -5.793918875E-19
 34.0856094   -5.793981431E-19
 34.2126427   -5.7941996E-19
 34.3396759   -5.794530472E-19
 34.4667091   -5.79492907E-19
 34.5937386   -5.795344211E-19
 34.7207718   -5.795725231E-19
 34.847805   -5.796019914E-19
 34.9748383   -5.796196724E-19
 35.1018715   -5.796211716E-19
 35.2289047   -5.796057654E-19
 35.355938   -5.795729884E-19
 35.4829674   -5.795237711E-19
 35.6100006   -5.794605952E-19
 35.7370338   -5.793877516E-19
 35.8640671   -5.793090661E-19
 35.9911003   -5.792293465E-19
 36.1181335   -5.791543316E-19
 36.245163   -5.790882605E-19
 36.3721962   -5.790344421E-19
 36.4992294   -5.789967537E-19
 36.6262627   -5.789764878E-19
 36.7532959   -5.789748334E-19
 36.8803291   -5.789906532E-19
 37.0073624   -5.790218793E-19
 37.1343918   -5.790660301E-19
 37.261425   -5.791182975E-19
 37.3884583   -5.791750111E-19
 37.5154915   -5.792306907E-19
 37.6425247   -5.792815623E-19
 37.769558   -5.793231798E-19
 37.8965874   -5.793510972E-19
 38.0236206   -5.793639185E-19
 38.1506538   -5.793593173E-19
 38.2776871   -5.793384827E-19
 38.4047203   -5.793019316E-19
 38.5317535   -5.792524042E-19
 38.6587868   -5.791939329E-19
 38.7858162   -5.791307569E-19
 38.9128494   -5.790676844E-19
 39.0398827   -5.79009058E-19
 39.1669159   -5.789593238E-19
 39.2939491   -5.789220489E-19
 39.4209824   -5.788993015E-19
 39.5480118   -5.788929942E-19
 39.675045   -5.789024551E-19
 39.8020782   -5.789265467E-19
 39.9291115   -5.789632012E-19
 40.0561447   -5.790078689E-19
 40.1831779   -5.790569311E-19
 40.3102074   -5.791060966E-19
 40.4372406   -5.791499889E-19
 40.5642738   -5.791841101E-19
 40.6913071   -5.792057202E-19
 40.8183403   -5.792113554E-19
 40.9453735   -5.791994646E-19
 41.0724068   -5.791699963E-19
 41.1994362   -5.791241912E-19
 41.3264694   -5.790644274E-19
 41.4535027   -5.789940136E-19
 41.5805359   -5.789178096E-19
 41.7075691   -5.78840003E-19
 41.8346024   -5.78766539E-19
 41.9616318   -5.787012951E-19
 42.088665   -5.786485106E-19
 42.2156982   -5.786107188E-19
 42.3427315   -5.78590091E-19
 42.4697647   -5.785868857E-19
 42.5967979   -5.785991383E-19
 42.7238312   -5.786247292E-19
 42.8508606   -5.786594708E-19
 42.9778938   -5.78699589E-19
 43.1049271   -5.787404311E-19
 43.2319603   -5.787769821E-19
 43.3589935   -5.788053648E-19
 43.4860268   -5.788220118E-19
 43.6130562   -5.78824545E-19
 43.7400894   -5.788115686E-19
 43.8671227   -5.787834445E-19
 43.9941559   -5.787416202E-19
 44.1211891   -5.786889391E-19
 44.2482224   -5.786277794E-19
 44.3752556   -5.785630525E-19
 44.502285   -5.784990494E-19
 44.6293182   -5.784400611E-19
 44.7563515   -5.783896548E-19
 44.8833847   -5.783509841E-19
 45.0104179   -5.783263755E-19
 45.1374512   -5.783168112E-19
 45.2644806   -5.783224981E-19
 45.3915138   -5.783420402E-19
 45.5185471   -5.783729561E-19
 45.6455803   -5.784118336E-19
 45.7726135   -5.784547436E-19
 45.8996468   -5.784974985E-19
 46.02668   -5.785352903E-19
 46.1537094   -5.785646035E-19
 46.2807426   -5.785817675E-19
 46.4077759   -5.785838872E-19
 46.5348091   -5.785699802E-19
 46.6618423   -5.785402017E-19
 46.7888756   -5.784957407E-19
 46.915905   -5.784391823E-19
 47.0429382   -5.783736799E-19
 47.1699715   -5.78303111E-19
 47.2970047   -5.782317667E-19
 47.4240379   -5.781639379E-19
 47.5510712   -5.781030367E-19
 47.6781044   -5.780529923E-19
 47.8051338   -5.780155107E-19
 47.9321671   -5.779924013E-19
 48.0592003   -5.779834057E-19
 48.1862335   -5.779875416E-19
 48.3132668   -5.780022758E-19
 48.4403   -5.780247131E-19
 48.5673294   -5.780513379E-19
 48.6943626   -5.780781179E-19
 48.8213959   -5.78101796E-19
 48.9484291   -5.781182879E-19
 49.0754623   -5.781250087E-19
 49.2024956   -5.781203041E-19
 49.3295288   -5.781032435E-19
 49.4565582   -5.780741371E-19
 49.5835915   -5.780337604E-19
 49.7106247   -5.779851118E-19
 49.8376579   -5.779303628E-19
 49.9646912   -5.778739077E-19
 50.0917244   -5.778183832E-19
 50.2187538   -5.777674082E-19
 50.345787   -5.777235676E-19
 50.4728203   -5.776890845E-19
 50.5998535   -5.776655616E-19
 50.7268867   -5.776532573E-19
 50.85392   -5.776512927E-19
 50.9809532   -5.77658117E-19
 51.1079826   -5.776718171E-19
 51.2350159   -5.776899634E-19
 51.3620491   -5.777097123E-19
 51.4890823   -5.777279103E-19
 51.6161156   -5.777422309E-19
 51.7431488   -5.777501408E-19
 51.8701782   -5.777495721E-19
 51.9972115   -5.777399044E-19
 52.1242447   -5.777202589E-19
 52.2512779   -5.776905321E-19
 52.3783112   -5.776520682E-19
 52.5053444   -5.776059012E-19
 52.6323776   -5.775537371E-19
 52.759407   -5.774984194E-19
 52.8864403   -5.774412405E-19
 53.0134735   -5.773843719E-19
 53.1405067   -5.773310187E-19
 53.26754   -5.772822151E-19
 53.3945732   -5.7723915E-19
 53.5216026   -5.772023921E-19
 53.6486359   -5.771719416E-19
 53.7756691   -5.771478499E-19
 53.9027023   -5.771284112E-19
 54.0297356   -5.771128498E-19
 54.1567688   -5.770985293E-19
 54.283802   -5.770840019E-19
 54.4108315   -5.770679753E-19
 54.5378647   -5.770483814E-19
 54.6648979   -5.770242898E-19
 54.7919312   -5.769946664E-19
 54.9189644   -5.769596663E-19
 55.0459976   -5.769201685E-19
 55.173027   -5.768766898E-19
 55.3000603   -5.768308329E-19
 55.4270935   -5.767845625E-19
 55.5541267   -5.767390676E-19
 55.68116   -5.76696261E-19
 55.8081932   -5.766583658E-19
 55.9352264   -5.766264159E-19
 56.0622559   -5.766020658E-19
 56.1892891   -5.765852637E-19
 56.3163223   -5.765769402E-19
 56.4433556   -5.765770436E-19
 56.5703888   -5.765853671E-19
 56.697422   -5.766009801E-19
 56.8244514   -5.76622797E-19
 56.9514847   -5.76650611E-19
 57.0785179   -5.766826125E-19
 57.2055511   -5.767171473E-19
 57.3325844   -5.767533365E-19
 57.4596176   -5.767897324E-19
 57.5866508   -5.768248359E-19
 57.7136803   -5.768575612E-19
 57.8407135   -5.768870812E-19
 57.9677467   -5.769110695E-19
 58.09478   -5.769296293E-19
 58.2218132   -5.769421921E-19
 58.3488464   -5.769477756E-19
 58.4758759   -5.769459661E-19
 58.6029091   -5.769366087E-19
 58.7299423   -5.769188243E-19
 58.8569756   -5.768931817E-19
 58.9840088   -5.768601462E-19
 59.111042   -5.768194592E-19
 59.2380753   -5.767717412E-19
 59.3651047   -5.767158031E-19
 59.4921379   -5.766525755E-19
 59.6191711   -5.765801972E-19
 59.7462044   -5.764980478E-19
 59.8732376   -5.764051968E-19
 60.0002708   -5.762996796E-19
 60.1273003   -5.761788078E-19
 60.2543335   -5.760412891E-19
 60.3813667   -5.758846934E-19
 60.5084   -5.75706953E-19
 60.6354332   -5.75505793E-19
 60.7624664   -5.752799727E-19
 60.8894997   -5.750281996E-19
 61.0165291   -5.747496982E-19
 61.1435623   -5.744448305E-19
 61.2705956   -5.741138548E-19
 61.3976288   -5.737579087E-19
 61.524662   -5.7337906E-19
 61.6516953   -5.729787045E-19
 61.7787247   -5.725587553E-19
 61.9057579   -5.721212801E-19
 62.0327911   -5.716685538E-19
 62.1598244   -5.712023342E-19
 62.2868576   -5.707242238E-19
 62.4138908   -5.702348947E-19
 62.5409203   -5.697346573E-19
 62.6679535   -5.692241317E-19
 62.7949867   -5.687030596E-19
 62.92202   -5.6816989E-19
 63.0490532   -5.676243644E-19
 63.1760864   -5.670654488E-19
 63.3031197   -5.66492161E-19
 63.4301491   -5.659030533E-19
 63.5571823   -5.65297402E-19
 63.6842155   -5.646754655E-19
 63.8112488   -5.640367787E-19
 63.938282   -5.633820653E-19
 64.0653152   -5.627126176E-19
 64.1923447   -5.620299352E-19
 64.3193817   -5.613360857E-19
 64.4464111   -5.606330856E-19
 64.5734482   -5.599232095E-19
 64.7004776   -5.592079568E-19
 64.827507   -5.584897055E-19
 64.9545441   -5.57768921E-19
 65.0815735   -5.570465856E-19
 65.2086105   -5.563226474E-19
 65.33564   -5.555960209E-19
 65.4626694   -5.548664993E-19
 65.5897064   -5.541315494E-19
 65.7167358   -5.53389465E-19
 65.8437729   -5.526384884E-19
 65.9708023   -5.518770686E-19
 66.0978394   -5.511038098E-19
 66.2248688   -5.503163856E-19
 66.3518982   -5.495138136E-19
 66.4789352   -5.486956286E-19
 66.6059647   -5.478619856E-19
 66.7330017   -5.470130398E-19
 66.8600311   -5.461494116E-19
 66.9870682   -5.452717729E-19
 67.1140976   -5.443820368E-19
 67.241127   -5.434818058E-19
 67.3681641   -5.42573303E-19
 67.4951935   -5.416578725E-19
 67.6222305   -5.407380477E-19
 67.7492599   -5.39814759E-19
 67.876297   -5.388901779E-19
 68.0033264   -5.379644594E-19
 68.1303558   -5.37037862E-19
 68.2573929   -5.361103341E-19
 68.3844223   -5.351812034E-19
 68.5114594   -5.342493845E-19
 68.6384888   -5.333130677E-19
 68.7655182   -5.323705471E-19
 68.8925552   -5.314197547E-19
 69.0195847   -5.304598116E-19
 69.1466217   -5.294895804E-19
 69.2736511   -5.285074069E-19
 69.4006882   -5.275138078E-19
 69.5277176   -5.26508163E-19
 69.654747   -5.254921784E-19
 69.7817841   -5.244669915E-19
 69.9088135   -5.234344116E-19
 70.0358505   -5.223972822E-19
 70.1628799   -5.213582916E-19
 70.289917   -5.203191977E-19
 70.4169464   -5.192825336E-19
 70.5439758   -5.182495401E-19
 70.6710129   -5.172220267E-19
 70.7980423   -5.161997348E-19
 70.9250793   -5.151829231E-19
 71.0521088   -5.141705057E-19
 71.1791458   -5.131609834E-19
 71.3061752   -5.121520299E-19
 71.4332047   -5.111412152E-19
 71.5602417   -5.101262129E-19
 71.6872711   -5.091036625E-19
 71.8143082   -5.0807222E-19
 71.9413376   -5.070290936E-19
 72.068367   -5.059738179E-19
 72.1954041   -5.049051522E-19
 72.3224335   -5.038235102E-19
 72.4494705   -5.027290985E-19
 72.5764999   -5.016231064E-19
 72.703537   -5.005081703E-19
 72.8305664   -4.99385376E-19
 72.9575958   -4.982578771E-19
 73.0846329   -4.971267077E-19
 73.2116623   -4.959949178E-19
 73.3386993   -4.948639551E-19
 73.4657288   -4.937350603E-19
 73.5927658   -4.926089573E-19
 73.7197952   -4.914856461E-19
 73.8468246   -4.90364196E-19
 73.9738617   -4.892434696E-19
 74.1008911   -4.881205719E-19
 74.2279282   -4.869932282E-19
 74.3549576   -4.858584398E-19
 74.481987   -4.847130014E-19
 74.609024   -4.835529323E-19
 74.7360535   -4.823757509E-19
 74.8630905   -4.811787688E-19
 74.9901199   -4.79960642E-19
 75.117157   -4.787205432E-19
 75.2441864   -4.774586274E-19
 75.3712158   -4.761766526E-19
 75.4982529   -4.748761696E-19
 75.6252823   -4.735605905E-19
 75.7523193   -4.722330173E-19
 75.8793488   -4.708971723E-19
 76.0063858   -4.695564159E-19
 76.1334152   -4.682140569E-19
 76.2604446   -4.668719564E-19
 76.3874817   -4.65532906E-19
 76.5145111   -4.641973196E-19
 76.6415482   -4.628656622E-19
 76.7685776   -4.615373652E-19
 76.8956146   -4.60210826E-19
 77.022644   -4.588848038E-19
 77.1496735   -4.575570238E-19
 77.2767105   -4.562258317E-19
 77.4037399   -4.548887976E-19
 77.530777   -4.535450944E-19
 77.6578064   -4.521937915E-19
 77.7848358   -4.508347854E-19
 77.9118729   -4.494683348E-19
 78.0389023   -4.480966108E-19
 78.1659393   -4.467224053E-19
 78.2929688   -4.453488202E-19
 78.4200058   -4.439807152E-19
 78.5470352   -4.426227431E-19
 78.6740646   -4.412800222E-19
 78.8011017   -4.399568951E-19
 78.9281311   -4.386585317E-19
 79.0551682   -4.373876204E-19
 79.1821976   -4.36146591E-19
 79.3092346   -4.349359605E-19
 79.436264   -4.337540745E-19
 79.5632935   -4.325991235E-19
 79.6903305   -4.314664031E-19
 79.8173599   -4.303523459E-19
 79.944397   -4.292502828E-19
 80.0714264   -4.28154527E-19
 80.1984634   -4.270595984E-19
 80.3254929   -4.259605855E-19
 80.4525223   -4.248534818E-19
 80.5795593   -4.237351078E-19
 80.7065887   -4.226042227E-19
 80.8336258   -4.214611108E-19
 80.9606552   -4.203072972E-19
 81.0876846   -4.191458322E-19
 81.2147217   -4.179803089E-19
 81.3417511   -4.168143978E-19
 81.4687881   -4.156528294E-19
 81.5958176   -4.144999465E-19
 81.7228546   -4.13359678E-19
 81.849884   -4.122352293E-19
 81.9769135   -4.111285392E-19
 82.1039505   -4.100394526E-19
 82.2309799   -4.089677108E-19
 82.358017   -4.079114529E-19
 82.4850464   -4.06867887E-19
 82.6120834   -4.05833084E-19
 82.7391129   -4.048036061E-19
 82.8661423   -4.037752913E-19
 82.9931793   -4.027454515E-19
 83.1202087   -4.017108036E-19
 83.2472458   -4.00670107E-19
 83.3742752   -3.996229222E-19
 83.5013123   -3.985705675E-19
 83.6283417   -3.975142579E-19
 83.7553711   -3.96458155E-19
 83.8824081   -3.954052575E-19
 84.0094376   -3.943598821E-19
 84.1364746   -3.933255962E-19
 84.263504   -3.923065355E-19
 84.3905334   -3.913052334E-19
 84.5175705   -3.903229564E-19
 84.6445999   -3.89361359E-19
 84.771637   -3.884191227E-19
 84.8986664   -3.874952653E-19
 85.0257034   -3.865866591E-19
 85.1527328   -3.856892457E-19
 85.2797623   -3.847981654E-19
 85.4067993   -3.8390967E-19
 85.5338287   -3.830188741E-19
 85.6608658   -3.82121564E-19
 85.7878952   -3.812144571E-19
 85.9149323   -3.802955628E-19
 86.0419617   -3.793636146E-19
 86.1689911   -3.784204995E-19
 86.2960281   -3.774677684E-19
 86.4230576   -3.765095313E-19
 86.5500946   -3.755498467E-19
 86.677124   -3.745941171E-19
 86.8041611   -3.73646866E-19
 86.9311905   -3.727125138E-19
 87.0582199   -3.717951705E-19
 87.185257   -3.708965422E-19
 87.3122864   -3.700181798E-19
 87.4393234   -3.691595146E-19
 87.5663528   -3.683193834E-19
 87.6933823   -3.674945551E-19
 87.8204193   -3.666822638E-19
 87.9474487   -3.658778306E-19
 88.0744858   -3.650779211E-19
 88.2015152   -3.64278296E-19
 88.3285522   -3.634766804E-19
 88.4555817   -3.626707997E-19
 88.5826111   -3.618574226E-19
 88.7096481   -3.610365234E-19
 88.8366776   -3.602072749E-19
 88.9637146   -3.593704266E-19
 89.090744   -3.585270642E-19
 89.2177811   -3.576787388E-19
 89.3448105   -3.568283972E-19
 89.4718399   -3.559791412E-19
 89.598877   -3.551335558E-19
 89.7259064   -3.542951307E-19
 89.8529434   -3.534666576E-19
 89.9799728   -3.526507732E-19
 90.1070099   -3.51848744E-19
 90.2340393   -3.510618626E-19
 90.3610687   -3.50289095E-19
 90.4881058   -3.495291486E-19
 90.6151352   -3.487799298E-19
 90.7421722   -3.480379229E-19
 90.8692017   -3.47299871E-19
 90.9962311   -3.465620776E-19
 91.1232681   -3.458212081E-19
 91.2502975   -3.450741607E-19
 91.3773346   -3.443190999E-19
 91.504364   -3.43555121E-19
 91.6314011   -3.427833356E-19
 91.7584305   -3.420046227E-19
 91.8854599   -3.412225751E-19
 92.0124969   -3.404395969E-19
 92.1395264   -3.396615819E-19
 92.2665634   -3.38892278E-19
 92.3935928   -3.381371655E-19
 92.5206299   -3.374000701E-19
 92.6476593   -3.366843779E-19
 92.7746887   -3.359929066E-19
 92.9017258   -3.353263541E-19
 93.0287552   -3.346848497E-19
 93.1557922   -3.34066403E-19
 93.2828217   -3.334666712E-19
 93.4098587   -3.328821388E-19
 93.5368881   -3.323074551E-19
 93.6639175   -3.317367263E-19
 93.7909546   -3.311649894E-19
 93.917984   -3.305873847E-19
 94.0450211   -3.300001382E-19
 94.1720505   -3.294010009E-19
 94.2990799   -3.287889131E-19
 94.4261169   -3.281643659E-19
 94.5531464   -3.275302803E-19
 94.6801834   -3.268890602E-19
 94.8072128   -3.262448674E-19
 94.9342499   -3.256020188E-19
 95.0612793   -3.249647279E-19
 95.1883087   -3.243371821E-19
 95.3153458   -3.237225094E-19
 95.4423752   -3.231222606E-19
 95.5694122   -3.225377024E-19
 95.6964417   -3.21968628E-19
 95.8234787   -3.214138483E-19
 95.9505081   -3.208707267E-19
 96.0775375   -3.203364973E-19
 96.2045746   -3.198071275E-19
 96.331604   -3.192794638E-19
 96.4586411   -3.187500165E-19
 96.5856705   -3.182144688E-19
 96.7126999   -3.176709594E-19
 96.8397369   -3.171171103E-19
 96.9667664   -3.165521977E-19
 97.0938034   -3.159769194E-19
 97.2208328   -3.153918442E-19
 97.3478699   -3.147994795E-19
 97.4748993   -3.142030823E-19
 97.6019287   -3.136067884E-19
 97.7289658   -3.130143203E-19
 97.8559952   -3.12429607E-19
 97.9830322   -3.118572239E-19
 98.1100616   -3.11300583E-19
 98.2370987   -3.107635102E-19
 98.3641281   -3.102472461E-19
 98.4911575   -3.097521268E-19
 98.6181946   -3.092780489E-19
 98.745224   -3.088231513E-19
 98.872261   -3.083838408E-19
 98.9992905   -3.079571707E-19
 99.1263275   -3.075380745E-19
 99.2533569   -3.071216407E-19
 99.3803864   -3.067029064E-19
 99.5074234   -3.062775288E-19
 99.6344528   -3.05843078E-19
 99.7614899   -3.053958835E-19
 99.8885193   -3.049355833E-19
 100.015549   -3.04461583E-19
 100.142586   -3.039757695E-19
 100.269615   -3.034800556E-19
 100.396652   -3.029778536E-19
 100.523682   -3.024724463E-19
 100.650719   -3.019681763E-19
 100.777748   -3.014683782E-19
 100.904778   -3.009764901E-19
 101.031815   -3.004940887E-19
 101.158844   -3.000224665E-19
 101.285881   -2.995615718E-19
 101.41291   -2.991096727E-19
 101.539948   -2.986638224E-19
 101.666977   -2.982210481E-19
 101.794006   -2.977761542E-19
 101.921043   -2.973253407E-19
 102.048073   -2.96864446E-19
 102.17511   -2.963899546E-19
 102.302139   -2.958998501E-19
 102.429176   -2.95393538E-19
 102.556206   -2.948716646E-19
 102.683235   -2.943369181E-19
 102.810272   -2.937934346E-19
 102.937302   -2.93246875E-19
 103.064339   -2.927035983E-19
 103.191368   -2.921700927E-19
 103.318398   -2.916542939E-19
 103.445435   -2.911628452E-19
 103.572464   -2.907008907E-19
 103.699501   -2.902732383E-19
 103.82653   -2.898820335E-19
 103.953568   -2.895284138E-19
 104.080597   -2.892117588E-19
 104.207626   -2.889296643E-19
 104.334663   -2.886768572E-19
 104.461693   -2.884482194E-19
 104.58873   -2.882370298E-19
 104.715759   -2.880361283E-19
 104.842796   -2.87839311E-19
 104.969826   -2.876404516E-19
 105.096855   -2.874340184E-19
 105.223892   -2.872172454E-19
 105.350922   -2.869881163E-19
 105.477959   -2.867467347E-19
 105.604988   -2.864941086E-19
 105.732025   -2.862326936E-19
 105.859055   -2.859651266E-19
 105.986084   -2.856941991E-19
 106.113121   -2.854224961E-19
 106.24015   -2.85152525E-19
 106.367188   -2.848848028E-19
 106.494217   -2.846188126E-19
 106.621246   -2.843536753E-19
 106.748283   -2.840861341E-19
 106.875313   -2.838131645E-19
 107.00235   -2.835300878E-19
 107.129379   -2.832324837E-19
 107.256416   -2.82916449E-19
 107.383446   -2.825785974E-19
 107.510475   -2.822149998E-19
 107.637512   -2.818242604E-19
 107.764542   -2.814048281E-19
 107.891579   -2.809573493E-19
 108.018608   -2.804842278E-19
 108.145645   -2.799880228E-19
 108.272675   -2.794738008E-19
 108.399704   -2.789468868E-19
 108.526741   -2.784143117E-19
 108.65377   -2.778833135E-19
 108.780807   -2.773614659E-19
 108.907837   -2.768553348E-19
 109.034874   -2.763706845E-19
 109.161903   -2.759111081E-19
 109.288933   -2.75479811E-19
 109.41597   -2.750777236E-19
 109.542999   -2.747034503E-19
 109.670036   -2.743544317E-19
 109.797066   -2.740274627E-19
 109.924095   -2.73716934E-19
 110.051132   -2.734181667E-19
 110.178162   -2.731269474E-19
 110.305199   -2.728383906E-19
 110.432228   -2.725495236E-19
 110.559265   -2.72258201E-19
 110.686295   -2.719632594E-19
 110.813324   -2.716657846E-19
 110.940361   -2.71367741E-19
 111.06739   -2.710710417E-19
 111.194427   -2.707793571E-19
 111.321457   -2.704962546E-19
 111.448494   -2.702254046E-19
 111.575523   -2.699704262E-19
 111.702553   -2.697336457E-19
 111.82959   -2.695161748E-19
 111.956619   -2.693184786E-19
 112.083656   -2.691385927E-19
 112.210686   -2.689747851E-19
 112.337723   -2.68822558E-19
 112.464752   -2.686777755E-19
 112.591782   -2.685343372E-19
 112.718819   -2.683869957E-19
 112.845848   -2.682302967E-19
 112.972885   -2.680591737E-19
 113.099915   -2.678702405E-19
 113.226944   -2.676611964E-19
 113.353981   -2.674299994E-19
 113.48101   -2.671783039E-19
 113.608047   -2.669077641E-19
 113.735077   -2.666215855E-19
 113.862114   -2.663246793E-19
 113.989143   -2.660216986E-19
 114.116173   -2.657174254E-19
 114.24321   -2.654174173E-19
 114.370239   -2.651259654E-19
 114.497276   -2.648468953E-19
 114.624306   -2.645828696E-19
 114.751343   -2.643348964E-19
 114.878372   -2.641027947E-19
 115.005402   -2.638851428E-19
 115.132439   -2.636789938E-19
 115.259468   -2.634817113E-19
 115.386505   -2.63289702E-19
 115.513535   -2.630995021E-19
 115.640572   -2.629084234E-19
 115.767601   -2.627144496E-19
 115.89463   -2.625160038E-19
 116.021667   -2.623140424E-19
 116.148697   -2.621094186E-19