 -7.19999981   -2.045012572E-18
 -7.07315636   -2.045000992E-18
 -6.9463129   -2.044978451E-18
 -6.81946898   -2.044946398E-18
 -6.69262552   -2.044906073E-18
 -6.56578159   -2.044860164E-18
 -6.43893814   -2.044810947E-18
 -6.31209469   -2.04476173E-18
 -6.18525076   -2.044714167E-18
 -6.05840731   -2.04467074E-18
 -5.93156338   -2.044632896E-18
 -5.80471992   -2.044603118E-18
 -5.67787647   -2.044580784E-18
 -5.55103254   -2.044566722E-18
 -5.42418909   -2.044560725E-18
 -5.29734564   -2.044561345E-18
 -5.17050171   -2.044567135E-18
 -5.04365826   -2.044576441E-18
 -4.91681433   -2.044586781E-18
 -4.78997087   -2.044596914E-18
 -4.66312742   -2.044604565E-18
 -4.53628349   -2.044607047E-18
 -4.40944004   -2.044603738E-18
 -4.28259611   -2.044592571E-18
 -4.15575266   -2.044573339E-18
 -4.02890921   -2.044545836E-18
 -3.90206528   -2.044509853E-18
 -3.77522182   -2.044466426E-18
 -3.64837813   -2.044417209E-18
 -3.52153444   -2.044362615E-18
 -3.39469075   -2.044305746E-18
 -3.2678473   -2.044248671E-18
 -3.14100361   -2.044193457E-18
 -3.01415992   -2.044142171E-18
 -2.88731623   -2.044096056E-18
 -2.76047254   -2.044057179E-18
 -2.63362908   -2.044025539E-18
 -2.50678539   -2.044002791E-18
 -2.3799417   -2.043988109E-18
 -2.25309801   -2.043980458E-18
 -2.12625432   -2.043979837E-18
 -1.99941075   -2.0439848E-18
 -1.87256718   -2.043993899E-18
 -1.74572349   -2.044004653E-18
 -1.61887991   -2.044015613E-18
 -1.49203622   -2.044025746E-18
 -1.36519253   -2.044032777E-18
 -1.23834896   -2.044035879E-18
 -1.11150527   -2.044033811E-18
 -0.984661698   -2.044025125E-18
 -0.857818007   -2.044009823E-18
 -0.730974376   -2.043986661E-18
 -0.604130745   -2.04395709E-18
 -0.477287114   -2.04391966E-18
 -0.350443482   -2.043875406E-18
 -0.223599836   -2.043826809E-18
 -9.675619751E-2   -2.04377511E-18
 3.008744121E-2   -2.04372217E-18
 0.156931072   -2.043670472E-18
 0.283774734   -2.043623322E-18
 0.410618365   -2.043584238E-18
 0.537461996   -2.043555494E-18
 0.664305627   -2.04353957E-18
 0.791149259   -2.043538536E-18
 0.91799289   -2.04355446E-18
 1.04483652   -2.043586926E-18
 1.17168021   -2.043635937E-18
 1.29852378   -2.043699216E-18
 1.42536747   -2.043774903E-18
 1.55221117   -2.043858035E-18
 1.67905474   -2.043944268E-18
 1.80589843   -2.044029054E-18
 1.932742   -2.044107016E-18
 2.05958557   -2.044174018E-18
 2.18642926   -2.04422551E-18
 2.31327295   -2.044259011E-18
 2.44011664   -2.044273073E-18
 2.56696033   -2.044267076E-18
 2.69380379   -2.044242674E-18
 2.82064748   -2.044202556E-18
 2.94749117   -2.04415065E-18
 3.07433486   -2.044090886E-18
 3.20117831   -2.044028021E-18
 3.328022   -2.043967223E-18
 3.45486569   -2.043912629E-18
 3.58170938   -2.043867547E-18
 3.70855308   -2.043834047E-18
 3.83539653   -2.043813781E-18
 3.96224022   -2.043806543E-18
 4.08908367   -2.04381192E-18
 4.2159276   -2.043827636E-18
 4.34277105   -2.043851211E-18
 4.46961498   -2.043879128E-18
 4.59645844   -2.0439087E-18
 4.72330189   -2.043936824E-18
 4.85014582   -2.043959985E-18
 4.97698927   -2.043976529E-18
 5.1038332   -2.0439848E-18
 5.23067665   -2.0439848E-18
 5.3575201   -2.043976942E-18
 5.48436403   -2.043961639E-18
 5.61120749   -2.043940753E-18
 5.73805141   -2.043915938E-18
 5.86489487   -2.043891122E-18
 5.99173832   -2.043867341E-18
 6.11858225   -2.043847695E-18
 6.2454257   -2.043834874E-18
 6.37226963   -2.043828877E-18
 6.49911308   -2.043831565E-18
 6.62595654   -2.043843766E-18
 6.75280046   -2.043864859E-18
 6.87964392   -2.043894431E-18
 7.00648737   -2.043930827E-18
 7.1333313   -2.043972393E-18
 7.26017475   -2.04401706E-18
 7.38701868   -2.044061935E-18
 7.51386213   -2.044104121E-18
 7.64070559   -2.044141137E-18
 7.76754951   -2.044170089E-18
 7.89439297   -2.044187873E-18
 8.02123642   -2.044192423E-18
 8.14808083   -2.044181669E-18
 8.27492428   -2.044156027E-18
 8.40176773   -2.044115495E-18
 8.52861118   -2.044061108E-18
 8.65545464   -2.043995967E-18
 8.78229809   -2.043922969E-18
 8.90914249   -2.043845834E-18
 9.03598595   -2.04376994E-18
 9.1628294   -2.043699009E-18
 9.28967285   -2.043638005E-18
 9.4165163   -2.043589408E-18
 9.54336071   -2.043556734E-18
 9.67020416   -2.043541845E-18
 9.79704762   -2.043545981E-18
 9.92389107   -2.043568315E-18
 10.0507345   -2.043607813E-18
 10.1775789   -2.0436622E-18
 10.3044224   -2.043727961E-18
 10.4312658   -2.0438022E-18
 10.5581093   -2.043880369E-18
 10.6849527   -2.043958124E-18
 10.8117971   -2.044030709E-18
 10.9386406   -2.044094402E-18
 11.065484   -2.044146514E-18
 11.1923275   -2.044183737E-18
 11.319171   -2.044205037E-18
 11.4460154   -2.04421E-18
 11.5728588   -2.04419842E-18
 11.6997023   -2.044172984E-18
 11.8265457   -2.044135968E-18
 11.9533892   -2.044090059E-18
 12.0802336   -2.044039394E-18
 12.207077   -2.043986868E-18
 12.3339205   -2.043936203E-18
 12.4607639   -2.043891329E-18
 12.5876074   -2.043854519E-18
 12.7144518   -2.043826602E-18
 12.8412952   -2.043809024E-18
 12.9681387   -2.043801993E-18
 13.0949821   -2.043804061E-18
 13.2218256   -2.043813988E-18
 13.34867   -2.043828877E-18
 13.4755135   -2.043846454E-18
 13.6023569   -2.043863412E-18
 13.7292004   -2.04387706E-18
 13.8560438   -2.043884918E-18
 13.9828882   -2.043884711E-18
 14.1097317   -2.043875612E-18
 14.2365751   -2.043855967E-18
 14.3634186   -2.043827016E-18
 14.490262   -2.043789379E-18
 14.6171055   -2.043744298E-18
 14.7439499   -2.043696114E-18
 14.8707933   -2.04364669E-18
 14.9976368   -2.043600575E-18
 15.1244802   -2.043559836E-18
 15.2513237   -2.043528197E-18
 15.3781681   -2.043507931E-18
 15.5050116   -2.043500486E-18
 15.631855   -2.04350607E-18
 15.7586985   -2.043524681E-18
 15.8855419   -2.043554253E-18
 16.0123863   -2.04359313E-18
 16.1392288   -2.043638005E-18
 16.2660732   -2.043685981E-18
 16.3929176   -2.043733337E-18
 16.5197601   -2.043777385E-18
 16.6466045   -2.043814401E-18
 16.773447   -2.043842939E-18
 16.9002914   -2.04386155E-18
 17.0271358   -2.043868995E-18
 17.1539783   -2.043864859E-18
 17.2808228   -2.043849556E-18
 17.4076653   -2.043825154E-18
 17.5345097   -2.043792688E-18
 17.6613541   -2.043753397E-18
 17.7881966   -2.043709763E-18
 17.915041   -2.043663854E-18
 18.0418835   -2.043617325E-18
 18.1687279   -2.043572864E-18
 18.2955723   -2.043530265E-18
 18.4224148   -2.043492628E-18
 18.5492592   -2.043460988E-18
 18.6761017   -2.043436173E-18
 18.8029461   -2.043419216E-18
 18.9297905   -2.043410323E-18
 19.056633   -2.043410117E-18
 19.1834774   -2.043417148E-18
 19.3103199   -2.043431623E-18
 19.4371643   -2.043452096E-18
 19.5640087   -2.043476911E-18
 19.6908512   -2.043504208E-18
 19.8176956   -2.043532539E-18
 19.9445381   -2.043557975E-18
 20.0713825   -2.043579895E-18
 20.1982269   -2.043595405E-18
 20.3250694   -2.043602643E-18
 20.4519138   -2.043600575E-18
 20.5787563   -2.043588167E-18
 20.7056007   -2.043567074E-18
 20.8324451   -2.043537089E-18
 20.9592876   -2.043500072E-18
 21.086132   -2.04345892E-18
 21.2129745   -2.043416114E-18
 21.339819   -2.043374548E-18
 21.4666634   -2.043337738E-18
 21.5935059   -2.043307753E-18
 21.7203503   -2.043286867E-18
 21.8471928   -2.043276527E-18
 21.9740372   -2.04327632E-18
 22.1008816   -2.043285833E-18
 22.2277241   -2.043303617E-18
 22.3545685   -2.043327812E-18
 22.481411   -2.043354902E-18
 22.6082554   -2.043382613E-18
 22.7350998   -2.043408462E-18
 22.8619423   -2.043429142E-18
 22.9887867   -2.04344279E-18
 23.1156292   -2.043448374E-18
 23.2424736   -2.043444651E-18
 23.369318   -2.043430589E-18
 23.4961605   -2.043408255E-18
 23.6230049   -2.043377236E-18
 23.7498474   -2.04334022E-18
 23.8766918   -2.043298861E-18
 24.0035343   -2.043255434E-18
 24.1303787   -2.043212214E-18
 24.2572231   -2.043171268E-18
 24.3840656   -2.043133425E-18
 24.51091   -2.043101165E-18
 24.6377525   -2.043074902E-18
 24.7645969   -2.043055256E-18
 24.8914413   -2.043041814E-18
 25.0182838   -2.04303499E-18
 25.1451283   -2.04303437E-18
 25.2719707   -2.04303954E-18
 25.3988152   -2.043048639E-18
 25.5256596   -2.043061874E-18
 25.6525021   -2.04307697E-18
 25.7793465   -2.043092893E-18
 25.906189   -2.043108196E-18
 26.0330334   -2.04312081E-18
 26.1598778   -2.043129082E-18
 26.2867203   -2.043130736E-18
 26.4135647   -2.043124739E-18
 26.5404072   -2.04310985E-18
 26.6672516   -2.043084414E-18
 26.794096   -2.043048639E-18
 26.9209385   -2.043003144E-18
 27.0477829   -2.042949584E-18
 27.1746254   -2.04288982E-18
 27.3014698   -2.042826541E-18
 27.4283142   -2.042763261E-18
 27.5551567   -2.042702877E-18
 27.6820011   -2.042649317E-18
 27.8088436   -2.042606511E-18
 27.935688   -2.042576112E-18
 28.0625324   -2.042559361E-18
 28.1893749   -2.042556673E-18
 28.3162193   -2.04256722E-18
 28.4430618   -2.042590174E-18
 28.5699062   -2.04262202E-18
 28.6967506   -2.042659657E-18
 28.8235931   -2.042698121E-18
 28.9504375   -2.042735137E-18
 29.07728   -2.042766777E-18
 29.2041245   -2.042790352E-18
 29.3309689   -2.042804E-18
 29.4578114   -2.042806068E-18
 29.5846558   -2.042796762E-18
 29.7114983   -2.042777737E-18
 29.8383427   -2.042749199E-18
 29.9651871   -2.042713631E-18
 30.0920296   -2.042672892E-18
 30.218874   -2.042629465E-18
 30.3457165   -2.042585211E-18
 30.4725609   -2.042541577E-18
 30.5994053   -2.042501252E-18
 30.7262478   -2.042464029E-18
 30.8530922   -2.042431769E-18
 30.9799347   -2.042404885E-18
 31.1067791   -2.042384413E-18
 31.2336235   -2.042370557E-18
 31.360466   -2.04236332E-18
 31.4873104   -2.042364147E-18
 31.6141529   -2.042372625E-18
 31.7409973   -2.042388135E-18
 31.8678417   -2.042409848E-18
 31.9946842   -2.042437145E-18
 32.1215286   -2.042467131E-18
 32.2483711   -2.042496496E-18
 32.3752136   -2.042522759E-18
 32.5020599   -2.042542404E-18
 32.6289024   -2.042551503E-18
 32.7557449   -2.042548401E-18
 32.8825912   -2.042531444E-18
 33.0094337   -2.042501252E-18
 33.1362762   -2.042459272E-18
 33.2631226   -2.042408401E-18
 33.3899651   -2.042353187E-18
 33.5168076   -2.042296938E-18
 33.6436501   -2.042244412E-18
 33.7704964   -2.042197677E-18
 33.8973389   -2.042157558E-18
 34.0241814   -2.042122817E-18
 34.1510277   -2.042089523E-18
 34.2778702   -2.042052506E-18
 34.4047127   -2.042007218E-18
 34.531559   -2.041948488E-18
 34.6584015   -2.041874869E-18
 34.785244   -2.041787188E-18
 34.9120865   -2.041692683E-18
 35.0389328   -2.041601073E-18
 35.1657753   -2.041528901E-18
 35.2926178   -2.041493746E-18
 35.4194641   -2.041513805E-18
 35.5463066   -2.041603554E-18
 35.6731491   -2.041771265E-18
 35.7999954   -2.042016317E-18
 35.9268379   -2.042326924E-18
 36.0536804   -2.042677441E-18
 36.1805229   -2.043032922E-18
 36.3073692   -2.043351594E-18
 36.4342117   -2.043588167E-18
 36.5610542   -2.043701905E-18
 36.6879005   -2.043661786E-18
 36.814743   -2.043453957E-18
 36.9415855   -2.043082553E-18
 37.0684319   -2.04257363E-18
 37.1952744   -2.04197227E-18
 37.3221169   -2.041336168E-18
 37.4489594   -2.040726949E-18
 37.5758057   -2.040199622E-18
 37.7026482   -2.039792856E-18
 37.8294907   -2.039517405E-18
 37.956337   -2.039353623E-18
 38.0831795   -2.039251673E-18
 38.210022   -2.039136488E-18
 38.3368683   -2.038922662E-18
 38.4637108   -2.038535541E-18
 38.5905533   -2.037929425E-18
 38.7173958   -2.037113618E-18
 38.8442421   -2.03616753E-18
 38.9710846   -2.0352506E-18
 39.0979271   -2.034600643E-18
 39.2247734   -2.034515237E-18
 39.3516159   -2.035317809E-18
 39.4784584   -2.037313795E-18
 39.6053047   -2.040733153E-18
 39.7321472   -2.04567349E-18
 39.8589897   -2.052046709E-18
 39.9858322   -2.059539518E-18
 40.1126785   -2.067597084E-18
 40.239521   -2.075434621E-18
 40.3663635   -2.082083499E-18
 40.4932098   -2.086467763E-18
 40.6200523   -2.087512285E-18
 40.7468948   -2.084267669E-18
 40.8737411   -2.076044666E-18
 41.0005836   -2.062537014E-18
 41.1274261   -2.043924416E-18
 41.2542686   -2.020931897E-18
 41.381115   -1.994841587E-18
 41.5079575   -1.967444744E-18
 41.6348   -1.94093588E-18
 41.7616463   -1.917754764E-18
 41.8884888   -1.90038728E-18
 42.0153313   -1.891146225E-18
 42.1421776   -1.891951072E-18
 42.2690201   -1.904129859E-18
 42.3958626   -1.928265335E-18
 42.5227051   -1.964097972E-18
 42.6495514   -2.01049722E-18
 42.7763939   -2.065504318E-18
 42.9032364   -2.126438991E-18
 43.0300827   -2.190055177E-18
 43.1569252   -2.252728791E-18
 43.2837677   -2.310659972E-18
 43.4106102   -2.360064161E-18
 43.5374565   -2.39734271E-18
 43.664299   -2.419222671E-18
 43.7911415   -2.422859577E-18
 43.9179878   -2.405921193E-18
 44.0448303   -2.366654929E-18
 44.1716728   -2.303969528E-18
 44.2985191   -2.21753391E-18
 44.4253616   -2.107919037E-18
 44.5522041   -1.976782166E-18
 44.6790466   -1.827084395E-18
 44.8058929   -1.663318247E-18
 44.9327354   -1.491714252E-18
 45.0595779   -1.320373818E-18
 45.1864243   -1.159277809E-18
 45.3132668   -1.02011377E-18
 45.4401093   -9.158821882E-19
 45.5669556   -8.602510349E-19
 45.6937981   -8.666582726E-19
 45.8206406   -9.471865283E-19
 45.9474831   -1.111277965E-18
 46.0743294   -1.364373106E-18
 46.2011719   -1.706603574E-18
 46.3280144   -2.13166884E-18
 46.4548607   -2.626046362E-18
 46.5817032   -3.168665883E-18
 46.7085457   -3.731166898E-18
 46.835392   -4.278807613E-18
 46.9622345   -4.77204714E-18
 47.089077   -5.168776197E-18
 47.2159195   -5.427080714E-18
 47.3427658   -5.508399599E-18
 47.4696083   -5.380857861E-18
 47.5964508   -5.022521152E-18
 47.7232971   -4.424321917E-18
 47.8501396   -3.592369713E-18
 47.9769821   -2.549415316E-18
 48.1038284   -1.335261828E-18
 48.2306709   -5.990485617E-21
 48.3575134   1.368056851E-18
 48.4843559   2.705505331E-18
 48.6112022   3.918261917E-18
 48.7380447   4.916699522E-18
 48.8648872   5.615428085E-18
 48.9917336   5.939292869E-18
 49.118576   5.82921126E-18
 49.2454185   5.247442727E-18
 49.3722649   4.181891823E-18
 49.4991074   2.649101126E-18
 49.6259499   6.95627514E-19
 49.7527924   -1.602379541E-18
 49.8796387   -4.141518792E-18
 50.0064812   -6.795354493E-18
 50.1333237   -9.420391074E-18
 50.26017   -1.18635418E-17
 50.3870125   -1.39707232E-17
 50.513855   -1.559612649E-17
 50.6407013   -1.661163958E-17
 50.7675438   -1.691583195E-17
 50.8943863   -1.64419683E-17
 51.0212288   -1.516442589E-17
 51.1480751   -1.310307361E-17
 51.2749176   -1.032512318E-17
 51.4017601   -6.944218466E-18
 51.5286064   -3.116520004E-18
 51.6554489   9.661546069E-19
 51.7822914   5.086001474E-18
 51.9091377   9.011307248E-18
 52.0359802   1.251043592E-17
 52.1628227   1.536690151E-17
 52.2896652   1.739474471E-17
 52.4165115   1.845306771E-17
 52.543354   1.845874713E-17
 52.6701965   1.739614099E-17
 52.7970428   1.532277473E-17
 52.9238853   1.237004352E-17
 53.0507278   8.738364942E-18
 53.1775742   4.686390106E-18
 53.3044167   5.143436966E-19
 53.4312592   -3.457867871E-18
 53.5581017   -6.916730013E-18
 53.684948   -9.583694725E-18
 53.8117905   -1.124420521E-17
 53.938633   -1.177467696E-17
 54.0654793   -1.116469909E-17
 54.1923218   -9.531822228E-18
 54.3191643   -7.126386797E-18
 54.4460106   -4.324513891E-18
 54.5728531   -1.607959701E-18
 54.6996956   4.692253886E-19
 54.8265381   1.326323625E-18
 54.9533844   4.115106191E-19
 55.0802269   -2.736191664E-18
 55.2070694   -8.423297637E-18
 55.3339157   -1.674207108E-17
 55.4607582   -2.752069603E-17
 55.5876007   -4.028934382E-17
 55.7144432   -5.426770356E-17
 55.8412895   -6.837816404E-17
 55.968132   -8.128742922E-17
 56.0949745   -9.147715617E-17
 56.2218208   -9.734154908E-17
 56.3486633   -9.730781996E-17
 56.4755058   -8.997243523E-17
 56.6023521   -7.424427748E-17
 56.7291946   -4.94842405E-17
 56.8560371   -1.562962731E-17
 56.9828796   2.670794641E-17
 57.109726   7.618215651E-17
 57.2365685   1.306977793E-16
 57.3634109   1.874491324E-16
 57.4902573   2.430147055E-16
 57.6170998   2.93506763E-16
 57.7439423   3.347724876E-16
 57.8707886   3.62637357E-16
 57.9976311   3.731796879E-16
 58.1244736   3.630209041E-16
 58.2513161   3.296147452E-16
 58.3781624   2.715162789E-16
 58.5050049   1.886124263E-16
 58.6318474   8.229502124E-17
 58.7586937   -4.443928248E-17
 58.8855362   -1.869765012E-16
 59.0123787   -3.39169621E-16
 59.139225   -4.935248584E-16
 59.2660675   -6.414900264E-16
 59.39291   -7.738379186E-16
 59.5197525   -8.811338584E-16
 59.6465988   -9.542673184E-16
 59.7734413   -9.850241435E-16
 59.9002838   -9.666701042E-16
 60.0271301   -8.945096733E-16
 60.1539726   -7.663873109E-16
 60.2808151   -5.830905458E-16
 60.4076614   -3.486206558E-16
 60.5345039   -7.029914212E-17
 60.6613464   2.413147898E-16
 60.7881889   5.727122217E-16
 60.9150352   9.07931228E-16
 61.0418777   1.2292536E-15
 61.1687202   1.518076906E-15
 61.2955666   1.755924817E-15
 61.4224091   1.925543482E-15
 61.5492516   2.012019405E-15
 61.6760979   2.003852948E-15
 61.8029404   1.893905531E-15
 61.9297829   1.680156978E-15
 62.0566254   1.366201146E-15
 62.1834717   9.614303584E-16
 62.3103142   4.80872092E-16
 62.4371567   -5.533279455E-17
 62.564003   -6.228029973E-16
 62.6908455   -1.194103109E-15
 62.817688   -1.740183344E-15
 62.9445343   -2.231994285E-15
 63.0713768   -2.642175707E-15
 63.1982193   -2.946717933E-15
 63.3250618   -3.126478441E-15
 63.4519081   -3.168455912E-15
 63.5787506   -3.066721749E-15
 63.7055931   -2.822943337E-15
 63.8324394   -2.446445027E-15
 63.9592819   -1.953791819E-15
 64.0861282   -1.367909082E-15
 64.2129669   -7.167834733E-16
 64.3398132   -3.182155214E-17
 64.4666595   6.54035802E-16
 64.5934982   1.308319255E-15
 64.7203445   1.901026325E-15
 64.8471909   2.40647079E-15
 64.9740295   2.804851773E-15
 65.1008759   3.083427356E-15
 65.2277145   3.237198988E-15
 65.3545609   3.269038321E-15
 65.4814072   3.189231724E-15
 65.6082458   3.01445304E-15
 65.7350922   2.766214576E-15
 65.8619385   2.468899659E-15
 65.9887772   2.147497242E-15
 66.1156235   1.825219629E-15
 66.2424698   1.521175353E-15
 66.3693085   1.248306653E-15
 66.4961548   1.011781491E-15
 66.6230011   8.080198273E-16
 66.7498398   6.244947868E-16
 66.8766861   4.404065224E-16
 67.0035324   2.282589945E-16
 67.1303711   -4.369866798E-17
 67.2572174   -4.082865036E-16
 67.3840637   -8.956473445E-16
 67.5109024   -1.529213272E-15
 67.6377487   -2.32168978E-15
 67.7645874   -3.271424201E-15
 67.8914337   -4.359505785E-15
 68.01828   -5.547959078E-15
 68.1451187   -6.77931332E-15
 68.271965   -7.977770496E-15
 68.3988113   -9.052081018E-15
 68.52565   -9.900110923E-15
 68.6524963   -1.04149528E-14
 68.7793427   -1.049229029E-14
 68.9061813   -1.003858472E-14
 69.0330276   -8.979584315E-15
 69.159874   -7.268528634E-15
 69.2867126   -4.893427497E-15
 69.413559   -1.882793941E-15
 69.5404053   1.690766066E-15
 69.667244   5.709528072E-15
 69.7940903   1.001254015E-14
 69.920929   1.440055791E-14
 70.0477753   1.864397105E-14
 70.1746216   2.249344781E-14
 70.3014603   2.569286912E-14
 70.4283066   2.799387139E-14
 70.5551529   2.917125227E-14
 70.6819916   2.903834264E-14
 70.8088379   2.746139938E-14
 70.9356842   2.437211775E-14
 71.0625229   1.977736382E-14
 71.1893692   1.376541025E-14
 71.3162155   6.508021373E-15
 71.4430542   -1.74194242E-15
 71.5699005   -1.065762265E-14
 71.6967468   -1.984983595E-14
 71.8235855   -2.888302729E-14
 71.9504318   -3.729489116E-14
 72.0772781   -4.461884285E-14
 72.2041168   -5.040831644E-14
 72.3309631   -5.42617302E-14
 72.4578018   -5.584675585E-14
 72.5846481   -5.492258869E-14
 72.7114944   -5.135885342E-14
 72.8383331   -4.514985797E-14
 72.9651794   -3.642314518E-14
 73.0920258   -2.544141384E-14
 73.2188644   -1.259729253E-14
 73.3457108   1.599280684E-15
 73.4725571   1.654084923E-14
 73.5993958   3.154874501E-14
 73.7262421   4.59049167E-14
 73.8530884   5.888774304E-14
 73.9799271   6.981002961E-14
 74.1067734   7.805718284E-14
 74.2336197   8.312326657E-14
 74.3604584   8.464270815E-14
 74.4873047   8.24155265E-14
 74.614151   7.642437437E-14
 74.7409897   6.68417009E-14
 74.867836   5.4026438E-14
 74.9946747   3.850970243E-14
 75.121521   2.097014714E-14
 75.2483673   2.199920959E-15
 75.375206   -1.693689981E-14
 75.5020523   -3.555106716E-14
 75.6288986   -5.277734223E-14
 75.7557373   -6.782307328E-14
 75.8825836   -8.00130158E-14
 76.0094299   -8.88275117E-14
 76.1362686   -9.393133244E-14
 76.2631149   -9.519120924E-14
 76.3899612   -9.268076622E-14
 76.5167999   -8.667223298E-14
 76.6436462   -7.76153298E-14
 76.7704926   -6.610474158E-14
 76.8973312   -5.283811854E-14
 77.0241776   -3.856737182E-14
 77.1510239   -2.404668431E-14
 77.2778625   -9.980774718E-15
 77.4047089   3.022958521E-15
 77.5315475   1.449492077E-14
 77.6583939   2.413343234E-14
 77.7852402   3.182210964E-14
 77.9120789   3.763296912E-14
 78.0389252   4.181482499E-14
 78.1657715   4.476734806E-14
 78.2926102   4.700234613E-14
 78.4194565   4.909476146E-14
 78.5463028   5.16266107E-14
 78.6731415   5.512767231E-14
 78.7999878   6.001732585E-14
 78.9268341   6.655175814E-14
 79.0536728   7.478056802E-14
 79.1805191   8.451674419E-14
 79.3073654   9.532271619E-14
 79.4342041   1.065145354E-13
 79.5610504   1.171852871E-13
 79.6878967   1.262471302E-13
 79.8147354   1.324907388E-13
 79.9415817   1.346592244E-13
 80.0684204   1.31532819E-13
 80.1952667   1.220195413E-13
 80.322113   1.052464458E-13
 80.4489517   8.064577652E-14
 80.575798   4.8029997E-14
 80.7026443   7.650482895E-15
 80.829483   -3.976553041E-14
 80.9563293   -9.300314696E-14
 81.0831757   -1.503762257E-13
 81.2100143   -2.097732524E-13
 81.3368607   -2.687316244E-13
 81.463707   -3.245387899E-13
 81.5905457   -3.743558198E-13
 81.717392   -4.153574728E-13
 81.8442383   -4.448821953E-13
 81.971077   -4.605835028E-13
 82.0979233   -4.605737449E-13
 82.224762   -4.435515269E-13
 82.3516083   -4.08903922E-13
 82.4784546   -3.567760779E-13
 82.6052933   -2.881017365E-13
 82.7321396   -2.045911861E-13
 82.8589859   -1.086752961E-13
 82.9858246   -3.406084017E-15
 83.1126709   1.076807168E-13
 83.2395172   2.207349971E-13
 83.3663559   3.317836999E-13
 83.4932022   4.369326081E-13
 83.6200485   5.32565745E-13
 83.7468872   6.155296542E-13
 83.8737335   6.832888747E-13
 84.0005798   7.340419505E-13
 84.1274185   7.667880003E-13
 84.2542648   7.813386982E-13
 84.3811111   7.782733334E-13
 84.5079498   7.588376E-13
 84.6347961   7.247944107E-13
 84.7616348   6.782336737E-13
 84.8884811   6.213572408E-13
 85.0153275   5.562545867E-13
 85.1421661   4.846846665E-13
 85.2690125   4.078859104E-13
 85.3958588   3.264287441E-13
 85.5226974   2.401269017E-13
 85.6495438   1.480193328E-13
 85.7763901   4.842999645E-14
 85.9032288   -6.089251418E-14
 86.0300751   -1.825580702E-13
 86.1569214   -3.192514883E-13
 86.2837601   -4.733950319E-13
 86.4106064   -6.467774992E-13
 86.5374527   -8.401742301E-13
 86.6642914   -1.052982679E-12
 86.7911377   -1.282899676E-12
 86.917984   -1.525670757E-12
 87.0448227   -1.774933065E-12
 87.171669   -2.022175179E-12
 87.2985077   -2.256827104E-12
 87.425354   -2.466492071E-12
 87.5522003   -2.637324387E-12
 87.679039   -2.754540736E-12
 87.8058853   -2.803057049E-12
 87.9327316   -2.768227488E-12
 88.0595703   -2.636653482E-12
 88.1864166   -2.397029623E-12
 88.3132629   -2.040984352E-12
 88.4401016   -1.563871103E-12
 88.5669479   -9.654697831E-13
 88.6937943   -2.505486866E-13
 88.8206329   5.707479303E-13
 88.9474792   1.482719871E-12
 89.0743256   2.464165373E-12
 89.2011642   3.488687204E-12
 89.3280106   4.525249966E-12
 89.4548569   5.538985937E-12
 89.5816956   6.49222516E-12
 89.7085419   7.345719519E-12
 89.8353806   8.060024002E-12
 89.9622269   8.596970358E-12
 90.0890732   8.921197982E-12
 90.2159119   9.001653589E-12
 90.3427582   8.813015422E-12
 90.4696045   8.336977809E-12
 90.5964432   7.56333364E-12
 90.7232895   6.490816131E-12
 90.8501358   5.12765351E-12
 90.9769745   3.491815994E-12
 91.1038208   1.610938596E-12
 91.2306671   -4.780752075E-13
 91.3575058   -2.729761079E-12
 91.4843521   -5.091085539E-12
 91.6111984   -7.502689442E-12
 91.7380371   -9.900331423E-12
 91.8648834   -1.221648477E-11
 91.9917297   -1.438205978E-11
 92.1185684   -1.632815411E-11
 92.2454147   -1.798782998E-11
 92.3722534   -1.92978411E-11
 92.4990997   -2.020028936E-11
 92.625946   -2.06441704E-11
 92.7527847   -2.058679269E-11
 92.879631   -1.999505422E-11
 93.0064774   -1.88465632E-11
 93.133316   -1.713057474E-11
 93.2601624   -1.484880274E-11
 93.3870087   -1.201604354E-11
 93.5138474   -8.66062777E-12
 93.6406937   -4.824717448E-12
 93.76754   -5.64397216E-13
 93.8943787   4.050423625E-12
 94.021225   8.936348189E-12
 94.1480713   1.399707433E-11
 94.27491   1.912427681E-11
 94.4017563   2.419881309E-11
 94.528595   2.909228067E-11
 94.6554413   3.366900855E-11
 94.7822876   3.778842517E-11
 94.9091263   4.130791889E-11
 95.0359726   4.408605078E-11
 95.1628189   4.598628769E-11
 95.2896576   4.688101643E-11
 95.4165039   4.665590136E-11
 95.5433502   4.521446412E-11
 95.6701889   4.248269098E-11
 95.7970352   3.841366114E-11
 95.9238815   3.299186965E-11
 96.0507202   2.623719644E-11
 96.1775665   1.820822139E-11
 96.3044128   9.004757009E-12
 96.4312515   -1.230630832E-12
 96.5580978   -1.231231089E-11
 96.6849442   -2.401260787E-11
 96.8117828   -3.606431126E-11
 96.9386292   -4.816475344E-11
 97.0654678   -5.998150587E-11
 97.1923141   -7.115961292E-11
 97.3191605   -8.133036605E-11
 97.4459991   -9.012144503E-11
 97.5728455   -9.716809302E-11
 97.6996918   -1.021252527E-10
 97.8265305   -1.046801673E-10
 97.9533768   -1.045650164E-10
 98.0802231   -1.015693502E-10
 98.2070618   -9.555160829E-11
 98.3339081   -8.644941707E-11
 98.4607544   -7.428808957E-11
 98.5875931   -5.918693313E-11
 98.7144394   -4.136287146E-11
 98.8412857   -2.113115759E-11
 98.9681244   1.097237318E-12
 99.0949707   2.4821558E-11
 99.221817   4.946077575E-11
 99.3486557   7.436635335E-11
 99.475502   9.883829172E-11
 99.6023407   1.221439477E-10
 99.729187   1.435391667E-10
 99.8560333   1.622911944E-10
 99.982872   1.777027137E-10
 100.109718   1.891358875E-10
 100.236565   1.960360485E-10
 100.363403   1.979537784E-10
 100.49025   1.945646561E-10
 100.617096   1.856858972E-10
 100.743935   1.712890108E-10
 100.870781   1.51507959E-10
 100.997627   1.266422661E-10
 101.124466   9.71548883E-11
 101.251312   6.366450422E-11
 101.378159   2.693243198E-11
 101.504997   -1.21554598E-11
 101.631844   -5.261152972E-11
 101.75869   -9.337313561E-11
 101.885529   -1.333324284E-10
 102.012375   -1.713684333E-10
 102.139214   -2.063801491E-10
 102.26606   -2.373198027E-10
 102.392906   -2.632248031E-10
 102.519745   -2.832477308E-10
 102.646591   -2.966829837E-10
 102.773438   -3.029894391E-10
 102.900276   -3.018082451E-10
 103.027122   -2.929752274E-10
 103.153969   -2.765276896E-10
 103.280807   -2.527052456E-10
 103.407654   -2.219446987E-10
 103.5345   -1.848695919E-10
 103.661339   -1.422741785E-10
 103.788185   -9.510334881E-11
 103.915031   -4.442814172E-11
 104.04187   8.58147494E-12
 104.168716   6.268615488E-11
 104.295563   1.166080149E-10
 104.422401   1.690619866E-10
 104.549248   2.187867248E-10
 104.676086   2.645744179E-10
 104.802933   3.05298703E-10
 104.929779   3.399401038E-10
 105.056618   3.676087768E-10
 105.183464   3.875636478E-10
 105.31031   3.99228095E-10
 105.437149   4.022022992E-10
 105.563995   3.962709605E-10
 105.690842   3.814075444E-10
 105.81768   3.577748653E-10
 105.944527   3.257216163E-10
 106.071373   2.857752923E-10
 106.198212   2.386321418E-10
 106.325058   1.851436643E-10
 106.451904   1.262999288E-10
 106.578743   6.321087404E-11
 106.705589   -2.914631644E-12
 106.832428   -7.079176828E-11
 106.959274   -1.390839388E-10
 107.086121   -2.064276527E-10
 107.212959   -2.714578562E-10
 107.339806   -3.328330112E-10
 107.466652   -3.892594025E-10
 107.593491   -4.395142861E-10
 107.720337   -4.824671773E-10
 107.847183   -5.170994188E-10
 107.974022   -5.425207505E-10
 108.100868   -5.579838258E-10
 108.227715   -5.628956745E-10
 108.354553   -5.568260852E-10
 108.4814   -5.395137115E-10
 108.608246   -5.108699574E-10
 108.735085   -4.709793111E-10
 108.861931   -4.200990389E-10
 108.988777   -3.586574926E-10
 109.115616   -2.872494465E-10
 109.242462   -2.066328081E-10
 109.369301   -1.177239001E-10
 109.496147   -2.159204066E-11
 109.622993   8.054527878E-11
 109.749832   1.873273342E-10
 109.876678   2.972559421E-10
 110.003525   4.087012118E-10
 110.130363   5.199083941E-10
 110.25721   6.290062915E-10
 110.384056   7.340172359E-10
 110.510895   8.328699952E-10
 110.637741   9.234158438E-10
 110.764587   1.00344888E-9
 110.891426   1.070729505E-9
 111.018272   1.123013904E-9
 111.145119   1.158088514E-9
 111.271957   1.173808717E-9
 111.398804   1.168141361E-9
 111.52565   1.1392155E-9
 111.652489   1.085372348E-9
 111.779335   1.005220351E-9
 111.906174   8.976918098E-10
 112.03302   7.620984954E-10
 112.159866   5.981876661E-10
 112.286705   4.061943559E-10
 112.413551   1.868884075E-10
 112.540398   -5.83821394E-11
 112.667236   -3.276576788E-10
 112.794083   -6.183407675E-10
 112.920929   -9.271809431E-10
 113.047768   -1.250270776E-9
 113.174614   -1.583053244E-9
 113.30146   -1.920343218E-9
 113.428299   -2.256359988E-9
 113.555145   -2.584775061E-9
 113.681992   -2.898772555E-9
 113.80883   -3.191123366E-9
 113.935677   -3.454271758E-9
 114.062523   -3.6804364E-9
 114.189362   -3.861723386E-9
 114.316208   -3.990249908E-9
 114.443047   -4.058283931E-9
 114.569893   -4.058391401E-9
 114.696739   -3.983593899E-9
 114.823578   -3.827539619E-9
 114.950424   -3.584676334E-9
 115.077271   -3.250435698E-9
 115.204109   -2.82141932E-9
 115.330956   -2.295585055E-9
 115.457802   -1.672431083E-9
 115.584641   -9.531717637E-10
 115.711487   -1.409035388E-10
 115.838333   7.592494411E-10
 115.965172   1.740012023E-9
 116.092018   2.791865183E-9
 116.218864   3.902991264E-9
 116.345703   5.059257902E-9
 116.472549   6.244257555E-9
 116.599396   7.43939621E-9
 116.726234   8.624041037E-9
 116.853081   9.775734888E-9
 116.979919   1.087046542E-8
 117.106766   1.188300391E-8
 117.233612   1.278730544E-8
 117.360451   1.355696E-8