 -7.19999981   1.083861291E-17
 -7.07315636   1.08386154E-17
 -6.9463129   1.083862119E-17
 -6.81946898   1.083862863E-17
 -6.69262552   1.083863525E-17
 -6.56578159   1.083864269E-17
 -6.43893814   1.083864683E-17
 -6.31209469   1.083865014E-17
 -6.18525076   1.083865179E-17
 -6.05840731   1.083865096E-17
 -5.93156338   1.083865014E-17
 -5.80471992   1.083865096E-17
 -5.67787647   1.083865345E-17
 -5.55103254   1.083865758E-17
 -5.42418909   1.08386642E-17
 -5.29734564   1.08386733E-17
 -5.17050171   1.083868488E-17
 -5.04365826   1.083869646E-17
 -4.91681433   1.083870721E-17
 -4.78997087   1.083871631E-17
 -4.66312742   1.083872293E-17
 -4.53628349   1.083872624E-17
 -4.40944004   1.083872541E-17
 -4.28259611   1.083872376E-17
 -4.15575266   1.083872045E-17
 -4.02890921   1.083871714E-17
 -3.90206528   1.083871631E-17
 -3.77522182   1.083871797E-17
 -3.64837813   1.083872293E-17
 -3.52153444   1.083873203E-17
 -3.39469075   1.083874526E-17
 -3.2678473   1.083876181E-17
 -3.14100361   1.083878083E-17
 -3.01415992   1.083880234E-17
 -2.88731623   1.083882715E-17
 -2.76047254   1.08388561E-17
 -2.63362908   1.083889002E-17
 -2.50678539   1.083893138E-17
 -2.3799417   1.083898101E-17
 -2.25309801   1.083903974E-17
 -2.12625432   1.083910757E-17
 -1.99941075   1.083918698E-17
 -1.87256718   1.083927549E-17
 -1.74572349   1.083937061E-17
 -1.61887991   1.083947318E-17
 -1.49203622   1.083957823E-17
 -1.36519253   1.083968494E-17
 -1.23834896   1.083979082E-17
 -1.11150527   1.083989587E-17
 -0.984661698   1.083999679E-17
 -0.857818007   1.084009439E-17
 -0.730974376   1.084018869E-17
 -0.604130745   1.084027968E-17
 -0.477287114   1.084036654E-17
 -0.350443482   1.084044925E-17
 -0.223599836   1.084052784E-17
 -9.675619751E-2   1.084059815E-17
 3.008744121E-2   1.084066101E-17
 0.156931072   1.084071313E-17
 0.283774734   1.084075448E-17
 0.410618365   1.084078509E-17
 0.537461996   1.084080494E-17
 0.664305627   1.084081404E-17
 0.791149259   1.084081404E-17
 0.91799289   1.084080742E-17
 1.04483652   1.084079584E-17
 1.17168021   1.084078178E-17
 1.29852378   1.084076441E-17
 1.42536747   1.084074621E-17
 1.55221117   1.084072471E-17
 1.67905474   1.084069989E-17
 1.80589843   1.084067094E-17
 1.932742   1.084063702E-17
 2.05958557   1.084059815E-17
 2.18642926   1.084055265E-17
 2.31327295   1.084050302E-17
 2.44011664   1.084045174E-17
 2.56696033   1.084039962E-17
 2.69380379   1.084034999E-17
 2.82064748   1.084030533E-17
 2.94749117   1.084026645E-17
 3.07433486   1.084023584E-17
 3.20117831   1.084021268E-17
 3.328022   1.084019614E-17
 3.45486569   1.084018456E-17
 3.58170938   1.084017711E-17
 3.70855308   1.084017049E-17
 3.83539653   1.084016388E-17
 3.96224022   1.084015561E-17
 4.08908367   1.084014568E-17
 4.2159276   1.08401341E-17
 4.34277105   1.084012335E-17
 4.46961498   1.084011259E-17
 4.59645844   1.084010349E-17
 4.72330189   1.08400977E-17
 4.85014582   1.084009439E-17
 4.97698927   1.084009439E-17
 5.1038332   1.084009605E-17
 5.23067665   1.084009853E-17
 5.3575201   1.084010101E-17
 5.48436403   1.084010018E-17
 5.61120749   1.08400977E-17
 5.73805141   1.084009191E-17
 5.86489487   1.084008281E-17
 5.99173832   1.084007289E-17
 6.11858225   1.084006296E-17
 6.2454257   1.084005469E-17
 6.37226963   1.08400489E-17
 6.49911308   1.084004724E-17
 6.62595654   1.084004973E-17
 6.75280046   1.084005469E-17
 6.87964392   1.084006131E-17
 7.00648737   1.084006792E-17
 7.1333313   1.084007289E-17
 7.26017475   1.084007289E-17
 7.38701868   1.084006792E-17
 7.51386213   1.0840058E-17
 7.64070559   1.084004228E-17
 7.76754951   1.084002408E-17
 7.89439297   1.08400034E-17
 8.02123642   1.083998438E-17
 8.14808083   1.083996784E-17
 8.27492428   1.083995625E-17
 8.40176773   1.083995129E-17
 8.52861118   1.083995046E-17
 8.65545464   1.083995708E-17
 8.78229809   1.083996784E-17
 8.90914249   1.083998107E-17
 9.03598595   1.083999679E-17
 9.1628294   1.08400125E-17
 9.28967285   1.084002574E-17
 9.4165163   1.084003815E-17
 9.54336071   1.084004807E-17
 9.67020416   1.084005552E-17
 9.79704762   1.084006296E-17
 9.92389107   1.084007123E-17
 10.0507345   1.084008116E-17
 10.1775789   1.084009191E-17
 10.3044224   1.084010597E-17
 10.4312658   1.084012169E-17
 10.5581093   1.084013741E-17
 10.6849527   1.084015312E-17
 10.8117971   1.084016801E-17
 10.9386406   1.084018125E-17
 11.065484   1.084019283E-17
 11.1923275   1.084020275E-17
 11.319171   1.084021185E-17
 11.4460154   1.084022261E-17
 11.5728588   1.084023419E-17
 11.6997023   1.084024908E-17
 11.8265457   1.084026727E-17
 11.9533892   1.084028961E-17
 12.0802336   1.084031277E-17
 12.207077   1.084033924E-17
 12.3339205   1.084036488E-17
 12.4607639   1.084038804E-17
 12.5876074   1.08404079E-17
 12.7144518   1.084042278E-17
 12.8412952   1.084043188E-17
 12.9681387   1.084043685E-17
 13.0949821   1.084043767E-17
 13.2218256   1.084043602E-17
 13.34867   1.084043437E-17
 13.4755135   1.084043271E-17
 13.6023569   1.084043437E-17
 13.7292004   1.084043933E-17
 13.8560438   1.08404476E-17
 13.9828882   1.084046001E-17
 14.1097317   1.084047324E-17
 14.2365751   1.084048813E-17
 14.3634186   1.084050302E-17
 14.490262   1.084051626E-17
 14.6171055   1.084052784E-17
 14.7439499   1.084053694E-17
 14.8707933   1.084054521E-17
 14.9976368   1.084055182E-17
 15.1244802   1.084055844E-17
 15.2513237   1.084056671E-17
 15.3781681   1.084057581E-17
 15.5050116   1.084058905E-17
 15.631855   1.084060394E-17
 15.7586985   1.084062214E-17
 15.8855419   1.084064116E-17
 16.0123863   1.084066184E-17
 16.1392288   1.084068252E-17
 16.2660732   1.08407032E-17
 16.3929176   1.084072305E-17
 16.5197601   1.08407429E-17
 16.6466045   1.084076358E-17
 16.773447   1.084078426E-17
 16.9002914   1.08408066E-17
 17.0271358   1.084082976E-17
 17.1539783   1.08408554E-17
 17.2808228   1.08408827E-17
 17.4076653   1.084091082E-17
 17.5345097   1.084093812E-17
 17.6613541   1.084096376E-17
 17.7881966   1.084098692E-17
 17.915041   1.084100595E-17
 18.0418835   1.084102084E-17
 18.1687279   1.084103159E-17
 18.2955723   1.084103903E-17
 18.4224148   1.084104482E-17
 18.5492592   1.084104979E-17
 18.6761017   1.084105475E-17
 18.8029461   1.084106054E-17
 18.9297905   1.084106964E-17
 19.056633   1.084108122E-17
 19.1834774   1.084109694E-17
 19.3103199   1.084111513E-17
 19.4371643   1.084113581E-17
 19.5640087   1.084115815E-17
 19.6908512   1.084118131E-17
 19.8176956   1.084120364E-17
 19.9445381   1.084122432E-17
 20.0713825   1.084124169E-17
 20.1982269   1.084125741E-17
 20.3250694   1.084126982E-17
 20.4519138   1.08412814E-17
 20.5787563   1.084129132E-17
 20.7056007   1.084130042E-17
 20.8324451   1.084131035E-17
 20.9592876   1.08413211E-17
 21.086132   1.084133268E-17
 21.2129745   1.084134592E-17
 21.339819   1.084135998E-17
 21.4666634   1.084137404E-17
 21.5935059   1.084138893E-17
 21.7203503   1.084140382E-17
 21.8471928   1.084141871E-17
 21.9740372   1.084143277E-17
 22.1008816   1.084144683E-17
 22.2277241   1.084145841E-17
 22.3545685   1.084147082E-17
 22.481411   1.084148158E-17
 22.6082554   1.084149316E-17
 22.7350998   1.084150308E-17
 22.8619423   1.084151301E-17
 22.9887867   1.084152211E-17
 23.1156292   1.084153038E-17
 23.2424736   1.084153782E-17
 23.369318   1.084154444E-17
 23.4961605   1.084155106E-17
 23.6230049   1.084155768E-17
 23.7498474   1.084156429E-17
 23.8766918   1.084157422E-17
 24.0035343   1.08415858E-17
 24.1303787   1.084160152E-17
 24.2572231   1.084162137E-17
 24.3840656   1.084164618E-17
 24.51091   1.084167514E-17
 24.6377525   1.084170657E-17
 24.7645969   1.084174048E-17
 24.8914413   1.084177523E-17
 25.0182838   1.084180831E-17
 25.1451283   1.084183975E-17
 25.2719707   1.084186787E-17
 25.3988152   1.084189103E-17
 25.5256596   1.084191088E-17
 25.6525021   1.08419266E-17
 25.7793465   1.084193901E-17
 25.906189   1.084194893E-17
 26.0330334   1.084195886E-17
 26.1598778   1.084196879E-17
 26.2867203   1.084198037E-17
 26.4135647   1.084199277E-17
 26.5404072   1.084200601E-17
 26.6672516   1.08420209E-17
 26.794096   1.084203579E-17
 26.9209385   1.084204819E-17
 27.0477829   1.084205729E-17
 27.1746254   1.084206226E-17
 27.3014698   1.084206143E-17
 27.4283142   1.084205481E-17
 27.5551567   1.084204323E-17
 27.6820011   1.084202917E-17
 27.8088436   1.084201345E-17
 27.935688   1.084199856E-17
 28.0625324   1.084198533E-17
 28.1893749   1.084197788E-17
 28.3162193   1.084197788E-17
 28.4430618   1.084198616E-17
 28.5699062   1.084200353E-17
 28.6967506   1.084202917E-17
 28.8235931   1.084206226E-17
 28.9504375   1.084210031E-17
 29.07728   1.084214084E-17
 29.2041245   1.084218054E-17
 29.3309689   1.084221529E-17
 29.4578114   1.084224424E-17
 29.5846558   1.084226492E-17
 29.7114983   1.084227732E-17
 29.8383427   1.084228229E-17
 29.9651871   1.084228063E-17
 30.0920296   1.084227732E-17
 30.218874   1.084227319E-17
 30.3457165   1.084227071E-17
 30.4725609   1.084227401E-17
 30.5994053   1.084228311E-17
 30.7262478   1.084229883E-17
 30.8530922   1.084231703E-17
 30.9799347   1.084233605E-17
 31.1067791   1.084235094E-17
 31.2336235   1.084235921E-17
 31.360466   1.084235673E-17
 31.4873104   1.084234267E-17
 31.6141529   1.084232116E-17
 31.7409973   1.084229387E-17
 31.8678417   1.084227236E-17
 31.9946842   1.084226657E-17
 32.1215286   1.084228642E-17
 32.2483711   1.084234433E-17
 32.3752136   1.084244607E-17
 32.5020599   1.084259331E-17
 32.6289024   1.08427819E-17
 32.7557449   1.084299945E-17
 32.8825912   1.084322858E-17
 33.0094337   1.084344613E-17
 33.1362762   1.084362397E-17
 33.2631226   1.084374061E-17
 33.3899651   1.084377452E-17
 33.5168076   1.084371414E-17
 33.6436501   1.084355863E-17
 33.7704964   1.084331874E-17
 33.8973389   1.084301682E-17
 34.0241814   1.084268099E-17
 34.1510277   1.084234433E-17
 34.2778702   1.084203744E-17
 34.4047127   1.084178515E-17
 34.531559   1.084159986E-17
 34.6584015   1.08414824E-17
 34.785244   1.084142036E-17
 34.9120865   1.084139307E-17
 35.0389328   1.084138066E-17
 35.1657753   1.084136908E-17
 35.2926178   1.084135915E-17
 35.4194641   1.084137652E-17
 35.5463066   1.084147082E-17
 35.6731491   1.084171484E-17
 35.7999954   1.084219543E-17
 35.9268379   1.084299945E-17
 36.0536804   1.084419225E-17
 36.1805229   1.084579615E-17
 36.3073692   1.084776649E-17
 36.4342117   1.084997672E-17
 36.5610542   1.085221259E-17
 36.6879005   1.085418045E-17
 36.814743   1.085552214E-17
 36.9415855   1.085586211E-17
 37.0684319   1.085484964E-17
 37.1952744   1.085221673E-17
 37.3221169   1.084784177E-17
 37.4489594   1.084179673E-17
 37.5758057   1.083438354E-17
 37.7026482   1.082614151E-17
 37.8294907   1.081783331E-17
 37.956337   1.081038703E-17
 38.0831795   1.080481349E-17
 38.210022   1.080210282E-17
 38.3368683   1.080309461E-17
 38.4637108   1.080836292E-17
 38.5905533   1.081810545E-17
 38.7173958   1.083206247E-17
 38.8442421   1.084949282E-17
 38.9710846   1.08691822E-17
 39.0979271   1.088952174E-17
 39.2247734   1.090863458E-17
 39.3516159   1.092453878E-17
 39.4784584   1.093533928E-17
 39.6053047   1.093942886E-17
 39.7321472   1.093566601E-17
 39.8589897   1.092351556E-17
 39.9858322   1.090314458E-17
 40.1126785   1.087543817E-17
 40.239521   1.084196382E-17
 40.3663635   1.080486064E-17
 40.4932098   1.076668377E-17
 40.6200523   1.073021338E-17
 40.7468948   1.069825443E-17
 40.8737411   1.067343818E-17
 41.0005836   1.065805758E-17
 41.1274261   1.06539283E-17
 41.2542686   1.066230185E-17
 41.381115   1.068381102E-17
 41.5079575   1.071844508E-17
 41.6348   1.076554061E-17
 41.7616463   1.082377908E-17
 41.8884888   1.089117693E-17
 42.0153313   1.096506567E-17
 42.1421776   1.104206047E-17
 42.2690201   1.111805769E-17
 42.3958626   1.118824231E-17
 42.5227051   1.124717562E-17
 42.6495514   1.128896809E-17
 42.7763939   1.130756146E-17
 42.9032364   1.129714477E-17
 43.0300827   1.125269126E-17
 43.1569252   1.117058779E-17
 43.2837677   1.104931401E-17
 43.4106102   1.089010904E-17
 43.5374565   1.069753147E-17
 43.664299   1.047983242E-17
 43.7911415   1.024905399E-17
 43.9179878   1.002078441E-17
 44.0448303   9.813517759E-18
 44.1716728   9.647612625E-18
 44.2985191   9.543881695E-18
 44.4253616   9.521883653E-18
 44.5522041   9.598023147E-18
 44.6790466   9.783623452E-18
 44.8058929   1.008312404E-17
 44.9327354   1.049259499E-17
 45.0595779   1.099872861E-17
 45.1864243   1.157846062E-17
 45.3132668   1.219932998E-17
 45.4401093   1.28206394E-17
 45.5669556   1.339540254E-17
 45.6937981   1.387304806E-17
 45.8206406   1.420272255E-17
 45.9474831   1.433705337E-17
 46.0743294   1.423612245E-17
 46.2011719   1.387140859E-17
 46.3280144   1.322941635E-17
 46.4548607   1.231470596E-17
 46.5817032   1.11520515E-17
 46.7085457   9.787477286E-18
 46.835392   8.287965099E-18
 46.9622345   6.73968317E-18
 47.089077   5.24466795E-18
 47.2159195   3.91596401E-18
 47.3427658   2.871347393E-18
 47.4696083   2.225848316E-18
 47.5964508   2.083410503E-18
 47.7232971   2.528133199E-18
 47.8501396   3.615635822E-18
 47.9769821   5.365154664E-18
 48.1038284   7.753029051E-18
 48.2306709   1.070823188E-17
 48.3575134   1.411054651E-17
 48.4843559   1.779191713E-17
 48.6112022   2.154128697E-17
 48.7380447   2.511312564E-17
 48.8648872   2.823950605E-17
 48.9917336   3.064540057E-17
 49.118576   3.206655642E-17
 49.2454185   3.226903038E-17
 49.3722649   3.10692413E-17
 49.4991074   2.835324008E-17
 49.6259499   2.409373638E-17
 49.7527924   1.83634493E-17
 49.8796387   1.134336183E-17
 50.0064812   3.324728809E-18
 50.1333237   -5.296152085E-18
 50.26017   -1.403090887E-17
 50.3870125   -2.231993689E-17
 50.513855   -2.956068224E-17
 50.6407013   -3.514239444E-17
 50.7675438   -3.848583862E-17
 50.8943863   -3.908588536E-17
 51.0212288   -3.655447777E-17
 51.1480751   -3.066109715E-17
 51.2749176   -2.136761212E-17
 51.4017601   -8.854491174E-18
 51.5286064   6.46461501E-18
 51.6554489   2.394232759E-17
 51.7822914   4.271287383E-17
 51.9091377   6.172415113E-17
 52.0359802   7.978636773E-17
 52.1628227   9.563580339E-17
 52.2896652   1.080109614E-16
 52.4165115   1.15737179E-16
 52.543354   1.1781462E-16
 52.6701965   1.135037252E-16
 52.7970428   1.024018033E-16
 52.9238853   8.450418243E-17
 53.0507278   6.024423899E-17
 53.1775742   3.050717869E-17
 53.3044167   -3.385958786E-18
 53.4312592   -3.972534561E-17
 53.5581017   -7.649020519E-17
 53.684948   -1.114543157E-16
 53.8117905   -1.423140289E-16
 53.938633   -1.668316622E-16
 54.0654793   -1.829853482E-16
 54.1923218   -1.8911563E-16
 54.3191643   -1.840583271E-16
 54.4460106   -1.672541993E-16
 54.5728531   -1.388263839E-16
 54.6996956   -9.961865819E-17
 54.8265381   -5.119000934E-17
 54.9533844   4.236637945E-18
 55.0802269   6.387057894E-17
 55.2070694   1.244905631E-16
 55.3339157   1.826166903E-16
 55.4607582   2.347079063E-16
 55.5876007   2.773746235E-16
 55.7144432   3.075939797E-16
 55.8412895   3.229154557E-16
 55.968132   3.216433446E-16
 56.0949745   3.029844264E-16
 56.2218208   2.671495064E-16
 56.3486633   2.153996976E-16
 56.4755058   1.500311078E-16
 56.6023521   7.429392155E-17
 56.7291946   -7.754048138E-18
 56.8560371   -9.145545757E-17
 56.9828796   -1.718156173E-16
 57.109726   -2.438063107E-16
 57.2365685   -3.026952176E-16
 57.3634109   -3.443814411E-16
 57.4902573   -3.657145747E-16
 57.6170998   -3.647737329E-16
 57.7439423   -3.410825919E-16
 57.8707886   -2.957385624E-16
 57.9976311   -2.314383327E-16
 58.1244736   -1.52386852E-16
 58.2513161   -6.40857187E-17
 58.3781624   2.699559185E-17
 58.5050049   1.138514057E-16
 58.6318474   1.894506051E-16
 58.7586937   2.472946041E-16
 58.8855362   2.819820327E-16
 59.0123787   2.897362223E-16
 59.139225   2.688493427E-16
 59.2660675   2.199996027E-16
 59.39291   1.464041789E-16
 59.5197525   5.378051403E-17
 59.6465988   -4.989926017E-17
 59.7734413   -1.548593809E-16
 59.9002838   -2.501604872E-16
 60.0271301   -3.24494431E-16
 60.1539726   -3.670861858E-16
 60.2808151   -3.686425029E-16
 60.4076614   -3.222775341E-16
 60.5345039   -2.243449611E-16
 60.6613464   -7.510396298E-17
 60.7881889   1.208431598E-16
 60.9150352   3.543954088E-16
 61.0418777   6.121140768E-16
 61.1687202   8.767185404E-16
 61.2955666   1.12791119E-15
 61.4224091   1.343504263E-15
 61.5492516   1.500799552E-15
 61.6760979   1.578151447E-15
 61.8029404   1.556625693E-15
 61.9297829   1.421654487E-15
 62.0566254   1.164578082E-15
 62.1834717   7.839620799E-16
 62.3103142   2.865813951E-16
 62.4371567   -3.120260796E-16
 62.564003   -9.875180202E-16
 62.6908455   -1.707276326E-15
 62.817688   -2.431534071E-15
 62.9445343   -3.115093048E-15
 63.0713768   -3.709590533E-15
 63.1982193   -4.166228113E-15
 63.3250618   -4.438838044E-15
 63.4519081   -4.487127392E-15
 63.5787506   -4.279907558E-15
 63.7055931   -3.79809743E-15
 63.8324394   -3.037279096E-15
 63.9592819   -2.009585032E-15
 64.0861282   -7.447256609E-16
 64.2129669   7.100010158E-16
 64.3398132   2.29082877E-15
 64.4666595   3.919808441E-15
 64.5934982   5.508216292E-15
 64.7203445   6.960983253E-15
 64.8471909   8.181930001E-15
 64.9740295   9.07954945E-15
 65.1008759   9.572993575E-15
 65.2277145   9.597898885E-15
 65.3545609   9.111646916E-15
 65.4814072   8.097684104E-15
 65.6082458   6.568542724E-15
 65.7350922   4.567275767E-15
 65.8619385   2.167112831E-15
 65.9887772   -5.307704853E-16
 66.1156235   -3.40133195E-15
 66.2424698   -6.301457989E-15
 66.3693085   -9.077193851E-15
 66.4961548   -1.157205062E-14
 66.6230011   -1.363591247E-14
 66.7498398   -1.513404101E-14
 66.8766861   -1.595560706E-14
 67.0035324   -1.60212284E-14
 67.1303711   -1.528898874E-14
 67.2572174   -1.375852726E-14
 67.3840637   -1.147284867E-14
 67.5109024   -8.517684544E-15
 67.6377487   -5.018325047E-15
 67.7645874   -1.134020415E-15
 67.8914337   2.949791815E-15
 68.01828   7.031058712E-15
 68.1451187   1.09019654E-14
 68.271965   1.4360478E-14
 68.3988113   1.722189421E-14
 68.52565   1.932971537E-14
 68.6524963   2.056516714E-14
 68.7793427   2.085473551E-14
 68.9061813   2.017520672E-14
 69.0330276   1.855582541E-14
 69.159874   1.607733247E-14
 69.2867126   1.286787974E-14
 69.413559   9.095928526E-15
 69.5404053   4.960540882E-15
 69.667244   6.795703514E-16
 69.7940903   -3.523549064E-15
 69.920929   -7.433585709E-15
 70.0477753   -1.085701167E-14
 70.1746216   -1.363429718E-14
 70.3014603   -1.565016867E-14
 70.4283066   -1.684105126E-14
 70.5551529   -1.719914968E-14
 70.6819916   -1.677272789E-14
 70.8088379   -1.566249131E-14
 70.9356842   -1.401415418E-14
 71.0625229   -1.200759581E-14
 71.1893692   -9.843219108E-15
 71.3162155   -7.726362647E-15
 71.4430542   -5.850790721E-15
 71.5699005   -4.382385839E-15
 71.6967468   -3.444207276E-15
 71.8235855   -3.104044774E-15
 71.9504318   -3.36552088E-15
 72.0772781   -4.163523537E-15
 72.2041168   -5.364627267E-15
 72.3309631   -6.77276025E-15
 72.4578018   -8.140108596E-15
 72.5846481   -9.182856976E-15
 72.7114944   -9.601093893E-15
 72.8383331   -9.101783217E-15
 72.9651794   -7.423515334E-15
 73.0920258   -4.361500124E-15
 73.2188644   2.088990374E-16
 73.3457108   6.311810426E-15
 73.4725571   1.385528638E-14
 73.5993958   2.26221155E-14
 73.7262421   3.226818091E-14
 73.8530884   4.232922809E-14
 73.9799271   5.223643377E-14
 74.1067734   6.134063526E-14
 74.2336197   6.894451102E-14
 74.3604584   7.434131029E-14
 74.4873047   7.685844149E-14
 74.614151   7.590341523E-14
 74.7409897   7.10095028E-14
 74.867836   6.187812849E-14
 74.9946747   4.841501074E-14
 75.121521   3.075725032E-14
 75.2483673   9.288714071E-15
 75.375206   -1.535807614E-14
 75.5020523   -4.231476077E-14
 75.6288986   -7.050517939E-14
 75.7557373   -9.868779513E-14
 75.8825836   -1.255110653E-13
 76.0094299   -1.495791474E-13
 76.1362686   -1.695244964E-13
 76.2631149   -1.84083502E-13
 76.3899612   -1.921705118E-13
 76.5167999   -1.929457841E-13
 76.6436462   -1.858728828E-13
 76.7704926   -1.707616118E-13
 76.8973312   -1.47793236E-13
 77.0241776   -1.175257266E-13
 77.1510239   -8.087808716E-14
 77.2778625   -3.909406368E-14
 77.4047089   6.313327885E-15
 77.5315475   5.363357734E-14
 77.6583939   1.010427974E-13
 77.7852402   1.466952238E-13
 77.9120789   1.888168712E-13
 78.0389252   2.257956056E-13
 78.1657715   2.562617815E-13
 78.2926102   2.791547375E-13
 78.4194565   2.937702707E-13
 78.5463028   2.99786373E-13
 78.6731415   2.972649796E-13
 78.7999878   2.866293628E-13
 78.9268341   2.686187048E-13
 79.0536728   2.442221501E-13
 79.1805191   2.145972338E-13
 79.3073654   1.809773577E-13
 79.4342041   1.445759338E-13
 79.5610504   1.06492953E-13
 79.6878967   6.763196231E-14
 79.8147354   2.863415207E-14
 79.9415817   -1.01649434E-14
 80.0684204   -4.875102871E-14
 80.1952667   -8.741632093E-14
 80.322113   -1.267133371E-13
 80.4489517   -1.673787248E-13
 80.575798   -2.102307857E-13
 80.7026443   -2.560462422E-13
 80.829483   -3.054246038E-13
 80.9563293   -3.58648739E-13
 81.0831757   -4.155528731E-13
 81.2100143   -4.754082327E-13
 81.3368607   -5.368367968E-13
 81.463707   -5.977631042E-13
 81.5905457   -6.554107842E-13
 81.717392   -7.063503428E-13
 81.8442383   -7.465990716E-13
 81.971077   -7.717736498E-13
 82.0979233   -7.772903957E-13
 82.224762   -7.586060686E-13
 82.3516083   -7.114883769E-13
 82.4784546   -6.323044302E-13
 82.6052933   -5.183103296E-13
 82.7321396   -3.679279104E-13
 82.8589859   -1.809920215E-13
 82.9858246   4.104800945E-14
 83.1126709   2.949856342E-13
 83.2395172   5.757856214E-13
 83.3663559   8.765922016E-13
 83.4932022   1.188823128E-12
 83.6200485   1.50234946E-12
 83.7468872   1.805762137E-12
 83.8737335   2.086716216E-12
 84.0005798   2.332343303E-12
 84.1274185   2.529721441E-12
 84.2542648   2.666382523E-12
 84.3811111   2.730841378E-12
 84.5079498   2.713123996E-12
 84.6347961   2.605276021E-12
 84.7616348   2.4018257E-12
 84.8884811   2.100186995E-12
 85.0153275   1.700976599E-12
 85.1421661   1.208231757E-12
 85.2690125   6.295159706E-13
 85.3958588   -2.409922407E-14
 85.5226974   -7.38181326E-13
 85.6495438   -1.495212482E-12
 85.7763901   -2.274987924E-12
 85.9032288   -3.0551295E-12
 86.0300751   -3.811695751E-12
 86.1569214   -4.519873191E-12
 86.2837601   -5.154723003E-12
 86.4106064   -5.691956021E-12
 86.5374527   -6.108714663E-12
 86.6642914   -6.384328396E-12
 86.7911377   -6.501016305E-12
 86.917984   -6.444522867E-12
 87.0448227   -6.204652243E-12
 87.171669   -5.775697195E-12
 87.2985077   -5.156746124E-12
 87.425354   -4.351863488E-12
 87.5522003   -3.37014661E-12
 87.679039   -2.225657809E-12
 87.8058853   -9.372443143E-13
 87.9327316   4.717411357E-13
 88.0595703   1.973813474E-12
 88.1864166   3.537801996E-12
 88.3132629   5.129362646E-12
 88.4401016   6.711543214E-12
 88.5669479   8.245396553E-12
 88.6937943   9.690631977E-12
 88.8206329   1.100631045E-11
 88.9474792   1.215157749E-11
 89.0743256   1.308643992E-11
 89.2011642   1.377258377E-11
 89.3280106   1.417424424E-11
 89.4548569   1.425911993E-11
 89.5816956   1.3999326E-11
 89.7085419   1.337238046E-11
 89.8353806   1.236221455E-11
 89.9622269   1.096016507E-11
 90.0890732   9.16594925E-12
 90.2159119   6.988562073E-12
 90.3427582   4.447064245E-12
 90.4696045   1.571227848E-12
 90.5964432   -1.598021086E-12
 90.7232895   -5.00840645E-12
 90.8501358   -8.596385756E-12
 90.9769745   -1.228757634E-11
 91.1038208   -1.599753142E-11
 91.2306671   -1.963291162E-11
 91.3575058   -2.309304657E-11
 91.4843521   -2.627191173E-11
 91.6111984   -2.906047798E-11
 91.7380371   -3.134942306E-11
 91.8648834   -3.303214299E-11
 91.9917297   -3.400804985E-11
 92.1185684   -3.418597697E-11
 92.2454147   -3.348773342E-11
 92.3722534   -3.185159428E-11
 92.4990997   -2.923566597E-11
 92.625946   -2.562097236E-11
 92.7527847   -2.101421814E-11
 92.879631   -1.54499781E-11
 93.0064774   -8.992311236E-12
 93.133316   -1.735608619E-12
 93.2601624   6.195351523E-12
 93.3870087   1.464626857E-11
 93.5138474   2.343512016E-11
 93.6406937   3.235495899E-11
 93.76754   4.11776481E-11
 93.8943787   4.965854117E-11
 94.021225   5.754204058E-11
 94.1480713   6.456788576E-11
 94.27491   7.047806783E-11
 94.4017563   7.502422988E-11
 94.528595   7.797532064E-11
 94.6554413   7.912532435E-11
 94.7822876   7.830084497E-11
 94.9091263   7.536830882E-11
 95.0359726   7.024057724E-11
 95.1628189   6.288265048E-11
 95.2896576   5.331640685E-11
 95.4165039   4.162404102E-11
 95.5433502   2.795009016E-11
 95.6701889   1.250187627E-11
 95.7970352   -4.451679476E-12
 95.9238815   -2.258303614E-11
 96.0507202   -4.151077398E-11
 96.1775665   -6.080606851E-11
 96.3044128   -8.000081153E-11
 96.4312515   -9.859736638E-11
 96.5580978   -1.160796181E-10
 96.6849442   -1.319252624E-10
 96.8117828   -1.456189613E-10
 96.9386292   -1.566660829E-10
 97.0654678   -1.646068004E-10
 97.1923141   -1.690299151E-10
 97.3191605   -1.695864699E-10
 97.4459991   -1.660022259E-10
 97.5728455   -1.580890696E-10
 97.6996918   -1.457547277E-10
 97.8265305   -1.2901058E-10
 97.9533768   -1.079771342E-10
 98.0802231   -8.288707221E-11
 98.2070618   -5.408554507E-11
 98.3339081   -2.202764013E-11
 98.4607544   1.272702516E-11
 98.5875931   4.952253538E-11
 98.7144394   8.761776721E-11
 98.8412857   1.261999255E-10
 98.9681244   1.644004932E-10
 99.0949707   2.013130912E-10
 99.221817   2.360130424E-10
 99.3486557   2.675779598E-10
 99.475502   2.951091593E-10
 99.6023407   3.177531849E-10
 99.729187   3.347230826E-10
 99.8560333   3.45318607E-10
 99.982872   3.489454836E-10
 100.109718   3.451323949E-10
 100.236565   3.335459409E-10
 100.363403   3.140031013E-10
 100.49025   2.864802839E-10
 100.617096   2.511195973E-10
 100.743935   2.082314737E-10
 100.870781   1.582938502E-10
 100.997627   1.019479501E-10
 101.124466   3.999065315E-11
 101.251312   -2.663649683E-11
 101.378159   -9.686120656E-11
 101.504997   -1.694969443E-10
 101.631844   -2.432618829E-10
 101.75869   -3.167997253E-10
 101.885529   -3.887019318E-10
 102.012375   -4.575310408E-10
 102.139214   -5.21844512E-10
 102.26606   -5.802189285E-10
 102.392906   -6.312736445E-10
 102.519745   -6.73694045E-10
 102.646591   -7.062540552E-10
 102.773438   -7.278374015E-10
 102.900276   -7.37457595E-10
 103.027122   -7.342762509E-10
 103.153969   -7.176202965E-10
 103.280807   -6.869971814E-10
 103.407654   -6.42108422E-10
 103.5345   -5.828613148E-10
 103.661339   -5.093785393E-10
 103.788185   -4.220059857E-10
 103.915031   -3.213182775E-10
 104.04187   -2.081217698E-10
 104.168716   -8.345523578E-11
 104.295563   5.14124715E-11
 104.422401   1.949874984E-10
 104.549248   3.455594977E-10
 104.676086   5.012132931E-10
 104.802933   6.598440128E-10
 104.929779   8.191759493E-10
 105.056618   9.767844311E-10
 105.183464   1.130121885E-9
 105.31031   1.276546424E-9
 105.437149   1.413353989E-9
 105.563995   1.537812211E-9
 105.690842   1.647197156E-9
 105.81768   1.738831412E-9
 105.944527   1.81012294E-9
 106.071373   1.858604715E-9
 106.198212   1.881973466E-9
 106.325058   1.878128542E-9
 106.451904   1.845208319E-9
 106.578743   1.781624404E-9
 106.705589   1.686094597E-9
 106.832428   1.557671325E-9
 106.959274   1.395767502E-9
 107.086121   1.200178734E-9
 107.212959   9.711011995E-10
 107.339806   7.091464638E-10
 107.466652   4.153530853E-10
 107.593491   9.119273392E-11
 107.720337   -2.61424854E-10
 107.847183   -6.401502106E-10
 107.974022   -1.042195441E-9
 108.100868   -1.464336985E-9
 108.227715   -1.902919822E-9
 108.354553   -2.353862438E-9
 108.4814   -2.812662103E-9
 108.608246   -3.274401195E-9
 108.735085   -3.733752418E-9
 108.861931   -4.184983027E-9
 108.988777   -4.621961036E-9
 109.115616   -5.038157447E-9
 109.242462   -5.426655569E-9
 109.369301   -5.780152801E-9
 109.496147   -6.090972615E-9
 109.622993   -6.351072557E-9
 109.749832   -6.552064225E-9
 109.876678   -6.6852337E-9
 110.003525   -6.74157441E-9
 110.130363   -6.711829759E-9
 110.25721   -6.586549528E-9
 110.384056   -6.356166704E-9
 110.510895   -6.011084519E-9
 110.637741   -5.541796799E-9
 110.764587   -4.939029186E-9
 110.891426   -4.193906999E-9
 111.018272   -3.298157525E-9
 111.145119   -2.2443436E-9
 111.271957   -1.026130847E-9
 111.398804   3.614077926E-10
 111.52565   1.921456549E-9
 111.652489   3.655085345E-9
 111.779335   5.560852667E-9
 111.906174   7.634382015E-9
 112.03302   9.867921591E-9
 112.159866   1.224989443E-8
 112.286705   1.476444655E-8
 112.413551   1.739101307E-8
 112.540398   2.010391142E-8
 112.667236   2.287196388E-8
 112.794083   2.565820267E-8
 112.920929   2.841963109E-8
 113.047768   3.110709557E-8
 113.174614   3.366526968E-8
 113.30146   3.603277321E-8
 113.428299   3.814243854E-8
 113.555145   3.992177966E-8
 113.681992   4.129361741E-8
 113.80883   4.217692506E-8
 113.935677   4.248789409E-8
 114.062523   4.214121674E-8
 114.189362   4.105157458E-8
 114.316208   3.913539359E-8
 114.443047   3.631276613E-8
 114.569893   3.2509611E-8
 114.696739   2.765998097E-8
 114.823578   2.170854074E-8
 114.950424   1.46131427E-8
 115.077271   6.347499859E-9
 115.204109   -3.096179313E-9
 115.330956   -1.37045415E-8
 115.457802   -2.54405812E-8
 115.584641   -3.824130346E-8
 115.711487   -5.20156469E-8
 115.838333   -6.6642734E-8
 115.965172   -8.197055479E-8
 116.092018   -9.78151391E-8
 116.218864   -1.139603043E-7
 116.345703   -1.301580852E-7
 116.472549   -1.461298211E-7
 116.599396   -1.615681811E-7
 116.726234   -1.76139821E-7
 116.853081   -1.894890573E-7
 116.979919   -2.012424716E-7
 117.106766   -2.11014239E-7
 117.233612   -2.184125947E-7
 117.360451   -2.230469249E-7
 117.487297   -2.245358814E-7
 117.614143   -2.225160642E-7
 117.740982   -2.166514435E-7
 117.867828   -2.066433211E-7
 117.994675   -1.922406625E-7
 118.121513   -1.732506973E-7
 118.24836   -1.495495638E-7
 118.375206   -1.210929383E-7
 118.502045   -8.792634532E-8
 118.628891   -5.019494864E-8
 118.755737   -8.152764686E-9
 118.882576   3.782908919E-8
 119.009422   8.725518796E-8
 119.136261   1.394998748E-7
 119.263107   1.938027339E-7