 -7.19999981   -1.406124453E-19
 -7.07296753   -1.406207946E-19
 -6.94593477   -1.406372994E-19
 -6.81890202   -1.406606931E-19
 -6.69186926   -1.406903166E-19
 -6.56483698   -1.407251228E-19
 -6.43780422   -1.407638969E-19
 -6.31077147   -1.408053076E-19
 -6.18373871   -1.408477523E-19
 -6.05670643   -1.408897446E-19
 -5.92967367   -1.40929501E-19
 -5.80264091   -1.409661813E-19
 -5.67560816   -1.409977692E-19
 -5.5485754   -1.41024239E-19
 -5.42154312   -1.410446471E-19
 -5.29451036   -1.410589031E-19
 -5.16747761   -1.410676143E-19
 -5.04044485   -1.410705224E-19
 -4.91341257   -1.410691394E-19
 -4.78637981   -1.410641505E-19
 -4.65934706   -1.410577011E-19
 -4.5323143   -1.410518462E-19
 -4.40528202   -1.410481368E-19
 -4.27824926   -1.410484987E-19
 -4.15121651   -1.410551291E-19
 -4.02418375   -1.410696952E-19
 -3.89715123   -1.410934249E-19
 -3.77011847   -1.411266543E-19
 -3.64308596   -1.411708051E-19
 -3.5160532   -1.412251534E-19
 -3.38902068   -1.412886654E-19
 -3.26198792   -1.413595057E-19
 -3.13495541   -1.414354253E-19
 -3.00792265   -1.415132579E-19
 -2.88089013   -1.415899401E-19
 -2.75385737   -1.416622279E-19
 -2.62682486   -1.417261405E-19
 -2.4997921   -1.417789896E-19
 -2.37275958   -1.418185004E-19
 -2.24572682   -1.418424757E-19
 -2.11869431   -1.418505408E-19
 -1.99166155   -1.418445049E-19
 -1.86462891   -1.418246914E-19
 -1.73759627   -1.417934265E-19
 -1.61056364   -1.417547429E-19
 -1.483531   -1.417121431E-19
 -1.35649836   -1.416694141E-19
 -1.22946572   -1.416307563E-19
 -1.10243309   -1.415994785E-19
 -0.975400388   -1.415785534E-19
 -0.848367751   -1.41569881E-19
 -0.721335113   -1.415748182E-19
 -0.594302475   -1.415934168E-19
 -0.467269808   -1.416251728E-19
 -0.34023717   -1.416684059E-19
 -0.213204518   -1.417212162E-19
 -8.617187291E-2   -1.417809413E-19
 4.086076841E-2   -1.418446471E-19
 0.16789341   -1.419098134E-19
 0.294926047   -1.419731315E-19
 0.421958715   -1.420323912E-19
 0.548991323   -1.420846716E-19
 0.67602402   -1.421281245E-19
 0.803056657   -1.421615607E-19
 0.930089295   -1.421838687E-19
 1.05712187   -1.421931874E-19
 1.18415463   -1.421898011E-19
 1.31118727   -1.421726759E-19
 1.4382199   -1.421424967E-19
 1.56525254   -1.421003493E-19
 1.69228518   -1.420481982E-19
 1.81931782   -1.419877235E-19
 1.94635046   -1.419216266E-19
 2.07338309   -1.418529965E-19
 2.20041585   -1.417856329E-19
 2.32744837   -1.417232196E-19
 2.45448112   -1.416694399E-19
 2.58151364   -1.416273571E-19
 2.7085464   -1.416002798E-19
 2.83557892   -1.4159047E-19
 2.96261168   -1.415991166E-19
 3.08964419   -1.416261163E-19
 3.21667695   -1.416706677E-19
 3.34370947   -1.417309098E-19
 3.47074223   -1.418027194E-19
 3.59777474   -1.41882775E-19
 3.7248075   -1.419670957E-19
 3.85184002   -1.420503953E-19
 3.97887278   -1.42128551E-19
 4.10590553   -1.42197556E-19
 4.23293829   -1.422548124E-19
 4.35997057   -1.422983815E-19
 4.48700333   -1.423272811E-19
 4.61403608   -1.42342067E-19
 4.74106884   -1.423439411E-19
 4.86810112   -1.423358373E-19
 4.99513388   -1.423207542E-19
 5.12216663   -1.423019229E-19
 5.24919939   -1.422827556E-19
 5.37623167   -1.422669616E-19
 5.50326443   -1.422577204E-19
 5.63029718   -1.422569966E-19
 5.75732994   -1.422660698E-19
 5.88436222   -1.42285418E-19
 6.01139498   -1.423138136E-19
 6.13842773   -1.423505456E-19
 6.26546049   -1.423934814E-19
 6.39249325   -1.424410185E-19
 6.51952553   -1.4248968E-19
 6.64655828   -1.425376694E-19
 6.77359104   -1.425825181E-19
 6.9006238   -1.426225717E-19
 7.02765608   -1.426566153E-19
 7.15468884   -1.426838994E-19
 7.28172159   -1.427046694E-19
 7.40875435   -1.427186151E-19
 7.53578663   -1.427264475E-19
 7.66281939   -1.427289161E-19
 7.78985214   -1.427276236E-19
 7.9168849   -1.427231646E-19
 8.04391766   -1.427165472E-19
 8.17094994   -1.427087665E-19
 8.29798317   -1.427003525E-19
 8.42501545   -1.426915637E-19
 8.55204773   -1.42683279E-19
 8.67908096   -1.426757827E-19
 8.80611324   -1.426694366E-19
 8.93314552   -1.426650681E-19
 9.06017876   -1.426630389E-19
 9.18721104   -1.42664047E-19
 9.31424427   -1.426684156E-19
 9.44127655   -1.426777472E-19
 9.56830883   -1.426920678E-19
 9.69534206   -1.427119977E-19
 9.82237434   -1.427380668E-19
 9.94940662   -1.427691765E-19
 10.0764399   -1.428048358E-19
 10.2034721   -1.428431963E-19
 10.3305054   -1.428829785E-19
 10.4575377   -1.429205118E-19
 10.5845699   -1.429534956E-19
 10.7116032   -1.42978841E-19
 10.8386354   -1.429940275E-19
 10.9656687   -1.429958499E-19
 11.092701   -1.429835068E-19
 11.2197332   -1.42954633E-19
 11.3467665   -1.429096421E-19
 11.4737988   -1.428498266E-19
 11.600831   -1.427766599E-19
 11.7278643   -1.426925977E-19
 11.8548965   -1.426017242E-19
 11.9819298   -1.425077616E-19
 12.1089621   -1.424152466E-19
 12.2359943   -1.42328341E-19
 12.3630276   -1.422501982E-19
 12.4900599   -1.421839333E-19
 12.6170931   -1.421311747E-19
 12.7441254   -1.4209337E-19
 12.8711576   -1.420701055E-19
 12.9981909   -1.420597916E-19
 13.1252232   -1.420606317E-19
 13.2522554   -1.42069847E-19
 13.3792887   -1.420847363E-19
 13.506321   -1.421015772E-19
 13.6333542   -1.421173065E-19
 13.7603865   -1.421285122E-19
 13.8874187   -1.421341086E-19
 14.014452   -1.421318726E-19
 14.1414843   -1.421210417E-19
 14.2685175   -1.421017322E-19
 14.3955498   -1.420740346E-19
 14.5225821   -1.420385434E-19
 14.6496153   -1.41996913E-19
 14.7766476   -1.419495439E-19
 14.9036798   -1.418981424E-19
 15.0307131   -1.418434063E-19
 15.1577454   -1.417863438E-19
 15.2847786   -1.417276915E-19
 15.4118109   -1.416683542E-19
 15.5388432   -1.41609004E-19
 15.6658764   -1.41549796E-19
 15.7929087   -1.414918416E-19
 15.9199409   -1.414355934E-19
 16.0469742   -1.413825116E-19
 16.1740074   -1.413332298E-19
 16.3010387   -1.412890014E-19
 16.428072   -1.41250628E-19
 16.5551052   -1.412195312E-19
 16.6821365   -1.411950389E-19
 16.8091698   -1.411776035E-19
 16.936203   -1.41166527E-19
 17.0632343   -1.411608272E-19
 17.1902676   -1.411597028E-19
 17.3173008   -1.411602844E-19
 17.444334   -1.4116053E-19
 17.5713654   -1.411585137E-19
 17.6983986   -1.41151935E-19
 17.8254318   -1.41138545E-19
 17.9524632   -1.411168962E-19
 18.0794964   -1.410865102E-19
 18.2065296   -1.410475681E-19
 18.3335609   -1.410007807E-19
 18.4605942   -1.409474793E-19
 18.5876274   -1.40890029E-19
 18.7146587   -1.408310277E-19
 18.841692   -1.407734482E-19
 18.9687252   -1.407193713E-19
 19.0957584   -1.406719247E-19
 19.2227898   -1.406325302E-19
 19.349823   -1.406024415E-19
 19.4768562   -1.405825634E-19
 19.6038876   -1.40571991E-19
 19.7309208   -1.405705951E-19
 19.857954   -1.405771996E-19
 19.9849854   -1.405899821E-19
 20.1120186   -1.406065128E-19
 20.2390518   -1.406256672E-19
 20.3660831   -1.406455842E-19
 20.4931164   -1.406647774E-19
 20.6201496   -1.406811788E-19
 20.7471828   -1.406942715E-19
 20.8742142   -1.407034997E-19
 21.0012474   -1.407074676E-19
 21.1282806   -1.407059425E-19
 21.255312   -1.406979292E-19
 21.3823452   -1.406837508E-19
 21.5093784   -1.406629162E-19
 21.6364098   -1.406355546E-19
 21.763443   -1.406016144E-19
 21.8904762   -1.405615349E-19
 22.0175076   -1.405166345E-19
 22.1445408   -1.404671975E-19
 22.271574   -1.404147879E-19
 22.3986073   -1.403620551E-19
 22.5256386   -1.403099815E-19
 22.6526718   -1.402613588E-19
 22.779705   -1.402179189E-19
 22.9067364   -1.401817556E-19
 23.0337696   -1.401539158E-19
 23.1608028   -1.401356273E-19
 23.2878342   -1.401275365E-19
 23.4148674   -1.401278854E-19
 23.5419006   -1.401361314E-19
 23.668932   -1.401500254E-19
 23.7959652   -1.401671636E-19
 23.9229984   -1.401849221E-19
 24.0500298   -1.402004059E-19
 24.177063   -1.402110429E-19
 24.3040962   -1.402149462E-19
 24.4311295   -1.402100348E-19
 24.5581608   -1.401965156E-19
 24.685194   -1.40173445E-19
 24.8122272   -1.40142206E-19
 24.9392586   -1.401045951E-19
 25.0662918   -1.400632232E-19
 25.193325   -1.400203649E-19
 25.3203564   -1.399786569E-19
 25.4473896   -1.399406583E-19
 25.5744228   -1.399083595E-19
 25.7014542   -1.398843971E-19
 25.8284874   -1.398690038E-19
 25.9555206   -1.398622441E-19
 26.0825539   -1.398635883E-19
 26.2095852   -1.398711493E-19
 26.3366184   -1.398839318E-19
 26.4636517   -1.398998033E-19
 26.590683   -1.399156619E-19
 26.7177162   -1.399293104E-19
 26.8447495   -1.399386679E-19
 26.9717808   -1.39942416E-19
 27.098814   -1.399394175E-19
 27.2258472   -1.399292716E-19
 27.3528786   -1.399114226E-19
 27.4799118   -1.398881711E-19
 27.606945   -1.398594524E-19
 27.7339783   -1.398272441E-19
 27.8610096   -1.397926963E-19
 27.9880428   -1.39757567E-19
 28.1150761   -1.397225282E-19
 28.2421074   -1.396888335E-19
 28.3691406   -1.396566122E-19
 28.4961739   -1.396262133E-19
 28.6232052   -1.395974817E-19
 28.7502384   -1.395693963E-19
 28.8772717   -1.395424354E-19
 29.004303   -1.39515565E-19
 29.1313362   -1.394887721E-19
 29.2583694   -1.394621731E-19
 29.3854027   -1.394354189E-19
 29.512434   -1.394084063E-19
 29.6394672   -1.393832419E-19
 29.7665005   -1.393590469E-19
 29.8935318   -1.393377987E-19
 30.020565   -1.393200789E-19
 30.1475983   -1.393066502E-19
 30.2746296   -1.392981328E-19
 30.4016628   -1.392947207E-19
 30.5286961   -1.392963363E-19
 30.6557274   -1.393021912E-19
 30.7827606   -1.393118718E-19
 30.9097939   -1.393227544E-19
 31.0368271   -1.393345546E-19
 31.1638584   -1.393449461E-19
 31.2908916   -1.393522614E-19
 31.4179249   -1.393547947E-19
 31.5449562   -1.393506329E-19
 31.6719894   -1.393391041E-19
 31.7990227   -1.393194069E-19
 31.926054   -1.392914766E-19
 32.0530891   -1.392566445E-19
 32.1801186   -1.392164746E-19
 32.3071518   -1.391732285E-19
 32.434185   -1.391293363E-19
 32.5612183   -1.390870984E-19
 32.6882515   -1.390493065E-19
 32.8152847   -1.390182356E-19
 32.9423141   -1.38994984E-19
 33.0693474   -1.389815294E-19
 33.1963806   -1.389769541E-19
 33.3234138   -1.389816328E-19
 33.4504471   -1.389939759E-19
 33.5774803   -1.390119154E-19
 33.7045135   -1.390332799E-19
 33.831543   -1.390561696E-19
 33.9585762   -1.390770688E-19
 34.0856094   -1.390939743E-19
 34.2126427   -1.391045725E-19
 34.3396759   -1.39107584E-19
 34.4667091   -1.391022461E-19
 34.5937386   -1.390884167E-19
 34.7207718   -1.390657855E-19
 34.847805   -1.390358907E-19
 34.9748383   -1.389990553E-19
 35.1018715   -1.389567916E-19
 35.2289047   -1.389109994E-19
 35.355938   -1.388630617E-19
 35.4829674   -1.388143872E-19
 35.6100006   -1.387666563E-19
 35.7370338   -1.387209934E-19
 35.8640671   -1.386786262E-19
 35.9911003   -1.386406018E-19
 36.1181335   -1.386084839E-19
 36.245163   -1.385824923E-19
 36.3721962   -1.385629631E-19
 36.4992294   -1.385505037E-19
 36.6262627   -1.385448427E-19
 36.7532959   -1.385452821E-19
 36.8803291   -1.385510595E-19
 37.0073624   -1.385613475E-19
 37.1343918   -1.385745824E-19
 37.261425   -1.385886186E-19
 37.3884583   -1.386009488E-19
 37.5154915   -1.386099315E-19
 37.6425247   -1.386139123E-19
 37.769558   -1.386107716E-19
 37.8965874   -1.385997856E-19
 38.0236206   -1.385802434E-19
 38.1506538   -1.385520805E-19
 38.2776871   -1.385159172E-19
 38.4047203   -1.384725032E-19
 38.5317535   -1.384233247E-19
 38.6587868   -1.383702171E-19
 38.7858162   -1.38315132E-19
 38.9128494   -1.382599177E-19
 39.0398827   -1.38206151E-19
 39.1669159   -1.381561841E-19
 39.2939491   -1.381109089E-19
 39.4209824   -1.380713593E-19
 39.5480118   -1.380390734E-19
 39.675045   -1.380141029E-19
 39.8020782   -1.379966029E-19
 39.9291115   -1.379865733E-19
 40.0561447   -1.379837557E-19
 40.1831779   -1.379870774E-19
 40.3102074   -1.379961634E-19
 40.4372406   -1.380100833E-19
 40.5642738   -1.380272603E-19
 40.6913071   -1.380469963E-19
 40.8183403   -1.380674432E-19
 40.9453735   -1.380873472E-19
 41.0724068   -1.381051316E-19
 41.1994362   -1.381198269E-19
 41.3264694   -1.381299987E-19
 41.4535027   -1.381349747E-19
 41.5805359   -1.38135259E-19
 41.7075691   -1.381300504E-19
 41.8346024   -1.381206412E-19
 41.9616318   -1.381075226E-19
 42.088665   -1.38091677E-19
 42.2156982   -1.38075366E-19
 42.3427315   -1.380593523E-19
 42.4697647   -1.38046195E-19
 42.5967979   -1.380375096E-19
 42.7238312   -1.380334124E-19
 42.8508606   -1.380354675E-19
 42.9778938   -1.380433257E-19
 43.1049271   -1.380565993E-19
 43.2319603   -1.38074681E-19
 43.3589935   -1.380952829E-19
 43.4860268   -1.381169964E-19
 43.6130562   -1.381379991E-19
 43.7400894   -1.381553052E-19
 43.8671227   -1.381667565E-19
 43.9941559   -1.381708407E-19
 44.1211891   -1.381659035E-19
 44.2482224   -1.381516863E-19
 44.3752556   -1.38127194E-19
 44.502285   -1.380931245E-19
 44.6293182   -1.38050822E-19
 44.7563515   -1.380014626E-19
 44.8833847   -1.379476312E-19
 45.0104179   -1.378905687E-19
 45.1374512   -1.378331572E-19
 45.2644806   -1.377773613E-19
 45.3915138   -1.377248611E-19
 45.5185471   -1.376779574E-19
 45.6455803   -1.376375807E-19
 45.7726135   -1.376042866E-19
 45.8996468   -1.375792773E-19
 46.02668   -1.375610794E-19
 46.1537094   -1.375506104E-19
 46.2807426   -1.375468234E-19
 46.4077759   -1.375486846E-19
 46.5348091   -1.375564523E-19
 46.6618423   -1.375690151E-19
 46.7888756   -1.375848479E-19
 46.915905   -1.376034336E-19
 47.0429382   -1.376232084E-19
 47.1699715   -1.376425825E-19
 47.2970047   -1.376603798E-19
 47.4240379   -1.376741446E-19
 47.5510712   -1.376830368E-19
 47.6781044   -1.37684898E-19
 47.8051338   -1.376791077E-19
 47.9321671   -1.376638824E-19
 48.0592003   -1.376384078E-19
 48.1862335   -1.376029554E-19
 48.3132668   -1.375579645E-19
 48.4403   -1.375049474E-19
 48.5673294   -1.374459462E-19
 48.6943626   -1.373830417E-19
 48.8213959   -1.373197494E-19
 48.9484291   -1.372590034E-19
 49.0754623   -1.372035564E-19
 49.2024956   -1.371562262E-19
 49.3295288   -1.371187445E-19
 49.4565582   -1.370919775E-19
 49.5835915   -1.370769073E-19
 49.7106247   -1.370718796E-19
 49.8376579   -1.370762352E-19
 49.9646912   -1.370885007E-19
 50.0917244   -1.371056518E-19
 50.2187538   -1.371257109E-19
 50.345787   -1.371463388E-19
 50.4728203   -1.371659068E-19
 50.5998535   -1.371822177E-19
 50.7268867   -1.371941084E-19
 50.85392   -1.372019796E-19
 50.9809532   -1.372042931E-19
 51.1079826   -1.372019408E-19
 51.2350159   -1.37195207E-19
 51.3620491   -1.371853584E-19
 51.4890823   -1.371722399E-19
 51.6161156   -1.37156601E-19
 51.7431488   -1.371388941E-19
 51.8701782   -1.3711952E-19
 51.9972115   -1.370981813E-19
 52.1242447   -1.370753822E-19
 52.2512779   -1.370515361E-19
 52.3783112   -1.370267724E-19
 52.5053444   -1.370024093E-19
 52.6323776   -1.369783048E-19
 52.759407   -1.369557383E-19
 52.8864403   -1.369349683E-19
 53.0134735   -1.36916473E-19
 53.1405067   -1.369014028E-19
 53.26754   -1.368903264E-19
 53.3945732   -1.368836055E-19
 53.5216026   -1.368803485E-19
 53.6486359   -1.368806975E-19
 53.7756691   -1.368841354E-19
 53.9027023   -1.368905202E-19
 54.0297356   -1.368979002E-19
 54.1567688   -1.369065469E-19
 54.283802   -1.369149738E-19
 54.4108315   -1.369221857E-19
 54.5378647   -1.36927123E-19
 54.6648979   -1.36928842E-19
 54.7919312   -1.369265155E-19
 54.9189644   -1.369207511E-19
 55.0459976   -1.369100495E-19
 55.173027   -1.368946174E-19
 55.3000603   -1.368749201E-19
 55.4270935   -1.368512938E-19
 55.5541267   -1.368254961E-19
 55.68116   -1.367976951E-19
 55.8081932   -1.367694158E-19
 55.9352264   -1.367411883E-19
 56.0622559   -1.367148219E-19
 56.1892891   -1.366915316E-19
 56.3163223   -1.366720024E-19
 56.4433556   -1.366576043E-19
 56.5703888   -1.366481692E-19
 56.697422   -1.366439946E-19
 56.8244514   -1.366454034E-19
 56.9514847   -1.366517494E-19
 57.0785179   -1.366615075E-19
 57.2055511   -1.366732302E-19
 57.3325844   -1.366859998E-19
 57.4596176   -1.366977484E-19
 57.5866508   -1.367072093E-19
 57.7136803   -1.367125342E-19
 57.8407135   -1.367131417E-19
 57.9677467   -1.367078813E-19
 58.09478   -1.366964559E-19
 58.2218132   -1.366788654E-19
 58.3488464   -1.366546704E-19
 58.4758759   -1.366244912E-19
 58.6029091   -1.365898789E-19
 58.7299423   -1.365516347E-19
 58.8569756   -1.365123824E-19
 58.9840088   -1.364725226E-19
 59.111042   -1.364346015E-19
 59.2380753   -1.363997824E-19
 59.3651047   -1.363691897E-19
 59.4921379   -1.363439089E-19
 59.6191711   -1.363248062E-19
 59.7462044   -1.36311972E-19
 59.8732376   -1.36305445E-19
 60.0002708   -1.3630476E-19
 60.1273003   -1.363080429E-19
 60.2543335   -1.363154229E-19
 60.3813667   -1.363246124E-19
 60.5084   -1.363342413E-19
 60.6354332   -1.363431722E-19
 60.7624664   -1.363504618E-19
 60.8894997   -1.363551017E-19
 61.0165291   -1.363559806E-19
 61.1435623   -1.36353344E-19
 61.2705956   -1.363466748E-19
 61.3976288   -1.363361929E-19
 61.524662   -1.363220791E-19
 61.6516953   -1.363051349E-19
 61.7787247   -1.362853601E-19
 61.9057579   -1.362633105E-19
 62.0327911   -1.362397359E-19
 62.1598244   -1.362150497E-19
 62.2868576   -1.361902214E-19
 62.4138908   -1.361652638E-19
 62.5409203   -1.361421157E-19
 62.6679535   -1.361208158E-19
 62.7949867   -1.361013641E-19
 62.92202   -1.360852211E-19
 63.0490532   -1.360724128E-19
 63.1760864   -1.360637403E-19
 63.3031197   -1.360588418E-19
 63.4301491   -1.360566188E-19
 63.5571823   -1.360572004E-19
 63.6842155   -1.360587772E-19
 63.8112488   -1.360604186E-19
 63.938282   -1.360605867E-19
 64.0653152   -1.360581956E-19
 64.1923447   -1.360518108E-19
 64.3193817   -1.360401139E-19
 64.4464111   -1.360231955E-19
 64.5734482   -1.36000293E-19
 64.7004776   -1.359721817E-19
 64.827507   -1.359396632E-19
 64.9545441   -1.359038876E-19
 65.0815735   -1.358665611E-19
 65.2086105   -1.358291053E-19
 65.33564   -1.357930584E-19
 65.4626694   -1.357600616E-19
 65.5897064   -1.357319892E-19
 65.7167358   -1.357090608E-19
 65.8437729   -1.356924137E-19
 65.9708023   -1.356820481E-19
 66.0978394   -1.356774469E-19
 66.2248688   -1.356793339E-19
 66.3518982   -1.356870112E-19
 66.4789352   -1.356995611E-19
 66.6059647   -1.357166088E-19
 66.7330017   -1.35737689E-19
 66.8600311   -1.357613024E-19
 66.9870682   -1.357862083E-19
 67.1140976   -1.358123679E-19
 67.241127   -1.358374547E-19
 67.3681641   -1.358606674E-19
 67.4951935   -1.358807783E-19
 67.6222305   -1.358954737E-19
 67.7492599   -1.359034223E-19
 67.876297   -1.359037196E-19
 68.0033264   -1.358954995E-19
 68.1303558   -1.358784389E-19
 68.2573929   -1.358520208E-19
 68.3844223   -1.358170983E-19
 68.5114594   -1.357752094E-19
 68.6384888   -1.357276206E-19
 68.7655182   -1.356767619E-19
 68.8925552   -1.35624236E-19
 69.0195847   -1.355727181E-19
 69.1466217   -1.355247029E-19
 69.2736511   -1.354810949E-19
 69.4006882   -1.354434712E-19
 69.5277176   -1.354125941E-19
 69.654747   -1.353886317E-19
 69.7817841   -1.353700847E-19
 69.9088135   -1.353560227E-19
 70.0358505   -1.353449979E-19
 70.1628799   -1.353355629E-19
 70.289917   -1.353249646E-19
 70.4169464   -1.35312363E-19
 70.5439758   -1.352963881E-19
 70.6710129   -1.35275463E-19
 70.7980423   -1.352501823E-19
 70.9250793   -1.35219861E-19
 71.0521088   -1.351849514E-19
 71.1791458   -1.35146216E-19
 71.3061752   -1.351047019E-19
 71.4332047   -1.350613783E-19
 71.5602417   -1.350175248E-19
 71.6872711   -1.349738911E-19
 71.8143082   -1.349313947E-19
 71.9413376   -1.348900485E-19
 72.068367   -1.348507704E-19
 72.1954041   -1.348143615E-19
 72.3224335   -1.347803954E-19
 72.4494705   -1.347494666E-19
 72.5764999   -1.347212908E-19
 72.703537   -1.346961135E-19
 72.8305664   -1.34673702E-19
 72.9575958   -1.346541858E-19
 73.0846329   -1.346380816E-19
 73.2116623   -1.346244848E-19
 73.3386993   -1.346129043E-19
 73.4657288   -1.346031073E-19
 73.5927658   -1.345952621E-19
 73.7197952   -1.345876494E-19
 73.8468246   -1.345799721E-19
 73.9738617   -1.34571248E-19
 74.1008911   -1.345608177E-19
 74.2279282   -1.345481128E-19
 74.3549576   -1.345316725E-19
 74.481987   -1.345121821E-19
 74.609024   -1.344895768E-19
 74.7360535   -1.344630941E-19
 74.8630905   -1.34433419E-19
 74.9901199   -1.344017406E-19
 75.117157   -1.343686792E-19
 75.2441864   -1.343349974E-19
 75.3712158   -1.343014966E-19
 75.4982529   -1.34269857E-19
 75.6252823   -1.342409703E-19
 75.7523193   -1.342157413E-19
 75.8793488   -1.341940278E-19
 76.0063858   -1.341767087E-19
 76.1334152   -1.341631765E-19
 76.2604446   -1.34153302E-19
 76.3874817   -1.341467104E-19
 76.5145111   -1.341419542E-19
 76.6415482   -1.34139059E-19
 76.7685776   -1.341369265E-19
 76.8956146   -1.341350782E-19
 77.022644   -1.341320926E-19
 77.1496735   -1.341286417E-19
 77.2767105   -1.341241181E-19
 77.4037399   -1.341182115E-19
 77.530777   -1.341111934E-19
 77.6578064   -1.341034515E-19
 77.7848358   -1.340948436E-19
 77.9118729   -1.340851372E-19
 78.0389023   -1.340745648E-19
 78.1659393   -1.34062855E-19
 78.2929688   -1.340498915E-19
 78.4200058   -1.340356485E-19
 78.5470352   -1.34019441E-19
 78.6740646   -1.340019151E-19
 78.8011017   -1.339815716E-19
 78.9281311   -1.339596125E-19
 79.0551682   -1.339365807E-19
 79.1821976   -1.339120238E-19
 79.3092346   -1.338874798E-19
 79.436264   -1.338631684E-19
 79.5632935   -1.33840072E-19
 79.6903305   -1.3381947E-19
 79.8173599   -1.338011945E-19
 79.944397   -1.337863182E-19
 80.0714264   -1.337744662E-19
 80.1984634   -1.337660781E-19
 80.3254929   -1.337606756E-19
 80.4525223   -1.33756656E-19
 80.5795593   -1.33754769E-19
 80.7065887   -1.337536058E-19
 80.8336258   -1.337522616E-19
 80.9606552   -1.337498835E-19
 81.0876846   -1.337459027E-19
 81.2147217   -1.337401383E-19
 81.3417511   -1.337312848E-19
 81.4687881   -1.337189417E-19
 81.5958176   -1.33704143E-19
 81.7228546   -1.336868756E-19
 81.849884   -1.336665321E-19
 81.9769135   -1.336434357E-19
 82.1039505   -1.336184781E-19
 82.2309799   -1.335918274E-19
 82.358017   -1.335647243E-19
 82.4850464   -1.335375824E-19
 82.6120834   -1.335112548E-19
 82.7391129   -1.334867108E-19
 82.8661423   -1.33463498E-19
 82.9931793   -1.334432192E-19
 83.1202087   -1.334263654E-19
 83.2472458   -1.334122904E-19
 83.3742752   -1.334009684E-19
 83.5013123   -1.33392451E-19
 83.6283417   -1.333865444E-19
 83.7553711   -1.333829513E-19
 83.8824081   -1.333813228E-19
 84.0094376   -1.333805473E-19
 84.1364746   -1.333797718E-19
 84.263504   -1.333787379E-19
 84.3905334   -1.333762305E-19
 84.5175705   -1.333727537E-19
 84.6445999   -1.333662655E-19
 84.771637   -1.333573733E-19
 84.8986664   -1.333451078E-19
 85.0257034   -1.333298179E-19
 85.1527328   -1.333109091E-19
 85.2797623   -1.332896221E-19
 85.4067993   -1.33266293E-19
 85.5338287   -1.332416973E-19
 85.6608658   -1.332171275E-19
 85.7878952   -1.331927386E-19
 85.9149323   -1.331706632E-19
 86.0419617   -1.331517673E-19
 86.1689911   -1.331366841E-19
 86.2960281   -1.331266417E-19
 86.4230576   -1.331220275E-19
 86.5500946   -1.331230874E-19
 86.677124   -1.331299633E-19
 86.8041611   -1.331422418E-19
 86.9311905   -1.331590568E-19
 87.0582199   -1.331790255E-19
 87.185257   -1.332012301E-19
 87.3122864   -1.332233572E-19
 87.4393234   -1.332440625E-19
 87.5663528   -1.332616013E-19
 87.6933823   -1.332752369E-19
 87.8204193   -1.332830563E-19
 87.9474487   -1.332845815E-19
 88.0744858   -1.332796959E-19
 88.2015152   -1.332690718E-19
 88.3285522   -1.332528255E-19
 88.4555817   -1.332320555E-19
 88.5826111   -1.332085584E-19
 88.7096481   -1.331839498E-19
 88.8366776   -1.331594445E-19
 88.9637146   -1.33136025E-19
 89.090744   -1.331157591E-19
 89.2177811   -1.330981039E-19
 89.3448105   -1.330839126E-19
 89.4718399   -1.330736116E-19
 89.598877   -1.330664126E-19
 89.7259064   -1.330611134E-19
 89.8529434   -1.330570034E-19
 89.9799728   -1.330533845E-19
 90.1070099   -1.330487445E-19
 90.2340393   -1.330423856E-19
 90.3610687   -1.33033726E-19
 90.4881058   -1.330220679E-19
 90.6151352   -1.330067651E-19
 90.7421722   -1.329879209E-19
 90.8692017   -1.329654578E-19
 90.9962311   -1.329391818E-19
 91.1232681   -1.329100496E-19
 91.2502975   -1.328782936E-19
 91.3773346   -1.328439915E-19
 91.504364   -1.328074275E-19
 91.6314011   -1.327695323E-19
 91.7584305   -1.327303317E-19
 91.8854599   -1.326912086E-19
 92.0124969   -1.32653042E-19
 92.1395264   -1.326163617E-19
 92.2665634   -1.325827575E-19
 92.3935928   -1.325540259E-19
 92.5206299   -1.325317437E-19
 92.6476593   -1.325166218E-19
 92.7746887   -1.325094744E-19
 92.9017258   -1.325111288E-19
 93.0287552   -1.325212747E-19
 93.1557922   -1.325398992E-19
 93.2828217   -1.32565839E-19
 93.4098587   -1.325975433E-19
 93.5368881   -1.326332801E-19
 93.6639175   -1.326697148E-19
 93.7909546   -1.327048183E-19
 93.917984   -1.327364451E-19
 94.0450211   -1.327626951E-19
 94.1720505   -1.32782457E-19
 94.2990799   -1.327934042E-19
 94.4261169   -1.327966095E-19
 94.5531464   -1.327908451E-19
 94.6801834   -1.327778946E-19
 94.8072128   -1.327585334E-19
 94.9342499   -1.327333948E-19
 95.0612793   -1.327040558E-19
 95.1883087   -1.326721705E-19
 95.3153458   -1.326382303E-19
 95.4423752   -1.326038764E-19
 95.5694122   -1.325685791E-19
 95.6964417   -1.325340184E-19
 95.8234787   -1.324994966E-19
 95.9505081   -1.324648455E-19
 96.0775375   -1.324308923E-19
 96.2045746   -1.323976887E-19
 96.331604   -1.323651314E-19
 96.4586411   -1.323339312E-19
 96.5856705   -1.323045404E-19
 96.7126999   -1.322779673E-19
 96.8397369   -1.322550518E-19
 96.9667664   -1.322366858E-19
 97.0938034   -1.322243815E-19
 97.2208328   -1.322186041E-19
 97.3478699   -1.322200388E-19
 97.4748993   -1.322291636E-19
 97.6019287   -1.322449447E-19
 97.7289658   -1.322671364E-19
 97.8559952   -1.322937871E-19
 97.9830322   -1.323232813E-19
 98.1100616   -1.32353706E-19
 98.2370987   -1.323822437E-19
 98.3641281   -1.32406219E-19
 98.4911575   -1.324236286E-19
 98.6181946   -1.324321848E-19
 98.745224   -1.324309311E-19
 98.872261   -1.324177866E-19
 98.9992905   -1.323925447E-19
 99.1263275   -1.323557739E-19
 99.2533569   -1.323078492E-19
 99.3803864   -1.32250373E-19
 99.5074234   -1.3218447E-19
 99.6344528   -1.321128026E-19
 99.7614899   -1.3203824E-19
 99.8885193   -1.319634448E-19
 100.015549   -1.318915059E-19
 100.142586   -1.318254219E-19
 100.269615   -1.317696519E-19
 100.396652   -1.317259276E-19
 100.523682   -1.316972736E-19
 100.650719   -1.316869209E-19
 100.777748   -1.316964981E-19
 100.904778   -1.317271813E-19
 101.031815   -1.317795393E-19
 101.158844   -1.318514523E-19
 101.285881   -1.319407232E-19
 101.41291   -1.320432806E-19
 101.539948   -1.321527657E-19
 101.666977   -1.322626515E-19
 101.794006   -1.323641104E-19
 101.921043   -1.324481855E-19
 102.048073   -1.32504912E-19
 102.17511   -1.325249195E-19
 102.302139   -1.324999489E-19
 102.429176   -1.324233313E-19
 102.556206   -1.322899872E-19
 102.683235   -1.320984432E-19
 102.810272   -1.318511162E-19
 102.937302   -1.315527237E-19
 103.064339   -1.312137219E-19
 103.191368   -1.308480046E-19
 103.318398   -1.304727748E-19
 103.445435   -1.301093194E-19
 103.572464   -1.29780373E-19
 103.699501   -1.29511074E-19
 103.82653   -1.293261345E-19
 103.953568   -1.29250189E-19
 104.080597   -1.293047053E-19
 104.207626   -1.295071836E-19
 104.334663   -1.298705227E-19
 104.461693   -1.303999312E-19
 104.58873   -1.310931344E-19
 104.715759   -1.319383579E-19
 104.842796   -1.32914612E-19
 104.969826   -1.33990425E-19
 105.096855   -1.35126493E-19
 105.223892   -1.362722027E-19
 105.350922   -1.373704789E-19
 105.477959   -1.383580808E-19
 105.604988   -1.391679423E-19
 105.732025   -1.397325319E-19
 105.859055   -1.399870321E-19
 105.986084   -1.398727261E-19
 106.113121   -1.393404353E-19
 106.24015   -1.383547075E-19
 106.367188   -1.368980036E-19
 106.494217   -1.349718102E-19
 106.621246   -1.326016534E-19
 106.748283   -1.298387538E-19
 106.875313   -1.267592509E-19
 107.00235   -1.234651333E-19
 107.129379   -1.200824687E-19
 107.256416   -1.167594903E-19
 107.383446   -1.136595663E-19
 107.510475   -1.109593774E-19
 107.637512   -1.088379952E-19
 107.764542   -1.074709176E-19
 107.891579   -1.070218103E-19
 108.018608   -1.076314165E-19
 108.145645   -1.094099389E-19
 108.272675   -1.124263951E-19
 108.399704   -1.167009802E-19
 108.526741   -1.221986552E-19
 108.65377   -1.288224978E-19
 108.780807   -1.364126425E-19
 108.907837   -1.447434111E-19
 109.034874   -1.535277073E-19
 109.161903   -1.624233239E-19
 109.288933   -1.710391855E-19
 109.41597   -1.789503409E-19
 109.542999   -1.857121159E-19
 109.670036   -1.908775227E-19
 109.797066   -1.940187928E-19
 109.924095   -1.947472029E-19
 110.051132   -1.927354996E-19
 110.178162   -1.877414613E-19
 110.305199   -1.796267807E-19
 110.432228   -1.683755605E-19
 110.559265   -1.541102751E-19
 110.686295   -1.371001976E-19
 110.813324   -1.17766867E-19
 110.940361   -9.668493481E-20
 111.06739   -7.457031283E-20
 111.194427   -5.226776576E-20
 111.321457   -3.072685493E-20
 111.448494   -1.09727762E-20
 111.575523   5.930334481E-21
 111.702553   1.891947046E-20
 111.82959   2.698023082E-20
 111.956619   2.919457393E-20
 112.083656   2.479107471E-20
 112.210686   1.319279164E-20
 112.337723   -5.936501177E-21
 112.464752   -3.265238599E-20
 112.591782   -6.669817712E-20
 112.718819   -1.074812445E-19
 112.845848   -1.540623891E-19
 112.972885   -2.05157762E-19
 113.099915   -2.591552465E-19
 113.226944   -3.141451279E-19
 113.353981   -3.679687623E-19
 113.48101   -4.18278585E-19
 113.608047   -4.626136306E-19
 113.735077   -4.984881952E-19
 113.862114   -5.234879715E-19
 113.989143   -5.353754875E-19
 114.116173   -5.321962188E-19
 114.24321   -5.123862771E-19
 114.370239   -4.748765315E-19
 114.497276   -4.191845288E-19
 114.624306   -3.454951439E-19
 114.751343   -2.547240916E-19
 114.878372   -1.485556151E-19
 115.005402   -2.946024108E-20
 115.132439   9.932043564E-20
 115.259468   2.338175669E-19
 115.386505   3.694137692E-19
 115.513535   5.009488508E-19
 115.640572   6.228634857E-19
 115.767601   7.293669704E-19
 115.89463   8.146341955E-19
 116.021667   8.730232723E-19
 116.148697   8.993068329E-19