 -7.19999981   1.033947311E-17
 -7.07315636   1.033947063E-17
 -6.9463129   1.033946566E-17
 -6.81946898   1.033945904E-17
 -6.69262552   1.033945077E-17
 -6.56578159   1.033944333E-17
 -6.43893814   1.033943837E-17
 -6.31209469   1.033943423E-17
 -6.18525076   1.03394334E-17
 -6.05840731   1.033943423E-17
 -5.93156338   1.033943754E-17
 -5.80471992   1.03394425E-17
 -5.67787647   1.033944829E-17
 -5.55103254   1.033945325E-17
 -5.42418909   1.033945822E-17
 -5.29734564   1.033946235E-17
 -5.17050171   1.033946649E-17
 -5.04365826   1.03394698E-17
 -4.91681433   1.033947311E-17
 -4.78997087   1.033947724E-17
 -4.66312742   1.033948221E-17
 -4.53628349   1.033948882E-17
 -4.40944004   1.03394971E-17
 -4.28259611   1.033950619E-17
 -4.15575266   1.033951447E-17
 -4.02890921   1.033952108E-17
 -3.90206528   1.033952439E-17
 -3.77522182   1.033952274E-17
 -3.64837813   1.033951529E-17
 -3.52153444   1.03395004E-17
 -3.39469075   1.03394789E-17
 -3.2678473   1.033944912E-17
 -3.14100361   1.033941272E-17
 -3.01415992   1.033937136E-17
 -2.88731623   1.03393267E-17
 -2.76047254   1.033927872E-17
 -2.63362908   1.033922992E-17
 -2.50678539   1.033917946E-17
 -2.3799417   1.033912983E-17
 -2.25309801   1.033908102E-17
 -2.12625432   1.033903222E-17
 -1.99941075   1.033898259E-17
 -1.87256718   1.033893296E-17
 -1.74572349   1.033888167E-17
 -1.61887991   1.033882791E-17
 -1.49203622   1.033877248E-17
 -1.36519253   1.033871624E-17
 -1.23834896   1.033865751E-17
 -1.11150527   1.033859878E-17
 -0.984661698   1.033854253E-17
 -0.857818007   1.033848876E-17
 -0.730974376   1.033843996E-17
 -0.604130745   1.033839446E-17
 -0.477287114   1.033835476E-17
 -0.350443482   1.03383225E-17
 -0.223599836   1.033829355E-17
 -9.675619751E-2   1.033827121E-17
 3.008744121E-2   1.033825136E-17
 0.156931072   1.033823482E-17
 0.283774734   1.03382191E-17
 0.410618365   1.033820504E-17
 0.537461996   1.033819015E-17
 0.664305627   1.033817526E-17
 0.791149259   1.033815872E-17
 0.91799289   1.033814217E-17
 1.04483652   1.033812563E-17
 1.17168021   1.033810909E-17
 1.29852378   1.033809337E-17
 1.42536747   1.033807848E-17
 1.55221117   1.033806607E-17
 1.67905474   1.033805449E-17
 1.80589843   1.033804374E-17
 1.932742   1.033803381E-17
 2.05958557   1.033802306E-17
 2.18642926   1.033801148E-17
 2.31327295   1.033799907E-17
 2.44011664   1.033798335E-17
 2.56696033   1.033796681E-17
 2.69380379   1.033794779E-17
 2.82064748   1.033792876E-17
 2.94749117   1.033790891E-17
 3.07433486   1.033788988E-17
 3.20117831   1.033787169E-17
 3.328022   1.033785514E-17
 3.45486569   1.033784025E-17
 3.58170938   1.033782702E-17
 3.70855308   1.033781461E-17
 3.83539653   1.033780303E-17
 3.96224022   1.033779062E-17
 4.08908367   1.033777656E-17
 4.2159276   1.033776167E-17
 4.34277105   1.033774513E-17
 4.46961498   1.033772693E-17
 4.59645844   1.033770873E-17
 4.72330189   1.033769136E-17
 4.85014582   1.033767564E-17
 4.97698927   1.033766158E-17
 5.1038332   1.033765083E-17
 5.23067665   1.033764256E-17
 5.3575201   1.033763677E-17
 5.48436403   1.033763263E-17
 5.61120749   1.033762849E-17
 5.73805141   1.033762436E-17
 5.86489487   1.033761774E-17
 5.99173832   1.033760864E-17
 6.11858225   1.033759541E-17
 6.2454257   1.033758052E-17
 6.37226963   1.033756315E-17
 6.49911308   1.033754578E-17
 6.62595654   1.033752841E-17
 6.75280046   1.033751517E-17
 6.87964392   1.033750442E-17
 7.00648737   1.033749863E-17
 7.1333313   1.03374978E-17
 7.26017475   1.033750194E-17
 7.38701868   1.033750855E-17
 7.51386213   1.033751848E-17
 7.64070559   1.033752841E-17
 7.76754951   1.03375375E-17
 7.89439297   1.033754412E-17
 8.02123642   1.033754826E-17
 8.14808083   1.033754908E-17
 8.27492428   1.033754826E-17
 8.40176773   1.033754578E-17
 8.52861118   1.033754329E-17
 8.65545464   1.033754081E-17
 8.78229809   1.033754081E-17
 8.90914249   1.033754164E-17
 9.03598595   1.033754412E-17
 9.1628294   1.033754743E-17
 9.28967285   1.033754991E-17
 9.4165163   1.033755239E-17
 9.54336071   1.033755074E-17
 9.67020416   1.033754578E-17
 9.79704762   1.033753585E-17
 9.92389107   1.033752179E-17
 10.0507345   1.033750359E-17
 10.1775789   1.033748374E-17
 10.3044224   1.033746389E-17
 10.4312658   1.033744486E-17
 10.5581093   1.033742997E-17
 10.6849527   1.033741922E-17
 10.8117971   1.033741508E-17
 10.9386406   1.033741674E-17
 11.065484   1.033742418E-17
 11.1923275   1.033743659E-17
 11.319171   1.033745148E-17
 11.4460154   1.033746802E-17
 11.5728588   1.033748374E-17
 11.6997023   1.033749863E-17
 11.8265457   1.033750938E-17
 11.9533892   1.033751848E-17
 12.0802336   1.033752427E-17
 12.207077   1.033752923E-17
 12.3339205   1.03375342E-17
 12.4607639   1.033753999E-17
 12.5876074   1.033754826E-17
 12.7144518   1.033755984E-17
 12.8412952   1.033757473E-17
 12.9681387   1.033759293E-17
 13.0949821   1.03376136E-17
 13.2218256   1.033763677E-17
 13.34867   1.033766075E-17
 13.4755135   1.033768557E-17
 13.6023569   1.033770873E-17
 13.7292004   1.033773189E-17
 13.8560438   1.03377534E-17
 13.9828882   1.03377749E-17
 14.1097317   1.033779641E-17
 14.2365751   1.033781875E-17
 14.3634186   1.033784356E-17
 14.490262   1.033787003E-17
 14.6171055   1.033789815E-17
 14.7439499   1.033792793E-17
 14.8707933   1.033795937E-17
 14.9976368   1.03379908E-17
 15.1244802   1.033802223E-17
 15.2513237   1.033805284E-17
 15.3781681   1.033807931E-17
 15.5050116   1.033810412E-17
 15.631855   1.033812563E-17
 15.7586985   1.033814465E-17
 15.8855419   1.033816203E-17
 16.0123863   1.03381794E-17
 16.1392288   1.033819677E-17
 16.2660732   1.033821579E-17
 16.3929176   1.03382373E-17
 16.5197601   1.033826046E-17
 16.6466045   1.033828528E-17
 16.773447   1.033830926E-17
 16.9002914   1.033833408E-17
 17.0271358   1.033835559E-17
 17.1539783   1.033837461E-17
 17.2808228   1.033838867E-17
 17.4076653   1.033839943E-17
 17.5345097   1.033840604E-17
 17.6613541   1.033841018E-17
 17.7881966   1.033841183E-17
 17.915041   1.033841514E-17
 18.0418835   1.033842093E-17
 18.1687279   1.033843086E-17
 18.2955723   1.033844658E-17
 18.4224148   1.033846808E-17
 18.5492592   1.033849621E-17
 18.6761017   1.033853095E-17
 18.8029461   1.033856983E-17
 18.9297905   1.033861201E-17
 19.056633   1.03386542E-17
 19.1834774   1.033869804E-17
 19.3103199   1.03387394E-17
 19.4371643   1.03387791E-17
 19.5640087   1.033881633E-17
 19.6908512   1.033885189E-17
 19.8176956   1.033888581E-17
 19.9445381   1.033892055E-17
 20.0713825   1.033895446E-17
 20.1982269   1.033899169E-17
 20.3250694   1.033902974E-17
 20.4519138   1.033906944E-17
 20.5787563   1.033910997E-17
 20.7056007   1.033915133E-17
 20.8324451   1.033919104E-17
 20.9592876   1.033922909E-17
 21.086132   1.033926466E-17
 21.2129745   1.033929609E-17
 21.339819   1.033932504E-17
 21.4666634   1.033935151E-17
 21.5935059   1.033937715E-17
 21.7203503   1.033940362E-17
 21.8471928   1.033943092E-17
 21.9740372   1.033946153E-17
 22.1008816   1.033949544E-17
 22.2277241   1.033953266E-17
 22.3545685   1.03395732E-17
 22.481411   1.033961455E-17
 22.6082554   1.033965757E-17
 22.7350998   1.033969893E-17
 22.8619423   1.03397378E-17
 22.9887867   1.03397742E-17
 23.1156292   1.033980729E-17
 23.2424736   1.033983789E-17
 23.369318   1.033986602E-17
 23.4961605   1.033989331E-17
 23.6230049   1.033992144E-17
 23.7498474   1.033995122E-17
 23.8766918   1.03399843E-17
 24.0035343   1.03400207E-17
 24.1303787   1.034006041E-17
 24.2572231   1.034010259E-17
 24.3840656   1.03401456E-17
 24.51091   1.034018779E-17
 24.6377525   1.034022832E-17
 24.7645969   1.034026555E-17
 24.8914413   1.034029698E-17
 25.0182838   1.034032428E-17
 25.1451283   1.034034578E-17
 25.2719707   1.034036398E-17
 25.3988152   1.034037887E-17
 25.5256596   1.034039293E-17
 25.6525021   1.034040617E-17
 25.7793465   1.034042106E-17
 25.906189   1.034043677E-17
 26.0330334   1.034045332E-17
 26.1598778   1.034047069E-17
 26.2867203   1.03404864E-17
 26.4135647   1.034049881E-17
 26.5404072   1.034050791E-17
 26.6672516   1.034051287E-17
 26.794096   1.034051453E-17
 26.9209385   1.034051205E-17
 27.0477829   1.034050791E-17
 27.1746254   1.034050377E-17
 27.3014698   1.034050212E-17
 27.4283142   1.034050377E-17
 27.5551567   1.034051122E-17
 27.6820011   1.034052445E-17
 27.8088436   1.034054265E-17
 27.935688   1.034056664E-17
 28.0625324   1.034059228E-17
 28.1893749   1.034062041E-17
 28.3162193   1.034064605E-17
 28.4430618   1.034066838E-17
 28.5699062   1.034068658E-17
 28.6967506   1.034069899E-17
 28.8235931   1.034070643E-17
 28.9504375   1.034071057E-17
 29.07728   1.03407114E-17
 29.2041245   1.034071057E-17
 29.3309689   1.034070974E-17
 29.4578114   1.03407114E-17
 29.5846558   1.03407147E-17
 29.7114983   1.034071967E-17
 29.8383427   1.034072629E-17
 29.9651871   1.03407329E-17
 30.0920296   1.034073952E-17
 30.218874   1.034074531E-17
 30.3457165   1.034075027E-17
 30.4725609   1.034075441E-17
 30.5994053   1.034075772E-17
 30.7262478   1.034076351E-17
 30.8530922   1.034077095E-17
 30.9799347   1.034078253E-17
 31.1067791   1.03407999E-17
 31.2336235   1.034082141E-17
 31.360466   1.034084788E-17
 31.4873104   1.034087849E-17
 31.6141529   1.034091075E-17
 31.7409973   1.034094383E-17
 31.8678417   1.034097692E-17
 31.9946842   1.03410067E-17
 32.1215286   1.034103317E-17
 32.2483711   1.034105633E-17
 32.3752136   1.034107618E-17
 32.5020599   1.034109273E-17
 32.6289024   1.034110762E-17
 32.7557449   1.03411225E-17
 32.8825912   1.034113822E-17
 33.0094337   1.034115725E-17
 33.1362762   1.034117958E-17
 33.2631226   1.034120522E-17
 33.3899651   1.034123417E-17
 33.5168076   1.034126561E-17
 33.6436501   1.034129787E-17
 33.7704964   1.03413293E-17
 33.8973389   1.034135908E-17
 34.0241814   1.034138638E-17
 34.1510277   1.034140871E-17
 34.2778702   1.034142691E-17
 34.4047127   1.03414418E-17
 34.531559   1.034145338E-17
 34.6584015   1.034146248E-17
 34.785244   1.034147075E-17
 34.9120865   1.034147819E-17
 35.0389328   1.034148729E-17
 35.1657753   1.034149887E-17
 35.2926178   1.034151376E-17
 35.4194641   1.034153113E-17
 35.5463066   1.034155098E-17
 35.6731491   1.034157415E-17
 35.7999954   1.034159813E-17
 35.9268379   1.034162378E-17
 36.0536804   1.034165025E-17
 36.1805229   1.034167589E-17
 36.3073692   1.034170236E-17
 36.4342117   1.0341728E-17
 36.5610542   1.034175447E-17
 36.6879005   1.034178011E-17
 36.814743   1.034180658E-17
 36.9415855   1.034183223E-17
 37.0684319   1.034185787E-17
 37.1952744   1.034188351E-17
 37.3221169   1.03419075E-17
 37.4489594   1.034193066E-17
 37.5758057   1.034195134E-17
 37.7026482   1.034197037E-17
 37.8294907   1.034198608E-17
 37.956337   1.034199849E-17
 38.0831795   1.034200759E-17
 38.210022   1.034201503E-17
 38.3368683   1.034202E-17
 38.4637108   1.034202413E-17
 38.5905533   1.034202661E-17
 38.7173958   1.034202827E-17
 38.8442421   1.034202992E-17
 38.9710846   1.034203158E-17
 39.0979271   1.034203406E-17
 39.2247734   1.034203654E-17
 39.3516159   1.034203819E-17
 39.4784584   1.034203985E-17
 39.6053047   1.03420415E-17
 39.7321472   1.034204316E-17
 39.8589897   1.034204647E-17
 39.9858322   1.034204977E-17
 40.1126785   1.034205474E-17
 40.239521   1.034206135E-17
 40.3663635   1.034207128E-17
 40.4932098   1.034208369E-17
 40.6200523   1.034209941E-17
 40.7468948   1.034211843E-17
 40.8737411   1.034214159E-17
 41.0005836   1.034216641E-17
 41.1274261   1.034219205E-17
 41.2542686   1.034221604E-17
 41.381115   1.03422392E-17
 41.5079575   1.034225822E-17
 41.6348   1.034227311E-17
 41.7616463   1.034228387E-17
 41.8884888   1.034228883E-17
 42.0153313   1.034229048E-17
 42.1421776   1.034228883E-17
 42.2690201   1.034228718E-17
 42.3958626   1.034228552E-17
 42.5227051   1.034228552E-17
 42.6495514   1.0342288E-17
 42.7763939   1.034229545E-17
 42.9032364   1.034230703E-17
 43.0300827   1.034232109E-17
 43.1569252   1.034233763E-17
 43.2837677   1.034235583E-17
 43.4106102   1.03423732E-17
 43.5374565   1.034239057E-17
 43.664299   1.034240546E-17
 43.7911415   1.034241952E-17
 43.9179878   1.03424311E-17
 44.0448303   1.034244186E-17
 44.1716728   1.034245344E-17
 44.2985191   1.034246419E-17
 44.4253616   1.03424766E-17
 44.5522041   1.034248983E-17
 44.6790466   1.03425039E-17
 44.8058929   1.034251961E-17
 44.9327354   1.034253616E-17
 45.0595779   1.03425527E-17
 45.1864243   1.034256924E-17
 45.3132668   1.034258579E-17
 45.4401093   1.034260233E-17
 45.5669556   1.034261887E-17
 45.6937981   1.034263542E-17
 45.8206406   1.034265362E-17
 45.9474831   1.034267512E-17
 46.0743294   1.034269828E-17
 46.2011719   1.034272475E-17
 46.3280144   1.034275371E-17
 46.4548607   1.034278431E-17
 46.5817032   1.034281657E-17
 46.7085457   1.0342848E-17
 46.835392   1.034287861E-17
 46.9622345   1.034290673E-17
 47.089077   1.034293072E-17
 47.2159195   1.03429514E-17
 47.3427658   1.034296794E-17
 47.4696083   1.034298201E-17
 47.5964508   1.034299276E-17
 47.7232971   1.034300269E-17
 47.8501396   1.034301179E-17
 47.9769821   1.034302171E-17
 48.1038284   1.034303329E-17
 48.2306709   1.03430457E-17
 48.3575134   1.034305893E-17
 48.4843559   1.034307217E-17
 48.6112022   1.034308623E-17
 48.7380447   1.034310029E-17
 48.8648872   1.034311436E-17
 48.9917336   1.034312759E-17
 49.118576   1.034314083E-17
 49.2454185   1.034315323E-17
 49.3722649   1.034316481E-17
 49.4991074   1.034317722E-17
 49.6259499   1.034319128E-17
 49.7527924   1.034320452E-17
 49.8796387   1.034321941E-17
 50.0064812   1.03432343E-17
 50.1333237   1.034324919E-17
 50.26017   1.034326325E-17
 50.3870125   1.034327483E-17
 50.513855   1.034328476E-17
 50.6407013   1.034329137E-17
 50.7675438   1.034329634E-17
 50.8943863   1.034329964E-17
 51.0212288   1.03433013E-17
 51.1480751   1.034330047E-17
 51.2749176   1.034329964E-17
 51.4017601   1.034329716E-17
 51.5286064   1.034329551E-17
 51.6554489   1.034329303E-17
 51.7822914   1.034329055E-17
 51.9091377   1.034328806E-17
 52.0359802   1.034328558E-17
 52.1628227   1.03432831E-17
 52.2896652   1.034328062E-17
 52.4165115   1.034327814E-17
 52.543354   1.034327566E-17
 52.6701965   1.034327317E-17
 52.7970428   1.034327069E-17
 52.9238853   1.034326738E-17
 53.0507278   1.034326408E-17
 53.1775742   1.034325911E-17
 53.3044167   1.03432525E-17
 53.4312592   1.034324422E-17
 53.5581017   1.03432343E-17
 53.684948   1.034322272E-17
 53.8117905   1.034320948E-17
 53.938633   1.034319459E-17
 54.0654793   1.03431797E-17
 54.1923218   1.034316564E-17
 54.3191643   1.034315489E-17
 54.4460106   1.034314662E-17
 54.5728531   1.034314248E-17
 54.6996956   1.034314331E-17
 54.8265381   1.03431491E-17
 54.9533844   1.034315902E-17
 55.0802269   1.034317309E-17
 55.2070694   1.034319046E-17
 55.3339157   1.034320948E-17
 55.4607582   1.034323016E-17
 55.5876007   1.034325167E-17
 55.7144432   1.034327152E-17
 55.8412895   1.034329137E-17
 55.968132   1.034330957E-17
 56.0949745   1.034332694E-17
 56.2218208   1.034334348E-17
 56.3486633   1.034335755E-17
 56.4755058   1.034337161E-17
 56.6023521   1.034338484E-17
 56.7291946   1.034339642E-17
 56.8560371   1.0343408E-17
 56.9828796   1.034341793E-17
 57.109726   1.034342786E-17
 57.2365685   1.034343613E-17
 57.3634109   1.034344523E-17
 57.4902573   1.034345433E-17
 57.6170998   1.034346425E-17
 57.7439423   1.034347501E-17
 57.8707886   1.034348824E-17
 57.9976311   1.03435023E-17
 58.1244736   1.034351802E-17
 58.2513161   1.034353539E-17
 58.3781624   1.034355359E-17
 58.5050049   1.034357179E-17
 58.6318474   1.034358998E-17
 58.7586937   1.03436057E-17
 58.8855362   1.034361894E-17
 59.0123787   1.034362886E-17
 59.139225   1.034363548E-17
 59.2660675   1.034363879E-17
 59.39291   1.034363962E-17
 59.5197525   1.034363879E-17
 59.6465988   1.034363713E-17
 59.7734413   1.034363465E-17
 59.9002838   1.0343633E-17
 60.0271301   1.034363217E-17
 60.1539726   1.034363134E-17
 60.2808151   1.034363217E-17
 60.4076614   1.0343633E-17
 60.5345039   1.034363548E-17
 60.6613464   1.034363879E-17
 60.7881889   1.034364127E-17
 60.9150352   1.034364541E-17
 61.0418777   1.034365037E-17
 61.1687202   1.034365616E-17
 61.2955666   1.034366278E-17
 61.4224091   1.034367188E-17
 61.5492516   1.034368346E-17
 61.6760979   1.034369669E-17
 61.8029404   1.034371323E-17
 61.9297829   1.034373143E-17
 62.0566254   1.034375128E-17
 62.1834717   1.034377196E-17
 62.3103142   1.034379264E-17
 62.4371567   1.034381167E-17
 62.564003   1.034382904E-17
 62.6908455   1.034384393E-17
 62.817688   1.034385551E-17
 62.9445343   1.034386461E-17
 63.0713768   1.034386957E-17
 63.1982193   1.034387205E-17
 63.3250618   1.034387205E-17
 63.4519081   1.034387123E-17
 63.5787506   1.034386874E-17
 63.7055931   1.034386626E-17
 63.8324394   1.034386544E-17
 63.9592819   1.034386544E-17
 64.0861282   1.034386626E-17
 64.2129669   1.034386874E-17
 64.3398132   1.034387205E-17
 64.4666595   1.034387619E-17
 64.5934982   1.034388115E-17
 64.7203445   1.034388777E-17
 64.8471909   1.034389439E-17
 64.9740295   1.034390183E-17
 65.1008759   1.034391093E-17
 65.2277145   1.034392168E-17
 65.3545609   1.034393492E-17
 65.4814072   1.034395064E-17
 65.6082458   1.034396966E-17
 65.7350922   1.034399034E-17
 65.8619385   1.034401185E-17
 65.9887772   1.034403418E-17
 66.1156235   1.034405569E-17
 66.2424698   1.034407554E-17
 66.3693085   1.034409208E-17
 66.4961548   1.034410532E-17
 66.6230011   1.034411442E-17
 66.7498398   1.034411938E-17
 66.8766861   1.034412269E-17
 67.0035324   1.034412352E-17
 67.1303711   1.034412517E-17
 67.2572174   1.034412765E-17
 67.3840637   1.034413262E-17
 67.5109024   1.034414089E-17
 67.6377487   1.034415329E-17
 67.7645874   1.034416984E-17
 67.8914337   1.034418886E-17
 68.01828   1.03442112E-17
 68.1451187   1.034423436E-17
 68.271965   1.034425835E-17
 68.3988113   1.034428068E-17
 68.52565   1.034430136E-17
 68.6524963   1.034432121E-17
 68.7793427   1.034433941E-17
 68.9061813   1.034435678E-17
 69.0330276   1.034437498E-17
 69.159874   1.034439566E-17
 69.2867126   1.034441882E-17
 69.413559   1.034444694E-17
 69.5404053   1.034447838E-17
 69.667244   1.034451395E-17
 69.7940903   1.034455365E-17
 69.920929   1.034459501E-17
 70.0477753   1.034463802E-17
 70.1746216   1.034468104E-17
 70.3014603   1.034472405E-17
 70.4283066   1.034476458E-17
 70.5551529   1.034480429E-17
 70.6819916   1.034484068E-17
 70.8088379   1.034487542E-17
 70.9356842   1.034490934E-17
 71.0625229   1.034494242E-17
 71.1893692   1.034497469E-17
 71.3162155   1.034500695E-17
 71.4430542   1.034503838E-17
 71.5699005   1.034506898E-17
 71.6967468   1.034509876E-17
 71.8235855   1.034512689E-17
 71.9504318   1.034515336E-17
 72.0772781   1.034517652E-17
 72.2041168   1.034519637E-17
 72.3309631   1.034521374E-17
 72.4578018   1.034522946E-17
 72.5846481   1.034524517E-17
 72.7114944   1.034526006E-17
 72.8383331   1.034527661E-17
 72.9651794   1.03452948E-17
 73.0920258   1.034531548E-17
 73.2188644   1.034533947E-17
 73.3457108   1.034536677E-17
 73.4725571   1.034539655E-17
 73.5993958   1.034542798E-17
 73.7262421   1.034545941E-17
 73.8530884   1.034549002E-17
 73.9799271   1.034551897E-17
 74.1067734   1.034554461E-17
 74.2336197   1.034556777E-17
 74.3604584   1.034558763E-17
 74.4873047   1.0345605E-17
 74.614151   1.034561989E-17
 74.7409897   1.034563478E-17
 74.867836   1.034564966E-17
 74.9946747   1.034566621E-17
 75.121521   1.034568358E-17
 75.2483673   1.03457026E-17
 75.375206   1.034572411E-17
 75.5020523   1.034574727E-17
 75.6288986   1.034577126E-17
 75.7557373   1.034579525E-17
 75.8825836   1.034581924E-17
 76.0094299   1.03458424E-17
 76.1362686   1.034586473E-17
 76.2631149   1.034588624E-17
 76.3899612   1.034590609E-17
 76.5167999   1.034592677E-17
 76.6436462   1.034594828E-17
 76.7704926   1.034597144E-17
 76.8973312   1.034599543E-17
 77.0241776   1.034602272E-17
 77.1510239   1.034605085E-17
 77.2778625   1.034608145E-17
 77.4047089   1.034611289E-17
 77.5315475   1.034614266E-17
 77.6583939   1.034617079E-17
 77.7852402   1.034619478E-17
 77.9120789   1.03462138E-17
 78.0389252   1.034622869E-17
 78.1657715   1.034623779E-17
 78.2926102   1.034624441E-17
 78.4194565   1.034624854E-17
 78.5463028   1.034625351E-17
 78.6731415   1.034626095E-17
 78.7999878   1.034627253E-17
 78.9268341   1.034629156E-17
 79.0536728   1.03463172E-17
 79.1805191   1.034634863E-17
 79.3073654   1.034638668E-17
 79.4342041   1.034642804E-17
 79.5610504   1.034647271E-17
 79.6878967   1.034651738E-17
 79.8147354   1.034656122E-17
 79.9415817   1.034660258E-17
 80.0684204   1.034664145E-17
 80.1952667   1.03466795E-17
 80.322113   1.03467159E-17
 80.4489517   1.034675395E-17
 80.575798   1.034679366E-17
 80.7026443   1.034683667E-17
 80.829483   1.034688216E-17
 80.9563293   1.034693097E-17
 81.0831757   1.03469806E-17
 81.2100143   1.03470294E-17
 81.3368607   1.034707572E-17
 81.463707   1.034711543E-17
 81.5905457   1.034715017E-17
 81.717392   1.034717581E-17
 81.8442383   1.034719401E-17
 81.971077   1.034720559E-17
 82.0979233   1.034721221E-17
 82.224762   1.0347218E-17
 82.3516083   1.034722379E-17
 82.4784546   1.034723206E-17
 82.6052933   1.034724447E-17
 82.7321396   1.034726184E-17
 82.8589859   1.034728252E-17
 82.9858246   1.034730651E-17
 83.1126709   1.034733132E-17
 83.2395172   1.034735448E-17
 83.3663559   1.034737516E-17
 83.4932022   1.034739088E-17
 83.6200485   1.034740163E-17
 83.7468872   1.034740825E-17
 83.8737335   1.034741156E-17
 84.0005798   1.034741321E-17
 84.1274185   1.03474157E-17
 84.2542648   1.034741983E-17
 84.3811111   1.03474281E-17
 84.5079498   1.034743968E-17
 84.6347961   1.03474554E-17
 84.7616348   1.034747442E-17
 84.8884811   1.034749262E-17
 85.0153275   1.034750999E-17
 85.1421661   1.034752488E-17
 85.2690125   1.034753564E-17
 85.3958588   1.034754225E-17
 85.5226974   1.034754391E-17
 85.6495438   1.034754308E-17
 85.7763901   1.034754225E-17
 85.9032288   1.034754143E-17
 86.0300751   1.034754391E-17
 86.1569214   1.034755135E-17
 86.2837601   1.034756376E-17
 86.4106064   1.03475803E-17
 86.5374527   1.034760016E-17
 86.6642914   1.034762001E-17
 86.7911377   1.034763903E-17
 86.917984   1.03476531E-17
 87.0448227   1.034766137E-17
 87.171669   1.034766219E-17
 87.2985077   1.034765558E-17
 87.425354   1.034764317E-17
 87.5522003   1.034762663E-17
 87.679039   1.034760926E-17
 87.8058853   1.034759354E-17
 87.9327316   1.034758279E-17
 88.0595703   1.0347577E-17
 88.1864166   1.034757865E-17
 88.3132629   1.034758692E-17
 88.4401016   1.034760016E-17
 88.5669479   1.034761587E-17
 88.6937943   1.034763242E-17
 88.8206329   1.034764648E-17
 88.9474792   1.03476564E-17
 89.0743256   1.034766219E-17
 89.2011642   1.034766302E-17
 89.3280106   1.034765971E-17
 89.4548569   1.034765558E-17
 89.5816956   1.034765227E-17
 89.7085419   1.034765227E-17
 89.8353806   1.034765723E-17
 89.9622269   1.034766881E-17
 90.0890732   1.034768701E-17
 90.2159119   1.034771183E-17
 90.3427582   1.03477416E-17
 90.4696045   1.034777469E-17
 90.5964432   1.034780943E-17
 90.7232895   1.034784335E-17
 90.8501358   1.034787643E-17
 90.9769745   1.034790621E-17
 91.1038208   1.034793516E-17
 91.2306671   1.034796329E-17
 91.3575058   1.034799307E-17
 91.4843521   1.034802533E-17
 91.6111984   1.034806172E-17
 91.7380371   1.034810391E-17
 91.8648834   1.034815189E-17
 91.9917297   1.0348204E-17
 92.1185684   1.034826025E-17
 92.2454147   1.034831732E-17
 92.3722534   1.03483744E-17
 92.4990997   1.034842734E-17
 92.625946   1.034847531E-17
 92.7527847   1.034851667E-17
 92.879631   1.034854893E-17
 93.0064774   1.034857375E-17
 93.133316   1.034858864E-17
 93.2601624   1.034859525E-17
 93.3870087   1.034859277E-17
 93.5138474   1.034858119E-17
 93.6406937   1.034855969E-17
 93.76754   1.034852825E-17
 93.8943787   1.034848607E-17
 94.021225   1.034843147E-17
 94.1480713   1.034836364E-17
 94.27491   1.034828341E-17
 94.4017563   1.034819076E-17
 94.528595   1.034808902E-17
 94.6554413   1.034798149E-17
 94.7822876   1.034787313E-17
 94.9091263   1.03477689E-17
 95.0359726   1.034767626E-17
 95.1628189   1.034760181E-17
 95.2896576   1.034755383E-17
 95.4165039   1.034753894E-17
 95.5433502   1.034756376E-17
 95.6701889   1.034763242E-17
 95.7970352   1.034774905E-17
 95.9238815   1.034791448E-17
 96.0507202   1.034812872E-17
 96.1775665   1.034838929E-17
 96.3044128   1.034868955E-17
 96.4312515   1.034902373E-17
 96.5580978   1.034938356E-17
 96.6849442   1.034975662E-17
 96.8117828   1.03501305E-17
 96.9386292   1.035049115E-17
 97.0654678   1.035082285E-17
 97.1923141   1.035110988E-17
 97.3191605   1.035133322E-17
 97.4459991   1.03514755E-17
 97.5728455   1.035152017E-17
 97.6996918   1.035145316E-17
 97.8265305   1.03512596E-17
 97.9533768   1.035093121E-17
 98.0802231   1.03504622E-17
 98.2070618   1.034985174E-17
 98.3339081   1.034910811E-17
 98.4607544   1.034824122E-17
 98.5875931   1.034727177E-17
 98.7144394   1.034622704E-17
 98.8412857   1.034514178E-17
 98.9681244   1.034405486E-17
 99.0949707   1.034301427E-17
 99.221817   1.03420688E-17
 99.3486557   1.034127305E-17
 99.475502   1.034067831E-17
 99.6023407   1.034033751E-17
 99.729187   1.034029781E-17
 99.8560333   1.03405989E-17
 99.982872   1.034127305E-17
 100.109718   1.034233929E-17
 100.236565   1.03438034E-17
 100.363403   1.034565463E-17
 100.49025   1.034786568E-17
 100.617096   1.035039106E-17
 100.743935   1.035316543E-17
 100.870781   1.035610605E-17
 100.997627   1.035911203E-17
 101.124466   1.036206837E-17
 101.251312   1.036484522E-17
 101.378159   1.036730525E-17
 101.504997   1.036930786E-17
 101.631844   1.037071158E-17
 101.75869   1.037138243E-17
 101.885529   1.037120045E-17
 102.012375   1.037006804E-17
 102.139214   1.036791406E-17
 102.26606   1.036470212E-17
 102.392906   1.036043717E-17
 102.519745   1.035516969E-17
 102.646591   1.034899726E-17
 102.773438   1.034207045E-17
 102.900276   1.033458861E-17
 103.027122   1.032679905E-17
 103.153969   1.031899046E-17
 103.280807   1.031148959E-17
 103.407654   1.030464549E-17
 103.5345   1.029882214E-17
 103.661339   1.029438101E-17
 103.788185   1.029166951E-17
 103.915031   1.029100446E-17
 104.04187   1.029265138E-17
 104.168716   1.029681127E-17
 104.295563   1.030360407E-17
 104.422401   1.031305461E-17
 104.549248   1.032507851E-17
 104.676086   1.033947724E-17
 104.802933   1.035592987E-17
 104.929779   1.037399218E-17
 105.056618   1.039310336E-17
 105.183464   1.041259339E-17
 105.31031   1.043170044E-17
 105.437149   1.044959401E-17
 105.563995   1.046539812E-17
 105.690842   1.047822438E-17
 105.81768   1.048720922E-17
 105.944527   1.049155357E-17
 106.071373   1.049056013E-17
 106.198212   1.048367468E-17
 106.325058   1.047052747E-17
 106.451904   1.045096547E-17
 106.578743   1.042508216E-17
 106.705589   1.039324067E-17
 106.832428   1.035608868E-17
 106.959274   1.031455925E-17
 107.086121   1.026986669E-17
 107.212959   1.022348419E-17
 107.339806   1.017711079E-17
 107.466652   1.01326275E-17
 107.593491   1.009204022E-17
 107.720337   1.005741031E-17
 107.847183   1.003077757E-17
 107.974022   1.001407514E-17
 108.100868   1.000904175E-17
 108.227715   1.001712661E-17
 108.354553   1.003940341E-17
 108.4814   1.007648923E-17
 108.608246   1.01284643E-17
 108.735085   1.019482238E-17
 108.861931   1.027442197E-17
 108.988777   1.036546974E-17
 109.115616   1.046552633E-17
 109.242462   1.057153532E-17
 109.369301   1.067988523E-17
 109.496147   1.078649474E-17
 109.622993   1.088693101E-17
 109.749832   1.097655273E-17
 109.876678   1.105067059E-17
 110.003525   1.110473263E-17
 110.130363   1.113451775E-17
 110.25721   1.113634086E-17
 110.384056   1.110724809E-17
 110.510895   1.104521368E-17
 110.637741   1.094931119E-17
 110.764587   1.081985742E-17
 110.891426   1.065853239E-17
 111.018272   1.046844214E-17
 111.145119   1.025414364E-17
 111.271957   1.002160662E-17
 111.398804   9.778123528E-18
 111.52565   9.53214731E-18
 111.652489   9.293078879E-18
 111.779335   9.070988329E-18
 111.906174   8.876283247E-18
 112.03302   8.719334825E-18
 112.159866   8.610062612E-18
 112.286705   8.557504383E-18
 112.413551   8.56936698E-18
 112.540398   8.651598659E-18
 112.667236   8.80798129E-18
 112.794083   9.039768051E-18
 112.920929   9.345393916E-18
 113.047768   9.720256454E-18
 113.174614   1.015660581E-17
 113.30146   1.064354139E-17
 113.428299   1.116713927E-17
 113.555145   1.171069454E-17
 113.681992   1.225511835E-17
 113.80883   1.277944498E-17
 113.935677   1.32614729E-17
 114.062523   1.367851255E-17
 114.189362   1.400821765E-17
 114.316208   1.422949508E-17
 114.443047   1.432343302E-17
 114.569893   1.427425051E-17
 114.696739   1.407019664E-17
 114.823578   1.370439255E-17
 114.950424   1.317554786E-17
 115.077271   1.248853466E-17
 115.204109   1.165477134E-17
 115.330956   1.069238972E-17
 115.457802   9.626151424E-18
 115.584641   8.487103868E-18
 115.711487   7.311958978E-18
 115.838333   6.142192829E-18
 115.965172   5.022883043E-18
 116.092018   4.001296789E-18
 116.218864   3.125270127E-18
 116.345703   2.441417167E-18
 116.472549   1.993228998E-18
 116.599396   1.819121127E-18
 116.726234   1.950505119E-18
 116.853081   2.409959695E-18
 116.979919   3.209581545E-18
 117.106766   4.349595248E-18
 117.233612   5.817297377E-18
 117.360451   7.58641006E-18
 117.487297   9.616896927E-18
 117.614143   1.185529316E-17
 117.740982   1.423558147E-17
 117.867828   1.668062314E-17
 117.994675   1.910414157E-17
 118.121513   2.141322121E-17
 118.24836   2.351127715E-17
 118.375206   2.530141346E-17
 118.502045   2.669008261E-17
 118.628891   2.759091539E-17
 118.755737   2.792860195E-17
 118.882576   2.764268366E-17
 119.009422   2.669106696E-17
 119.136261   2.505316001E-17
 119.263107   2.273242539E-17
 119.389954   1.975823298E-17
 119.516792   1.618687241E-17
 119.643639   1.210164823E-17
 119.770485   7.611918656E-18
 119.897324   2.851097598E-18
 120.02417   -2.026432441E-18
 120.151016   -6.849441352E-18