 -7.19999981   -3.852849302E-18
 -7.07296753   -3.852856746E-18
 -6.94593477   -3.852871636E-18
 -6.81890202   -3.852893142E-18
 -6.69186926   -3.852920026E-18
 -6.56483698   -3.852950631E-18
 -6.43780422   -3.852983305E-18
 -6.31077147   -3.853016806E-18
 -6.18373871   -3.853049479E-18
 -6.05670643   -3.853080085E-18
 -5.92967367   -3.853106969E-18
 -5.80264091   -3.853129716E-18
 -5.67560816   -3.853148328E-18
 -5.5485754   -3.853160735E-18
 -5.42154312   -3.85316818E-18
 -5.29451036   -3.853170661E-18
 -5.16747761   -3.853169007E-18
 -5.04044485   -3.85316363E-18
 -4.91341257   -3.853156599E-18
 -4.78637981   -3.8531475E-18
 -4.65934706   -3.853138401E-18
 -4.5323143   -3.853129716E-18
 -4.40528202   -3.853123099E-18
 -4.27824926   -3.853118549E-18
 -4.15121651   -3.853118549E-18
 -4.02418375   -3.853122271E-18
 -3.89715123   -3.853130957E-18
 -3.77011847   -3.853143778E-18
 -3.64308596   -3.853161149E-18
 -3.5160532   -3.853180588E-18
 -3.38902068   -3.853202921E-18
 -3.26198792   -3.853225255E-18
 -3.13495541   -3.853245935E-18
 -3.00792265   -3.853262892E-18
 -2.88089013   -3.853273645E-18
 -2.75385737   -3.853277368E-18
 -2.62682486   -3.853271577E-18
 -2.4997921   -3.853255034E-18
 -2.37275958   -3.85322815E-18
 -2.24572682   -3.853189687E-18
 -2.11869431   -3.853140469E-18
 -1.99166155   -3.853082153E-18
 -1.86462891   -3.853015979E-18
 -1.73759627   -3.852944841E-18
 -1.61056364   -3.852869981E-18
 -1.483531   -3.852794294E-18
 -1.35649836   -3.852721089E-18
 -1.22946572   -3.852652019E-18
 -1.10243309   -3.852590394E-18
 -0.975400388   -3.852539109E-18
 -0.848367751   -3.852500232E-18
 -0.721335113   -3.852476657E-18
 -0.594302475   -3.852469626E-18
 -0.467269808   -3.85248162E-18
 -0.34023717   -3.852514294E-18
 -0.213204518   -3.852567647E-18
 -8.617187291E-2   -3.852643334E-18
 4.086076841E-2   -3.852740528E-18
 0.16789341   -3.852858814E-18
 0.294926047   -3.852995713E-18
 0.421958715   -3.853150396E-18
 0.548991323   -3.85331914E-18
 0.67602402   -3.853499052E-18
 0.803056657   -3.853685581E-18
 0.930089295   -3.853875006E-18
 1.05712187   -3.854062362E-18
 1.18415463   -3.854244342E-18
 1.31118727   -3.854416809E-18
 1.4382199   -3.854576455E-18
 1.56525254   -3.854720798E-18
 1.69228518   -3.854848597E-18
 1.81931782   -3.85495944E-18
 1.94635046   -3.855054152E-18
 2.07338309   -3.855134388E-18
 2.20041585   -3.855201803E-18
 2.32744837   -3.85526136E-18
 2.45448112   -3.855314714E-18
 2.58151364   -3.855366412E-18
 2.7085464   -3.855419766E-18
 2.83557892   -3.855477255E-18
 2.96261168   -3.855541361E-18
 3.08964419   -3.855612085E-18
 3.21667695   -3.855690254E-18
 3.34370947   -3.855774626E-18
 3.47074223   -3.855863548E-18
 3.59777474   -3.855954538E-18
 3.7248075   -3.856044287E-18
 3.85184002   -3.856129486E-18
 3.97887278   -3.856208069E-18
 4.10590553   -3.856276311E-18
 4.23293829   -3.856332559E-18
 4.35997057   -3.856374746E-18
 4.48700333   -3.856403697E-18
 4.61403608   -3.856419413E-18
 4.74106884   -3.856422308E-18
 4.86810112   -3.856415277E-18
 4.99513388   -3.856400388E-18
 5.12216663   -3.856381777E-18
 5.24919939   -3.856361924E-18
 5.37623167   -3.856343726E-18
 5.50326443   -3.856330491E-18
 5.63029718   -3.856324288E-18
 5.75732994   -3.856327596E-18
 5.88436222   -3.856341658E-18
 6.01139498   -3.856367715E-18
 6.13842773   -3.856404524E-18
 6.26546049   -3.856452087E-18
 6.39249325   -3.856509162E-18
 6.51952553   -3.856573682E-18
 6.64655828   -3.856643166E-18
 6.77359104   -3.856715544E-18
 6.9006238   -3.856787922E-18
 7.02765608   -3.856857819E-18
 7.15468884   -3.856922753E-18
 7.28172159   -3.856980655E-18
 7.40875435   -3.8570307E-18
 7.53578663   -3.857071232E-18
 7.66281939   -3.857101837E-18
 7.78985214   -3.857123758E-18
 7.9168849   -3.857137406E-18
 8.04391766   -3.85714361E-18
 8.17094994   -3.857144024E-18
 8.29798317   -3.857140301E-18
 8.42501545   -3.857134097E-18
 8.55204773   -3.857127893E-18
 8.67908096   -3.857124171E-18
 8.80611324   -3.857123758E-18
 8.93314552   -3.857128307E-18
 9.06017876   -3.857138647E-18
 9.18721104   -3.85715519E-18
 9.31424427   -3.857177938E-18
 9.44127655   -3.857206062E-18
 9.56830883   -3.857239563E-18
 9.69534206   -3.8572772E-18
 9.82237434   -3.857317731E-18
 9.94940662   -3.857359918E-18
 10.0764399   -3.857403345E-18
 10.2034721   -3.857445531E-18
 10.3305054   -3.857487303E-18
 10.4575377   -3.857525767E-18
 10.5845699   -3.857561336E-18
 10.7116032   -3.857593596E-18
 10.8386354   -3.857622961E-18
 10.9656687   -3.857649017E-18
 11.092701   -3.857672178E-18
 11.2197332   -3.857692444E-18
 11.3467665   -3.857709401E-18
 11.4737988   -3.857723877E-18
 11.600831   -3.857735871E-18
 11.7278643   -3.857745797E-18
 11.8548965   -3.857753242E-18
 11.9819298   -3.857759032E-18
 12.1089621   -3.857763168E-18
 12.2359943   -3.857766477E-18
 12.3630276   -3.857768958E-18
 12.4900599   -3.857771854E-18
 12.6170931   -3.857775576E-18
 12.7441254   -3.857781366E-18
 12.8711576   -3.857788397E-18
 12.9981909   -3.857798323E-18
 13.1252232   -3.857810731E-18
 13.2522554   -3.85782562E-18
 13.3792887   -3.857842991E-18
 13.506321   -3.857861189E-18
 13.6333542   -3.857878973E-18
 13.7603865   -3.857896344E-18
 13.8874187   -3.857910406E-18
 14.014452   -3.857921573E-18
 14.1414843   -3.857927777E-18
 14.2685175   -3.857929018E-18
 14.3955498   -3.857925296E-18
 14.5225821   -3.857916197E-18
 14.6496153   -3.857902962E-18
 14.7766476   -3.857886005E-18
 14.9036798   -3.857867393E-18
 15.0307131   -3.857847954E-18
 15.1577454   -3.857829756E-18
 15.2847786   -3.857814453E-18
 15.4118109   -3.857804941E-18
 15.5388432   -3.857801219E-18
 15.6658764   -3.857804941E-18
 15.7929087   -3.857816521E-18
 15.9199409   -3.857836787E-18
 16.0469742   -3.857864911E-18
 16.1740074   -3.857900067E-18
 16.3010387   -3.857941012E-18
 16.428072   -3.857986093E-18
 16.5551052   -3.85803407E-18
 16.6821365   -3.85808246E-18
 16.8091698   -3.858129196E-18
 16.936203   -3.858171795E-18
 17.0632343   -3.858209019E-18
 17.1902676   -3.858239624E-18
 17.3173008   -3.858261958E-18
 17.444334   -3.858275193E-18
 17.5713654   -3.858279329E-18
 17.6983986   -3.858273952E-18
 17.8254318   -3.85825989E-18
 17.9524632   -3.858237143E-18
 18.0794964   -3.858207364E-18
 18.2065296   -3.858172209E-18
 18.3335609   -3.858132504E-18
 18.4605942   -3.858089077E-18
 18.5876274   -3.858043582E-18
 18.7146587   -3.85799726E-18
 18.841692   -3.857950525E-18
 18.9687252   -3.857904616E-18
 19.0957584   -3.857860776E-18
 19.2227898   -3.857819003E-18
 19.349823   -3.857780539E-18
 19.4768562   -3.857745797E-18
 19.6038876   -3.857714365E-18
 19.7309208   -3.857687068E-18
 19.857954   -3.857663907E-18
 19.9849854   -3.857645295E-18
 20.1120186   -3.857629992E-18
 20.2390518   -3.857617584E-18
 20.3660831   -3.857607245E-18
 20.4931164   -3.857598146E-18
 20.6201496   -3.857588633E-18
 20.7471828   -3.857579121E-18
 20.8742142   -3.857568367E-18
 21.0012474   -3.857554305E-18
 21.1282806   -3.857537761E-18
 21.255312   -3.857518323E-18
 21.3823452   -3.857495989E-18
 21.5093784   -3.857471587E-18
 21.6364098   -3.857446772E-18
 21.763443   -3.85742237E-18
 21.8904762   -3.857399622E-18
 22.0175076   -3.857380184E-18
 22.1445408   -3.857365294E-18
 22.271574   -3.857355782E-18
 22.3986073   -3.8573533E-18
 22.5256386   -3.857357436E-18
 22.6526718   -3.857368189E-18
 22.779705   -3.857384319E-18
 22.9067364   -3.857405413E-18
 23.0337696   -3.857428574E-18
 23.1608028   -3.857452975E-18
 23.2878342   -3.857475309E-18
 23.4148674   -3.857493507E-18
 23.5419006   -3.857506329E-18
 23.668932   -3.857511292E-18
 23.7959652   -3.857507569E-18
 23.9229984   -3.857493921E-18
 24.0500298   -3.85747076E-18
 24.177063   -3.857438913E-18
 24.3040962   -3.857400863E-18
 24.4311295   -3.857357436E-18
 24.5581608   -3.857311114E-18
 24.685194   -3.857264792E-18
 24.8122272   -3.857221365E-18
 24.9392586   -3.857182901E-18
 25.0662918   -3.857151468E-18
 25.193325   -3.857128307E-18
 25.3203564   -3.857114659E-18
 25.4473896   -3.857109282E-18
 25.5744228   -3.857112591E-18
 25.7014542   -3.857123344E-18
 25.8284874   -3.857139474E-18
 25.9555206   -3.857158086E-18
 26.0825539   -3.857177938E-18
 26.2095852   -3.857195309E-18
 26.3366184   -3.857208957E-18
 26.4636517   -3.857215988E-18
 26.590683   -3.857215988E-18
 26.7177162   -3.857207716E-18
 26.8447495   -3.857190346E-18
 26.9717808   -3.857164289E-18
 27.098814   -3.857131202E-18
 27.2258472   -3.857091084E-18
 27.3528786   -3.857046003E-18
 27.4799118   -3.856997199E-18
 27.606945   -3.856947982E-18
 27.7339783   -3.856898764E-18
 27.8610096   -3.856852029E-18
 27.9880428   -3.856809015E-18
 28.1150761   -3.856770965E-18
 28.2421074   -3.856737464E-18
 28.3691406   -3.856710167E-18
 28.4961739   -3.856688247E-18
 28.6232052   -3.856670876E-18
 28.7502384   -3.856657228E-18
 28.8772717   -3.856646888E-18
 29.004303   -3.856636962E-18
 29.1313362   -3.856626622E-18
 29.2583694   -3.856614628E-18
 29.3854027   -3.856600152E-18
 29.512434   -3.856581127E-18
 29.6394672   -3.856557966E-18
 29.7665005   -3.856530256E-18
 29.8935318   -3.85649965E-18
 30.020565   -3.856464495E-18
 30.1475983   -3.856427272E-18
 30.2746296   -3.856389221E-18
 30.4016628   -3.856350757E-18
 30.5286961   -3.856313948E-18
 30.6557274   -3.85627962E-18
 30.7827606   -3.856248601E-18
 30.9097939   -3.856221717E-18
 31.0368271   -3.85619897E-18
 31.1638584   -3.856180772E-18
 31.2908916   -3.85616671E-18
 31.4179249   -3.856156783E-18
 31.5449562   -3.856149339E-18
 31.6719894   -3.856142721E-18
 31.7990227   -3.856136518E-18
 31.926054   -3.856129073E-18
 32.0530891   -3.856119974E-18
 32.1801186   -3.856107153E-18
 32.3071518   -3.856091023E-18
 32.434185   -3.856069516E-18
 32.5612183   -3.856043873E-18
 32.6882515   -3.856013268E-18
 32.8152847   -3.855978112E-18
 32.9423141   -3.855939235E-18
 33.0693474   -3.855897462E-18
 33.1963806   -3.855853622E-18
 33.3234138   -3.855809368E-18
 33.4504471   -3.855765941E-18
 33.5774803   -3.855724582E-18
 33.7045135   -3.855685291E-18
 33.831543   -3.855649722E-18
 33.9585762   -3.855617462E-18
 34.0856094   -3.85558851E-18
 34.2126427   -3.855564109E-18
 34.3396759   -3.855542602E-18
 34.4667091   -3.85552399E-18
 34.5937386   -3.85550786E-18
 34.7207718   -3.855492971E-18
 34.847805   -3.855478082E-18
 34.9748383   -3.855462779E-18
 35.1018715   -3.855446235E-18
 35.2289047   -3.855428037E-18
 35.355938   -3.855409012E-18
 35.4829674   -3.855387505E-18
 35.6100006   -3.855364758E-18
 35.7370338   -3.855341183E-18
 35.8640671   -3.855317609E-18
 35.9911003   -3.855295275E-18
 36.1181335   -3.855275009E-18
 36.245163   -3.855257638E-18
 36.3721962   -3.855244403E-18
 36.4992294   -3.855236131E-18
 36.6262627   -3.855232823E-18
 36.7532959   -3.85523365E-18
 36.8803291   -3.855238613E-18
 37.0073624   -3.855247712E-18
 37.1343918   -3.855258052E-18
 37.261425   -3.855269632E-18
 37.3884583   -3.855279558E-18
 37.5154915   -3.855288244E-18
 37.6425247   -3.85529238E-18
 37.769558   -3.855291966E-18
 37.8965874   -3.855285762E-18
 38.0236206   -3.8552717E-18
 38.1506538   -3.855251848E-18
 38.2776871   -3.855224137E-18
 38.4047203   -3.855190223E-18
 38.5317535   -3.855150518E-18
 38.6587868   -3.85510585E-18
 38.7858162   -3.85505622E-18
 38.9128494   -3.855004107E-18
 39.0398827   -3.854950754E-18
 39.1669159   -3.85489616E-18
 39.2939491   -3.854842807E-18
 39.4209824   -3.854791522E-18
 39.5480118   -3.854742718E-18
 39.675045   -3.85469805E-18
 39.8020782   -3.854657519E-18
 39.9291115   -3.854621536E-18
 40.0561447   -3.85458969E-18
 40.1831779   -3.854561152E-18
 40.3102074   -3.854535923E-18
 40.4372406   -3.854512762E-18
 40.5642738   -3.854490842E-18
 40.6913071   -3.854469749E-18
 40.8183403   -3.854447001E-18
 40.9453735   -3.854422599E-18
 41.0724068   -3.854395716E-18
 41.1994362   -3.854365524E-18
 41.3264694   -3.854332023E-18
 41.4535027   -3.854295213E-18
 41.5805359   -3.854255095E-18
 41.7075691   -3.854212909E-18
 41.8346024   -3.854169482E-18
 41.9616318   -3.854124814E-18
 42.088665   -3.854081387E-18
 42.2156982   -3.854039201E-18
 42.3427315   -3.853998669E-18
 42.4697647   -3.853960619E-18
 42.5967979   -3.853925877E-18
 42.7238312   -3.853893617E-18
 42.8508606   -3.853863425E-18
 42.9778938   -3.853835301E-18
 43.1049271   -3.853808831E-18
 43.2319603   -3.853784016E-18
 43.3589935   -3.853760028E-18
 43.4860268   -3.853736867E-18
 43.6130562   -3.853713292E-18
 43.7400894   -3.853690544E-18
 43.8671227   -3.853667383E-18
 43.9941559   -3.853644222E-18
 44.1211891   -3.853620648E-18
 44.2482224   -3.853597073E-18
 44.3752556   -3.853572258E-18
 44.502285   -3.853547029E-18
 44.6293182   -3.853519732E-18
 44.7563515   -3.85349078E-18
 44.8833847   -3.853459347E-18
 45.0104179   -3.853425019E-18
 45.1374512   -3.853387383E-18
 45.2644806   -3.853346024E-18
 45.3915138   -3.85330177E-18
 45.5185471   -3.85325338E-18
 45.6455803   -3.853202921E-18
 45.7726135   -3.853150809E-18
 45.8996468   -3.85309911E-18
 46.02668   -3.853048652E-18
 46.1537094   -3.853000676E-18
 46.2807426   -3.852956422E-18
 46.4077759   -3.852918785E-18
 46.5348091   -3.852886525E-18
 46.6618423   -3.852861296E-18
 46.7888756   -3.852842271E-18
 46.915905   -3.852829863E-18
 47.0429382   -3.852822005E-18
 47.1699715   -3.852816628E-18
 47.2970047   -3.852812492E-18
 47.4240379   -3.852807943E-18
 47.5510712   -3.852799671E-18
 47.6781044   -3.852787263E-18
 47.8051338   -3.852768652E-18
 47.9321671   -3.852742595E-18
 48.0592003   -3.852709508E-18
 48.1862335   -3.852669804E-18
 48.3132668   -3.852624309E-18
 48.4403   -3.852574264E-18
 48.5673294   -3.852521738E-18
 48.6943626   -3.852467558E-18
 48.8213959   -3.852414618E-18
 48.9484291   -3.85236292E-18
 49.0754623   -3.852315357E-18
 49.2024956   -3.852271103E-18
 49.3295288   -3.852230157E-18
 49.4565582   -3.852191693E-18
 49.5835915   -3.852156538E-18
 49.7106247   -3.85212221E-18
 49.8376579   -3.852087468E-18
 49.9646912   -3.8520519E-18
 50.0917244   -3.852013022E-18
 50.2187538   -3.85197125E-18
 50.345787   -3.851925755E-18
 50.4728203   -3.851876537E-18
 50.5998535   -3.851824425E-18
 50.7268867   -3.851769831E-18
 50.85392   -3.851713996E-18
 50.9809532   -3.851658575E-18
 51.1079826   -3.851604395E-18
 51.2350159   -3.851552283E-18
 51.3620491   -3.851503479E-18
 51.4890823   -3.85145757E-18
 51.6161156   -3.851415798E-18
 51.7431488   -3.851378161E-18
 51.8701782   -3.851343833E-18
 51.9972115   -3.851311987E-18
 52.1242447   -3.851281795E-18
 52.2512779   -3.85125243E-18
 52.3783112   -3.851224305E-18
 52.5053444   -3.851197009E-18
 52.6323776   -3.851169298E-18
 52.759407   -3.851142001E-18
 52.8864403   -3.851115118E-18
 53.0134735   -3.851090302E-18
 53.1405067   -3.851065487E-18
 53.26754   -3.851042739E-18
 53.3945732   -3.851021646E-18
 53.5216026   -3.851001794E-18
 53.6486359   -3.850982355E-18
 53.7756691   -3.850962089E-18
 53.9027023   -3.850939755E-18
 54.0297356   -3.850914113E-18
 54.1567688   -3.850883921E-18
 54.283802   -3.850847111E-18
 54.4108315   -3.850802857E-18
 54.5378647   -3.850750331E-18
 54.6648979   -3.850689947E-18
 54.7919312   -3.850620877E-18
 54.9189644   -3.85054519E-18
 55.0459976   -3.850463299E-18
 55.173027   -3.850377273E-18
 55.3000603   -3.850288764E-18
 55.4270935   -3.850200669E-18
 55.5541267   -3.850114643E-18
 55.68116   -3.850032338E-18
 55.8081932   -3.849955824E-18
 55.9352264   -3.849885927E-18
 56.0622559   -3.849823475E-18
 56.1892891   -3.84976764E-18
 56.3163223   -3.849718837E-18
 56.4433556   -3.849676237E-18
 56.5703888   -3.849638187E-18
 56.697422   -3.849602618E-18
 56.8244514   -3.849567463E-18
 56.9514847   -3.849532308E-18
 57.0785179   -3.849494257E-18
 57.2055511   -3.849451657E-18
 57.3325844   -3.849403267E-18
 57.4596176   -3.849349501E-18
 57.5866508   -3.849290357E-18
 57.7136803   -3.849225424E-18
 57.8407135   -3.84915594E-18
 57.9677467   -3.849082735E-18
 58.09478   -3.849007875E-18
 58.2218132   -3.848934256E-18
 58.3488464   -3.848861878E-18
 58.4758759   -3.848792394E-18
 58.6029091   -3.848727047E-18
 58.7299423   -3.848666663E-18
 58.8569756   -3.848611655E-18
 58.9840088   -3.848562025E-18
 59.111042   -3.84851653E-18
 59.2380753   -3.848475171E-18
 59.3651047   -3.848436707E-18
 59.4921379   -3.848400724E-18
 59.6191711   -3.848366396E-18
 59.7462044   -3.848333309E-18
 59.8732376   -3.848300636E-18
 60.0002708   -3.848266308E-18
 60.1273003   -3.848231152E-18
 60.2543335   -3.848194343E-18
 60.3813667   -3.848155879E-18
 60.5084   -3.848115761E-18
 60.6354332   -3.848072747E-18
 60.7624664   -3.848027666E-18
 60.8894997   -3.847979276E-18
 61.0165291   -3.847927991E-18
 61.1435623   -3.847873397E-18
 61.2705956   -3.847815908E-18
 61.3976288   -3.84775511E-18
 61.524662   -3.847691003E-18
 61.6516953   -3.847624829E-18
 61.7787247   -3.847556587E-18
 61.9057579   -3.847487517E-18
 62.0327911   -3.847418861E-18
 62.1598244   -3.847351032E-18
 62.2868576   -3.847284444E-18
 62.4138908   -3.847219924E-18
 62.5409203   -3.847158299E-18
 62.6679535   -3.847099569E-18
 62.7949867   -3.847043735E-18
 62.92202   -3.846990381E-18
 63.0490532   -3.846938683E-18
 63.1760864   -3.846888225E-18
 63.3031197   -3.846837353E-18
 63.4301491   -3.846786068E-18
 63.5571823   -3.846731474E-18
 63.6842155   -3.846673985E-18
 63.8112488   -3.846611946E-18
 63.938282   -3.846545772E-18
 64.0653152   -3.846474221E-18
 64.1923447   -3.846398534E-18
 64.3193817   -3.846317884E-18
 64.4464111   -3.846234338E-18
 64.5734482   -3.846147484E-18
 64.7004776   -3.846060217E-18
 64.827507   -3.845973777E-18
 64.9545441   -3.845888991E-18
 65.0815735   -3.845806686E-18
 65.2086105   -3.84572769E-18
 65.33564   -3.845653244E-18
 65.4626694   -3.845582107E-18
 65.5897064   -3.845515518E-18
 65.7167358   -3.845451826E-18
 65.8437729   -3.845391441E-18
 65.9708023   -3.845331884E-18
 66.0978394   -3.845273568E-18
 66.2248688   -3.845215252E-18
 66.3518982   -3.845156522E-18
 66.4789352   -3.845096551E-18
 66.6059647   -3.845035754E-18
 66.7330017   -3.844973715E-18
 66.8600311   -3.844911263E-18
 66.9870682   -3.844848811E-18
 67.1140976   -3.84478884E-18
 67.241127   -3.844730524E-18
 67.3681641   -3.844674689E-18
 67.4951935   -3.844622577E-18
 67.6222305   -3.844573773E-18
 67.7492599   -3.844527865E-18
 67.876297   -3.844485265E-18
 68.0033264   -3.844444733E-18
 68.1303558   -3.844405028E-18
 68.2573929   -3.844365737E-18
 68.3844223   -3.844324792E-18
 68.5114594   -3.844280538E-18
 68.6384888   -3.844233389E-18
 68.7655182   -3.844181276E-18
 68.8925552   -3.844123373E-18
 69.0195847   -3.844060094E-18
 69.1466217   -3.843991438E-18
 69.2736511   -3.843917406E-18
 69.4006882   -3.843839651E-18
 69.5277176   -3.843758173E-18
 69.654747   -3.843674628E-18
 69.7817841   -3.843590256E-18
 69.9088135   -3.843507124E-18
 70.0358505   -3.84342606E-18
 70.1628799   -3.843347892E-18
 70.289917   -3.843273032E-18
 70.4169464   -3.843202721E-18
 70.5439758   -3.843136133E-18
 70.6710129   -3.843073268E-18
 70.7980423   -3.843013297E-18
 70.9250793   -3.842954981E-18
 71.0521088   -3.842896665E-18
 71.1791458   -3.842837521E-18
 71.3061752   -3.84277631E-18
 71.4332047   -3.842710963E-18
 71.5602417   -3.842641893E-18
 71.6872711   -3.842568274E-18
 71.8143082   -3.842489692E-18
 71.9413376   -3.842405733E-18
 72.068367   -3.842318052E-18
 72.1954041   -3.842227476E-18
 72.3224335   -3.842134831E-18
 72.4494705   -3.842040946E-18
 72.5764999   -3.841947888E-18
 72.703537   -3.841856485E-18
 72.8305664   -3.841768804E-18
 72.9575958   -3.841684845E-18
 73.0846329   -3.841605849E-18
 73.2116623   -3.841532644E-18
 73.3386993   -3.841464401E-18
 73.4657288   -3.841401949E-18
 73.5927658   -3.841344874E-18
 73.7197952   -3.841291934E-18
 73.8468246   -3.841242717E-18
 73.9738617   -3.841196808E-18
 74.1008911   -3.841153795E-18
 74.2279282   -3.841112436E-18
 74.3549576   -3.841072318E-18
 74.481987   -3.841032613E-18
 74.609024   -3.840992908E-18
 74.7360535   -3.840953204E-18
 74.8630905   -3.840913086E-18
 74.9901199   -3.840872554E-18
 75.117157   -3.840831195E-18
 75.2441864   -3.840789422E-18
 75.3712158   -3.840747236E-18
 75.4982529   -3.840704636E-18
 75.6252823   -3.840661209E-18
 75.7523193   -3.840616955E-18
 75.8793488   -3.84057146E-18
 76.0063858   -3.840524724E-18
 76.1334152   -3.840476334E-18
 76.2604446   -3.840427117E-18
 76.3874817   -3.840376245E-18
 76.5145111   -3.840323306E-18
 76.6415482   -3.840268712E-18
 76.7685776   -3.84021205E-18
 76.8956146   -3.840152907E-18
 77.022644   -3.840092109E-18
 77.1496735   -3.840028829E-18
 77.2767105   -3.839963482E-18
 77.4037399   -3.839896481E-18
 77.530777   -3.839827411E-18
 77.6578064   -3.839757101E-18
 77.7848358   -3.839684309E-18
 77.9118729   -3.839609449E-18
 78.0389023   -3.839532108E-18
 78.1659393   -3.839452285E-18
 78.2929688   -3.839370394E-18
 78.4200058   -3.839286435E-18
 78.5470352   -3.839200408E-18
 78.6740646   -3.839112313E-18
 78.8011017   -3.839023805E-18
 78.9281311   -3.83893447E-18
 79.0551682   -3.838845548E-18
 79.1821976   -3.838759107E-18
 79.3092346   -3.838675562E-18
 79.436264   -3.838596153E-18
 79.5632935   -3.838520466E-18
 79.6903305   -3.838450569E-18
 79.8173599   -3.838385222E-18
 79.944397   -3.83832401E-18
 80.0714264   -3.838266935E-18
 80.1984634   -3.838212754E-18
 80.3254929   -3.838161469E-18
 80.4525223   -3.838110184E-18
 80.5795593   -3.838058485E-18
 80.7065887   -3.838004719E-18
 80.8336258   -3.837948884E-18
 80.9606552   -3.837889327E-18
 81.0876846   -3.837826875E-18
 81.2147217   -3.837761527E-18
 81.3417511   -3.837692458E-18
 81.4687881   -3.837621734E-18
 81.5958176   -3.837549356E-18
 81.7228546   -3.837475737E-18
 81.849884   -3.837401704E-18
 81.9769135   -3.837327671E-18
 82.1039505   -3.837254879E-18
 82.2309799   -3.837183742E-18
 82.358017   -3.837114259E-18
 82.4850464   -3.837046016E-18
 82.6120834   -3.836979428E-18
 82.7391129   -3.836914081E-18
 82.8661423   -3.836849147E-18
 82.9931793   -3.836784214E-18
 83.1202087   -3.836718866E-18
 83.2472458   -3.836652692E-18
 83.3742752   -3.836584449E-18
 83.5013123   -3.836514966E-18
 83.6283417   -3.836444242E-18
 83.7553711   -3.83637145E-18
 83.8824081   -3.836298245E-18
 84.0094376   -3.836224626E-18
 84.1364746   -3.836150593E-18
 84.263504   -3.836076974E-18
 84.3905334   -3.836003769E-18
 84.5175705   -3.835932631E-18
 84.6445999   -3.835862734E-18
 84.771637   -3.835794078E-18
 84.8986664   -3.835727904E-18
 85.0257034   -3.835663797E-18
 85.1527328   -3.835600518E-18
 85.2797623   -3.835537239E-18
 85.4067993   -3.835473959E-18
 85.5338287   -3.83541068E-18
 85.6608658   -3.835345333E-18
 85.7878952   -3.835278745E-18
 85.9149323   -3.835209675E-18
 86.0419617   -3.835139365E-18
 86.1689911   -3.835066159E-18
 86.2960281   -3.8349913E-18
 86.4230576   -3.834916026E-18
 86.5500946   -3.834839512E-18
 86.677124   -3.834762584E-18
 86.8041611   -3.83468607E-18
 86.9311905   -3.834610383E-18
 87.0582199   -3.83453635E-18
 87.185257   -3.834463558E-18
 87.3122864   -3.834392007E-18
 87.4393234   -3.83432211E-18
 87.5663528   -3.834253454E-18
 87.6933823   -3.834184798E-18
 87.8204193   -3.83411697E-18
 87.9474487   -3.834048314E-18
 88.0744858   -3.833979244E-18
 88.2015152   -3.83390852E-18
 88.3285522   -3.833836142E-18
 88.4555817   -3.833762523E-18
 88.5826111   -3.833687663E-18
 88.7096481   -3.833612389E-18
 88.8366776   -3.833537116E-18
 88.9637146   -3.833463083E-18
 89.090744   -3.833391119E-18
 89.2177811   -3.833321222E-18
 89.3448105   -3.833254634E-18
 89.4718399   -3.833190941E-18
 89.598877   -3.833131384E-18
 89.7259064   -3.833074308E-18
 89.8529434   -3.833019715E-18
 89.9799728   -3.832966775E-18
 90.1070099   -3.832914663E-18
 90.2340393   -3.832861723E-18
 90.3610687   -3.832807956E-18
 90.4881058   -3.832751294E-18
 90.6151352   -3.832691737E-18
 90.7421722   -3.832627631E-18
 90.8692017   -3.832559802E-18
 90.9962311   -3.83248701E-18
 91.1232681   -3.83241091E-18
 91.2502975   -3.8323315E-18
 91.3773346   -3.832248782E-18
 91.504364   -3.832163996E-18
 91.6314011   -3.832077969E-18
 91.7584305   -3.831991529E-18
 91.8854599   -3.831905089E-18
 92.0124969   -3.831818648E-18
 92.1395264   -3.831733862E-18
 92.2665634   -3.83164949E-18
 92.3935928   -3.831566358E-18
 92.5206299   -3.831484881E-18
 92.6476593   -3.831403817E-18
 92.7746887   -3.831323994E-18
 92.9017258   -3.831244585E-18
 93.0287552   -3.831166003E-18
 93.1557922   -3.831087834E-18
 93.2828217   -3.831010906E-18
 93.4098587   -3.83093646E-18
 93.5368881   -3.830864082E-18
 93.6639175   -3.830795012E-18
 93.7909546   -3.830730492E-18
 93.917984   -3.830670935E-18
 94.0450211   -3.830617168E-18
 94.1720505   -3.830570019E-18
 94.2990799   -3.83052866E-18
 94.4261169   -3.830493091E-18
 94.5531464   -3.830462486E-18
 94.6801834   -3.830434362E-18
 94.8072128   -3.830406651E-18
 94.9342499   -3.830376459E-18
 95.0612793   -3.83034089E-18
 95.1883087   -3.83029705E-18
 95.3153458   -3.830240801E-18
 95.4423752   -3.830170077E-18
 95.5694122   -3.83008281E-18
 95.6964417   -3.829976103E-18
 95.8234787   -3.829850372E-18
 95.9505081   -3.829705615E-18
 96.0775375   -3.829543902E-18
 96.2045746   -3.829367299E-18
 96.331604   -3.829178701E-18
 96.4586411   -3.828983487E-18
 96.5856705   -3.828787445E-18
 96.7126999   -3.828596366E-18
 96.8397369   -3.828416454E-18
 96.9667664   -3.828254741E-18
 97.0938034   -3.828117429E-18
 97.2208328   -3.828012377E-18
 97.3478699   -3.827944548E-18
 97.4748993   -3.827918492E-18
 97.6019287   -3.827938758E-18
 97.7289658   -3.828006173E-18
 97.8559952   -3.828121978E-18
 97.9830322   -3.828284106E-18
 98.1100616   -3.828488006E-18
 98.2370987   -3.828726647E-18
 98.3641281   -3.828991759E-18
 98.4911575   -3.829270518E-18
 98.6181946   -3.829549692E-18
 98.745224   -3.829813976E-18
 98.872261   -3.830046414E-18
 98.9992905   -3.830228394E-18
 99.1263275   -3.830342958E-18
 99.2533569   -3.830372323E-18
 99.3803864   -3.830301599E-18
 99.5074234   -3.830117551E-18
 99.6344528   -3.829811081E-18
 99.7614899   -3.829376811E-18
 99.8885193   -3.828813915E-18
 100.015549   -3.828128596E-18
 100.142586   -3.827331193E-18
 100.269615   -3.826438666E-18
 100.396652   -3.825473759E-18
 100.523682   -3.824466667E-18
 100.650719   -3.823450476E-18
 100.777748   -3.822463649E-18
 100.904778   -3.821546719E-18
 101.031815   -3.820743113E-18
 101.158844   -3.820095431E-18
 101.285881   -3.819645445E-18
 101.41291   -3.819429964E-18
 101.539948   -3.819481249E-18
 101.666977   -3.819823289E-18
 101.794006   -3.820470971E-18
 101.921043   -3.821429673E-18
 102.048073   -3.82269071E-18
 102.17511   -3.824232575E-18
 102.302139   -3.826021353E-18
 102.429176   -3.828009068E-18
 102.556206   -3.830133268E-18
 102.683235   -3.832321988E-18
 102.810272   -3.834491682E-18
 102.937302   -3.836550121E-18
 103.064339   -3.838400938E-18
 103.191368   -3.839943216E-18
 103.318398   -3.841079762E-18
 103.445435   -3.841717105E-18
 103.572464   -3.841772526E-18
 103.699501   -3.841176129E-18
 103.82653   -3.839877455E-18
 103.953568   -3.837847141E-18
 104.080597   -3.835081462E-18
 104.207626   -3.831605649E-18
 104.334663   -3.827475536E-18
 104.461693   -3.822779632E-18
 104.58873   -3.817637877E-18
 104.715759   -3.81220206E-18
 104.842796   -3.806650437E-18
 104.969826   -3.801188564E-18
 105.096855   -3.796038124E-18
 105.223892   -3.791434036E-18
 105.350922   -3.787616184E-18
 105.477959   -3.784816592E-18
 105.604988   -3.783254875E-18
 105.732025   -3.78312418E-18
 105.859055   -3.784581259E-18
 105.986084   -3.787739021E-18
 106.113121   -3.792653714E-18
 106.24015   -3.799318722E-18
 106.367188   -3.807658357E-18
 106.494217   -3.817522072E-18
 106.621246   -3.828683634E-18
 106.748283   -3.840841534E-18
 106.875313   -3.853623543E-18
 107.00235   -3.866593321E-18
 107.129379   -3.879260352E-18
 107.256416   -3.891095238E-18
 107.383446   -3.90154377E-18
 107.510475   -3.910048428E-18
 107.637512   -3.916067821E-18
 107.764542   -3.919100265E-18
 107.891579   -3.918706941E-18
 108.018608   -3.914535882E-18
 108.145645   -3.906343899E-18
 108.272675   -3.894018908E-18
 108.399704   -3.87759441E-18
 108.526741   -3.857268514E-18
 108.65377   -3.833407662E-18
 108.780807   -3.806553657E-18
 108.907837   -3.777419529E-18
 109.034874   -3.746880021E-18
 109.161903   -3.715955046E-18
 109.288933   -3.685785288E-18
 109.41597   -3.657600763E-18
 109.542999   -3.632682774E-18
 109.670036   -3.612320482E-18
 109.797066   -3.597763344E-18
 109.924095   -3.590166104E-18
 110.051132   -3.590539576E-18
 110.178162   -3.599692743E-18
 110.305199   -3.61818602E-18
 110.432228   -3.646278728E-18
 110.559265   -3.683895594E-18
 110.686295   -3.730590353E-18
 110.813324   -3.78552714E-18
 110.940361   -3.847472214E-18
 111.06739   -3.914802235E-18
 111.194427   -3.985523695E-18
 111.321457   -4.057313046E-18
 111.448494   -4.12757294E-18
 111.575523   -4.193498408E-18
 111.702553   -4.252167434E-18
 111.82959   -4.300634841E-18
 111.956619   -4.336043548E-18
 112.083656   -4.355739545E-18
 112.210686   -4.357393079E-18
 112.337723   -4.339117351E-18
 112.464752   -4.299584322E-18
 112.591782   -4.238128111E-18
 112.718819   -4.1548364E-18
 112.845848   -4.050620328E-18
 112.972885   -3.927264538E-18
 113.099915   -3.787441236E-18
 113.226944   -3.634702749E-18
 113.353981   -3.473431481E-18
 113.48101   -3.308758639E-18
 113.608047   -3.146446778E-18
 113.735077   -2.992736147E-18
 113.862114   -2.854158579E-18
 113.989143   -2.737323867E-18
 114.116173   -2.648679471E-18
 114.24321   -2.594257397E-18
 114.370239   -2.579407644E-18
 114.497276   -2.608535982E-18
 114.624306   -2.68484815E-18
 114.751343   -2.8101139E-18
 114.878372   -2.984466409E-18
 115.005402   -3.206238081E-18
 115.132439   -3.471850739E-18
 115.259468   -3.775767649E-18
 115.386505   -4.110510272E-18
 115.513535   -4.46675132E-18
 115.640572   -4.833485566E-18
 115.767601   -5.198278834E-18
 115.89463   -5.547592657E-18
 116.021667   -5.867182986E-18
 116.148697   -6.142560097E-18