 -7.19999981   1.090837898E-17
 -7.07315636   1.090838477E-17
 -6.9463129   1.090839552E-17
 -6.81946898   1.090840959E-17
 -6.69262552   1.09084253E-17
 -6.56578159   1.090844102E-17
 -6.43893814   1.090845508E-17
 -6.31209469   1.090846583E-17
 -6.18525076   1.090847163E-17
 -6.05840731   1.090847328E-17
 -5.93156338   1.090846997E-17
 -5.80471992   1.090846418E-17
 -5.67787647   1.090845756E-17
 -5.55103254   1.090845177E-17
 -5.42418909   1.090845012E-17
 -5.29734564   1.090845425E-17
 -5.17050171   1.090846666E-17
 -5.04365826   1.0908489E-17
 -4.91681433   1.090852043E-17
 -4.78997087   1.090856096E-17
 -4.66312742   1.090860976E-17
 -4.53628349   1.090866353E-17
 -4.40944004   1.090871978E-17
 -4.28259611   1.090877603E-17
 -4.15575266   1.090882731E-17
 -4.02890921   1.090887198E-17
 -3.90206528   1.090890755E-17
 -3.77522182   1.090893402E-17
 -3.64837813   1.090895056E-17
 -3.52153444   1.090895883E-17
 -3.39469075   1.090896049E-17
 -3.2678473   1.090895883E-17
 -3.14100361   1.090895635E-17
 -3.01415992   1.090895635E-17
 -2.88731623   1.090896049E-17
 -2.76047254   1.090897124E-17
 -2.63362908   1.090898861E-17
 -2.50678539   1.090901343E-17
 -2.3799417   1.090904486E-17
 -2.25309801   1.090907795E-17
 -2.12625432   1.090911269E-17
 -1.99941075   1.090914578E-17
 -1.87256718   1.09091739E-17
 -1.74572349   1.090919624E-17
 -1.61887991   1.090920947E-17
 -1.49203622   1.090921526E-17
 -1.36519253   1.090921112E-17
 -1.23834896   1.090920037E-17
 -1.11150527   1.090918465E-17
 -0.984661698   1.090916563E-17
 -0.857818007   1.090914578E-17
 -0.730974376   1.090912758E-17
 -0.604130745   1.090911269E-17
 -0.477287114   1.090910028E-17
 -0.350443482   1.090909118E-17
 -0.223599836   1.090908457E-17
 -9.675619751E-2   1.090907795E-17
 3.008744121E-2   1.090906968E-17
 0.156931072   1.090905561E-17
 0.283774734   1.090903494E-17
 0.410618365   1.09090035E-17
 0.537461996   1.090896132E-17
 0.664305627   1.09089092E-17
 0.791149259   1.090884717E-17
 0.91799289   1.090877851E-17
 1.04483652   1.090870489E-17
 1.17168021   1.09086321E-17
 1.29852378   1.090856261E-17
 1.42536747   1.090849975E-17
 1.55221117   1.090844846E-17
 1.67905474   1.09084071E-17
 1.80589843   1.090837815E-17
 1.932742   1.090835913E-17
 2.05958557   1.090835003E-17
 2.18642926   1.090834507E-17
 2.31327295   1.090834341E-17
 2.44011664   1.09083401E-17
 2.56696033   1.090833431E-17
 2.69380379   1.090832273E-17
 2.82064748   1.090830619E-17
 2.94749117   1.090828468E-17
 3.07433486   1.090825987E-17
 3.20117831   1.090823422E-17
 3.328022   1.090821189E-17
 3.45486569   1.090819452E-17
 3.58170938   1.090818625E-17
 3.70855308   1.090818873E-17
 3.83539653   1.090820196E-17
 3.96224022   1.090822678E-17
 4.08908367   1.090826152E-17
 4.2159276   1.090830371E-17
 4.34277105   1.090835086E-17
 4.46961498   1.090839966E-17
 4.59645844   1.090844681E-17
 4.72330189   1.0908489E-17
 4.85014582   1.090852456E-17
 4.97698927   1.090855269E-17
 5.1038332   1.090857254E-17
 5.23067665   1.090858495E-17
 5.3575201   1.090859157E-17
 5.48436403   1.090859487E-17
 5.61120749   1.090859818E-17
 5.73805141   1.09086048E-17
 5.86489487   1.090861638E-17
 5.99173832   1.090863541E-17
 6.11858225   1.09086627E-17
 6.2454257   1.09086991E-17
 6.37226963   1.090874294E-17
 6.49911308   1.090879423E-17
 6.62595654   1.090884965E-17
 6.75280046   1.090890589E-17
 6.87964392   1.090896049E-17
 7.00648737   1.090901177E-17
 7.1333313   1.090905727E-17
 7.26017475   1.090909532E-17
 7.38701868   1.090912675E-17
 7.51386213   1.090915157E-17
 7.64070559   1.090917142E-17
 7.76754951   1.090918879E-17
 7.89439297   1.090920616E-17
 8.02123642   1.090922519E-17
 8.14808083   1.090924835E-17
 8.27492428   1.090927647E-17
 8.40176773   1.090931121E-17
 8.52861118   1.090935092E-17
 8.65545464   1.090939641E-17
 8.78229809   1.090944439E-17
 8.90914249   1.090949485E-17
 9.03598595   1.090954448E-17
 9.1628294   1.090958997E-17
 9.28967285   1.090963299E-17
 9.4165163   1.090966856E-17
 9.54336071   1.090969916E-17
 9.67020416   1.090972315E-17
 9.79704762   1.090974135E-17
 9.92389107   1.090975541E-17
 10.0507345   1.090976616E-17
 10.1775789   1.090977609E-17
 10.3044224   1.090978684E-17
 10.4312658   1.090980008E-17
 10.5581093   1.090981745E-17
 10.6849527   1.090983895E-17
 10.8117971   1.09098646E-17
 10.9386406   1.09098952E-17
 11.065484   1.090992994E-17
 11.1923275   1.090996634E-17
 11.319171   1.091000439E-17
 11.4460154   1.091004079E-17
 11.5728588   1.091007553E-17
 11.6997023   1.091010696E-17
 11.8265457   1.091013426E-17
 11.9533892   1.091015742E-17
 12.0802336   1.091017644E-17
 12.207077   1.091019133E-17
 12.3339205   1.091020457E-17
 12.4607639   1.091021698E-17
 12.5876074   1.091022938E-17
 12.7144518   1.091024262E-17
 12.8412952   1.091025916E-17
 12.9681387   1.091027819E-17
 13.0949821   1.091030135E-17
 13.2218256   1.091032616E-17
 13.34867   1.091035263E-17
 13.4755135   1.091037745E-17
 13.6023569   1.091040061E-17
 13.7292004   1.091042046E-17
 13.8560438   1.091043618E-17
 13.9828882   1.091044528E-17
 14.1097317   1.091044941E-17
 14.2365751   1.091044859E-17
 14.3634186   1.09104428E-17
 14.490262   1.091043618E-17
 14.6171055   1.091042873E-17
 14.7439499   1.091042294E-17
 14.8707933   1.091042046E-17
 14.9976368   1.091042212E-17
 15.1244802   1.091042956E-17
 15.2513237   1.09104428E-17
 15.3781681   1.091046099E-17
 15.5050116   1.091048416E-17
 15.631855   1.09105098E-17
 15.7586985   1.091053792E-17
 15.8855419   1.091056522E-17
 16.0123863   1.091059086E-17
 16.1392288   1.091061237E-17
 16.2660732   1.091063139E-17
 16.3929176   1.091064463E-17
 16.5197601   1.091065455E-17
 16.6466045   1.091066034E-17
 16.773447   1.091066283E-17
 16.9002914   1.091066448E-17
 17.0271358   1.091066614E-17
 17.1539783   1.091067027E-17
 17.2808228   1.091067689E-17
 17.4076653   1.091068847E-17
 17.5345097   1.091070501E-17
 17.6613541   1.091072652E-17
 17.7881966   1.091075051E-17
 17.915041   1.091077698E-17
 18.0418835   1.091080345E-17
 18.1687279   1.091082744E-17
 18.2955723   1.091084729E-17
 18.4224148   1.091086218E-17
 18.5492592   1.09108721E-17
 18.6761017   1.091087541E-17
 18.8029461   1.091087458E-17
 18.9297905   1.091086962E-17
 19.056633   1.091086383E-17
 19.1834774   1.091085887E-17
 19.3103199   1.091085639E-17
 19.4371643   1.09108597E-17
 19.5640087   1.091086879E-17
 19.6908512   1.091088451E-17
 19.8176956   1.091090684E-17
 19.9445381   1.09109358E-17
 20.0713825   1.091096971E-17
 20.1982269   1.091100776E-17
 20.3250694   1.091104664E-17
 20.4519138   1.091108634E-17
 20.5787563   1.091112439E-17
 20.7056007   1.091116079E-17
 20.8324451   1.091119388E-17
 20.9592876   1.091122365E-17
 21.086132   1.09112493E-17
 21.2129745   1.091127329E-17
 21.339819   1.091129562E-17
 21.4666634   1.09113163E-17
 21.5935059   1.091133698E-17
 21.7203503   1.091135766E-17
 21.8471928   1.091137916E-17
 21.9740372   1.09114015E-17
 22.1008816   1.091142383E-17
 22.2277241   1.091144617E-17
 22.3545685   1.091146767E-17
 22.481411   1.091148835E-17
 22.6082554   1.091150572E-17
 22.7350998   1.091152061E-17
 22.8619423   1.091153137E-17
 22.9887867   1.091153798E-17
 23.1156292   1.091154129E-17
 23.2424736   1.091154212E-17
 23.369318   1.091154129E-17
 23.4961605   1.091154129E-17
 23.6230049   1.091154295E-17
 23.7498474   1.091154874E-17
 23.8766918   1.091155866E-17
 24.0035343   1.091157355E-17
 24.1303787   1.091159423E-17
 24.2572231   1.091161987E-17
 24.3840656   1.091164965E-17
 24.51091   1.091168109E-17
 24.6377525   1.091171335E-17
 24.7645969   1.091174478E-17
 24.8914413   1.09117729E-17
 25.0182838   1.091179689E-17
 25.1451283   1.091181592E-17
 25.2719707   1.091182998E-17
 25.3988152   1.091183825E-17
 25.5256596   1.091184239E-17
 25.6525021   1.091184321E-17
 25.7793465   1.091184321E-17
 25.906189   1.091184239E-17
 26.0330334   1.091184321E-17
 26.1598778   1.091184569E-17
 26.2867203   1.091185148E-17
 26.4135647   1.091186141E-17
 26.5404072   1.09118763E-17
 26.6672516   1.091189533E-17
 26.794096   1.091191766E-17
 26.9209385   1.091194247E-17
 27.0477829   1.091196977E-17
 27.1746254   1.09119979E-17
 27.3014698   1.091202437E-17
 27.4283142   1.091205001E-17
 27.5551567   1.091207317E-17
 27.6820011   1.091209468E-17
 27.8088436   1.091211453E-17
 27.935688   1.091213355E-17
 28.0625324   1.091215258E-17
 28.1893749   1.091217491E-17
 28.3162193   1.091219973E-17
 28.4430618   1.091222951E-17
 28.5699062   1.091226508E-17
 28.6967506   1.091230643E-17
 28.8235931   1.091235276E-17
 28.9504375   1.091240239E-17
 29.07728   1.091245367E-17
 29.2041245   1.091250496E-17
 29.3309689   1.091255376E-17
 29.4578114   1.09125976E-17
 29.5846558   1.0912634E-17
 29.7114983   1.091266295E-17
 29.8383427   1.091268363E-17
 29.9651871   1.091269686E-17
 30.0920296   1.091270431E-17
 30.218874   1.091270762E-17
 30.3457165   1.091270927E-17
 30.4725609   1.091271258E-17
 30.5994053   1.091271837E-17
 30.7262478   1.091273078E-17
 30.8530922   1.09127498E-17
 30.9799347   1.09127771E-17
 31.1067791   1.091281101E-17
 31.2336235   1.091285237E-17
 31.360466   1.091289704E-17
 31.4873104   1.091294254E-17
 31.6141529   1.091298803E-17
 31.7409973   1.091302939E-17
 31.8678417   1.091306579E-17
 31.9946842   1.091309391E-17
 32.1215286   1.091311376E-17
 32.2483711   1.091312534E-17
 32.3752136   1.091312948E-17
 32.5020599   1.091312782E-17
 32.6289024   1.091312369E-17
 32.7557449   1.091311955E-17
 32.8825912   1.091311873E-17
 33.0094337   1.091312369E-17
 33.1362762   1.091313692E-17
 33.2631226   1.091315843E-17
 33.3899651   1.091318904E-17
 33.5168076   1.091322709E-17
 33.6436501   1.09132701E-17
 33.7704964   1.091331559E-17
 33.8973389   1.091336109E-17
 34.0241814   1.091340245E-17
 34.1510277   1.091343967E-17
 34.2778702   1.09134711E-17
 34.4047127   1.091349675E-17
 34.531559   1.09135166E-17
 34.6584015   1.091353397E-17
 34.785244   1.091354969E-17
 34.9120865   1.091356871E-17
 35.0389328   1.091359187E-17
 35.1657753   1.091362248E-17
 35.2926178   1.091366218E-17
 35.4194641   1.091371099E-17
 35.5463066   1.091376724E-17
 35.6731491   1.09138301E-17
 35.7999954   1.091389793E-17
 35.9268379   1.091396741E-17
 36.0536804   1.091403607E-17
 36.1805229   1.091409976E-17
 36.3073692   1.091415766E-17
 36.4342117   1.091420812E-17
 36.5610542   1.091425196E-17
 36.6879005   1.091428836E-17
 36.814743   1.091431896E-17
 36.9415855   1.091434543E-17
 37.0684319   1.091437025E-17
 37.1952744   1.091439589E-17
 37.3221169   1.091442402E-17
 37.4489594   1.09144571E-17
 37.5758057   1.091449598E-17
 37.7026482   1.091453982E-17
 37.8294907   1.09145878E-17
 37.956337   1.091463991E-17
 38.0831795   1.091469368E-17
 38.210022   1.091474744E-17
 38.3368683   1.091479708E-17
 38.4637108   1.091484257E-17
 38.5905533   1.091488227E-17
 38.7173958   1.091491453E-17
 38.8442421   1.0914941E-17
 38.9710846   1.091496086E-17
 39.0979271   1.09149774E-17
 39.2247734   1.091499229E-17
 39.3516159   1.091500883E-17
 39.4784584   1.091503034E-17
 39.6053047   1.091505681E-17
 39.7321472   1.091509072E-17
 39.8589897   1.091513291E-17
 39.9858322   1.091518171E-17
 40.1126785   1.091523465E-17
 40.239521   1.091529173E-17
 40.3663635   1.091534963E-17
 40.4932098   1.091540423E-17
 40.6200523   1.091545468E-17
 40.7468948   1.091549852E-17
 40.8737411   1.091553492E-17
 41.0005836   1.091556387E-17
 41.1274261   1.091558621E-17
 41.2542686   1.091560275E-17
 41.381115   1.091561516E-17
 41.5079575   1.091562591E-17
 41.6348   1.091563666E-17
 41.7616463   1.091564907E-17
 41.8884888   1.091566479E-17
 42.0153313   1.091568381E-17
 42.1421776   1.091570697E-17
 42.2690201   1.091573344E-17
 42.3958626   1.091576239E-17
 42.5227051   1.0915793E-17
 42.6495514   1.091582443E-17
 42.7763939   1.091585504E-17
 42.9032364   1.091588399E-17
 43.0300827   1.091591129E-17
 43.1569252   1.091593693E-17
 43.2837677   1.091596175E-17
 43.4106102   1.091598491E-17
 43.5374565   1.091600807E-17
 43.664299   1.091603288E-17
 43.7911415   1.091606101E-17
 43.9179878   1.091609244E-17
 44.0448303   1.091612884E-17
 44.1716728   1.091617019E-17
 44.2985191   1.091621734E-17
 44.4253616   1.091626863E-17
 44.5522041   1.091632322E-17
 44.6790466   1.091637864E-17
 44.8058929   1.091643572E-17
 44.9327354   1.091649031E-17
 45.0595779   1.091653994E-17
 45.1864243   1.091658461E-17
 45.3132668   1.091662266E-17
 45.4401093   1.09166541E-17
 45.5669556   1.091667808E-17
 45.6937981   1.091669794E-17
 45.8206406   1.091671365E-17
 45.9474831   1.091672854E-17
 46.0743294   1.091674509E-17
 46.2011719   1.091676577E-17
 46.3280144   1.091679058E-17
 46.4548607   1.091682284E-17
 46.5817032   1.091686172E-17
 46.7085457   1.091690721E-17
 46.835392   1.091695684E-17
 46.9622345   1.091700978E-17
 47.089077   1.091706355E-17
 47.2159195   1.091711566E-17
 47.3427658   1.091716529E-17
 47.4696083   1.091721079E-17
 47.5964508   1.091725215E-17
 47.7232971   1.091728854E-17
 47.8501396   1.09173208E-17
 47.9769821   1.09173481E-17
 48.1038284   1.091737374E-17
 48.2306709   1.091739856E-17
 48.3575134   1.09174242E-17
 48.4843559   1.09174515E-17
 48.6112022   1.091748045E-17
 48.7380447   1.091751436E-17
 48.8648872   1.091755159E-17
 48.9917336   1.091759212E-17
 49.118576   1.091763513E-17
 49.2454185   1.09176798E-17
 49.3722649   1.091772364E-17
 49.4991074   1.0917765E-17
 49.6259499   1.091780222E-17
 49.7527924   1.091783366E-17
 49.8796387   1.091785764E-17
 50.0064812   1.091787336E-17
 50.1333237   1.091788329E-17
 50.26017   1.091788659E-17
 50.3870125   1.091788577E-17
 50.513855   1.091788246E-17
 50.6407013   1.091787915E-17
 50.7675438   1.091787915E-17
 50.8943863   1.091788329E-17
 51.0212288   1.091789156E-17
 51.1480751   1.091790562E-17
 51.2749176   1.091792299E-17
 51.4017601   1.091794284E-17
 51.5286064   1.091796352E-17
 51.6554489   1.091798255E-17
 51.7822914   1.091799909E-17
 51.9091377   1.091801067E-17
 52.0359802   1.091801729E-17
 52.1628227   1.091801977E-17
 52.2896652   1.091801977E-17
 52.4165115   1.091801812E-17
 52.543354   1.091801646E-17
 52.6701965   1.091801812E-17
 52.7970428   1.091802473E-17
 52.9238853   1.091803631E-17
 53.0507278   1.091805451E-17
 53.1775742   1.091808015E-17
 53.3044167   1.091811159E-17
 53.4312592   1.091814798E-17
 53.5581017   1.091818852E-17
 53.684948   1.091823236E-17
 53.8117905   1.091827702E-17
 53.938633   1.091832169E-17
 54.0654793   1.091836471E-17
 54.1923218   1.091840772E-17
 54.3191643   1.091844742E-17
 54.4460106   1.091848547E-17
 54.5728531   1.091852187E-17
 54.6996956   1.091855744E-17
 54.8265381   1.091859383E-17
 54.9533844   1.09186294E-17
 55.0802269   1.091866745E-17
 55.2070694   1.091870633E-17
 55.3339157   1.091874686E-17
 55.4607582   1.091878739E-17
 55.5876007   1.09188271E-17
 55.7144432   1.091886184E-17
 55.8412895   1.091888748E-17
 55.968132   1.09189032E-17
 56.0949745   1.09189032E-17
 56.2218208   1.091888583E-17
 56.3486633   1.091884612E-17
 56.4755058   1.091878491E-17
 56.6023521   1.091870054E-17
 56.7291946   1.091859301E-17
 56.8560371   1.091846397E-17
 56.9828796   1.091831673E-17
 57.109726   1.091815212E-17
 57.2365685   1.091797262E-17
 57.3634109   1.091778072E-17
 57.4902573   1.09175764E-17
 57.6170998   1.091736134E-17
 57.7439423   1.091713386E-17
 57.8707886   1.091689398E-17
 57.9976311   1.091663921E-17
 58.1244736   1.091636789E-17
 58.2513161   1.091607838E-17
 58.3781624   1.091577067E-17
 58.5050049   1.09154431E-17
 58.6318474   1.091509734E-17
 58.7586937   1.091473173E-17
 58.8855362   1.091434957E-17
 59.0123787   1.091395252E-17
 59.139225   1.091354224E-17
 59.2660675   1.091312203E-17
 59.39291   1.09126919E-17
 59.5197525   1.091225515E-17
 59.6465988   1.091181095E-17
 59.7734413   1.091136179E-17
 59.9002838   1.091090602E-17
 60.0271301   1.091044445E-17
 60.1539726   1.090997461E-17
 60.2808151   1.090949567E-17
 60.4076614   1.090900516E-17
 60.5345039   1.090850306E-17
 60.6613464   1.090798607E-17
 60.7881889   1.090745419E-17
 60.9150352   1.090690743E-17
 61.0418777   1.09063466E-17
 61.1687202   1.090577171E-17
 61.2955666   1.090518606E-17
 61.4224091   1.090459298E-17
 61.5492516   1.090399327E-17
 61.6760979   1.090339191E-17
 61.8029404   1.090279138E-17
 61.9297829   1.090219332E-17
 62.0566254   1.090159775E-17
 62.1834717   1.090100715E-17
 62.3103142   1.090041819E-17
 62.4371567   1.089983007E-17
 62.564003   1.089924029E-17
 62.6908455   1.089864803E-17
 62.817688   1.08980508E-17
 62.9445343   1.089744613E-17
 63.0713768   1.08968365E-17
 63.1982193   1.089622108E-17
 63.3250618   1.089560318E-17
 63.4519081   1.089498527E-17
 63.5787506   1.08943715E-17
 63.7055931   1.089376435E-17
 63.8324394   1.089316796E-17
 63.9592819   1.089258314E-17
 64.0861282   1.089201239E-17
 64.2129669   1.089145487E-17
 64.3398132   1.089090975E-17
 64.4666595   1.089037539E-17
 64.5934982   1.088984683E-17
 64.7203445   1.088932239E-17
 64.8471909   1.088879713E-17
 64.9740295   1.088826774E-17
 65.1008759   1.088773255E-17
 65.2277145   1.08871891E-17
 65.3545609   1.088663654E-17
 65.4814072   1.088607571E-17
 65.6082458   1.088550909E-17
 65.7350922   1.088493834E-17
 65.8619385   1.088436593E-17
 65.9887772   1.088379435E-17
 66.1156235   1.08832269E-17
 66.2424698   1.088266524E-17
 66.3693085   1.088210855E-17
 66.4961548   1.088155848E-17
 66.6230011   1.088101254E-17
 66.7498398   1.088046908E-17
 66.8766861   1.087992479E-17
 67.0035324   1.087937637E-17
 67.1303711   1.087881885E-17
 67.2572174   1.087825058E-17
 67.3840637   1.08776699E-17
 67.5109024   1.087707433E-17
 67.6377487   1.087646635E-17
 67.7645874   1.087584597E-17
 67.8914337   1.087521648E-17
 68.01828   1.087458038E-17
 68.1451187   1.087394345E-17
 68.271965   1.0873309E-17
 68.3988113   1.087267787E-17
 68.52565   1.087205417E-17
 68.6524963   1.087143709E-17
 68.7793427   1.087082829E-17
 68.9061813   1.087022362E-17
 69.0330276   1.086962061E-17
 69.159874   1.086901594E-17
 69.2867126   1.086840713E-17
 69.413559   1.086779171E-17
 69.5404053   1.086716636E-17
 69.667244   1.086653191E-17
 69.7940903   1.086588919E-17
 69.920929   1.086523903E-17
 70.0477753   1.086458638E-17
 70.1746216   1.086393208E-17
 70.3014603   1.086328027E-17
 70.4283066   1.086263341E-17
 70.5551529   1.086199235E-17
 70.6819916   1.08613579E-17
 70.8088379   1.086072759E-17
 70.9356842   1.086009976E-17
 71.0625229   1.08594711E-17
 71.1893692   1.085883913E-17
 71.3162155   1.085819724E-17
 71.4430542   1.08575446E-17
 71.5699005   1.085687706E-17
 71.6967468   1.085619298E-17
 71.8235855   1.085549319E-17
 71.9504318   1.085477685E-17
 72.0772781   1.085404562E-17
 72.2041168   1.085330364E-17
 72.3309631   1.085255422E-17
 72.4578018   1.085179817E-17
 72.5846481   1.085103965E-17
 72.7114944   1.085028112E-17
 72.8383331   1.08495226E-17
 72.9651794   1.08487649E-17
 73.0920258   1.084800803E-17
 73.2188644   1.084725116E-17
 73.3457108   1.084649264E-17
 73.4725571   1.084572998E-17
 73.5993958   1.084496401E-17
 73.7262421   1.08441939E-17
 73.8530884   1.084341966E-17
 73.9799271   1.084264294E-17
 74.1067734   1.084186704E-17
 74.2336197   1.084109528E-17
 74.3604584   1.084033097E-17
 74.4873047   1.083957906E-17
 74.614151   1.083884204E-17
 74.7409897   1.083812405E-17
 74.867836   1.083742674E-17
 74.9946747   1.083674928E-17
 75.121521   1.083609332E-17
 75.2483673   1.083545474E-17
 75.375206   1.083483187E-17
 75.5020523   1.083422058E-17
 75.6288986   1.083361674E-17
 75.7557373   1.083301786E-17
 75.8825836   1.083242147E-17
 76.0094299   1.083182672E-17
 76.1362686   1.083123364E-17
 76.2631149   1.083064468E-17
 76.3899612   1.083006152E-17
 76.5167999   1.082948746E-17
 76.6436462   1.082892497E-17
 76.7704926   1.082837821E-17
 76.8973312   1.082784799E-17
 77.0241776   1.082733513E-17
 77.1510239   1.082683882E-17
 77.2778625   1.082635823E-17
 77.4047089   1.082588839E-17
 77.5315475   1.082542848E-17
 77.6583939   1.082497353E-17
 77.7852402   1.082452106E-17
 77.9120789   1.082406777E-17
 78.0389252   1.082361365E-17
 78.1657715   1.082315704E-17
 78.2926102   1.082270044E-17
 78.4194565   1.082224466E-17
 78.5463028   1.082179302E-17
 78.6731415   1.0821348E-17
 78.7999878   1.082091208E-17
 78.9268341   1.082048773E-17
 79.0536728   1.082007745E-17
 79.1805191   1.081968123E-17
 79.3073654   1.08192999E-17
 79.4342041   1.081893263E-17
 79.5610504   1.081857694E-17
 79.6878967   1.081822953E-17
 79.8147354   1.081788873E-17
 79.9415817   1.081754959E-17
 80.0684204   1.081720879E-17
 80.1952667   1.08168622E-17
 80.322113   1.081650982E-17
 80.4489517   1.081614834E-17
 80.575798   1.081577777E-17
 80.7026443   1.081539809E-17
 80.829483   1.081501262E-17
 80.9563293   1.081462137E-17
 81.0831757   1.08142268E-17
 81.2100143   1.081383224E-17
 81.3368607   1.081343767E-17
 81.463707   1.081304393E-17
 81.5905457   1.081265102E-17
 81.717392   1.081225977E-17
 81.8442383   1.081186768E-17
 81.971077   1.081147477E-17
 82.0979233   1.081107938E-17
 82.224762   1.081068068E-17
 82.3516083   1.081027867E-17
 82.4784546   1.0809875E-17
 82.6052933   1.080947051E-17
 82.7321396   1.080906768E-17
 82.8589859   1.080866898E-17
 82.9858246   1.080827772E-17
 83.1126709   1.080789722E-17
 83.2395172   1.080752829E-17
 83.3663559   1.080717343E-17
 83.4932022   1.080683015E-17
 83.6200485   1.080650011E-17
 83.7468872   1.080618082E-17
 83.8737335   1.08058698E-17
 84.0005798   1.080556705E-17
 84.1274185   1.080526844E-17
 84.2542648   1.080497231E-17
 84.3811111   1.080467866E-17
 84.5079498   1.080438749E-17
 84.6347961   1.080409632E-17
 84.7616348   1.080380846E-17
 84.8884811   1.080352308E-17
 85.0153275   1.08032435E-17
 85.1421661   1.080296805E-17
 85.2690125   1.080270004E-17
 85.3958588   1.080243948E-17
 85.5226974   1.080218636E-17
 85.6495438   1.080194152E-17
 85.7763901   1.080170246E-17
 85.9032288   1.080146754E-17
 86.0300751   1.080123593E-17
 86.1569214   1.080100349E-17
 86.2837601   1.080076857E-17
 86.4106064   1.080052869E-17
 86.5374527   1.080028136E-17
 86.6642914   1.080002411E-17
 86.7911377   1.079975776E-17
 86.917984   1.079948065E-17
 87.0448227   1.079919528E-17
 87.171669   1.079890163E-17
 87.2985077   1.079860219E-17
 87.425354   1.079829861E-17
 87.5522003   1.079799256E-17
 87.679039   1.079768484E-17
 87.8058853   1.079737631E-17
 87.9327316   1.079706611E-17
 88.0595703   1.079675509E-17
 88.1864166   1.079644159E-17
 88.3132629   1.079612313E-17
 88.4401016   1.079580053E-17
 88.5669479   1.079547296E-17
 88.6937943   1.079513961E-17
 88.8206329   1.079480377E-17
 88.9474792   1.079446711E-17
 89.0743256   1.079413128E-17
 89.2011642   1.079380206E-17
 89.3280106   1.079348194E-17
 89.4548569   1.079317506E-17
 89.5816956   1.079288471E-17
 89.7085419   1.07926134E-17
 89.8353806   1.079236111E-17
 89.9622269   1.079212702E-17
 90.0890732   1.079191195E-17
 90.2159119   1.079171177E-17
 90.3427582   1.079152152E-17
 90.4696045   1.079133954E-17
 90.5964432   1.07911617E-17
 90.7232895   1.07909822E-17
 90.8501358   1.079079857E-17
 90.9769745   1.079060831E-17
 91.1038208   1.079040979E-17
 91.2306671   1.079020051E-17
 91.3575058   1.078998131E-17
 91.4843521   1.078975384E-17
 91.6111984   1.078951644E-17
 91.7380371   1.078927324E-17
 91.8648834   1.078902261E-17
 91.9917297   1.078876701E-17
 92.1185684   1.078850645E-17
 92.2454147   1.078824092E-17
 92.3722534   1.078796878E-17
 92.4990997   1.078768837E-17
 92.625946   1.078739968E-17
 92.7527847   1.078710024E-17
 92.879631   1.078678922E-17
 93.0064774   1.078646579E-17
 93.133316   1.078613079E-17
 93.2601624   1.078578502E-17
 93.3870087   1.078542934E-17
 93.5138474   1.078506786E-17
 93.6406937   1.078470224E-17
 93.76754   1.078433663E-17
 93.8943787   1.078397433E-17
 94.021225   1.078361781E-17
 94.1480713   1.078327039E-17
 94.27491   1.078293208E-17
 94.4017563   1.078260534E-17
 94.528595   1.07822877E-17
 94.6554413   1.078197917E-17
 94.7822876   1.078167642E-17
 94.9091263   1.078137781E-17
 95.0359726   1.078108085E-17
 95.1628189   1.078078306E-17
 95.2896576   1.078048114E-17
 95.4165039   1.078017426E-17
 95.5433502   1.077986241E-17
 95.6701889   1.07795456E-17
 95.7970352   1.077922383E-17
 95.9238815   1.077889875E-17
 96.0507202   1.077857035E-17
 96.1775665   1.077824031E-17
 96.3044128   1.077790944E-17
 96.4312515   1.077757774E-17
 96.5580978   1.077724273E-17
 96.6849442   1.077690524E-17
 96.8117828   1.077656196E-17
 96.9386292   1.077621289E-17
 97.0654678   1.07758572E-17
 97.1923141   1.077549242E-17
 97.3191605   1.077511853E-17
 97.4459991   1.077473555E-17
 97.5728455   1.077434429E-17
 97.6996918   1.077394559E-17
 97.8265305   1.07735411E-17
 97.9533768   1.077313164E-17
 98.0802231   1.077272136E-17
 98.2070618   1.077231108E-17
 98.3339081   1.077190162E-17
 98.4607544   1.077149465E-17
 98.5875931   1.077109181E-17
 98.7144394   1.077069146E-17
 98.8412857   1.077029524E-17
 98.9681244   1.076989985E-17
 99.0949707   1.076950528E-17
 99.221817   1.076910906E-17
 99.3486557   1.076871119E-17
 99.475502   1.076830918E-17
 99.6023407   1.076790386E-17
 99.729187   1.076749441E-17
 99.8560333   1.07670833E-17
 99.982872   1.076667053E-17
 100.109718   1.07662586E-17
 100.236565   1.076584997E-17
 100.363403   1.076544631E-17
 100.49025   1.076504843E-17
 100.617096   1.076465966E-17
 100.743935   1.07642775E-17
 100.870781   1.076390196E-17
 100.997627   1.076353221E-17
 101.124466   1.076316412E-17
 101.251312   1.076279602E-17
 101.378159   1.076242379E-17
 101.504997   1.076204577E-17
 101.631844   1.076165947E-17
 101.75869   1.076126243E-17
 101.885529   1.076085545E-17
 102.012375   1.076043856E-17
 102.139214   1.076001173E-17
 102.26606   1.075957746E-17
 102.392906   1.075913823E-17
 102.519745   1.075869486E-17
 102.646591   1.075824901E-17
 102.773438   1.075780316E-17
 102.900276   1.075735813E-17
 103.027122   1.075691311E-17
 103.153969   1.075646726E-17
 103.280807   1.075601893E-17
 103.407654   1.075556812E-17
 103.5345   1.075511234E-17
 103.661339   1.075464995E-17
 103.788185   1.075417928E-17
 103.915031   1.075370117E-17
 104.04187   1.075321313E-17
 104.168716   1.075271682E-17
 104.295563   1.075221307E-17
 104.422401   1.07517027E-17
 104.549248   1.075118819E-17
 104.676086   1.075066955E-17
 104.802933   1.075015008E-17
 104.929779   1.074962979E-17
 105.056618   1.074910949E-17
 105.183464   1.074858919E-17
 105.31031   1.074806807E-17
 105.437149   1.074754446E-17
 105.563995   1.074701672E-17
 105.690842   1.074648319E-17
 105.81768   1.074594222E-17
 105.944527   1.074539297E-17
 106.071373   1.074483545E-17
 106.198212   1.074426966E-17
 106.325058   1.074369725E-17
 106.451904   1.07431207E-17
 106.578743   1.074254416E-17
 106.705589   1.074197092E-17
 106.832428   1.07414043E-17
 106.959274   1.074084678E-17
 107.086121   1.074030332E-17
 107.212959   1.073977476E-17
 107.339806   1.073926273E-17
 107.466652   1.073876725E-17
 107.593491   1.073828749E-17
 107.720337   1.073782426E-17
 107.847183   1.073737511E-17
 107.974022   1.073693918E-17
 108.100868   1.073651484E-17
 108.227715   1.073610207E-17
 108.354553   1.073569924E-17
 108.4814   1.073530715E-17
 108.608246   1.073492417E-17
 108.735085   1.073455111E-17
 108.861931   1.073418798E-17
 108.988777   1.073383477E-17
 109.115616   1.073349149E-17
 109.242462   1.073315648E-17
 109.369301   1.073282975E-17
 109.496147   1.073250715E-17
 109.622993   1.073218951E-17
 109.749832   1.07318727E-17
 109.876678   1.073155506E-17
 110.003525   1.073123412E-17
 110.130363   1.073090738E-17
 110.25721   1.073057403E-17
 110.384056   1.073023323E-17
 110.510895   1.072988499E-17
 110.637741   1.07295293E-17
 110.764587   1.072916782E-17
 110.891426   1.072880303E-17
 111.018272   1.072843576E-17
 111.145119   1.072806932E-17
 111.271957   1.072770619E-17
 111.398804   1.072734719E-17
 111.52565   1.072699564E-17
 111.652489   1.072665071E-17
 111.779335   1.072631322E-17
 111.906174   1.0725984E-17
 112.03302   1.07256614E-17
 112.159866   1.072534376E-17
 112.286705   1.072503192E-17
 112.413551   1.072472586E-17
 112.540398   1.072442477E-17
 112.667236   1.072412946E-17
 112.794083   1.07238416E-17
 112.920929   1.072356202E-17
 113.047768   1.072329318E-17
 113.174614   1.072303676E-17
 113.30146   1.072279274E-17
 113.428299   1.072256361E-17
 113.555145   1.072234854E-17
 113.681992   1.072214836E-17
 113.80883   1.072196059E-17
 113.935677   1.072178441E-17
 114.062523   1.072161814E-17
 114.189362   1.072145767E-17
 114.316208   1.072130216E-17
 114.443047   1.07211483E-17
 114.569893   1.072099445E-17
 114.696739   1.072083894E-17
 114.823578   1.072068012E-17
 114.950424   1.072051716E-17
 115.077271   1.07203509E-17
 115.204109   1.072017967E-17
 115.330956   1.072000597E-17
 115.457802   1.071982812E-17
 115.584641   1.07196478E-17
 115.711487   1.071946499E-17
 115.838333   1.071928136E-17
 115.965172   1.071909607E-17
 116.092018   1.071891078E-17
 116.218864   1.071872632E-17
 116.345703   1.071854186E-17
 116.472549   1.071835988E-17
 116.599396   1.071817955E-17
 116.726234   1.071800088E-17
 116.853081   1.071782552E-17
 116.979919   1.071765347E-17
 117.106766   1.071748389E-17
 117.233612   1.071731846E-17
 117.360451   1.071715633E-17
 117.487297   1.071699834E-17
 117.614143   1.071684614E-17
 117.740982   1.07166989E-17
 117.867828   1.071655745E-17
 117.994675   1.071642262E-17
 118.121513   1.071629441E-17
 118.24836   1.071617281E-17
 118.375206   1.071605866E-17
 118.502045   1.071595113E-17
 118.628891   1.071584938E-17
 118.755737   1.071575426E-17
 118.882576   1.071566492E-17
 119.009422   1.071558138E-17
 119.136261   1.07155028E-17
 119.263107   1.071543E-17
 119.389954   1.071536135E-17
 119.516792   1.071529766E-17
 119.643639   1.071523893E-17
 119.770485   1.071518433E-17
 119.897324   1.071513305E-17
 120.02417   1.071508342E-17
 120.151016   1.071503461E-17