 -7.19999981   -1.626092638E-18
 -7.07296753   -1.626055415E-18
 -6.94593477   -1.62598314E-18
 -6.81890202   -1.625877571E-18
 -6.69186926   -1.625742327E-18
 -6.56483698   -1.625581854E-18
 -6.43780422   -1.625402769E-18
 -6.31077147   -1.625209416E-18
 -6.18373871   -1.625008514E-18
 -6.05670643   -1.624806786E-18
 -5.92967367   -1.624610951E-18
 -5.80264091   -1.624426593E-18
 -5.67560816   -1.624259192E-18
 -5.5485754   -1.624112884E-18
 -5.42154312   -1.623992013E-18
 -5.29451036   -1.623899265E-18
 -5.16747761   -1.623836089E-18
 -5.04044485   -1.623802071E-18
 -4.91341257   -1.623796591E-18
 -4.78637981   -1.623817581E-18
 -4.65934706   -1.623861939E-18
 -4.5323143   -1.623925838E-18
 -4.40528202   -1.62400318E-18
 -4.27824926   -1.624089206E-18
 -4.15121651   -1.624178025E-18
 -4.02418375   -1.624263018E-18
 -3.89715123   -1.624338291E-18
 -3.77011847   -1.624398986E-18
 -3.64308596   -1.624439311E-18
 -3.5160532   -1.624455337E-18
 -3.38902068   -1.624443653E-18
 -3.26198792   -1.624401777E-18
 -3.13495541   -1.624327745E-18
 -3.00792265   -1.624222589E-18
 -2.88089013   -1.624086415E-18
 -2.75385737   -1.623921496E-18
 -2.62682486   -1.623731554E-18
 -2.4997921   -1.623520727E-18
 -2.37275958   -1.623294079E-18
 -2.24572682   -1.623057195E-18
 -2.11869431   -1.622815555E-18
 -1.99166155   -1.622575983E-18
 -1.86462891   -1.622344062E-18
 -1.73759627   -1.622125273E-18
 -1.61056364   -1.621925922E-18
 -1.483531   -1.621750043E-18
 -1.35649836   -1.621602185E-18
 -1.22946572   -1.621485242E-18
 -1.10243309   -1.621401076E-18
 -0.975400388   -1.621350825E-18
 -0.848367751   -1.621333971E-18
 -0.721335113   -1.621349067E-18
 -0.594302475   -1.621393632E-18
 -0.467269808   -1.621463942E-18
 -0.34023717   -1.621554725E-18
 -0.213204518   -1.621661948E-18
 -8.617187291E-2   -1.621778891E-18
 4.086076841E-2   -1.621899453E-18
 0.16789341   -1.622017326E-18
 0.294926047   -1.62212579E-18
 0.421958715   -1.622219882E-18
 0.548991323   -1.622293604E-18
 0.67602402   -1.622342511E-18
 0.803056657   -1.622363604E-18
 0.930089295   -1.622354815E-18
 1.05712187   -1.622314284E-18
 1.18415463   -1.622242836E-18
 1.31118727   -1.62214161E-18
 1.4382199   -1.622014017E-18
 1.56525254   -1.62186285E-18
 1.69228518   -1.621693071E-18
 1.81931782   -1.621510264E-18
 1.94635046   -1.621320013E-18
 2.07338309   -1.62112821E-18
 2.20041585   -1.620940957E-18
 2.32744837   -1.620763837E-18
 2.45448112   -1.620602433E-18
 2.58151364   -1.620461399E-18
 2.7085464   -1.620344973E-18
 2.83557892   -1.620255948E-18
 2.96261168   -1.620195564E-18
 3.08964419   -1.620165165E-18
 3.21667695   -1.620164028E-18
 3.34370947   -1.620189774E-18
 3.47074223   -1.620241059E-18
 3.59777474   -1.620314368E-18
 3.7248075   -1.620405047E-18
 3.85184002   -1.620507514E-18
 3.97887278   -1.620616599E-18
 4.10590553   -1.620725993E-18
 4.23293829   -1.620830115E-18
 4.35997057   -1.620924E-18
 4.48700333   -1.621001651E-18
 4.61403608   -1.621058417E-18
 4.74106884   -1.621090263E-18
 4.86810112   -1.621094916E-18
 4.99513388   -1.621070204E-18
 5.12216663   -1.621016024E-18
 5.24919939   -1.620932685E-18
 5.37623167   -1.620822877E-18
 5.50326443   -1.620689081E-18
 5.63029718   -1.620535432E-18
 5.75732994   -1.620367411E-18
 5.88436222   -1.620190808E-18
 6.01139498   -1.620010172E-18
 6.13842773   -1.619833155E-18
 6.26546049   -1.619664824E-18
 6.39249325   -1.619510969E-18
 6.51952553   -1.619375621E-18
 6.64655828   -1.619263125E-18
 6.77359104   -1.619175547E-18
 6.9006238   -1.619114852E-18
 7.02765608   -1.619080731E-18
 7.15468884   -1.619072356E-18
 7.28172159   -1.619088176E-18
 7.40875435   -1.619124365E-18
 7.53578663   -1.619177098E-18
 7.66281939   -1.619242548E-18
 7.78985214   -1.619316064E-18
 7.9168849   -1.619391958E-18
 8.04391766   -1.619466404E-18
 8.17094994   -1.619534543E-18
 8.29798317   -1.619591722E-18
 8.42501545   -1.619634942E-18
 8.55204773   -1.619660481E-18
 8.67908096   -1.619666375E-18
 8.80611324   -1.619650659E-18
 8.93314552   -1.619611885E-18
 9.06017876   -1.61955026E-18
 9.18721104   -1.619465784E-18
 9.31424427   -1.619359077E-18
 9.44127655   -1.619232726E-18
 9.56830883   -1.619088796E-18
 9.69534206   -1.618931218E-18
 9.82237434   -1.618763507E-18
 9.94940662   -1.618590006E-18
 10.0764399   -1.618415988E-18
 10.2034721   -1.618247037E-18
 10.3305054   -1.618086977E-18
 10.4575377   -1.617941704E-18
 10.5845699   -1.617815248E-18
 10.7116032   -1.617712988E-18
 10.8386354   -1.617637198E-18
 10.9656687   -1.617589531E-18
 11.092701   -1.617572264E-18
 11.2197332   -1.617585085E-18
 11.3467665   -1.617626238E-18
 11.4737988   -1.61769417E-18
 11.600831   -1.617784436E-18
 11.7278643   -1.61789352E-18
 11.8548965   -1.61801615E-18
 11.9819298   -1.618146431E-18
 12.1089621   -1.618278366E-18
 12.2359943   -1.618406372E-18
 12.3630276   -1.618523728E-18
 12.4900599   -1.618625575E-18
 12.6170931   -1.618706742E-18
 12.7441254   -1.61876268E-18
 12.8711576   -1.618790804E-18
 12.9981909   -1.618789253E-18
 13.1252232   -1.61875689E-18
 13.2522554   -1.618693817E-18
 13.3792887   -1.618602828E-18
 13.506321   -1.618485678E-18
 13.6333542   -1.618346919E-18
 13.7603865   -1.618191512E-18
 13.8874187   -1.618024111E-18
 14.014452   -1.617852058E-18
 14.1414843   -1.617680314E-18
 14.2685175   -1.617515602E-18
 14.3955498   -1.617363711E-18
 14.5225821   -1.617230328E-18
 14.6496153   -1.617120106E-18
 14.7766476   -1.617036975E-18
 14.9036798   -1.616984242E-18
 15.0307131   -1.616963252E-18
 15.1577454   -1.616975143E-18
 15.2847786   -1.617019501E-18
 15.4118109   -1.617094257E-18
 15.5388432   -1.617197034E-18
 15.6658764   -1.61732442E-18
 15.7929087   -1.617471141E-18
 15.9199409   -1.617631201E-18
 16.0469742   -1.617800256E-18
 16.1740074   -1.617971068E-18
 16.3010387   -1.618136505E-18
 16.428072   -1.618291187E-18
 16.5551052   -1.618429223E-18
 16.6821365   -1.618545132E-18
 16.8091698   -1.618633743E-18
 16.936203   -1.61869237E-18
 17.0632343   -1.618718736E-18
 17.1902676   -1.618711498E-18
 17.3173008   -1.618670656E-18
 17.444334   -1.618597968E-18
 17.5713654   -1.618496018E-18
 17.6983986   -1.618368219E-18
 17.8254318   -1.61821974E-18
 17.9524632   -1.618056371E-18
 18.0794964   -1.617884525E-18
 18.2065296   -1.617709576E-18
 18.3335609   -1.61753866E-18
 18.4605942   -1.617378497E-18
 18.5876274   -1.617234671E-18
 18.7146587   -1.617112455E-18
 18.841692   -1.617016192E-18
 18.9687252   -1.616949604E-18
 19.0957584   -1.616915276E-18
 19.2227898   -1.616914138E-18
 19.349823   -1.616945881E-18
 19.4768562   -1.617009471E-18
 19.6038876   -1.617102736E-18
 19.7309208   -1.617220505E-18
 19.857954   -1.617359265E-18
 19.9849854   -1.61751281E-18
 20.1120186   -1.617675248E-18
 20.2390518   -1.61783965E-18
 20.3660831   -1.617999089E-18
 20.4931164   -1.618147775E-18
 20.6201496   -1.618278573E-18
 20.7471828   -1.61838683E-18
 20.8742142   -1.61846717E-18
 21.0012474   -1.618516491E-18
 21.1282806   -1.61853231E-18
 21.255312   -1.618513596E-18
 21.3823452   -1.618460036E-18
 21.5093784   -1.618373699E-18
 21.6364098   -1.61825748E-18
 21.763443   -1.618114894E-18
 21.8904762   -1.617950802E-18
 22.0175076   -1.617771201E-18
 22.1445408   -1.617582604E-18
 22.271574   -1.617391422E-18
 22.3986073   -1.617204375E-18
 22.5256386   -1.617028496E-18
 22.6526718   -1.616869264E-18
 22.779705   -1.616732986E-18
 22.9067364   -1.616623798E-18
 23.0337696   -1.616545526E-18
 23.1608028   -1.616500134E-18
 23.2878342   -1.616488554E-18
 23.4148674   -1.616511198E-18
 23.5419006   -1.616565792E-18
 23.668932   -1.616649854E-18
 23.7959652   -1.616759559E-18
 23.9229984   -1.616889426E-18
 24.0500298   -1.617034493E-18
 24.177063   -1.617188659E-18
 24.3040962   -1.617345203E-18
 24.4311295   -1.617497611E-18
 24.5581608   -1.617639989E-18
 24.685194   -1.617766548E-18
 24.8122272   -1.6178716E-18
 24.9392586   -1.617951319E-18
 25.0662918   -1.618001467E-18
 25.193325   -1.618020596E-18
 25.3203564   -1.618007464E-18
 25.4473896   -1.617961452E-18
 25.5744228   -1.617884525E-18
 25.7014542   -1.617779266E-18
 25.8284874   -1.617649192E-18
 25.9555206   -1.617500092E-18
 26.0825539   -1.617337034E-18
 26.2095852   -1.617167049E-18
 26.3366184   -1.616996443E-18
 26.4636517   -1.616831937E-18
 26.590683   -1.616680356E-18
 26.7177162   -1.616547697E-18
 26.8447495   -1.616440474E-18
 26.9717808   -1.616361582E-18
 27.098814   -1.616315053E-18
 27.2258472   -1.616301715E-18
 27.3528786   -1.616322808E-18
 27.4799118   -1.616376678E-18
 27.606945   -1.616461567E-18
 27.7339783   -1.616573237E-18
 27.8610096   -1.616707136E-18
 27.9880428   -1.616857683E-18
 28.1150761   -1.617019087E-18
 28.2421074   -1.617183592E-18
 28.3691406   -1.617345099E-18
 28.4961739   -1.617496163E-18
 28.6232052   -1.617630167E-18
 28.7502384   -1.617742043E-18
 28.8772717   -1.617826622E-18
 29.004303   -1.617879768E-18
 29.1313362   -1.617899207E-18
 29.2583694   -1.617883387E-18
 29.3854027   -1.617832619E-18
 29.512434   -1.617748143E-18
 29.6394672   -1.617632855E-18
 29.7665005   -1.617489753E-18
 29.8935318   -1.61732442E-18
 30.020565   -1.61714213E-18
 30.1475983   -1.61694919E-18
 30.2746296   -1.616751701E-18
 30.4016628   -1.616555969E-18
 30.5286961   -1.616367992E-18
 30.6557274   -1.616194181E-18
 30.7827606   -1.616039705E-18
 30.9097939   -1.615909217E-18
 31.0368271   -1.615807061E-18
 31.1638584   -1.61573582E-18
 31.2908916   -1.615696632E-18
 31.4179249   -1.615690738E-18
 31.5449562   -1.615717518E-18
 31.6719894   -1.615776041E-18
 31.7990227   -1.615862688E-18
 31.926054   -1.615974771E-18
 32.0530891   -1.6161065E-18
 32.1801186   -1.616252704E-18
 32.3071518   -1.61640718E-18
 32.434185   -1.61656331E-18
 32.5612183   -1.616714374E-18
 32.6882515   -1.616853651E-18
 32.8152847   -1.616974936E-18
 32.9423141   -1.61707275E-18
 33.0693474   -1.617142027E-18
 33.1963806   -1.617179767E-18
 33.3234138   -1.617183386E-18
 33.4504471   -1.617152573E-18
 33.5774803   -1.617087123E-18
 33.7045135   -1.616989308E-18
 33.831543   -1.616862336E-18
 33.9585762   -1.616710342E-18
 34.0856094   -1.616539839E-18
 34.2126427   -1.616356308E-18
 34.3396759   -1.616166367E-18
 34.4667091   -1.615977253E-18
 34.5937386   -1.61579579E-18
 34.7207718   -1.615628286E-18
 34.847805   -1.615480117E-18
 34.9748383   -1.615356454E-18
 35.1018715   -1.615261845E-18
 35.2289047   -1.615197842E-18
 35.355938   -1.615166513E-18
 35.4829674   -1.61516827E-18
 35.6100006   -1.615201668E-18
 35.7370338   -1.615264637E-18
 35.8640671   -1.615353249E-18
 35.9911003   -1.615463574E-18
 36.1181335   -1.615589822E-18
 36.245163   -1.6157261E-18
 36.3721962   -1.615865997E-18
 36.4992294   -1.616002999E-18
 36.6262627   -1.616131109E-18
 36.7532959   -1.616243398E-18
 36.8803291   -1.616335526E-18
 37.0073624   -1.61640139E-18
 37.1343918   -1.616437476E-18
 37.261425   -1.616441818E-18
 37.3884583   -1.61641173E-18
 37.5154915   -1.61634752E-18
 37.6425247   -1.616250119E-18
 37.769558   -1.61612201E-18
 37.8965874   -1.615967017E-18
 38.0236206   -1.615789897E-18
 38.1506538   -1.615596233E-18
 38.2776871   -1.61539285E-18
 38.4047203   -1.615186158E-18
 38.5317535   -1.614983706E-18
 38.6587868   -1.614791903E-18
 38.7858162   -1.614617265E-18
 38.9128494   -1.614465684E-18
 39.0398827   -1.614341607E-18
 39.1669159   -1.614249583E-18
 39.2939491   -1.61419168E-18
 39.4209824   -1.614168623E-18
 39.5480118   -1.614179893E-18
 39.675045   -1.61422363E-18
 39.8020782   -1.614297042E-18
 39.9291115   -1.614395684E-18
 40.0561447   -1.614514281E-18
 40.1831779   -1.61464725E-18
 40.3102074   -1.614788698E-18
 40.4372406   -1.61493211E-18
 40.5642738   -1.615071387E-18
 40.6913071   -1.615200117E-18
 40.8183403   -1.615313027E-18
 40.9453735   -1.615405464E-18
 41.0724068   -1.615473086E-18
 41.1994362   -1.615512274E-18
 41.3264694   -1.615521787E-18
 41.4535027   -1.615499556E-18
 41.5805359   -1.6154461E-18
 41.7075691   -1.615362968E-18
 41.8346024   -1.615252953E-18
 41.9616318   -1.61511895E-18
 42.088665   -1.614966231E-18
 42.2156982   -1.614799658E-18
 42.3427315   -1.614625123E-18
 42.4697647   -1.614448313E-18
 42.5967979   -1.614276466E-18
 42.7238312   -1.614115063E-18
 42.8508606   -1.61397072E-18
 42.9778938   -1.613848193E-18
 43.1049271   -1.61375162E-18
 43.2319603   -1.613684515E-18
 43.3589935   -1.613648326E-18
 43.4860268   -1.6136445E-18
 43.6130562   -1.613671487E-18
 43.7400894   -1.613727735E-18
 43.8671227   -1.61380973E-18
 43.9941559   -1.61391292E-18
 44.1211891   -1.614031724E-18
 44.2482224   -1.614160247E-18
 44.3752556   -1.6142927E-18
 44.502285   -1.61442174E-18
 44.6293182   -1.614541371E-18
 44.7563515   -1.614645699E-18
 44.8833847   -1.614729554E-18
 45.0104179   -1.614787974E-18
 45.1374512   -1.614817339E-18
 45.2644806   -1.614816098E-18
 45.3915138   -1.614782804E-18
 45.5185471   -1.614717767E-18
 45.6455803   -1.614621918E-18
 45.7726135   -1.614498357E-18
 45.8996468   -1.614350292E-18
 46.02668   -1.614181857E-18
 46.1537094   -1.61399812E-18
 46.2807426   -1.61380456E-18
 46.4077759   -1.613607794E-18
 46.5348091   -1.613412786E-18
 46.6618423   -1.613225947E-18
 46.7888756   -1.613052239E-18
 46.915905   -1.612897039E-18
 47.0429382   -1.61276438E-18
 47.1699715   -1.612657984E-18
 47.2970047   -1.612579815E-18
 47.4240379   -1.612531839E-18
 47.5510712   -1.612513848E-18
 47.6781044   -1.612525118E-18
 47.8051338   -1.612564409E-18
 47.9321671   -1.612628516E-18
 48.0592003   -1.612713715E-18
 48.1862335   -1.612815562E-18
 48.3132668   -1.612929299E-18
 48.4403   -1.613049551E-18
 48.5673294   -1.61317125E-18
 48.6943626   -1.613289123E-18
 48.8213959   -1.61339769E-18
 48.9484291   -1.613492816E-18
 49.0754623   -1.613569951E-18
 49.2024956   -1.613625475E-18
 49.3295288   -1.613657322E-18
 49.4565582   -1.613663422E-18
 49.5835915   -1.613642536E-18
 49.7106247   -1.613594766E-18
 49.8376579   -1.613520837E-18
 49.9646912   -1.613423229E-18
 50.0917244   -1.613303185E-18
 50.2187538   -1.613164632E-18
 50.345787   -1.613011397E-18
 50.4728203   -1.612847512E-18
 50.5998535   -1.612677836E-18
 50.7268867   -1.612507127E-18
 50.85392   -1.61234014E-18
 50.9809532   -1.612181942E-18
 51.1079826   -1.612036875E-18
 51.2350159   -1.611909592E-18
 51.3620491   -1.611803196E-18
 51.4890823   -1.611720478E-18
 51.6161156   -1.61166423E-18
 51.7431488   -1.611634658E-18
 51.8701782   -1.61163197E-18
 51.9972115   -1.611654717E-18
 52.1242447   -1.611701763E-18
 52.2512779   -1.611770212E-18
 52.3783112   -1.611856032E-18
 52.5053444   -1.611955191E-18
 52.6323776   -1.612062517E-18
 52.759407   -1.612173256E-18
 52.8864403   -1.612282651E-18
 53.0134735   -1.612385221E-18
 53.1405067   -1.612476728E-18
 53.26754   -1.612552829E-18
 53.3945732   -1.612610421E-18
 53.5216026   -1.612646714E-18
 53.6486359   -1.612659535E-18
 53.7756691   -1.612648678E-18
 53.9027023   -1.612613833E-18
 54.0297356   -1.612556137E-18
 54.1567688   -1.612478382E-18
 54.283802   -1.612383257E-18
 54.4108315   -1.612274069E-18
 54.5378647   -1.612155575E-18
 54.6648979   -1.612032015E-18
 54.7919312   -1.611908455E-18
 54.9189644   -1.611789031E-18
 55.0459976   -1.611678809E-18
 55.173027   -1.611580374E-18
 55.3000603   -1.611497139E-18
 55.4270935   -1.611431585E-18
 55.5541267   -1.611384436E-18
 55.68116   -1.611355795E-18
 55.8081932   -1.611344318E-18
 55.9352264   -1.611348557E-18
 56.0622559   -1.611364067E-18
 56.1892891   -1.611387745E-18
 56.3163223   -1.611414421E-18
 56.4433556   -1.611439133E-18
 56.5703888   -1.611456091E-18
 56.697422   -1.611459503E-18
 56.8244514   -1.611443786E-18
 56.9514847   -1.611402427E-18
 57.0785179   -1.6113316E-18
 57.2055511   -1.611226341E-18
 57.3325844   -1.611083446E-18
 57.4596176   -1.610899398E-18
 57.5866508   -1.610672337E-18
 57.7136803   -1.610401125E-18
 57.8407135   -1.610085866E-18
 57.9677467   -1.609726766E-18
 58.09478   -1.609325377E-18
 58.2218132   -1.6088848E-18
 58.3488464   -1.608408033E-18
 58.4758759   -1.60789911E-18
 58.6029091   -1.607361443E-18
 58.7299423   -1.606800098E-18
 58.8569756   -1.606219727E-18
 58.9840088   -1.605624984E-18
 59.111042   -1.605020729E-18
 59.2380753   -1.604412234E-18
 59.3651047   -1.603802809E-18
 59.4921379   -1.603196485E-18
 59.6191711   -1.602595539E-18
 59.7462044   -1.602002243E-18
 59.8732376   -1.601418254E-18
 60.0002708   -1.60084295E-18
 60.1273003   -1.600276228E-18
 60.2543335   -1.599715089E-18
 60.3813667   -1.599157673E-18
 60.5084   -1.598599739E-18
 60.6354332   -1.598037463E-18
 60.7624664   -1.597466088E-18
 60.8894997   -1.596879307E-18
 61.0165291   -1.596272156E-18
 61.1435623   -1.595639363E-18
 61.2705956   -1.594976792E-18
 61.3976288   -1.594279995E-18
 61.524662   -1.593545769E-18
 61.6516953   -1.592772976E-18
 61.7787247   -1.591960167E-18
 61.9057579   -1.591108275E-18
 62.0327911   -1.590219572E-18
 62.1598244   -1.589296646E-18
 62.2868576   -1.588343837E-18
 62.4138908   -1.587365799E-18
 62.5409203   -1.586368426E-18
 62.6679535   -1.585358335E-18
 62.7949867   -1.58434173E-18
 62.92202   -1.583324402E-18
 63.0490532   -1.58231338E-18
 63.1760864   -1.581313526E-18
 63.3031197   -1.580329284E-18
 63.4301491   -1.579365102E-18
 63.5571823   -1.578423667E-18
 63.6842155   -1.577506944E-18
 63.8112488   -1.57661576E-18
 63.938282   -1.575748875E-18
 64.0653152   -1.574905461E-18
 64.1923447   -1.574081589E-18
 64.3193817   -1.573274157E-18
 64.4464111   -1.572478616E-18
 64.5734482   -1.571689279E-18
 64.7004776   -1.570900045E-18
 64.827507   -1.570104815E-18
 64.9545441   -1.569296866E-18
 65.0815735   -1.568470513E-18
 65.2086105   -1.567619551E-18
 65.33564   -1.566739534E-18
 65.4626694   -1.565826016E-18
 65.5897064   -1.564875999E-18
 65.7167358   -1.563888139E-18
 65.8437729   -1.562861918E-18
 65.9708023   -1.56179775E-18
 66.0978394   -1.560697393E-18
 66.2248688   -1.559564673E-18
 66.3518982   -1.558402587E-18
 66.4789352   -1.55721672E-18
 66.6059647   -1.556012139E-18
 66.7330017   -1.554794425E-18
 66.8600311   -1.553569578E-18
 66.9870682   -1.552343282E-18
 67.1140976   -1.551119572E-18
 67.241127   -1.549903927E-18
 67.3681641   -1.548699759E-18
 67.4951935   -1.547510169E-18
 67.6222305   -1.546337538E-18
 67.7492599   -1.54518269E-18
 67.876297   -1.54404604E-18
 68.0033264   -1.542926555E-18
 68.1303558   -1.541822269E-18
 68.2573929   -1.540731218E-18
 68.3844223   -1.539649886E-18
 68.5114594   -1.538574034E-18
 68.6384888   -1.53749963E-18
 68.7655182   -1.536421917E-18
 68.8925552   -1.535335415E-18
 69.0195847   -1.534235161E-18
 69.1466217   -1.533115779E-18
 69.2736511   -1.531973133E-18
 69.4006882   -1.530803292E-18
 69.5277176   -1.529602536E-18
 69.654747   -1.528367866E-18
 69.7817841   -1.527098557E-18
 69.9088135   -1.525793266E-18
 70.0358505   -1.524452407E-18
 70.1628799   -1.523077115E-18
 70.289917   -1.521670391E-18
 70.4169464   -1.520235233E-18
 70.5439758   -1.518775983E-18
 70.6710129   -1.517296674E-18
 70.7980423   -1.515802992E-18
 70.9250793   -1.514299592E-18
 71.0521088   -1.512792469E-18
 71.1791458   -1.511286276E-18
 71.3061752   -1.509784943E-18
 71.4332047   -1.50829333E-18
 71.5602417   -1.506813814E-18
 71.6872711   -1.505349601E-18
 71.8143082   -1.503902138E-18
 71.9413376   -1.502471219E-18
 72.068367   -1.501056844E-18
 72.1954041   -1.499657668E-18
 72.3224335   -1.49827183E-18
 72.4494705   -1.496895918E-18
 72.5764999   -1.495527038E-18
 72.703537   -1.494161052E-18
 72.8305664   -1.492793826E-18
 72.9575958   -1.491421223E-18
 73.0846329   -1.490039108E-18
 73.2116623   -1.488642724E-18
 73.3386993   -1.487229693E-18
 73.4657288   -1.485796706E-18
 73.5927658   -1.484341591E-18
 73.7197952   -1.482862696E-18
 73.8468246   -1.481360949E-18
 73.9738617   -1.479836042E-18
 74.1008911   -1.478289731E-18
 74.2279282   -1.476724912E-18
 74.3549576   -1.475145825E-18
 74.481987   -1.473556294E-18
 74.609024   -1.471961593E-18
 74.7360535   -1.470367409E-18
 74.8630905   -1.468779222E-18
 74.9901199   -1.467202306E-18
 75.117157   -1.465642967E-18
 75.2441864   -1.464105445E-18
 75.3712158   -1.462594806E-18
 75.4982529   -1.461114463E-18
 75.6252823   -1.459667518E-18
 75.7523193   -1.45825521E-18
 75.8793488   -1.456877437E-18
 76.0063858   -1.455534303E-18
 76.1334152   -1.454224049E-18
 76.2604446   -1.452943883E-18
 76.3874817   -1.451690705E-18
 76.5145111   -1.45045986E-18
 76.6415482   -1.44924711E-18
 76.7685776   -1.448047388E-18
 76.8956146   -1.446855524E-18
 77.022644   -1.445666452E-18
 77.1496735   -1.444475415E-18
 77.2767105   -1.443277244E-18
 77.4037399   -1.442068423E-18
 77.530777   -1.440846057E-18
 77.6578064   -1.43960694E-18
 77.7848358   -1.438350143E-18
 77.9118729   -1.437074423E-18
 78.0389023   -1.435780506E-18
 78.1659393   -1.434470045E-18
 78.2929688   -1.433145315E-18
 78.4200058   -1.431810349E-18
 78.5470352   -1.430468972E-18
 78.6740646   -1.429126975E-18
 78.8011017   -1.427789321E-18
 78.9281311   -1.42646242E-18
 79.0551682   -1.425151752E-18
 79.1821976   -1.423863522E-18
 79.3092346   -1.422602175E-18
 79.436264   -1.421372674E-18
 79.5632935   -1.420178018E-18
 79.6903305   -1.419020172E-18
 79.8173599   -1.41790017E-18
 79.944397   -1.416817804E-18
 80.0714264   -1.415770697E-18
 80.1984634   -1.414756367E-18
 80.3254929   -1.413770574E-18
 80.4525223   -1.412808253E-18
 80.5795593   -1.411862579E-18
 80.7065887   -1.410927761E-18
 80.8336258   -1.409996046E-18
 80.9606552   -1.409061745E-18
 81.0876846   -1.408117312E-18
 81.2147217   -1.407157162E-18
 81.3417511   -1.406175815E-18
 81.4687881   -1.405168413E-18
 81.5958176   -1.404131645E-18
 81.7228546   -1.403063341E-18
 81.849884   -1.401962778E-18
 81.9769135   -1.400829333E-18
 82.1039505   -1.399665387E-18
 82.2309799   -1.39847342E-18
 82.358017   -1.397257464E-18
 82.4850464   -1.396023104E-18
 82.6120834   -1.394775302E-18
 82.7391129   -1.393521503E-18
 82.8661423   -1.392268634E-18
 82.9931793   -1.391024968E-18
 83.1202087   -1.389797329E-18
 83.2472458   -1.388593471E-18
 83.3742752   -1.387419805E-18
 83.5013123   -1.386282742E-18
 83.6283417   -1.385186831E-18
 83.7553711   -1.384136622E-18
 83.8824081   -1.383134286E-18
 84.0094376   -1.38218096E-18
 84.1364746   -1.381276335E-18
 84.263504   -1.380418548E-18
 84.3905334   -1.379604499E-18
 84.5175705   -1.378829741E-18
 84.6445999   -1.378088484E-18
 84.771637   -1.377375558E-18
 84.8986664   -1.376683725E-18
 85.0257034   -1.376005643E-18
 85.1527328   -1.375334386E-18
 85.2797623   -1.374663439E-18
 85.4067993   -1.373985255E-18
 85.5338287   -1.373295076E-18
 85.6608658   -1.37258763E-18
 85.7878952   -1.371859297E-18
 85.9149323   -1.371107286E-18
 86.0419617   -1.370329737E-18
 86.1689911   -1.369526441E-18
 86.2960281   -1.368697709E-18
 86.4230576   -1.3678453E-18
 86.5500946   -1.3669719E-18
 86.677124   -1.366080406E-18
 86.8041611   -1.365175678E-18
 86.9311905   -1.364262367E-18
 87.0582199   -1.363345644E-18
 87.185257   -1.362430472E-18
 87.3122864   -1.361522331E-18
 87.4393234   -1.36062546E-18
 87.5663528   -1.35974534E-18
 87.6933823   -1.358886417E-18
 87.8204193   -1.358051171E-18
 87.9474487   -1.357242912E-18
 88.0744858   -1.356462467E-18
 88.2015152   -1.355710457E-18
 88.3285522   -1.354987397E-18
 88.4555817   -1.354291325E-18
 88.5826111   -1.353620378E-18
 88.7096481   -1.352971041E-18
 88.8366776   -1.352339696E-18
 88.9637146   -1.351722102E-18
 89.090744   -1.351112677E-18
 89.2177811   -1.350507697E-18
 89.3448105   -1.349902615E-18
 89.4718399   -1.349292569E-18
 89.598877   -1.348673218E-18
 89.7259064   -1.348041458E-18
 89.8529434   -1.3473945E-18
 89.9799728   -1.346730067E-18
 90.1070099   -1.346047229E-18
 90.2340393   -1.345346194E-18
 90.3610687   -1.344627787E-18
 90.4881058   -1.343893044E-18
 90.6151352   -1.343145066E-18
 90.7421722   -1.342386955E-18
 90.8692017   -1.34162233E-18
 90.9962311   -1.340855327E-18
 91.1232681   -1.340091426E-18
 91.2502975   -1.339334142E-18
 91.3773346   -1.338588335E-18
 91.504364   -1.337858245E-18
 91.6314011   -1.337146766E-18
 91.7584305   -1.336457518E-18
 91.8854599   -1.335791844E-18
 92.0124969   -1.335150676E-18
 92.1395264   -1.334534219E-18
 92.2665634   -1.333940717E-18
 92.3935928   -1.333367274E-18
 92.5206299   -1.332811512E-18
 92.6476593   -1.332267951E-18
 92.7746887   -1.331731835E-18
 92.9017258   -1.331197166E-18
 93.0287552   -1.330657637E-18
 93.1557922   -1.330106942E-18
 93.2828217   -1.329540013E-18
 93.4098587   -1.328951267E-18
 93.5368881   -1.328335431E-18
 93.6639175   -1.327690024E-18
 93.7909546   -1.327012873E-18
 93.917984   -1.326302738E-18
 94.0450211   -1.325560654E-18
 94.1720505   -1.324788377E-18
 94.2990799   -1.323990148E-18
 94.4261169   -1.323170205E-18
 94.5531464   -1.32233496E-18
 94.6801834   -1.321491442E-18
 94.8072128   -1.320647201E-18
 94.9342499   -1.319809577E-18
 95.0612793   -1.318986636E-18
 95.1883087   -1.318185822E-18
 95.3153458   -1.317413338E-18
 95.4423752   -1.316674976E-18
 95.5694122   -1.315975285E-18
 95.6964417   -1.315317883E-18
 95.8234787   -1.314704322E-18
 95.9505081   -1.314134601E-18
 96.0775375   -1.313607997E-18
 96.2045746   -1.313121408E-18
 96.331604   -1.312670802E-18
 96.4586411   -1.312251421E-18
 96.5856705   -1.311856339E-18
 96.7126999   -1.311479145E-18
 96.8397369   -1.311112187E-18
 96.9667664   -1.310746987E-18
 97.0938034   -1.310376616E-18
 97.2208328   -1.309993115E-18
 97.3478699   -1.309588623E-18
 97.4748993   -1.309157559E-18
 97.6019287   -1.308694028E-18
 97.7289658   -1.308194617E-18
 97.8559952   -1.307655813E-18
 97.9830322   -1.3070772E-18
 98.1100616   -1.306458779E-18
 98.2370987   -1.305801791E-18
 98.3641281   -1.30510944E-18
 98.4911575   -1.304386381E-18
 98.6181946   -1.303638196E-18
 98.745224   -1.302871297E-18
 98.872261   -1.302092299E-18
 98.9992905   -1.301309373E-18
 99.1263275   -1.300529652E-18
 99.2533569   -1.299759443E-18
 99.3803864   -1.299005882E-18
 99.5074234   -1.298275067E-18
 99.6344528   -1.29757093E-18
 99.7614899   -1.296896881E-18
 99.8885193   -1.296255403E-18
 100.015549   -1.295646908E-18
 100.142586   -1.295070983E-18
 100.269615   -1.294525665E-18
 100.396652   -1.294007436E-18
 100.523682   -1.293511438E-18
 100.650719   -1.293032604E-18
 100.777748   -1.292564626E-18
 100.904778   -1.292101405E-18
 101.031815   -1.291636736E-18
 101.158844   -1.29116452E-18
 101.285881   -1.290678861E-18
 101.41291   -1.290174281E-18
 101.539948   -1.28964716E-18
 101.666977   -1.289093983E-18
 101.794006   -1.288514543E-18
 101.921043   -1.287907082E-18
 102.048073   -1.287273152E-18
 102.17511   -1.286614509E-18
 102.302139   -1.28593467E-18
 102.429176   -1.285237667E-18
 102.556206   -1.284528153E-18
 102.683235   -1.283811711E-18
 102.810272   -1.283094959E-18
 102.937302   -1.282383274E-18
 103.064339   -1.281682962E-18
 103.191368   -1.280998987E-18
 103.318398   -1.280336932E-18
 103.445435   -1.27970052E-18
 103.572464   -1.279093059E-18
 103.699501   -1.278516411E-18
 103.82653   -1.277970885E-18
 103.953568   -1.277455759E-18
 104.080597   -1.276968756E-18
 104.207626   -1.276506465E-18
 104.334663   -1.276064234E-18
 104.461693   -1.275635858E-18
 104.58873   -1.275215133E-18
 104.715759   -1.274793891E-18
 104.842796   -1.274364378E-18
 104.969826   -1.273919458E-18
 105.096855   -1.273452204E-18
 105.223892   -1.272955999E-18
 105.350922   -1.27242495E-18
 105.477959   -1.271855022E-18
 105.604988   -1.271242702E-18
 105.732025   -1.270587368E-18
 105.859055   -1.269889227E-18
 105.986084   -1.269150141E-18
 106.113121   -1.268373419E-18
 106.24015   -1.26756454E-18
 106.367188   -1.266729294E-18
 106.494217   -1.26587585E-18
 106.621246   -1.26501217E-18
 106.748283   -1.264148387E-18
 106.875313   -1.263292876E-18
 107.00235   -1.262455252E-18
 107.129379   -1.261644822E-18
 107.256416   -1.260869857E-18
 107.383446   -1.260137492E-18
 107.510475   -1.259454551E-18
 107.637512   -1.258825066E-18
 107.764542   -1.258252761E-18
 107.891579   -1.257738358E-18
 108.018608   -1.257281857E-18
 108.145645   -1.256880158E-18
 108.272675   -1.256529226E-18
 108.399704   -1.256223066E-18
 108.526741   -1.255954543E-18
 108.65377   -1.255715177E-18
 108.780807   -1.255494941E-18
 108.907837   -1.255283906E-18
 109.034874   -1.255071734E-18
 109.161903   -1.254848085E-18
 109.288933   -1.254603757E-18
 109.41597   -1.254329753E-18
 109.542999   -1.254019354E-18
 109.670036   -1.253665837E-18
 109.797066   -1.253265999E-18
 109.924095   -1.25281746E-18
 110.051132   -1.252319601E-18
 110.178162   -1.251774282E-18
 110.305199   -1.251185123E-18
 110.432228   -1.250556879E-18
 110.559265   -1.249895962E-18
 110.686295   -1.249209815E-18
 110.813324   -1.248506919E-18
 110.940361   -1.247796267E-18
 111.06739   -1.24708758E-18
 111.194427   -1.246388613E-18
 111.321457   -1.245708257E-18
 111.448494   -1.245054267E-18
 111.575523   -1.244433468E-18
 111.702553   -1.243850719E-18
 111.82959   -1.24330964E-18
 111.956619   -1.242812401E-18
 112.083656   -1.242360036E-18
 112.210686   -1.241951512E-18
 112.337723   -1.241583831E-18
 112.464752   -1.241252648E-18
 112.591782   -1.240952795E-18
 112.718819   -1.240677861E-18
 112.845848   -1.240420401E-18
 112.972885   -1.240172247E-18
 113.099915   -1.23992554E-18
 113.226944   -1.239672733E-18
 113.353981   -1.239405554E-18
 113.48101   -1.239118212E-18
 113.608047   -1.238804607E-18
 113.735077   -1.23845988E-18
 113.862114   -1.238080824E-18
 113.989143   -1.237665476E-18
 114.116173   -1.237214146E-18
 114.24321   -1.236728177E-18
 114.370239   -1.236210259E-18
 114.497276   -1.235663906E-18
 114.624306   -1.235094495E-18
 114.751343   -1.234507921E-18
 114.878372   -1.233910696E-18
 115.005402   -1.233309026E-18
 115.132439   -1.232709217E-18
 115.259468   -1.232117886E-18
 115.386505   -1.231539997E-18
 115.513535   -1.230981029E-18
 115.640572   -1.230444293E-18
 115.767601   -1.229932371E-18
 115.89463   -1.229446609E-18
 116.021667   -1.228987731E-18
 116.148697   -1.228553978E-18