 -7.19999981   3.63345443E-19
 -7.07315636   3.633469423E-19
 -6.9463129   3.633497599E-19
 -6.81946898   3.633534822E-19
 -6.69262552   3.633591432E-19
 -6.56578159   3.633658899E-19
 -6.43893814   3.633743943E-19
 -6.31209469   3.633842688E-19
 -6.18525076   3.633951514E-19
 -6.05840731   3.634071714E-19
 -5.93156338   3.634197083E-19
 -5.80471992   3.634325038E-19
 -5.67787647   3.634451441E-19
 -5.55103254   3.634567505E-19
 -5.42418909   3.634668576E-19
 -5.29734564   3.634749485E-19
 -5.17050171   3.634808421E-19
 -5.04365826   3.634845128E-19
 -4.91681433   3.634848488E-19
 -4.78997087   3.634823673E-19
 -4.66312742   3.634775851E-19
 -4.53628349   3.634709418E-19
 -4.40944004   3.6346404E-19
 -4.28259611   3.634574743E-19
 -4.15575266   3.634523044E-19
 -4.02890921   3.634494093E-19
 -3.90206528   3.634496419E-19
 -3.77522182   3.634550703E-19
 -3.64837813   3.634664957E-19
 -3.52153444   3.634848488E-19
 -3.39469075   3.635111118E-19
 -3.2678473   3.635447677E-19
 -3.14100361   3.635864369E-19
 -3.01415992   3.636356025E-19
 -2.88731623   3.636922385E-19
 -2.76047254   3.637552076E-19
 -2.63362908   3.638233208E-19
 -2.50678539   3.638955957E-19
 -2.3799417   3.639701453E-19
 -2.25309801   3.640465303E-19
 -2.12625432   3.641221656E-19
 -1.99941075   3.641959398E-19
 -1.87256718   3.642651128E-19
 -1.74572349   3.64329271E-19
 -1.61887991   3.643857777E-19
 -1.49203622   3.644332372E-19
 -1.36519253   3.644704086E-19
 -1.23834896   3.644957928E-19
 -1.11150527   3.645083039E-19
 -0.984661698   3.64506908E-19
 -0.857818007   3.644910365E-19
 -0.730974376   3.64461594E-19
 -0.604130745   3.644184255E-19
 -0.477287114   3.643631854E-19
 -0.350443482   3.642975279E-19
 -0.223599836   3.642233143E-19
 -9.675619751E-2   3.64143905E-19
 3.008744121E-2   3.640612903E-19
 0.156931072   3.639795287E-19
 0.283774734   3.639008689E-19
 0.410618365   3.638291886E-19
 0.537461996   3.637667364E-19
 0.664305627   3.637165369E-19
 0.791149259   3.636797274E-19
 0.91799289   3.636581173E-19
 1.04483652   3.636526114E-19
 1.17168021   3.636628477E-19
 1.29852378   3.636886196E-19
 1.42536747   3.637282725E-19
 1.55221117   3.637803074E-19
 1.67905474   3.638425527E-19
 1.80589843   3.639123461E-19
 1.932742   3.639880073E-19
 2.05958557   3.640652452E-19
 2.18642926   3.641412166E-19
 2.31327295   3.642138017E-19
 2.44011664   3.642798211E-19
 2.56696033   3.643373101E-19
 2.69380379   3.643841492E-19
 2.82064748   3.64418865E-19
 2.94749117   3.644398288E-19
 3.07433486   3.644468082E-19
 3.20117831   3.644392084E-19
 3.328022   3.644172881E-19
 3.45486569   3.643822881E-19
 3.58170938   3.643351646E-19
 3.70855308   3.642761246E-19
 3.83539653   3.642084767E-19
 3.96224022   3.641340305E-19
 4.08908367   3.640542593E-19
 4.2159276   3.639723425E-19
 4.34277105   3.638905292E-19
 4.46961498   3.638104736E-19
 4.59645844   3.6373489E-19
 4.72330189   3.636663632E-19
 4.85014582   3.636058498E-19
 4.97698927   3.635547456E-19
 5.1038332   3.635136192E-19
 5.23067665   3.634832203E-19
 5.3575201   3.634637815E-19
 5.48436403   3.634546309E-19
 5.61120749   3.634555873E-19
 5.73805141   3.634666508E-19
 5.86489487   3.634862188E-19
 5.99173832   3.63512792E-19
 6.11858225   3.635459051E-19
 6.2454257   3.635837744E-19
 6.37226963   3.63624358E-19
 6.49911308   3.636672163E-19
 6.62595654   3.637109793E-19
 6.75280046   3.637536308E-19
 6.87964392   3.63794447E-19
 7.00648737   3.638321613E-19
 7.1333313   3.638658947E-19
 7.26017475   3.638944583E-19
 7.38701868   3.639175935E-19
 7.51386213   3.639348351E-19
 7.64070559   3.639463897E-19
 7.76754951   3.63951663E-19
 7.89439297   3.639517406E-19
 8.02123642   3.639471135E-19
 8.14808083   3.639388934E-19
 8.27492428   3.639282693E-19
 8.40176773   3.63916818E-19
 8.52861118   3.639055477E-19
 8.65545464   3.638955698E-19
 8.78229809   3.638882544E-19
 8.90914249   3.638845838E-19
 9.03598595   3.638847131E-19
 9.1628294   3.638892884E-19
 9.28967285   3.638983874E-19
 9.4165163   3.639120876E-19
 9.54336071   3.639295876E-19
 9.67020416   3.639508358E-19
 9.79704762   3.63974669E-19
 9.92389107   3.640001306E-19
 10.0507345   3.640269881E-19
 10.1775789   3.64053613E-19
 10.3044224   3.640796951E-19
 10.4312658   3.641047948E-19
 10.5581093   3.641272579E-19
 10.6849527   3.641467742E-19
 10.8117971   3.641622839E-19
 10.9386406   3.641740712E-19
 11.065484   3.641807403E-19
 11.1923275   3.64182343E-19
 11.319171   3.641777935E-19
 11.4460154   3.64167402E-19
 11.5728588   3.641509877E-19
 11.6997023   3.6412793E-19
 11.8265457   3.640991338E-19
 11.9533892   3.640655813E-19
 12.0802336   3.640267555E-19
 12.207077   3.639842332E-19
 12.3339205   3.6394016E-19
 12.4607639   3.638950787E-19
 12.5876074   3.63850747E-19
 12.7144518   3.638092328E-19
 12.8412952   3.637718288E-19
 12.9681387   3.637409904E-19
 13.0949821   3.637171573E-19
 13.2218256   3.637021388E-19
 13.34867   3.636964261E-19
 13.4755135   3.63699709E-19
 13.6023569   3.63712401E-19
 13.7292004   3.637333132E-19
 13.8560438   3.63761489E-19
 13.9828882   3.637952483E-19
 14.1097317   3.638328333E-19
 14.2365751   3.638713748E-19
 14.3634186   3.639093475E-19
 14.490262   3.639437789E-19
 14.6171055   3.63972782E-19
 14.7439499   3.639949349E-19
 14.8707933   3.640078596E-19
 14.9976368   3.640102636E-19
 15.1244802   3.640015265E-19
 15.2513237   3.639814157E-19
 15.3781681   3.639498794E-19
 15.5050116   3.639073313E-19
 15.631855   3.63855555E-19
 15.7586985   3.63795817E-19
 15.8855419   3.637300562E-19
 16.0123863   3.636605988E-19
 16.1392288   3.63589849E-19
 16.2660732   3.635201332E-19
 16.3929176   3.634532091E-19
 16.5197601   3.633916876E-19
 16.6466045   3.633375848E-19
 16.773447   3.632914953E-19
 16.9002914   3.632556422E-19
 17.0271358   3.632305166E-19
 17.1539783   3.632159892E-19
 17.2808228   3.632113881E-19
 17.4076653   3.632167906E-19
 17.5345097   3.632300513E-19
 17.6613541   3.632504206E-19
 17.7881966   3.632758047E-19
 17.915041   3.633041357E-19
 18.0418835   3.633338883E-19
 18.1687279   3.633630465E-19
 18.2955723   3.633893094E-19
 18.4224148   3.634116433E-19
 18.5492592   3.634284196E-19
 18.6761017   3.634383199E-19
 18.8029461   3.63441396E-19
 18.9297905   3.634359676E-19
 19.056633   3.63423017E-19
 19.1834774   3.634017688E-19
 19.3103199   3.633735672E-19
 19.4371643   3.633383603E-19
 19.5640087   3.632969237E-19
 19.6908512   3.63250524E-19
 19.8176956   3.632002728E-19
 19.9445381   3.631477727E-19
 20.0713825   3.630941352E-19
 20.1982269   3.630413766E-19
 20.3250694   3.629902206E-19
 20.4519138   3.629422183E-19
 20.5787563   3.628986621E-19
 20.7056007   3.62860741E-19
 20.8324451   3.628296442E-19
 20.9592876   3.628056818E-19
 21.086132   3.62788828E-19
 21.2129745   3.62780427E-19
 21.339819   3.627790569E-19
 21.4666634   3.627850281E-19
 21.5935059   3.627965311E-19
 21.7203503   3.62813204E-19
 21.8471928   3.628336767E-19
 21.9740372   3.628567085E-19
 22.1008816   3.628806709E-19
 22.2277241   3.629040646E-19
 22.3545685   3.62925623E-19
 22.481411   3.629445965E-19
 22.6082554   3.629593823E-19
 22.7350998   3.629683004E-19
 22.8619423   3.629710662E-19
 22.9887867   3.629671113E-19
 23.1156292   3.629558151E-19
 23.2424736   3.629367899E-19
 23.369318   3.629093896E-19
 23.4961605   3.628751133E-19
 23.6230049   3.628343229E-19
 23.7498474   3.627873546E-19
 23.8766918   3.627360694E-19
 24.0035343   3.626815013E-19
 24.1303787   3.626255632E-19
 24.2572231   3.625701938E-19
 24.3840656   3.625167114E-19
 24.51091   3.624670289E-19
 24.6377525   3.624226972E-19
 24.7645969   3.623857067E-19
 24.8914413   3.623567812E-19
 25.0182838   3.623362827E-19
 25.1451283   3.623256069E-19
 25.2719707   3.623248831E-19
 25.3988152   3.62333827E-19
 25.5256596   3.623518182E-19
 25.6525021   3.623783396E-19
 25.7793465   3.624127452E-19
 25.906189   3.624537682E-19
 26.0330334   3.624994699E-19
 26.1598778   3.625488422E-19
 26.2867203   3.626000499E-19
 26.4135647   3.626510766E-19
 26.5404072   3.627006557E-19
 26.6672516   3.627471329E-19
 26.794096   3.62789009E-19
 26.9209385   3.628242675E-19
 27.0477829   3.628524175E-19
 27.1746254   3.628708481E-19
 27.3014698   3.628795077E-19
 27.4283142   3.628781377E-19
 27.5551567   3.628663245E-19
 27.6820011   3.628436804E-19
 27.8088436   3.628115496E-19
 27.935688   3.627702681E-19
 28.0625324   3.627207666E-19
 28.1893749   3.626654747E-19
 28.3162193   3.626050388E-19
 28.4430618   3.625419663E-19
 28.5699062   3.624778339E-19
 28.6967506   3.624145029E-19
 28.8235931   3.623536276E-19
 28.9504375   3.622970433E-19
 29.07728   3.622459649E-19
 29.2041245   3.622015039E-19
 29.3309689   3.621645134E-19
 29.4578114   3.621349934E-19
 29.5846558   3.62113099E-19
 29.7114983   3.62099192E-19
 29.8383427   3.620922902E-19
 29.9651871   3.620915148E-19
 30.0920296   3.62096271E-19
 30.218874   3.6210537E-19
 30.3457165   3.621172866E-19
 30.4725609   3.621306507E-19
 30.5994053   3.621435496E-19
 30.7262478   3.621556471E-19
 30.8530922   3.621652631E-19
 30.9799347   3.621711309E-19
 31.1067791   3.621725785E-19
 31.2336235   3.62168882E-19
 31.360466   3.621595504E-19
 31.4873104   3.62145023E-19
 31.6141529   3.621258944E-19
 31.7409973   3.621022423E-19
 31.8678417   3.6207448E-19
 31.9946842   3.620440553E-19
 32.1215286   3.620127E-19
 32.2483711   3.619806467E-19
 32.3752136   3.619503254E-19
 32.5020599   3.619220203E-19
 32.6289024   3.618975151E-19
 32.7557449   3.618769131E-19
 32.8825912   3.618612484E-19
 33.0094337   3.618506501E-19
 33.1362762   3.61845868E-19
 33.2631226   3.618469795E-19
 33.3899651   3.618529507E-19
 33.5168076   3.618640918E-19
 33.6436501   3.618803252E-19
 33.7704964   3.619000741E-19
 33.8973389   3.619224856E-19
 34.0241814   3.619471459E-19
 34.1510277   3.619726075E-19
 34.2778702   3.619984311E-19
 34.4047127   3.620225227E-19
 34.531559   3.62044107E-19
 34.6584015   3.62061788E-19
 34.785244   3.620747902E-19
 34.9120865   3.62080839E-19
 35.0389328   3.620794948E-19
 35.1657753   3.620705767E-19
 35.2926178   3.620529992E-19
 35.4194641   3.620267103E-19
 35.5463066   3.619910899E-19
 35.6731491   3.619472493E-19
 35.7999954   3.618957056E-19
 35.9268379   3.618382165E-19
 36.0536804   3.617755318E-19
 36.1805229   3.6170959E-19
 36.3073692   3.616429502E-19
 36.4342117   3.615771118E-19
 36.5610542   3.615144787E-19
 36.6879005   3.614568087E-19
 36.814743   3.61405782E-19
 36.9415855   3.613630271E-19
 37.0684319   3.613292678E-19
 37.1952744   3.613052796E-19
 37.3221169   3.61291476E-19
 37.4489594   3.612879088E-19
 37.5758057   3.612932079E-19
 37.7026482   3.613065204E-19
 37.8294907   3.613265278E-19
 37.956337   3.613520153E-19
 38.0831795   3.61381251E-19
 38.210022   3.614119342E-19
 38.3368683   3.614432119E-19
 38.4637108   3.614727578E-19
 38.5905533   3.614993568E-19
 38.7173958   3.615221301E-19
 38.8442421   3.615390615E-19
 38.9710846   3.615497632E-19
 39.0979271   3.615533562E-19
 39.2247734   3.615495047E-19
 39.3516159   3.61537769E-19
 39.4784584   3.615186663E-19
 39.6053047   3.614920415E-19
 39.7321472   3.614589284E-19
 39.8589897   3.614197149E-19
 39.9858322   3.613751763E-19
 40.1126785   3.61326838E-19
 40.239521   3.612759922E-19
 40.3663635   3.61224371E-19
 40.4932098   3.611733184E-19
 40.6200523   3.611237134E-19
 40.7468948   3.610777015E-19
 40.8737411   3.610363425E-19
 41.0005836   3.610006186E-19
 41.1274261   3.609706333E-19
 41.2542686   3.609475498E-19
 41.381115   3.609307477E-19
 41.5079575   3.609203304E-19
 41.6348   3.609151605E-19
 41.7616463   3.609153932E-19
 41.8884888   3.609189862E-19
 42.0153313   3.609247248E-19
 42.1421776   3.609316007E-19
 42.2690201   3.609387869E-19
 42.3958626   3.60944422E-19
 42.5227051   3.609478083E-19
 42.6495514   3.609479893E-19
 42.7763939   3.609445254E-19
 42.9032364   3.609373652E-19
 43.0300827   3.609273873E-19
 43.1569252   3.609136096E-19
 43.2837677   3.608969884E-19
 43.4106102   3.608784027E-19
 43.5374565   3.60859636E-19
 43.664299   3.608406367E-19
 43.7911415   3.608229299E-19
 43.9179878   3.608066448E-19
 44.0448303   3.60793384E-19
 44.1716728   3.607841558E-19
 44.2985191   3.60778288E-19
 44.4253616   3.607767112E-19
 44.5522041   3.607792186E-19
 44.6790466   3.607852415E-19
 44.8058929   3.607957622E-19
 44.9327354   3.60808842E-19
 45.0595779   3.608248944E-19
 45.1864243   3.608424979E-19
 45.3132668   3.608609543E-19
 45.4401093   3.608799278E-19
 45.5669556   3.608988237E-19
 45.6937981   3.609160136E-19
 45.8206406   3.609310321E-19
 45.9474831   3.609431037E-19
 46.0743294   3.609519959E-19
 46.2011719   3.609570365E-19
 46.3280144   3.609581998E-19
 46.4548607   3.60954891E-19
 46.5817032   3.609475498E-19
 46.7085457   3.609367706E-19
 46.835392   3.609226052E-19
 46.9622345   3.609056221E-19
 47.089077   3.608867779E-19
 47.2159195   3.608666929E-19
 47.3427658   3.608457808E-19
 47.4696083   3.608260577E-19
 47.5964508   3.608077563E-19
 47.7232971   3.607915487E-19
 47.8501396   3.607778485E-19
 47.9769821   3.607669401E-19
 48.1038284   3.607592111E-19
 48.2306709   3.607546099E-19
 48.3575134   3.60753395E-19
 48.4843559   3.60754765E-19
 48.6112022   3.607584356E-19
 48.7380447   3.607634763E-19
 48.8648872   3.607697577E-19
 48.9917336   3.607765302E-19
 49.118576   3.607827341E-19
 49.2454185   3.607879557E-19
 49.3722649   3.60792195E-19
 49.4991074   3.607946248E-19
 49.6259499   3.607952969E-19
 49.7527924   3.607943922E-19
 49.8796387   3.607915229E-19
 50.0064812   3.607870251E-19
 50.1333237   3.607812348E-19
 50.26017   3.607742555E-19
 50.3870125   3.607663456E-19
 50.513855   3.607578153E-19
 50.6407013   3.607483027E-19
 50.7675438   3.607382214E-19
 50.8943863   3.607267701E-19
 51.0212288   3.607144141E-19
 51.1480751   3.607014636E-19
 51.2749176   3.606866777E-19
 51.4017601   3.606703926E-19
 51.5286064   3.606534871E-19
 51.6554489   3.606346429E-19
 51.7822914   3.606144028E-19
 51.9091377   3.605934131E-19
 52.0359802   3.605713894E-19
 52.1628227   3.605494174E-19
 52.2896652   3.605274713E-19
 52.4165115   3.605053184E-19
 52.543354   3.604844062E-19
 52.6701965   3.604643988E-19
 52.7970428   3.604451668E-19
 52.9238853   3.604277443E-19
 53.0507278   3.604112524E-19
 53.1775742   3.603960013E-19
 53.3044167   3.603813964E-19
 53.4312592   3.603675153E-19
 53.5581017   3.603534015E-19
 53.684948   3.603400374E-19
 53.8117905   3.603267766E-19
 53.938633   3.603130247E-19
 54.0654793   3.602993246E-19
 54.1923218   3.602861155E-19
 54.3191643   3.60273165E-19
 54.4460106   3.602603437E-19
 54.5728531   3.602490733E-19
 54.6996956   3.602391472E-19
 54.8265381   3.602307203E-19
 54.9533844   3.602248783E-19
 55.0802269   3.602215954E-19
 55.2070694   3.602215437E-19
 55.3339157   3.602242838E-19
 55.4607582   3.602308495E-19
 55.5876007   3.602397159E-19
 55.7144432   3.602519943E-19
 55.8412895   3.602668836E-19
 55.968132   3.602840476E-19
 56.0949745   3.603027108E-19
 56.2218208   3.603223305E-19
 56.3486633   3.603424413E-19
 56.4755058   3.60362242E-19
 56.6023521   3.603810862E-19
 56.7291946   3.603975006E-19
 56.8560371   3.604106321E-19
 56.9828796   3.604201446E-19
 57.109726   3.604245649E-19
 57.2365685   3.604230139E-19
 57.3634109   3.604153108E-19
 57.4902573   3.603999821E-19
 57.6170998   3.603770537E-19
 57.7439423   3.60345595E-19
 57.8707886   3.60304572E-19
 57.9976311   3.602545793E-19
 58.1244736   3.601955392E-19
 58.2513161   3.601274261E-19
 58.3781624   3.60050033E-19
 58.5050049   3.599644974E-19
 58.6318474   3.598714654E-19
 58.7586937   3.597711697E-19
 58.8855362   3.596649546E-19
 59.0123787   3.595542933E-19
 59.139225   3.594394445E-19
 59.2660675   3.593220624E-19
 59.39291   3.592031035E-19
 59.5197525   3.59083886E-19
 59.6465988   3.589652373E-19
 59.7734413   3.588479845E-19
 59.9002838   3.587339369E-19
 60.0271301   3.586229655E-19
 60.1539726   3.585156647E-19
 60.2808151   3.584134562E-19
 60.4076614   3.583146081E-19
 60.5345039   3.58220387E-19
 60.6613464   3.581293196E-19
 60.7881889   3.580408371E-19
 60.9150352   3.579535179E-19
 61.0418777   3.578657592E-19
 61.1687202   3.577770958E-19
 61.2955666   3.576845032E-19
 61.4224091   3.575865599E-19
 61.5492516   3.574811461E-19
 61.6760979   3.573676414E-19
 61.8029404   3.572448309E-19
 61.9297829   3.571120943E-19
 62.0566254   3.569682682E-19
 62.1834717   3.568139732E-19
 62.3103142   3.566494677E-19
 62.4371567   3.564755529E-19
 62.564003   3.562934439E-19
 62.6908455   3.561039679E-19
 62.817688   3.559091927E-19
 62.9445343   3.557115224E-19
 63.0713768   3.555120943E-19
 63.1982193   3.55313054E-19
 63.3250618   3.551165727E-19
 63.4519081   3.549238655E-19
 63.5787506   3.547361472E-19
 63.7055931   3.545542967E-19
 63.8324394   3.543799942E-19
 63.9592819   3.542132657E-19
 64.0861282   3.540538266E-19
 64.2129669   3.539014961E-19
 64.3398132   3.537565327E-19
 64.4666595   3.536179024E-19
 64.5934982   3.53484261E-19
 64.7203445   3.533542127E-19
 64.8471909   3.532272147E-19
 64.9740295   3.531009921E-19
 65.1008759   3.529732185E-19
 65.2277145   3.528427049E-19
 65.3545609   3.527070732E-19
 65.4814072   3.525644879E-19
 65.6082458   3.524136567E-19
 65.7350922   3.52253287E-19
 65.8619385   3.520821124E-19
 65.9887772   3.519002102E-19
 66.1156235   3.517068567E-19
 66.2424698   3.515031635E-19
 66.3693085   3.512900869E-19
 66.4961548   3.510682991E-19
 66.6230011   3.508401782E-19
 66.7498398   3.506070167E-19
 66.8766861   3.503719423E-19
 67.0035324   3.501367645E-19
 67.1303711   3.499038615E-19
 67.2572174   3.496751202E-19
 67.3840637   3.494525052E-19
 67.5109024   3.492368178E-19
 67.6377487   3.490291438E-19
 67.7645874   3.48830362E-19
 67.8914337   3.486411444E-19
 68.01828   3.484605088E-19
 68.1451187   3.482877573E-19
 68.271965   3.481220627E-19
 68.3988113   3.479625978E-19
 68.52565   3.47807579E-19
 68.6524963   3.476549642E-19
 68.7793427   3.475025044E-19
 68.9061813   3.473488556E-19
 69.0330276   3.47191924E-19
 69.159874   3.470302877E-19
 69.2867126   3.468617497E-19
 69.413559   3.466847072E-19
 69.5404053   3.464986691E-19
 69.667244   3.463022912E-19
 69.7940903   3.460948498E-19
 69.920929   3.458767068E-19
 70.0477753   3.456471125E-19
 70.1746216   3.454071009E-19
 70.3014603   3.451583521E-19
 70.4283066   3.449008405E-19
 70.5551529   3.446370474E-19
 70.6819916   3.443681879E-19
 70.8088379   3.440976222E-19
 70.9356842   3.438267464E-19
 71.0625229   3.435575509E-19
 71.1893692   3.432920517E-19
 71.3162155   3.430315157E-19
 71.4430542   3.427773127E-19
 71.5699005   3.425311748E-19
 71.6967468   3.422925591E-19
 71.8235855   3.420627062E-19
 71.9504318   3.418407633E-19
 72.0772781   3.416254637E-19
 72.2041168   3.414160319E-19
 72.3309631   3.412122353E-19
 72.4578018   3.410119025E-19
 72.5846481   3.408131982E-19
 72.7114944   3.406144939E-19
 72.8383331   3.404143679E-19
 72.9651794   3.402113468E-19
 73.0920258   3.400031816E-19
 73.2188644   3.397896398E-19
 73.3457108   3.395692737E-19
 73.4725571   3.393408943E-19
 73.5993958   3.391046567E-19
 73.7262421   3.388599405E-19
 73.8530884   3.386063062E-19
 73.9799271   3.383444777E-19
 74.1067734   3.380754372E-19
 74.2336197   3.377998051E-19
 74.3604584   3.375187446E-19
 74.4873047   3.372330313E-19
 74.614151   3.369450173E-19
 74.7409897   3.366554783E-19
 74.867836   3.363669473E-19
 74.9946747   3.360804585E-19
 75.121521   3.357984416E-19
 75.2483673   3.355217497E-19
 75.375206   3.352525283E-19
 75.5020523   3.34991165E-19
 75.6288986   3.347391076E-19
 75.7557373   3.344963559E-19
 75.8825836   3.342632978E-19
 76.0094299   3.340393903E-19
 76.1362686   3.338246853E-19
 76.2631149   3.336185105E-19
 76.3899612   3.334197545E-19
 76.5167999   3.332278486E-19
 76.6436462   3.330410867E-19
 76.7704926   3.328595464E-19
 76.8973312   3.326809013E-19
 77.0241776   3.325050479E-19
 77.1510239   3.323311331E-19
 77.2778625   3.321577354E-19
 77.4047089   3.319838724E-19
 77.5315475   3.318096475E-19
 77.6583939   3.316336389E-19
 77.7852402   3.314557692E-19
 77.9120789   3.312752112E-19
 78.0389252   3.310915771E-19
 78.1657715   3.309044534E-19
 78.2926102   3.307144603E-19
 78.4194565   3.305213395E-19
 78.5463028   3.303253494E-19
 78.6731415   3.301280668E-19
 78.7999878   3.299287938E-19
 78.9268341   3.297295209E-19
 79.0536728   3.295309975E-19
 79.1805191   3.293346197E-19
 79.3073654   3.291418607E-19
 79.4342041   3.289536254E-19
 79.5610504   3.287710512E-19
 79.6878967   3.285950943E-19
 79.8147354   3.284265046E-19
 79.9415817   3.282650234E-19
 80.0684204   3.281114263E-19
 80.1952667   3.279652222E-19
 80.322113   3.278251443E-19
 80.4489517   3.276910893E-19
 80.575798   3.275618682E-19
 80.7026443   3.274348701E-19
 80.829483   3.27309423E-19
 80.9563293   3.271835623E-19
 81.0831757   3.270560214E-19
 81.2100143   3.269252235E-19
 81.3368607   3.267904189E-19
 81.463707   3.266503927E-19
 81.5905457   3.265050157E-19
 81.717392   3.263536158E-19
 81.8442383   3.261969168E-19
 81.971077   3.260350737E-19
 82.0979233   3.258688104E-19
 82.224762   3.256984112E-19
 82.3516083   3.255258924E-19
 82.4784546   3.253517709E-19
 82.6052933   3.251778561E-19
 82.7321396   3.250046652E-19
 82.8589859   3.248339299E-19
 82.9858246   3.24666917E-19
 83.1126709   3.245050481E-19
 83.2395172   3.243490729E-19
 83.3663559   3.242006456E-19
 83.4932022   3.240602059E-19
 83.6200485   3.2392871E-19
 83.7468872   3.238056669E-19
 83.8737335   3.236918779E-19
 84.0005798   3.235876531E-19
 84.1274185   3.23492579E-19
 84.2542648   3.234052856E-19
 84.3811111   3.23325075E-19
 84.5079498   3.232510423E-19
 84.6347961   3.231810163E-19
 84.7616348   3.231136786E-19
 84.8884811   3.230473232E-19
 85.0153275   3.229801665E-19
 85.1421661   3.22909701E-19
 85.2690125   3.22835048E-19
 85.3958588   3.227534156E-19
 85.5226974   3.226632271E-19
 85.6495438   3.225638879E-19
 85.7763901   3.224547E-19
 85.9032288   3.223344228E-19
 86.0300751   3.222032371E-19
 86.1569214   3.220614015E-19
 86.2837601   3.219103635E-19
 86.4106064   3.217503299E-19
 86.5374527   3.21582955E-19
 86.6642914   3.214104103E-19
 86.7911377   3.212334971E-19
 86.917984   3.210548519E-19
 87.0448227   3.208761292E-19
 87.171669   3.207002241E-19
 87.2985077   3.205288168E-19
 87.425354   3.20362295E-19
 87.5522003   3.202039157E-19
 87.679039   3.200539634E-19
 87.8058853   3.199131876E-19
 87.9327316   3.197828032E-19
 88.0595703   3.196625777E-19
 88.1864166   3.19552511E-19
 88.3132629   3.194521636E-19
 88.4401016   3.193602173E-19
 88.5669479   3.19275664E-19
 88.6937943   3.191967199E-19
 88.8206329   3.191214465E-19
 88.9474792   3.190476723E-19
 89.0743256   3.189741566E-19
 89.2011642   3.188983662E-19
 89.3280106   3.188186208E-19
 89.4548569   3.187336539E-19
 89.5816956   3.186417334E-19
 89.7085419   3.185425235E-19
 89.8353806   3.184351709E-19
 89.9622269   3.183194432E-19
 90.0890732   3.181958831E-19
 90.2159119   3.180656797E-19
 90.3427582   3.1792935E-19
 90.4696045   3.177878504E-19
 90.5964432   3.176432489E-19
 90.7232895   3.1749751E-19
 90.8501358   3.173522106E-19
 90.9769745   3.172087464E-19
 91.1038208   3.170690563E-19
 91.2306671   3.169345102E-19
 91.3575058   3.168057544E-19
 91.4843521   3.166836677E-19
 91.6111984   3.165685862E-19
 91.7380371   3.164604582E-19
 91.8648834   3.163593612E-19
 91.9917297   3.162648299E-19
 92.1185684   3.161750291E-19
 92.2454147   3.160903724E-19
 92.3722534   3.160092053E-19
 92.4990997   3.159303388E-19
 92.625946   3.158522736E-19
 92.7527847   3.157740533E-19
 92.879631   3.156931706E-19
 93.0064774   3.156094961E-19
 93.133316   3.155212463E-19
 93.2601624   3.154275939E-19
 93.3870087   3.153272466E-19
 93.5138474   3.152194546E-19
 93.6406937   3.151031582E-19
 93.76754   3.149779437E-19
 93.8943787   3.148435269E-19
 94.021225   3.147006056E-19
 94.1480713   3.145488179E-19
 94.27491   3.143895081E-19
 94.4017563   3.142232189E-19
 94.528595   3.14051579E-19
 94.6554413   3.138762167E-19
 94.7822876   3.136987864E-19
 94.9091263   3.135216922E-19
 95.0359726   3.133460973E-19
 95.1628189   3.131738886E-19
 95.2896576   3.130072117E-19
 95.4165039   3.12847204E-19
 95.5433502   3.126953905E-19
 95.6701889   3.12551823E-19
 95.7970352   3.124179231E-19
 95.9238815   3.122939753E-19
 96.0507202   3.121795658E-19
 96.1775665   3.120739711E-19
 96.3044128   3.119773719E-19
 96.4312515   3.11887933E-19
 96.5580978   3.1180537E-19
 96.6849442   3.11728313E-19
 96.8117828   3.116556503E-19
 96.9386292   3.115850556E-19
 97.0654678   3.115154691E-19
 97.1923141   3.114454172E-19
 97.3191605   3.113738661E-19
 97.4459991   3.112990321E-19
 97.5728455   3.112202431E-19
 97.6996918   3.111358966E-19
 97.8265305   3.11044855E-19
 97.9533768   3.109462912E-19
 98.0802231   3.108399727E-19
 98.2070618   3.10725098E-19
 98.3339081   3.106017447E-19
 98.4607544   3.104702488E-19
 98.5875931   3.1033136E-19
 98.7144394   3.101856987E-19
 98.8412857   3.100341954E-19
 98.9681244   3.098779099E-19
 99.0949707   3.097188069E-19
 99.221817   3.095584114E-19
 99.3486557   3.093977316E-19
 99.475502   3.092386027E-19
 99.6023407   3.090820846E-19
 99.729187   3.08928927E-19
 99.8560333   3.087800862E-19
 99.982872   3.086364928E-19
 100.109718   3.084978883E-19
 100.236565   3.083654102E-19
 100.363403   3.082382053E-19
 100.49025   3.081159377E-19
 100.617096   3.079985297E-19
 100.743935   3.078851801E-19
 100.870781   3.077756563E-19
 100.997627   3.076693894E-19
 101.124466   3.075659143E-19
 101.251312   3.074644813E-19
 101.378159   3.073652454E-19
 101.504997   3.072683619E-19
 101.631844   3.071731327E-19
 101.75869   3.070804885E-19
 101.885529   3.069898864E-19
 102.012375   3.069023086E-19
 102.139214   3.068176777E-19
 102.26606   3.067362004E-19
 102.392906   3.066577992E-19
 102.519745   3.065834047E-19
 102.646591   3.065128358E-19
 102.773438   3.064458342E-19
 102.900276   3.063824773E-19
 103.027122   3.063236182E-19
 103.153969   3.062677577E-19
 103.280807   3.062159297E-19
 103.407654   3.061666866E-19
 103.5345   3.061203386E-19
 103.661339   3.060767307E-19
 103.788185   3.060349322E-19
 103.915031   3.059941419E-19
 104.04187   3.059539978E-19
 104.168716   3.059126387E-19
 104.295563   3.0586916E-19
 104.422401   3.05823174E-19
 104.549248   3.057723024E-19
 104.676086   3.05716235E-19
 104.802933   3.056533693E-19
 104.929779   3.055827488E-19
 105.056618   3.055035204E-19
 105.183464   3.054150896E-19
 105.31031   3.053175081E-19
 105.437149   3.052104658E-19
 105.563995   3.050943503E-19
 105.690842   3.049694977E-19
 105.81768   3.048372005E-19
 105.944527   3.046977689E-19
 106.071373   3.045523402E-19
 106.198212   3.044022069E-19
 106.325058   3.042494112E-19
 106.451904   3.040943665E-19
 106.578743   3.03939115E-19
 106.705589   3.037848717E-19
 106.832428   3.036334201E-19
 106.959274   3.034860527E-19
 107.086121   3.033442946E-19
 107.212959   3.032094383E-19
 107.339806   3.030831123E-19
 107.466652   3.029653942E-19
 107.593491   3.028576539E-19
 107.720337   3.027605378E-19
 107.847183   3.026745368E-19
 107.974022   3.025986688E-19
 108.100868   3.02532908E-19
 108.227715   3.024754448E-19
 108.354553   3.024251419E-19
 108.4814   3.023810686E-19
 108.608246   3.023401749E-19
 108.735085   3.023000308E-19
 108.861931   3.022588786E-19
 108.988777   3.022137714E-19
 109.115616   3.021631324E-19
 109.242462   3.021047128E-19
 109.369301   3.020365738E-19
 109.496147   3.019580692E-19
 109.622993   3.018682167E-19
 109.749832   3.017669904E-19
 109.876678   3.01654985E-19
 110.003525   3.015339582E-19
 110.130363   3.01404918E-19
 110.25721   3.012701651E-19
 110.384056   3.01131845E-19
 110.510895   3.009913277E-19
 110.637741   3.008518185E-19
 110.764587   3.007150752E-19
 110.891426   3.005847684E-19
 111.018272   3.004615443E-19
 111.145119   3.003470832E-19
 111.271957   3.002430394E-19
 111.398804   3.001502142E-19
 111.52565   3.000689179E-19
 111.652489   3.000001844E-19
 111.779335   2.999431347E-19
 111.906174   2.998980017E-19
 112.03302   2.998635962E-19
 112.159866   2.998389875E-19
 112.286705   2.998232969E-19
 112.413551   2.998146891E-19
 112.540398   2.998112511E-19
 112.667236   2.998114062E-19
 112.794083   2.998129055E-19
 112.920929   2.998140946E-19
 113.047768   2.998132674E-19
 113.174614   2.998077873E-19
 113.30146   2.997970598E-19
 113.428299   2.997788101E-19
 113.555145   2.997512547E-19
 113.681992   2.997138765E-19
 113.80883   2.996659258E-19
 113.935677   2.996075838E-19
 114.062523   2.995388761E-19
 114.189362   2.994598545E-19
 114.316208   2.993713978E-19
 114.443047   2.992744885E-19
 114.569893   2.991700569E-19
 114.696739   2.99060197E-19
 114.823578   2.98946563E-19
 114.950424   2.988302408E-19
 115.077271   2.987141511E-19
 115.204109   2.985992247E-19
 115.330956   2.984875812E-19
 115.457802   2.98380694E-19
 115.584641   2.982797779E-19
 115.711487   2.981855569E-19
 115.838333   2.980992716E-19
 115.965172   2.980211806E-19
 116.092018   2.979517233E-19
 116.218864   2.978902534E-19
 116.345703   2.978372104E-19
 116.472549   2.977915346E-19
 116.599396   2.977523469E-19
 116.726234   2.977184842E-19
 116.853081   2.9768762E-19
 116.979919   2.976588755E-19
 117.106766   2.976301826E-19
 117.233612   2.976002232E-19
 117.360451   2.975669809E-19
 117.487297   2.975290081E-19
 117.614143   2.974856328E-19
 117.740982   2.974350714E-19
 117.867828   2.973774531E-19
 117.994675   2.973115372E-19
 118.121513   2.972373236E-19
 118.24836   2.97155717E-19
 118.375206   2.970669243E-19
 118.502045   2.96972419E-19
 118.628891   2.968734933E-19
 118.755737   2.967714658E-19
 118.882576   2.96667241E-19
 119.009422   2.965641278E-19
 119.136261   2.964627206E-19
 119.263107   2.963650358E-19
 119.389954   2.962731929E-19
 119.516792   2.961889238E-19
 119.643639   2.961129008E-19
 119.770485   2.960468297E-19
 119.897324   2.959914086E-19
 120.02417   2.959465858E-19
 120.151016   2.959128523E-19