 -7.19999981   1.090837898E-17
 -7.07296753   1.090838477E-17
 -6.94593477   1.090839552E-17
 -6.81890202   1.090841041E-17
 -6.69186926   1.09084253E-17
 -6.56483698   1.090844102E-17
 -6.43780422   1.090845508E-17
 -6.31077147   1.090846501E-17
 -6.18373871   1.09084708E-17
 -6.05670643   1.090847245E-17
 -5.92967367   1.090846914E-17
 -5.80264091   1.090846335E-17
 -5.67560816   1.090845674E-17
 -5.5485754   1.090845177E-17
 -5.42154312   1.090845012E-17
 -5.29451036   1.090845591E-17
 -5.16747761   1.090846914E-17
 -5.04044485   1.090849148E-17
 -4.91341257   1.090852291E-17
 -4.78637981   1.090856427E-17
 -4.65934706   1.090861307E-17
 -4.5323143   1.090866684E-17
 -4.40528202   1.090872226E-17
 -4.27824926   1.090877768E-17
 -4.15121651   1.090882814E-17
 -4.02418375   1.090887281E-17
 -3.89715123   1.090890838E-17
 -3.77011847   1.090893485E-17
 -3.64308596   1.090895139E-17
 -3.5160532   1.090895883E-17
 -3.38902068   1.090896049E-17
 -3.26198792   1.090895883E-17
 -3.13495541   1.090895635E-17
 -3.00792265   1.090895635E-17
 -2.88089013   1.090896049E-17
 -2.75385737   1.090897207E-17
 -2.62682486   1.090899109E-17
 -2.4997921   1.090901674E-17
 -2.37275958   1.090904734E-17
 -2.24572682   1.090908126E-17
 -2.11869431   1.090911517E-17
 -1.99166155   1.09091466E-17
 -1.86462891   1.090917473E-17
 -1.73759627   1.090919458E-17
 -1.61056364   1.090920699E-17
 -1.483531   1.09092103E-17
 -1.35649836   1.090920616E-17
 -1.22946572   1.090919541E-17
 -1.10243309   1.090917969E-17
 -0.975400388   1.090916232E-17
 -0.848367751   1.090914412E-17
 -0.721335113   1.090912675E-17
 -0.594302475   1.090911269E-17
 -0.467269808   1.090910111E-17
 -0.34023717   1.090909284E-17
 -0.213204518   1.090908705E-17
 -8.617187291E-2   1.090908043E-17
 4.086076841E-2   1.09090705E-17
 0.16789341   1.090905561E-17
 0.294926047   1.090903163E-17
 0.421958715   1.090899937E-17
 0.548991323   1.090895635E-17
 0.67602402   1.090890341E-17
 0.803056657   1.090884055E-17
 0.930089295   1.090877106E-17
 1.05712187   1.090869827E-17
 1.18415463   1.090862631E-17
 1.31118727   1.090855682E-17
 1.4382199   1.090849561E-17
 1.56525254   1.09084435E-17
 1.69228518   1.090840297E-17
 1.81931782   1.090837402E-17
 1.94635046   1.090835582E-17
 2.07338309   1.090834672E-17
 2.20041585   1.090834258E-17
 2.32744837   1.090834093E-17
 2.45448112   1.090833762E-17
 2.58151364   1.090833183E-17
 2.7085464   1.090832025E-17
 2.83557892   1.090830371E-17
 2.96261168   1.09082822E-17
 3.08964419   1.090825821E-17
 3.21667695   1.09082334E-17
 3.34370947   1.090821189E-17
 3.47074223   1.090819535E-17
 3.59777474   1.09081879E-17
 3.7248075   1.090819121E-17
 3.85184002   1.090820527E-17
 3.97887278   1.090823009E-17
 4.10590553   1.090826483E-17
 4.23293829   1.090830702E-17
 4.35997057   1.090835499E-17
 4.48700333   1.09084038E-17
 4.61403608   1.090845012E-17
 4.74106884   1.09084923E-17
 4.86810112   1.090852787E-17
 4.99513388   1.090855517E-17
 5.12216663   1.09085742E-17
 5.24919939   1.09085866E-17
 5.37623167   1.090859322E-17
 5.50326443   1.090859736E-17
 5.63029718   1.090860149E-17
 5.75732994   1.090860811E-17
 5.88436222   1.090862052E-17
 6.01139498   1.090864037E-17
 6.13842773   1.090866849E-17
 6.26546049   1.090870654E-17
 6.39249325   1.090875204E-17
 6.51952553   1.090880415E-17
 6.64655828   1.09088604E-17
 6.77359104   1.090891748E-17
 6.9006238   1.09089729E-17
 7.02765608   1.090902418E-17
 7.15468884   1.090906802E-17
 7.28172159   1.090910607E-17
 7.40875435   1.090913585E-17
 7.53578663   1.090915901E-17
 7.66281939   1.090917721E-17
 7.78985214   1.090919293E-17
 7.9168849   1.090920864E-17
 8.04391766   1.090922684E-17
 8.17094994   1.090925083E-17
 8.29798317   1.090927978E-17
 8.42501545   1.090931535E-17
 8.55204773   1.090935754E-17
 8.67908096   1.090940386E-17
 8.80611324   1.090945349E-17
 8.93314552   1.090950395E-17
 9.06017876   1.09095544E-17
 9.18721104   1.090960073E-17
 9.31424427   1.090964126E-17
 9.44127655   1.090967683E-17
 9.56830883   1.090970495E-17
 9.69534206   1.090972729E-17
 9.82237434   1.090974383E-17
 9.94940662   1.090975624E-17
 10.0764399   1.090976699E-17
 10.2034721   1.090977692E-17
 10.3305054   1.090978767E-17
 10.4575377   1.090980173E-17
 10.5845699   1.090981993E-17
 10.7116032   1.090984226E-17
 10.8386354   1.090986956E-17
 10.9656687   1.090990182E-17
 11.092701   1.090993822E-17
 11.2197332   1.090997627E-17
 11.3467665   1.091001432E-17
 11.4737988   1.091005154E-17
 11.600831   1.091008545E-17
 11.7278643   1.091011523E-17
 11.8548965   1.091014005E-17
 11.9819298   1.091016073E-17
 12.1089621   1.091017644E-17
 12.2359943   1.091018885E-17
 12.3630276   1.091019961E-17
 12.4900599   1.091021036E-17
 12.6170931   1.091022194E-17
 12.7441254   1.091023683E-17
 12.8711576   1.091025585E-17
 12.9981909   1.091027819E-17
 13.1252232   1.091030383E-17
 13.2522554   1.091033113E-17
 13.3792887   1.091035925E-17
 13.506321   1.091038655E-17
 13.6333542   1.091040971E-17
 13.7603865   1.091042956E-17
 13.8874187   1.09104428E-17
 14.014452   1.091045024E-17
 14.1414843   1.091045107E-17
 14.2685175   1.091044776E-17
 14.3955498   1.091044031E-17
 14.5225821   1.091043122E-17
 14.6496153   1.091042294E-17
 14.7766476   1.091041715E-17
 14.9036798   1.09104155E-17
 15.0307131   1.091041881E-17
 15.1577454   1.091042791E-17
 15.2847786   1.091044362E-17
 15.4118109   1.09104643E-17
 15.5388432   1.091048912E-17
 15.6658764   1.091051642E-17
 15.7929087   1.091054537E-17
 15.9199409   1.091057432E-17
 16.0469742   1.091059996E-17
 16.1740074   1.091062229E-17
 16.3010387   1.091063967E-17
 16.428072   1.091065207E-17
 16.5551052   1.091065952E-17
 16.6821365   1.091066365E-17
 16.8091698   1.091066448E-17
 16.936203   1.091066531E-17
 17.0632343   1.091066696E-17
 17.1902676   1.091067193E-17
 17.3173008   1.09106802E-17
 17.444334   1.091069426E-17
 17.5713654   1.091071246E-17
 17.6983986   1.091073645E-17
 17.8254318   1.091076292E-17
 17.9524632   1.091079104E-17
 18.0794964   1.091081834E-17
 18.2065296   1.091084232E-17
 18.3335609   1.091086135E-17
 18.4605942   1.091087458E-17
 18.5876274   1.091088037E-17
 18.7146587   1.09108812E-17
 18.841692   1.091087707E-17
 18.9687252   1.091086962E-17
 19.0957584   1.091086218E-17
 19.2227898   1.091085721E-17
 19.349823   1.091085556E-17
 19.4768562   1.09108597E-17
 19.6038876   1.091087045E-17
 19.7309208   1.091088865E-17
 19.857954   1.091091346E-17
 19.9849854   1.091094407E-17
 20.1120186   1.091097964E-17
 20.2390518   1.091101851E-17
 20.3660831   1.091105822E-17
 20.4931164   1.091109875E-17
 20.6201496   1.09111368E-17
 20.7471828   1.09111732E-17
 20.8742142   1.091120628E-17
 21.0012474   1.091123606E-17
 21.1282806   1.091126253E-17
 21.255312   1.091128735E-17
 21.3823452   1.091130885E-17
 21.5093784   1.091132953E-17
 21.6364098   1.091134856E-17
 21.763443   1.091136758E-17
 21.8904762   1.091138661E-17
 22.0175076   1.091140563E-17
 22.1445408   1.091142383E-17
 22.271574   1.091144286E-17
 22.3986073   1.091146106E-17
 22.5256386   1.09114776E-17
 22.6526718   1.091149166E-17
 22.779705   1.091150407E-17
 22.9067364   1.091151317E-17
 23.0337696   1.091151979E-17
 23.1608028   1.091152475E-17
 23.2878342   1.091152723E-17
 23.4148674   1.091153054E-17
 23.5419006   1.091153385E-17
 23.668932   1.091154047E-17
 23.7959652   1.091155039E-17
 23.9229984   1.091156445E-17
 24.0500298   1.091158348E-17
 24.177063   1.091160747E-17
 24.3040962   1.091163559E-17
 24.4311295   1.091166702E-17
 24.5581608   1.091169928E-17
 24.685194   1.091173237E-17
 24.8122272   1.091176215E-17
 24.9392586   1.091178862E-17
 25.0662918   1.091181095E-17
 25.193325   1.091182832E-17
 25.3203564   1.09118399E-17
 25.4473896   1.091184735E-17
 25.5744228   1.091184983E-17
 25.7014542   1.091184983E-17
 25.8284874   1.091184983E-17
 25.9555206   1.091184983E-17
 26.0825539   1.091185231E-17
 26.2095852   1.091185728E-17
 26.3366184   1.091186637E-17
 26.4636517   1.091187878E-17
 26.590683   1.091189615E-17
 26.7177162   1.091191601E-17
 26.8447495   1.091193917E-17
 26.9717808   1.091196398E-17
 27.098814   1.091198962E-17
 27.2258472   1.091201444E-17
 27.3528786   1.091203843E-17
 27.4799118   1.091206076E-17
 27.606945   1.091207979E-17
 27.7339783   1.091209716E-17
 27.8610096   1.09121137E-17
 27.9880428   1.09121319E-17
 28.1150761   1.091215092E-17
 28.2421074   1.091217409E-17
 28.3691406   1.091220304E-17
 28.4961739   1.091223695E-17
 28.6232052   1.091227748E-17
 28.7502384   1.091232298E-17
 28.8772717   1.091237426E-17
 29.004303   1.09124272E-17
 29.1313362   1.091248014E-17
 29.2583694   1.091253143E-17
 29.3854027   1.091257775E-17
 29.512434   1.091261745E-17
 29.6394672   1.091264971E-17
 29.7665005   1.091267288E-17
 29.8935318   1.091268694E-17
 30.020565   1.091269521E-17
 30.1475983   1.091269935E-17
 30.2746296   1.091269935E-17
 30.4016628   1.0912701E-17
 30.5286961   1.091270596E-17
 30.6557274   1.091271589E-17
 30.7827606   1.091273243E-17
 30.9097939   1.091275807E-17
 31.0368271   1.091279033E-17
 31.1638584   1.091283004E-17
 31.2908916   1.091287388E-17
 31.4179249   1.091292103E-17
 31.5449562   1.091296735E-17
 31.6719894   1.091301037E-17
 31.7990227   1.091304924E-17
 31.926054   1.091307985E-17
 32.0530891   1.091310218E-17
 32.1801186   1.091311542E-17
 32.3071518   1.091312121E-17
 32.434185   1.091312038E-17
 32.5612183   1.091311624E-17
 32.6882515   1.091311128E-17
 32.8152847   1.091310963E-17
 32.9423141   1.091311294E-17
 33.0693474   1.091312369E-17
 33.1963806   1.091314354E-17
 33.3234138   1.091317167E-17
 33.4504471   1.091320806E-17
 33.5774803   1.091325025E-17
 33.7045135   1.091329657E-17
 33.831543   1.091334455E-17
 33.9585762   1.091339004E-17
 34.0856094   1.09134314E-17
 34.2126427   1.091346697E-17
 34.3396759   1.091349592E-17
 34.4667091   1.091351908E-17
 34.5937386   1.091353728E-17
 34.7207718   1.091355382E-17
 34.847805   1.091356954E-17
 34.9748383   1.091358939E-17
 35.1018715   1.091361421E-17
 35.2289047   1.091364647E-17
 35.355938   1.091368865E-17
 35.4829674   1.091373994E-17
 35.6100006   1.091379784E-17
 35.7370338   1.091386153E-17
 35.8640671   1.091393019E-17
 35.9911003   1.091399885E-17
 36.1181335   1.091406585E-17
 36.245163   1.091412871E-17
 36.3721962   1.091418496E-17
 36.4992294   1.091423377E-17
 36.6262627   1.091427595E-17
 36.7532959   1.091431152E-17
 36.8803291   1.091434213E-17
 37.0073624   1.091437025E-17
 37.1343918   1.091439672E-17
 37.261425   1.091442484E-17
 37.3884583   1.091445545E-17
 37.5154915   1.091449019E-17
 37.6425247   1.09145299E-17
 37.769558   1.091457456E-17
 37.8965874   1.091462171E-17
 38.0236206   1.091467217E-17
 38.1506538   1.09147218E-17
 38.2776871   1.091476895E-17
 38.4047203   1.091481362E-17
 38.5317535   1.091485167E-17
 38.6587868   1.091488476E-17
 38.7858162   1.091491123E-17
 38.9128494   1.091493356E-17
 39.0398827   1.091495093E-17
 39.1669159   1.091496747E-17
 39.2939491   1.091498485E-17
 39.4209824   1.091500552E-17
 39.5480118   1.091503199E-17
 39.675045   1.091506508E-17
 39.8020782   1.091510479E-17
 39.9291115   1.091515194E-17
 40.0561447   1.091520488E-17
 40.1831779   1.091526195E-17
 40.3102074   1.091532068E-17
 40.4372406   1.091537858E-17
 40.5642738   1.091543235E-17
 40.6913071   1.091548033E-17
 40.8183403   1.091552086E-17
 40.9453735   1.091555477E-17
 41.0724068   1.091558042E-17
 41.1994362   1.091560027E-17
 41.3264694   1.091561516E-17
 41.4535027   1.091562756E-17
 41.5805359   1.091563832E-17
 41.7075691   1.09156499E-17
 41.8346024   1.091566479E-17
 41.9616318   1.091568299E-17
 42.088665   1.091570532E-17
 42.2156982   1.091573179E-17
 42.3427315   1.091576074E-17
 42.4697647   1.091579217E-17
 42.5967979   1.091582361E-17
 42.7238312   1.091585504E-17
 42.8508606   1.091588482E-17
 42.9778938   1.091591211E-17
 43.1049271   1.091593693E-17
 43.2319603   1.091595926E-17
 43.3589935   1.091597994E-17
 43.4860268   1.091600145E-17
 43.6130562   1.091602296E-17
 43.7400894   1.091604777E-17
 43.8671227   1.091607672E-17
 43.9941559   1.091611064E-17
 44.1211891   1.091615034E-17
 44.2482224   1.091619666E-17
 44.3752556   1.091624795E-17
 44.502285   1.091630337E-17
 44.6293182   1.091636045E-17
 44.7563515   1.091641835E-17
 44.8833847   1.091647377E-17
 45.0104179   1.091652588E-17
 45.1374512   1.091657055E-17
 45.2644806   1.091660943E-17
 45.3915138   1.091664003E-17
 45.5185471   1.091666319E-17
 45.6455803   1.091668139E-17
 45.7726135   1.091669545E-17
 45.8996468   1.091670869E-17
 46.02668   1.091672358E-17
 46.1537094   1.09167426E-17
 46.2807426   1.091676659E-17
 46.4077759   1.091679803E-17
 46.5348091   1.09168369E-17
 46.6618423   1.09168824E-17
 46.7888756   1.091693286E-17
 46.915905   1.091698662E-17
 47.0429382   1.091704122E-17
 47.1699715   1.091709498E-17
 47.2970047   1.09171471E-17
 47.4240379   1.091719342E-17
 47.5510712   1.09172356E-17
 47.6781044   1.0917272E-17
 47.8051338   1.091730261E-17
 47.9321671   1.09173299E-17
 48.0592003   1.091735472E-17
 48.1862335   1.091737871E-17
 48.3132668   1.091740352E-17
 48.4403   1.091743082E-17
 48.5673294   1.091746225E-17
 48.6943626   1.091749699E-17
 48.8213959   1.091753587E-17
 48.9484291   1.091757888E-17
 49.0754623   1.091762438E-17
 49.2024956   1.091767235E-17
 49.3295288   1.09177195E-17
 49.4565582   1.091776417E-17
 49.5835915   1.091780305E-17
 49.7106247   1.091783531E-17
 49.8376579   1.09178593E-17
 49.9646912   1.091787584E-17
 50.0917244   1.091788494E-17
 50.2187538   1.091788577E-17
 50.345787   1.091788329E-17
 50.4728203   1.091787832E-17
 50.5998535   1.091787336E-17
 50.7268867   1.091787088E-17
 50.85392   1.091787171E-17
 50.9809532   1.091787832E-17
 51.1079826   1.091789073E-17
 51.2350159   1.091790727E-17
 51.3620491   1.091792795E-17
 51.4890823   1.091795029E-17
 51.6161156   1.091797097E-17
 51.7431488   1.091798999E-17
 51.8701782   1.091800488E-17
 51.9972115   1.091801481E-17
 52.1242447   1.091801977E-17
 52.2512779   1.091802143E-17
 52.3783112   1.09180206E-17
 52.5053444   1.091801894E-17
 52.6323776   1.091801977E-17
 52.759407   1.091802473E-17
 52.8864403   1.091803549E-17
 53.0134735   1.091805286E-17
 53.1405067   1.09180785E-17
 53.26754   1.091811076E-17
 53.3945732   1.091814964E-17
 53.5216026   1.091819348E-17
 53.6486359   1.091823897E-17
 53.7756691   1.091828695E-17
 53.9027023   1.091833327E-17
 54.0297356   1.091837711E-17
 54.1567688   1.091841847E-17
 54.283802   1.091845652E-17
 54.4108315   1.091849126E-17
 54.5378647   1.091852352E-17
 54.6648979   1.091855496E-17
 54.7919312   1.091858474E-17
 54.9189644   1.0918617E-17
 55.0459976   1.091865091E-17
 55.173027   1.091868813E-17
 55.3000603   1.091872784E-17
 55.4270935   1.091877002E-17
 55.5541267   1.091881056E-17
 55.68116   1.091884861E-17
 55.8081932   1.091888004E-17
 55.9352264   1.091889989E-17
 56.0622559   1.091890403E-17
 56.1892891   1.091889079E-17
 56.3163223   1.091885605E-17
 56.4433556   1.09187998E-17
 56.5703888   1.091871957E-17
 56.697422   1.091861617E-17
 56.8244514   1.091849126E-17
 56.9514847   1.091834733E-17
 57.0785179   1.091818603E-17
 57.2055511   1.091800984E-17
 57.3325844   1.091782042E-17
 57.4596176   1.091762024E-17
 57.5866508   1.091740766E-17
 57.7136803   1.091718432E-17
 57.8407135   1.091694774E-17
 57.9677467   1.091669628E-17
 58.09478   1.091642993E-17
 58.2218132   1.091614455E-17
 58.3488464   1.091584015E-17
 58.4758759   1.09155159E-17
 58.6029091   1.091517096E-17
 58.7299423   1.0914807E-17
 58.8569756   1.091442484E-17
 58.9840088   1.09140278E-17
 59.111042   1.091361752E-17
 59.2380753   1.091319731E-17
 59.3651047   1.091276883E-17
 59.4921379   1.091233621E-17
 59.6191711   1.091189863E-17
 59.7462044   1.091145692E-17
 59.8732376   1.091101024E-17
 60.0002708   1.09105586E-17
 60.1273003   1.091009786E-17
 60.2543335   1.09096272E-17
 60.3813667   1.09091433E-17
 60.5084   1.090864368E-17
 60.6354332   1.090812752E-17
 60.7624664   1.090759316E-17
 60.8894997   1.090704143E-17
 61.0165291   1.090647316E-17
 61.1435623   1.090588999E-17
 61.2705956   1.090529691E-17
 61.3976288   1.090469637E-17
 61.524662   1.090409088E-17
 61.6516953   1.090348621E-17
 61.7787247   1.090288485E-17
 61.9057579   1.090228762E-17
 62.0327911   1.090169536E-17
 62.1598244   1.090110724E-17
 62.2868576   1.090052242E-17
 62.4138908   1.089993843E-17
 62.5409203   1.089935279E-17
 62.6679535   1.089876301E-17
 62.7949867   1.089816661E-17
 62.92202   1.089756359E-17
 63.0490532   1.089695313E-17
 63.1760864   1.089633606E-17
 63.3031197   1.089571485E-17
 63.4301491   1.089509363E-17
 63.5571823   1.08944749E-17
 63.6842155   1.089386279E-17
 63.8112488   1.089325977E-17
 63.938282   1.089267082E-17
 64.0653152   1.08920951E-17
 64.1923447   1.089153427E-17
 64.3193817   1.089098668E-17
 64.4464111   1.089044984E-17
 64.5734482   1.088992127E-17
 64.7004776   1.088939519E-17
 64.827507   1.088886993E-17
 64.9545441   1.088834136E-17
 65.0815735   1.088780534E-17
 65.2086105   1.088726023E-17
 65.33564   1.088670685E-17
 65.4626694   1.088614437E-17
 65.5897064   1.088557444E-17
 65.7167358   1.088500038E-17
 65.8437729   1.088442548E-17
 65.9708023   1.088385308E-17
 66.0978394   1.08832848E-17
 66.2248688   1.088272397E-17
 66.3518982   1.088216976E-17
 66.4789352   1.0881623E-17
 66.6059647   1.088108119E-17
 66.7330017   1.088054104E-17
 66.8600311   1.08800009E-17
 66.9870682   1.087945413E-17
 67.1140976   1.087889992E-17
 67.241127   1.08783333E-17
 67.3681641   1.087775262E-17
 67.4951935   1.08771587E-17
 67.6222305   1.08765499E-17
 67.7492599   1.087592951E-17
 67.876297   1.087530003E-17
 68.0033264   1.087466475E-17
 68.1303558   1.087402865E-17
 68.2573929   1.08733942E-17
 68.3844223   1.087276472E-17
 68.5114594   1.087214185E-17
 68.6384888   1.087152643E-17
 68.7655182   1.087091763E-17
 68.8925552   1.087031296E-17
 69.0195847   1.086970994E-17
 69.1466217   1.086910527E-17
 69.2736511   1.086849564E-17
 69.4006882   1.086787856E-17
 69.5277176   1.086725239E-17
 69.654747   1.086661546E-17
 69.7817841   1.08659686E-17
 69.9088135   1.086531596E-17
 70.0358505   1.086465752E-17
 70.1628799   1.086399826E-17
 70.289917   1.086334065E-17
 70.4169464   1.086268718E-17
 70.5439758   1.086204115E-17
 70.6710129   1.086140091E-17
 70.7980423   1.086076812E-17
 70.9250793   1.086013863E-17
 71.0521088   1.085950832E-17
 71.1791458   1.085887553E-17
 71.3061752   1.085823446E-17
 71.4332047   1.085758182E-17
 71.5602417   1.085691511E-17
 71.6872711   1.085623269E-17
 71.8143082   1.085553289E-17
 71.9413376   1.085481821E-17
 72.068367   1.085408864E-17
 72.1954041   1.085334748E-17
 72.3224335   1.085259806E-17
 72.4494705   1.085184284E-17
 72.5764999   1.085108432E-17
 72.703537   1.085032496E-17
 72.8305664   1.084956478E-17
 72.9575958   1.084880626E-17
 73.0846329   1.084804774E-17
 73.2116623   1.084728838E-17
 73.3386993   1.084652655E-17
 73.4657288   1.084576224E-17
 73.5927658   1.084499296E-17
 73.7197952   1.084422037E-17
 73.8468246   1.084344365E-17
 73.9738617   1.084266527E-17
 74.1008911   1.084188772E-17
 74.2279282   1.084111513E-17
 74.3549576   1.084035082E-17
 74.481987   1.083959891E-17
 74.609024   1.083886272E-17
 74.7360535   1.083814556E-17
 74.8630905   1.08374499E-17
 74.9901199   1.083677492E-17
 75.117157   1.083611979E-17
 75.2441864   1.083548369E-17
 75.3712158   1.083486248E-17
 75.4982529   1.083425202E-17
 75.6252823   1.0833649E-17
 75.7523193   1.083305012E-17
 75.8793488   1.08324529E-17
 76.0063858   1.08318565E-17
 76.1334152   1.083126176E-17
 76.2604446   1.08306695E-17
 76.3874817   1.083008385E-17
 76.5145111   1.082950566E-17
 76.6415482   1.082894152E-17
 76.7685776   1.082839227E-17
 76.8956146   1.082785874E-17
 77.022644   1.082734423E-17
 77.1496735   1.082684627E-17
 77.2767105   1.082636402E-17
 77.4037399   1.082589253E-17
 77.530777   1.082543014E-17
 77.6578064   1.082497271E-17
 77.7848358   1.082451693E-17
 77.9118729   1.082406115E-17
 78.0389023   1.082360455E-17
 78.1659393   1.082314629E-17
 78.2929688   1.082268803E-17
 78.4200058   1.082223226E-17
 78.5470352   1.082178062E-17
 78.6740646   1.082133559E-17
 78.8011017   1.082090132E-17
 78.9281311   1.082047863E-17
 79.0551682   1.082007001E-17
 79.1821976   1.081967627E-17
 79.3092346   1.081929659E-17
 79.436264   1.081893015E-17
 79.5632935   1.081857446E-17
 79.6903305   1.081822787E-17
 79.8173599   1.081788625E-17
 79.944397   1.081754545E-17
 80.0714264   1.081720217E-17
 80.1984634   1.081685475E-17
 80.3254929   1.081649989E-17
 80.4525223   1.081613593E-17
 80.5795593   1.08157637E-17
 80.7065887   1.08153832E-17
 80.8336258   1.081499608E-17
 80.9606552   1.0814604E-17
 81.0876846   1.081421026E-17
 81.2147217   1.081381569E-17
 81.3417511   1.081342361E-17
 81.4687881   1.081303318E-17
 81.5958176   1.081264441E-17
 81.7228546   1.081225646E-17
 81.849884   1.081186851E-17
 81.9769135   1.081147808E-17
 82.1039505   1.081108434E-17
 82.2309799   1.081068564E-17
 82.358017   1.08102828E-17
 82.4850464   1.080987583E-17
 82.6120834   1.08094672E-17
 82.7391129   1.080906023E-17
 82.8661423   1.080865657E-17
 82.9931793   1.080826035E-17
 83.1202087   1.080787488E-17
 83.2472458   1.080750182E-17
 83.3742752   1.080714365E-17
 83.5013123   1.080679872E-17
 83.6283417   1.080646702E-17
 83.7553711   1.080614773E-17
 83.8824081   1.080583754E-17
 84.0094376   1.080553479E-17
 84.1364746   1.080523783E-17
 84.263504   1.080494501E-17
 84.3905334   1.080465384E-17
 84.5175705   1.080436515E-17
 84.6445999   1.080407812E-17
 84.771637   1.080379357E-17
 84.8986664   1.08035115E-17
 85.0257034   1.080323357E-17
 85.1527328   1.080295977E-17
 85.2797623   1.080269177E-17
 85.4067993   1.080243038E-17
 85.5338287   1.080217395E-17
 85.6608658   1.080192497E-17
 85.7878952   1.080168013E-17
 85.9149323   1.080143776E-17
 86.0419617   1.080119788E-17
 86.1689911   1.0800958E-17
 86.2960281   1.080071729E-17
 86.4230576   1.080047162E-17
 86.5500946   1.080022098E-17
 86.677124   1.079996455E-17
 86.8041611   1.079969986E-17
 86.9311905   1.079942689E-17
 87.0582199   1.079914647E-17
 87.185257   1.079885944E-17
 87.3122864   1.079856662E-17
 87.4393234   1.079826966E-17
 87.5663528   1.079797022E-17
 87.6933823   1.07976683E-17
 87.8204193   1.07973639E-17
 87.9474487   1.079705701E-17
 88.0744858   1.079674682E-17
 88.2015152   1.079643167E-17
 88.3285522   1.079610989E-17
 88.4555817   1.079578316E-17
 88.5826111   1.079544897E-17
 88.7096481   1.0795109E-17
 88.8366776   1.079476572E-17
 88.9637146   1.079442162E-17
 89.090744   1.079407999E-17
 89.2177811   1.079374664E-17
 89.3448105   1.079342404E-17
 89.4718399   1.079311715E-17
 89.598877   1.079282764E-17
 89.7259064   1.079255881E-17
 89.8529434   1.079230982E-17
 89.9799728   1.07920807E-17
 90.1070099   1.079186811E-17
 90.2340393   1.079167041E-17
 90.3610687   1.079148264E-17
 90.4881058   1.079130232E-17
 90.6151352   1.079112282E-17
 90.7421722   1.079094332E-17
 90.8692017   1.079075803E-17
 90.9962311   1.079056695E-17
 91.1232681   1.079036678E-17
 91.2502975   1.079015915E-17
 91.3773346   1.078994161E-17
 91.504364   1.078971496E-17
 91.6314011   1.078948087E-17
 91.7584305   1.07892385E-17
 91.8854599   1.078898952E-17
 92.0124969   1.078873392E-17
 92.1395264   1.078847088E-17
 92.2665634   1.078820122E-17
 92.3935928   1.078792494E-17
 92.5206299   1.078763956E-17
 92.6476593   1.078734509E-17
 92.7746887   1.078704068E-17
 92.9017258   1.078672553E-17
 93.0287552   1.078639962E-17
 93.1557922   1.078606213E-17
 93.2828217   1.078571554E-17
 93.4098587   1.078536068E-17
 93.5368881   1.078500086E-17
 93.6639175   1.078463855E-17
 93.7909546   1.078427625E-17
 93.917984   1.078391808E-17
 94.0450211   1.078356487E-17
 94.1720505   1.078321994E-17
 94.2990799   1.078288493E-17
 94.4261169   1.078255819E-17
 94.5531464   1.078223973E-17
 94.6801834   1.078192871E-17
 94.8072128   1.078162265E-17
 94.9342499   1.078131908E-17
 95.0612793   1.078101715E-17
 95.1883087   1.078071441E-17
 95.3153458   1.078040835E-17
 95.4423752   1.078009981E-17
 95.5694122   1.077978714E-17
 95.6964417   1.077947115E-17
 95.8234787   1.077915104E-17
 95.9505081   1.077882761E-17
 96.0775375   1.077850253E-17
 96.2045746   1.077817496E-17
 96.331604   1.077784409E-17
 96.4586411   1.077751074E-17
 96.5856705   1.077717325E-17
 96.7126999   1.077683079E-17
 96.8397369   1.077648338E-17
 96.9667664   1.077612934E-17
 97.0938034   1.077576787E-17
 97.2208328   1.077539812E-17
 97.3478699   1.077502175E-17
 97.4748993   1.077463711E-17
 97.6019287   1.077424585E-17
 97.7289658   1.077384881E-17
 97.8559952   1.077344762E-17
 97.9830322   1.077304313E-17
 98.1100616   1.077263699E-17
 98.2370987   1.077223084E-17
 98.3641281   1.07718247E-17
 98.4911575   1.077141938E-17
 98.6181946   1.077101571E-17
 98.745224   1.07706137E-17
 98.872261   1.077021087E-17
 98.9992905   1.076980886E-17
 99.1263275   1.076940602E-17
 99.2533569   1.07690007E-17
 99.3803864   1.076859456E-17
 99.5074234   1.076818676E-17
 99.6344528   1.07677773E-17
 99.7614899   1.076736619E-17
 99.8885193   1.076695674E-17
 100.015549   1.076654894E-17
 100.142586   1.076614362E-17
 100.269615   1.076574244E-17
 100.396652   1.076534622E-17
 100.523682   1.076495579E-17
 100.650719   1.076457115E-17
 100.777748   1.076419147E-17
 100.904778   1.076381593E-17
 101.031815   1.076344205E-17
 101.158844   1.076306816E-17
 101.285881   1.076269262E-17
 101.41291   1.076231295E-17
 101.539948   1.076192583E-17
 101.666977   1.076153209E-17
 101.794006   1.076112925E-17
 101.921043   1.076071814E-17
 102.048073   1.076029959E-17
 102.17511   1.075987359E-17
 102.302139   1.075944098E-17
 102.429176   1.07590034E-17
 102.556206   1.075856251E-17
 102.683235   1.07581208E-17
 102.810272   1.07576766E-17
 102.937302   1.075723158E-17
 103.064339   1.075678573E-17
 103.191368   1.075633822E-17
 103.318398   1.075588823E-17
 103.445435   1.075543411E-17
 103.572464   1.075497503E-17
 103.699501   1.075451015E-17
 103.82653   1.075403783E-17
 103.953568   1.075355807E-17
 104.080597   1.075307086E-17
 104.207626   1.07525762E-17
 104.334663   1.075207493E-17
 104.461693   1.075156704E-17
 104.58873   1.075105502E-17
 104.715759   1.075053803E-17
 104.842796   1.075001773E-17
 104.969826   1.074949413E-17
 105.096855   1.074896804E-17
 105.223892   1.074843947E-17
 105.350922   1.074790842E-17
 105.477959   1.074737241E-17
 105.604988   1.074683143E-17
 105.732025   1.07462855E-17
 105.859055   1.074573128E-17
 105.986084   1.074517128E-17
 106.113121   1.074460549E-17
 106.24015   1.074403391E-17
 106.367188   1.074345902E-17
 106.494217   1.074288413E-17
 106.621246   1.074231089E-17
 106.748283   1.074174427E-17
 106.875313   1.07411851E-17
 107.00235   1.074063751E-17
 107.129379   1.074010232E-17
 107.256416   1.073958202E-17
 107.383446   1.073907744E-17
 107.510475   1.073858858E-17
 107.637512   1.073811543E-17
 107.764542   1.0737658E-17
 107.891579   1.073721546E-17
 108.018608   1.073678533E-17
 108.145645   1.073636843E-17
 108.272675   1.073596394E-17
 108.399704   1.073556937E-17
 108.526741   1.073518473E-17
 108.65377   1.073480919E-17
 108.780807   1.073444275E-17
 108.907837   1.073408541E-17
 109.034874   1.073373551E-17
 109.161903   1.073339389E-17
 109.288933   1.073305888E-17
 109.41597   1.073273049E-17
 109.542999   1.073240623E-17
 109.670036   1.073208529E-17
 109.797066   1.073176599E-17
 109.924095   1.073144505E-17
 110.051132   1.073112245E-17
 110.178162   1.073079406E-17
 110.305199   1.07304607E-17
 110.432228   1.073011908E-17
 110.559265   1.072977166E-17
 110.686295   1.07294168E-17
 110.813324   1.072905698E-17
 110.940361   1.072869219E-17
 111.06739   1.072832575E-17
 111.194427   1.072795848E-17
 111.321457   1.072759287E-17
 111.448494   1.072723056E-17
 111.575523   1.072687405E-17
 111.702553   1.072652332E-17
 111.82959   1.072618004E-17
 111.956619   1.072584338E-17
 112.083656   1.072551499E-17
 112.210686   1.072519404E-17
 112.337723   1.072488054E-17
 112.464752   1.072457366E-17
 112.591782   1.072427505E-17
 112.718819   1.072398471E-17
 112.845848   1.072370264E-17
 112.972885   1.072343049E-17
 113.099915   1.072316828E-17
 113.226944   1.07229193E-17
 113.353981   1.07226819E-17
 113.48101   1.072245773E-17
 113.608047   1.072224763E-17
 113.735077   1.072204993E-17
 113.862114   1.072186381E-17
 113.989143   1.072168928E-17
 114.116173   1.072152302E-17
 114.24321   1.072136337E-17
 114.370239   1.072120951E-17
 114.497276   1.072105814E-17
 114.624306   1.072090594E-17
 114.751343   1.072075291E-17
 114.878372   1.072059657E-17
 115.005402   1.07204361E-17
 115.132439   1.072027232E-17
 115.259468   1.07201044E-17
 115.386505   1.071993235E-17
 115.513535   1.071975699E-17
 115.640572   1.071957914E-17
 115.767601   1.071939964E-17
 115.89463   1.071921849E-17
 116.021667   1.071903651E-17
 116.148697   1.071885453E-17
 116.275734   1.071867172E-17
 116.402763   1.071848974E-17
 116.529793   1.071830859E-17
 116.65683   1.071812827E-17
 116.783859   1.071794877E-17
 116.910896   1.071777258E-17
 117.037926   1.071759804E-17
 117.164963   1.071742682E-17
 117.291992   1.07172589E-17
 117.419022   1.071709512E-17
 117.546059   1.071693713E-17
 117.673088   1.071678327E-17
 117.800125   1.071663603E-17
 117.927155   1.071649459E-17
 118.054192   1.071635975E-17
 118.181221   1.071623237E-17
 118.30825   1.071611243E-17
 118.435287   1.071599993E-17
 118.562317   1.071589488E-17
 118.689354   1.071579727E-17
 118.816383   1.071570711E-17
 118.943413   1.071562274E-17
 119.07045   1.071554415E-17
 119.197479   1.071547219E-17
 119.324516   1.071540519E-17
 119.451546   1.071534232E-17
 119.578583   1.071528359E-17
 119.705612   1.071522817E-17
 119.832642   1.071517606E-17
 119.959679   1.071512643E-17
 120.086708   1.07150768E-17
 120.213745   1.071502799E-17
 120.340775   1.071497671E-17