 -7.19999981   3.63345443E-19
 -7.07296753   3.633470457E-19
 -6.94593477   3.633499408E-19
 -6.81890202   3.633537665E-19
 -6.69186926   3.633592466E-19
 -6.56483698   3.633665103E-19
 -6.43780422   3.633746787E-19
 -6.31077147   3.63384243E-19
 -6.18373871   3.633950739E-19
 -6.05670643   3.634067578E-19
 -5.92967367   3.634193723E-19
 -5.80264091   3.634321419E-19
 -5.67560816   3.63444653E-19
 -5.5485754   3.634563369E-19
 -5.42154312   3.634663923E-19
 -5.29451036   3.634743022E-19
 -5.16747761   3.634799633E-19
 -5.04044485   3.634835822E-19
 -4.91341257   3.634843835E-19
 -4.78637981   3.634820312E-19
 -4.65934706   3.634777661E-19
 -4.5323143   3.634715364E-19
 -4.40528202   3.634646087E-19
 -4.27824926   3.634579137E-19
 -4.15121651   3.634529248E-19
 -4.02418375   3.634502365E-19
 -3.89715123   3.634511929E-19
 -3.77011847   3.634571382E-19
 -3.64308596   3.63469029E-19
 -3.5160532   3.634879249E-19
 -3.38902068   3.635144981E-19
 -3.26198792   3.635486451E-19
 -3.13495541   3.63591064E-19
 -3.00792265   3.636410567E-19
 -2.88089013   3.636981838E-19
 -2.75385737   3.637612822E-19
 -2.62682486   3.638293695E-19
 -2.4997921   3.63901024E-19
 -2.37275958   3.639752118E-19
 -2.24572682   3.640507696E-19
 -2.11869431   3.641260689E-19
 -1.99166155   3.64198473E-19
 -1.86462891   3.642677235E-19
 -1.73759627   3.643306927E-19
 -1.61056364   3.643861655E-19
 -1.483531   3.644327461E-19
 -1.35649836   3.644689094E-19
 -1.22946572   3.644931561E-19
 -1.10243309   3.645045298E-19
 -0.975400388   3.645023068E-19
 -0.848367751   3.644861509E-19
 -0.721335113   3.644562173E-19
 -0.594302475   3.644129713E-19
 -0.467269808   3.643576794E-19
 -0.34023717   3.642923063E-19
 -0.213204518   3.642184029E-19
 -8.617187291E-2   3.641391228E-19
 4.086076841E-2   3.640573353E-19
 0.16789341   3.639758063E-19
 0.294926047   3.638980255E-19
 0.421958715   3.638271723E-19
 0.548991323   3.637657283E-19
 0.67602402   3.637164335E-19
 0.803056657   3.636810198E-19
 0.930089295   3.636605988E-19
 1.05712187   3.636561269E-19
 1.18415463   3.636678108E-19
 1.31118727   3.636946683E-19
 1.4382199   3.637356138E-19
 1.56525254   3.637885016E-19
 1.69228518   3.638514449E-19
 1.81931782   3.639217294E-19
 1.94635046   3.639963566E-19
 2.07338309   3.640727157E-19
 2.20041585   3.641479633E-19
 2.32744837   3.642191525E-19
 2.45448112   3.642836209E-19
 2.58151364   3.643398692E-19
 2.7085464   3.643848472E-19
 2.83557892   3.644178568E-19
 2.96261168   3.644376316E-19
 3.08964419   3.644429824E-19
 3.21667695   3.64433961E-19
 3.34370947   3.644105931E-19
 3.47074223   3.643745074E-19
 3.59777474   3.643256262E-19
 3.7248075   3.642660433E-19
 3.85184002   3.641975424E-19
 3.97887278   3.641225017E-19
 4.10590553   3.640428338E-19
 4.23293829   3.639606844E-19
 4.35997057   3.63878897E-19
 4.48700333   3.637993067E-19
 4.61403608   3.637249638E-19
 4.74106884   3.636575744E-19
 4.86810112   3.635985086E-19
 4.99513388   3.635487743E-19
 5.12216663   3.635095091E-19
 5.24919939   3.63480687E-19
 5.37623167   3.63463368E-19
 5.50326443   3.63455975E-19
 5.63029718   3.634591803E-19
 5.75732994   3.634711745E-19
 5.88436222   3.634918798E-19
 6.01139498   3.635191251E-19
 6.13842773   3.63552264E-19
 6.26546049   3.635896939E-19
 6.39249325   3.636303033E-19
 6.51952553   3.636726446E-19
 6.64655828   3.637156063E-19
 6.77359104   3.637577926E-19
 6.9006238   3.637983244E-19
 7.02765608   3.638353924E-19
 7.15468884   3.638689449E-19
 7.28172159   3.638975602E-19
 7.40875435   3.639208247E-19
 7.53578663   3.639385574E-19
 7.66281939   3.639502413E-19
 7.78985214   3.639563676E-19
 7.9168849   3.639567812E-19
 8.04391766   3.63953033E-19
 8.17094994   3.639455884E-19
 8.29798317   3.639358432E-19
 8.42501545   3.639244953E-19
 8.55204773   3.63913225E-19
 8.67908096   3.639028335E-19
 8.80611324   3.638943291E-19
 8.93314552   3.638887973E-19
 9.06017876   3.638874531E-19
 9.18721104   3.638900381E-19
 9.31424427   3.638971466E-19
 9.44127655   3.639091408E-19
 9.56830883   3.639251932E-19
 9.69534206   3.63944968E-19
 9.82237434   3.63967793E-19
 9.94940662   3.63992686E-19
 10.0764399   3.64018949E-19
 10.2034721   3.640461684E-19
 10.3305054   3.640730001E-19
 10.4575377   3.640989529E-19
 10.5845699   3.641219588E-19
 10.7116032   3.641426642E-19
 10.8386354   3.641602418E-19
 10.9656687   3.641728563E-19
 11.092701   3.641804043E-19
 11.2197332   3.641822138E-19
 11.3467665   3.641779745E-19
 11.4737988   3.641674279E-19
 11.600831   3.641503156E-19
 11.7278643   3.641261981E-19
 11.8548965   3.640967298E-19
 11.9819298   3.640612127E-19
 12.1089621   3.640217407E-19
 12.2359943   3.639788824E-19
 12.3630276   3.639343181E-19
 12.4900599   3.63889366E-19
 12.6170931   3.638456029E-19
 12.7441254   3.638051228E-19
 12.8711576   3.637696316E-19
 12.9981909   3.637403184E-19
 13.1252232   3.637188892E-19
 13.2522554   3.637060162E-19
 13.3792887   3.637028367E-19
 13.506321   3.637086529E-19
 13.6333542   3.637230768E-19
 13.7603865   3.637455916E-19
 13.8874187   3.637744396E-19
 14.014452   3.638086125E-19
 14.1414843   3.638455254E-19
 14.2685175   3.638832914E-19
 14.3955498   3.639197649E-19
 14.5225821   3.639522834E-19
 14.6496153   3.639789858E-19
 14.7766476   3.639982953E-19
 14.9036798   3.640079371E-19
 15.0307131   3.640076786E-19
 15.1577454   3.639955294E-19
 15.2847786   3.639721357E-19
 15.4118109   3.639374975E-19
 15.5388432   3.638925454E-19
 15.6658764   3.638385461E-19
 15.7929087   3.63777283E-19
 15.9199409   3.637103331E-19
 16.0469742   3.636405397E-19
 16.1740074   3.635695831E-19
 16.3010387   3.634998673E-19
 16.428072   3.634342874E-19
 16.5551052   3.633746787E-19
 16.6821365   3.633230833E-19
 16.8091698   3.632803025E-19
 16.936203   3.632476806E-19
 17.0632343   3.632257862E-19
 17.1902676   3.632151362E-19
 17.3173008   3.632142056E-19
 17.444334   3.632222707E-19
 17.5713654   3.63238168E-19
 17.6983986   3.632605278E-19
 17.8254318   3.632871785E-19
 17.9524632   3.633159489E-19
 18.0794964   3.633458308E-19
 18.2065296   3.633742392E-19
 18.3335609   3.63398822E-19
 18.4605942   3.634187777E-19
 18.5876274   3.634329174E-19
 18.7146587   3.634403361E-19
 18.841692   3.634399484E-19
 18.9687252   3.634319351E-19
 19.0957584   3.634158051E-19
 19.2227898   3.633915325E-19
 19.349823   3.633599704E-19
 19.4768562   3.633219718E-19
 19.6038876   3.632785706E-19
 19.7309208   3.632310077E-19
 19.857954   3.631800844E-19
 19.9849854   3.631270673E-19
 20.1120186   3.630740244E-19
 20.2390518   3.630217828E-19
 20.3660831   3.629719193E-19
 20.4931164   3.629254679E-19
 20.6201496   3.628840313E-19
 20.7471828   3.628489537E-19
 20.8742142   3.628207262E-19
 21.0012474   3.627997882E-19
 21.1282806   3.627863723E-19
 21.255312   3.627807113E-19
 21.3823452   3.627817711E-19
 21.5093784   3.627897069E-19
 21.6364098   3.628030969E-19
 21.763443   3.628216567E-19
 21.8904762   3.628437063E-19
 22.0175076   3.628680047E-19
 22.1445408   3.628927167E-19
 22.271574   3.629161621E-19
 22.3986073   3.629377981E-19
 22.5256386   3.629556342E-19
 22.6526718   3.62968533E-19
 22.779705   3.629755123E-19
 22.9067364   3.629753055E-19
 23.0337696   3.629673698E-19
 23.1608028   3.629519118E-19
 23.2878342   3.629282338E-19
 23.4148674   3.628970336E-19
 23.5419006   3.628584663E-19
 23.668932   3.628133591E-19
 23.7959652   3.627626684E-19
 23.9229984   3.627086432E-19
 24.0500298   3.626524466E-19
 24.177063   3.625956555E-19
 24.3040962   3.625400276E-19
 24.4311295   3.624879669E-19
 24.5581608   3.624408176E-19
 24.685194   3.623998463E-19
 24.8122272   3.623666557E-19
 24.9392586   3.623416852E-19
 25.0662918   3.623265116E-19
 25.193325   3.623205404E-19
 25.3203564   3.62324728E-19
 25.4473896   3.623384282E-19
 25.5744228   3.623609171E-19
 25.7014542   3.623916262E-19
 25.8284874   3.62429082E-19
 25.9555206   3.624725348E-19
 26.0825539   3.62520227E-19
 26.2095852   3.625706333E-19
 26.3366184   3.626225389E-19
 26.4636517   3.62673669E-19
 26.590683   3.627232998E-19
 26.7177162   3.627687172E-19
 26.8447495   3.628086545E-19
 26.9717808   3.628417676E-19
 27.098814   3.628664537E-19
 27.2258472   3.628816532E-19
 27.3528786   3.628865129E-19
 27.4799118   3.62880309E-19
 27.606945   3.628628607E-19
 27.7339783   3.62834659E-19
 27.8610096   3.627970481E-19
 27.9880428   3.627504934E-19
 28.1150761   3.626965974E-19
 28.2421074   3.626371955E-19
 28.3691406   3.625745107E-19
 28.4961739   3.625098355E-19
 28.6232052   3.624453671E-19
 28.7502384   3.623835095E-19
 28.8772717   3.623255035E-19
 29.004303   3.622720986E-19
 29.1313362   3.622245099E-19
 29.2583694   3.621842882E-19
 29.3854027   3.621514595E-19
 29.512434   3.621264631E-19
 29.6394672   3.621090148E-19
 29.7665005   3.62098339E-19
 29.8935318   3.62093867E-19
 30.020565   3.620952629E-19
 30.1475983   3.621011307E-19
 30.2746296   3.621103331E-19
 30.4016628   3.621212416E-19
 30.5286961   3.621331064E-19
 30.6557274   3.621443251E-19
 30.7827606   3.621542771E-19
 30.9097939   3.621611789E-19
 31.0368271   3.621651597E-19
 31.1638584   3.621644876E-19
 31.2908916   3.621595245E-19
 31.4179249   3.62149314E-19
 31.5449562   3.621346315E-19
 31.6719894   3.621157356E-19
 31.7990227   3.620926004E-19
 31.926054   3.620662082E-19
 32.0530891   3.620376963E-19
 32.1801186   3.620078403E-19
 32.3071518   3.619776482E-19
 32.434185   3.619490846E-19
 32.5612183   3.619220461E-19
 32.6882515   3.618986266E-19
 32.8152847   3.618785416E-19
 32.9423141   3.618631612E-19
 33.0693474   3.618533384E-19
 33.1963806   3.618492025E-19
 33.3234138   3.618504175E-19
 33.4504471   3.618572158E-19
 33.5774803   3.618689256E-19
 33.7045135   3.618850815E-19
 33.831543   3.619052957E-19
 33.9585762   3.6192825E-19
 34.0856094   3.619529103E-19
 34.2126427   3.619781652E-19
 34.3396759   3.620026187E-19
 34.4667091   3.620254954E-19
 34.5937386   3.62044624E-19
 34.7207718   3.620601853E-19
 34.847805   3.620696462E-19
 34.9748383   3.620722053E-19
 35.1018715   3.62066932E-19
 35.2289047   3.620539556E-19
 35.355938   3.62031751E-19
 35.4829674   3.620005507E-19
 35.6100006   3.619613372E-19
 35.7370338   3.61914343E-19
 35.8640671   3.618607572E-19
 35.9911003   3.618016913E-19
 36.1181335   3.617389807E-19
 36.245163   3.616746933E-19
 36.3721962   3.616098371E-19
 36.4992294   3.615473333E-19
 36.6262627   3.614887327E-19
 36.7532959   3.614358449E-19
 36.8803291   3.61390169E-19
 37.0073624   3.61352403E-19
 37.1343918   3.613243306E-19
 37.261425   3.613058483E-19
 37.3884583   3.612972921E-19
 37.5154915   3.612979901E-19
 37.6425247   3.613067013E-19
 37.769558   3.613230381E-19
 37.8965874   3.613456822E-19
 38.0236206   3.613726431E-19
 38.1506538   3.61402189E-19
 38.2776871   3.614324328E-19
 38.4047203   3.614622888E-19
 38.5317535   3.61490232E-19
 38.6587868   3.615140393E-19
 38.7858162   3.615330386E-19
 38.9128494   3.615459633E-19
 39.0398827   3.615522188E-19
 39.1669159   3.615512624E-19
 39.2939491   3.615426287E-19
 39.4209824   3.615263953E-19
 39.5480118   3.615030791E-19
 39.675045   3.614724476E-19
 39.8020782   3.614356381E-19
 39.9291115   3.613935553E-19
 40.0561447   3.613469488E-19
 40.1831779   3.612972921E-19
 40.3102074   3.612463688E-19
 40.4372406   3.611958332E-19
 40.5642738   3.611458405E-19
 40.6913071   3.610986395E-19
 40.8183403   3.61055652E-19
 40.9453735   3.610174983E-19
 41.0724068   3.609850056E-19
 41.1994362   3.609587168E-19
 41.3264694   3.609391746E-19
 41.4535027   3.609257329E-19
 41.5805359   3.609180298E-19
 41.7075691   3.609150313E-19
 41.8346024   3.609165822E-19
 41.9616318   3.609207957E-19
 42.088665   3.609269478E-19
 42.2156982   3.60933436E-19
 42.3427315   3.609392522E-19
 42.4697647   3.60943569E-19
 42.5967979   3.609453268E-19
 42.7238312   3.60943569E-19
 42.8508606   3.609384767E-19
 42.9778938   3.609299205E-19
 43.1049271   3.609185209E-19
 43.2319603   3.609041745E-19
 43.3589935   3.608877602E-19
 43.4860268   3.60870105E-19
 43.6130562   3.608525016E-19
 43.7400894   3.608346914E-19
 43.8671227   3.608188198E-19
 43.9941559   3.608048353E-19
 44.1211891   3.607938493E-19
 44.2482224   3.60786172E-19
 44.3752556   3.607821654E-19
 44.502285   3.607826307E-19
 44.6293182   3.607869475E-19
 44.7563515   3.607944956E-19
 44.8833847   3.608057659E-19
 45.0104179   3.608196729E-19
 45.1374512   3.608355961E-19
 45.2644806   3.608523465E-19
 45.3915138   3.60870105E-19
 45.5185471   3.608878636E-19
 45.6455803   3.609048725E-19
 45.7726135   3.609199944E-19
 45.8996468   3.609330483E-19
 46.02668   3.609426643E-19
 46.1537094   3.609494627E-19
 46.2807426   3.609519701E-19
 46.4077759   3.609509878E-19
 46.5348091   3.609459989E-19
 46.6618423   3.60937391E-19
 46.7888756   3.609253969E-19
 46.915905   3.609100682E-19
 47.0429382   3.60892775E-19
 47.1699715   3.608733879E-19
 47.2970047   3.608528635E-19
 47.4240379   3.608322098E-19
 47.5510712   3.608122282E-19
 47.6781044   3.60793384E-19
 47.8051338   3.607767887E-19
 47.9321671   3.607633212E-19
 48.0592003   3.607526454E-19
 48.1862335   3.607457177E-19
 48.3132668   3.607426675E-19
 48.4403   3.607431328E-19
 48.5673294   3.607466742E-19
 48.6943626   3.607528005E-19
 48.8213959   3.60761124E-19
 48.9484291   3.607707141E-19
 49.0754623   3.607813641E-19
 49.2024956   3.607911868E-19
 49.3295288   3.6080026E-19
 49.4565582   3.608076529E-19
 49.5835915   3.608129262E-19
 49.7106247   3.608158472E-19
 49.8376579   3.608164158E-19
 49.9646912   3.608141928E-19
 50.0917244   3.608092297E-19
 50.2187538   3.608017334E-19
 50.345787   3.607925568E-19
 50.4728203   3.607811314E-19
 50.5998535   3.607685686E-19
 50.7268867   3.60754093E-19
 50.85392   3.607383765E-19
 50.9809532   3.607215227E-19
 51.1079826   3.6070379E-19
 51.2350159   3.606855145E-19
 51.3620491   3.606666445E-19
 51.4890823   3.60647154E-19
 51.6161156   3.606266813E-19
 51.7431488   3.606060276E-19
 51.8701782   3.605853223E-19
 51.9972115   3.605648237E-19
 52.1242447   3.60544868E-19
 52.2512779   3.605250415E-19
 52.3783112   3.60505732E-19
 52.5053444   3.604869912E-19
 52.6323776   3.604692326E-19
 52.759407   3.604525339E-19
 52.8864403   3.604365073E-19
 53.0134735   3.60420765E-19
 53.1405067   3.604057465E-19
 53.26754   3.603910124E-19
 53.3945732   3.603767176E-19
 53.5216026   3.603621386E-19
 53.6486359   3.60347482E-19
 53.7756691   3.603320757E-19
 53.9027023   3.603164369E-19
 54.0297356   3.603003844E-19
 54.1567688   3.602837632E-19
 54.283802   3.602681502E-19
 54.4108315   3.602537004E-19
 54.5378647   3.60240543E-19
 54.6648979   3.602294536E-19
 54.7919312   3.602206132E-19
 54.9189644   3.602151848E-19
 55.0459976   3.602129876E-19
 55.173027   3.602144868E-19
 55.3000603   3.602195016E-19
 55.4270935   3.602282904E-19
 55.5541267   3.602405947E-19
 55.68116   3.6025582E-19
 55.8081932   3.602736561E-19
 55.9352264   3.602935601E-19
 56.0622559   3.603144982E-19
 56.1892891   3.603355396E-19
 56.3163223   3.603566068E-19
 56.4433556   3.603766659E-19
 56.5703888   3.60394683E-19
 56.697422   3.604099858E-19
 56.8244514   3.604219799E-19
 56.9514847   3.604296831E-19
 57.0785179   3.604324748E-19
 57.2055511   3.604292178E-19
 57.3325844   3.604192399E-19
 57.4596176   3.604023344E-19
 57.5866508   3.603775448E-19
 57.7136803   3.603449746E-19
 57.8407135   3.603034863E-19
 57.9677467   3.602531317E-19
 58.09478   3.601935747E-19
 58.2218132   3.601254874E-19
 58.3488464   3.600487405E-19
 58.4758759   3.599648334E-19
 58.6029091   3.598731973E-19
 58.7299423   3.597752798E-19
 58.8569756   3.59671572E-19
 58.9840088   3.595635216E-19
 59.111042   3.594522399E-19
 59.2380753   3.593385284E-19
 59.3651047   3.592237571E-19
 59.4921379   3.591088307E-19
 59.6191711   3.589943437E-19
 59.7462044   3.588812785E-19
 59.8732376   3.58771005E-19
 60.0002708   3.586633681E-19
 60.1273003   3.585587039E-19
 60.2543335   3.584575035E-19
 60.3813667   3.583594309E-19
 60.5084   3.582637882E-19
 60.6354332   3.581709113E-19
 60.7624664   3.580799214E-19
 60.8894997   3.579885955E-19
 61.0165291   3.578967785E-19
 61.1435623   3.57802454E-19
 61.2705956   3.57704278E-19
 61.3976288   3.576010614E-19
 61.524662   3.574909947E-19
 61.6516953   3.573735867E-19
 61.7787247   3.572471056E-19
 61.9057579   3.57111112E-19
 62.0327911   3.569663812E-19
 62.1598244   3.568119828E-19
 62.2868576   3.566480976E-19
 62.4138908   3.564765352E-19
 62.5409203   3.562977349E-19
 62.6679535   3.561126533E-19
 62.7949867   3.559234099E-19
 62.92202   3.557312713E-19
 63.0490532   3.555374784E-19
 63.1760864   3.55343944E-19
 63.3031197   3.551520898E-19
 63.4301491   3.549633634E-19
 63.5571823   3.547791606E-19
 63.6842155   3.545996624E-19
 63.8112488   3.544264456E-19
 63.938282   3.542599755E-19
 64.0653152   3.541003038E-19
 64.1923447   3.539469135E-19
 64.3193817   3.537996236E-19
 64.4464111   3.536579431E-19
 64.5734482   3.535212774E-19
 64.7004776   3.533883081E-19
 64.827507   3.532575102E-19
 64.9545441   3.531273843E-19
 65.0815735   3.529961986E-19
 65.2086105   3.528621178E-19
 65.33564   3.527240562E-19
 65.4626694   3.525795839E-19
 65.5897064   3.524271759E-19
 65.7167358   3.522662634E-19
 65.8437729   3.520951146E-19
 65.9708023   3.519134709E-19
 66.0978394   3.517216167E-19
 66.2248688   3.515195778E-19
 66.3518982   3.513076128E-19
 66.4789352   3.510878671E-19
 66.6059647   3.508615557E-19
 66.7330017   3.506310049E-19
 66.8600311   3.50398257E-19
 66.9870682   3.501655866E-19
 67.1140976   3.499351392E-19
 67.241127   3.497086985E-19
 67.3681641   3.494882032E-19
 67.4951935   3.492748165E-19
 67.6222305   3.490696757E-19
 67.7492599   3.488732203E-19
 67.876297   3.486858897E-19
 68.0033264   3.485067534E-19
 68.1303558   3.4833501E-19
 68.2573929   3.481698583E-19
 68.3844223   3.480102899E-19
 68.5114594   3.47853927E-19
 68.6384888   3.476996578E-19
 68.7655182   3.475453886E-19
 68.8925552   3.473894392E-19
 69.0195847   3.472299226E-19
 69.1466217   3.470652878E-19
 69.2736511   3.468940614E-19
 69.4006882   3.467141755E-19
 69.5277176   3.465257851E-19
 69.654747   3.463271066E-19
 69.7817841   3.46117985E-19
 69.9088135   3.458980325E-19
 70.0358505   3.45667275E-19
 70.1628799   3.454257641E-19
 70.289917   3.451752318E-19
 70.4169464   3.449157039E-19
 70.5439758   3.446499721E-19
 70.6710129   3.443797167E-19
 70.7980423   3.441070831E-19
 70.9250793   3.438334156E-19
 71.0521088   3.435610922E-19
 71.1791458   3.432923102E-19
 71.3061752   3.430287239E-19
 71.4332047   3.427718844E-19
 71.5602417   3.425227738E-19
 71.6872711   3.422822193E-19
 71.8143082   3.420504536E-19
 71.9413376   3.418274509E-19
 72.068367   3.416119962E-19
 72.1954041   3.414033657E-19
 72.3224335   3.41200448E-19
 72.4494705   3.410016403E-19
 72.5764999   3.408057536E-19
 72.703537   3.406107716E-19
 72.8305664   3.40414187E-19
 72.9575958   3.402144487E-19
 73.0846329   3.400099025E-19
 73.2116623   3.397996952E-19
 73.3386993   3.395819657E-19
 73.4657288   3.393565849E-19
 73.5927658   3.39121769E-19
 73.7197952   3.388778799E-19
 73.8468246   3.386246076E-19
 73.9738617   3.383626757E-19
 74.1008911   3.380921876E-19
 74.2279282   3.378146944E-19
 74.3549576   3.37531204E-19
 74.481987   3.372434486E-19
 74.609024   3.369532116E-19
 74.7360535   3.366619148E-19
 74.8630905   3.363711866E-19
 74.9901199   3.360830693E-19
 75.117157   3.35799398E-19
 75.2441864   3.355218531E-19
 75.3712158   3.352510031E-19
 75.4982529   3.349891488E-19
 75.6252823   3.34736471E-19
 75.7523193   3.344931248E-19
 75.8793488   3.342597823E-19
 76.0063858   3.340365986E-19
 76.1334152   3.33822152E-19
 76.2604446   3.336168303E-19
 76.3874817   3.334201164E-19
 76.5145111   3.332297873E-19
 76.6415482   3.330453519E-19
 76.7685776   3.328659829E-19
 76.8956146   3.326904914E-19
 77.022644   3.325173522E-19
 77.1496735   3.323457639E-19
 77.2767105   3.321745116E-19
 77.4037399   3.320027683E-19
 77.530777   3.318299909E-19
 77.6578064   3.316546545E-19
 77.7848358   3.314770691E-19
 77.9118729   3.312963302E-19
 78.0389023   3.311113261E-19
 78.1659393   3.309224704E-19
 78.2929688   3.307304094E-19
 78.4200058   3.305349363E-19
 78.5470352   3.303364905E-19
 78.6740646   3.301363128E-19
 78.8011017   3.299353337E-19
 78.9281311   3.297336309E-19
 79.0551682   3.295332464E-19
 79.1821976   3.293352659E-19
 79.3092346   3.29141473E-19
 79.436264   3.289524364E-19
 79.5632935   3.28769371E-19
 79.6903305   3.285928971E-19
 79.8173599   3.284234285E-19
 79.944397   3.282612494E-19
 80.0714264   3.28106851E-19
 80.1984634   3.27959923E-19
 80.3254929   3.278187853E-19
 80.4525223   3.276831794E-19
 80.5795593   3.275524849E-19
 80.7065887   3.27424427E-19
 80.8336258   3.272980493E-19
 80.9606552   3.27172292E-19
 81.0876846   3.270454232E-19
 81.2147217   3.26915866E-19
 81.3417511   3.267826899E-19
 81.4687881   3.266445766E-19
 81.5958176   3.265018104E-19
 81.7228546   3.263534349E-19
 81.849884   3.261990106E-19
 81.9769135   3.260396232E-19
 82.1039505   3.258752469E-19
 82.2309799   3.25706347E-19
 82.358017   3.2553419E-19
 82.4850464   3.253598876E-19
 82.6120834   3.251846287E-19
 82.7391129   3.250093956E-19
 82.8661423   3.248359979E-19
 82.9931793   3.246657538E-19
 83.1202087   3.245004728E-19
 83.2472458   3.243408011E-19
 83.3742752   3.241884447E-19
 83.5013123   3.240442051E-19
 83.6283417   3.23908625E-19
 83.7553711   3.237827643E-19
 83.8824081   3.236672175E-19
 84.0094376   3.235611575E-19
 84.1364746   3.234648168E-19
 84.263504   3.233778853E-19
 84.3905334   3.23298812E-19
 84.5175705   3.232260459E-19
 84.6445999   3.231580103E-19
 84.771637   3.230928182E-19
 84.8986664   3.230284015E-19
 85.0257034   3.229628216E-19
 85.1527328   3.228937778E-19
 85.2797623   3.228193574E-19
 85.4067993   3.22737389E-19
 85.5338287   3.226463991E-19
 85.6608658   3.225458191E-19
 85.7878952   3.224351579E-19
 85.9149323   3.223135882E-19
 86.0419617   3.221809549E-19
 86.1689911   3.220381112E-19
 86.2960281   3.218858065E-19
 86.4230576   3.217254628E-19
 86.5500946   3.215586825E-19
 86.677124   3.213865255E-19
 86.8041611   3.212112408E-19
 86.9311905   3.210347669E-19
 87.0582199   3.208589135E-19
 87.185257   3.206859552E-19
 87.3122864   3.205169519E-19
 87.4393234   3.203534803E-19
 87.5663528   3.201972724E-19
 87.6933823   3.200503186E-19
 87.8204193   3.199121795E-19
 87.9474487   3.197841733E-19
 88.0744858   3.196660415E-19
 88.2015152   3.195575775E-19
 88.3285522   3.194583158E-19
 88.4555817   3.193672484E-19
 88.5826111   3.192828243E-19
 88.7096481   3.1920357E-19
 88.8366776   3.191277279E-19
 88.9637146   3.190532816E-19
 89.090744   3.189777239E-19
 89.2177811   3.188991417E-19
 89.3448105   3.188159842E-19
 89.4718399   3.187270106E-19
 89.598877   3.186308508E-19
 89.7259064   3.185263934E-19
 89.8529434   3.184139744E-19
 89.9799728   3.182931543E-19
 90.1070099   3.181647087E-19
 90.2340393   3.180294905E-19
 90.3610687   3.178891542E-19
 90.4881058   3.177447078E-19
 90.6151352   3.175981417E-19
 90.7421722   3.174511103E-19
 90.8692017   3.173051388E-19
 90.9962311   3.171622175E-19
 91.1232681   3.170239232E-19
 91.2502975   3.168905662E-19
 91.3773346   3.167637749E-19
 91.504364   3.166442473E-19
 91.6314011   3.165319317E-19
 91.7584305   3.16426337E-19
 91.8854599   3.163281093E-19
 92.0124969   3.162355684E-19
 92.1395264   3.161485852E-19
 92.2665634   3.160656087E-19
 92.3935928   3.15985734E-19
 92.5206299   3.15907824E-19
 92.6476593   3.158306118E-19
 92.7746887   3.157523399E-19
 92.9017258   3.156722326E-19
 93.0287552   3.155891268E-19
 93.1557922   3.155016524E-19
 93.2828217   3.154088273E-19
 93.4098587   3.153099275E-19
 93.5368881   3.152036089E-19
 93.6639175   3.150893546E-19
 93.7909546   3.149666734E-19
 93.917984   3.148358237E-19
 94.0450211   3.146960819E-19
 94.1720505   3.145482492E-19
 94.2990799   3.143925066E-19
 94.4261169   3.142296296E-19
 94.5531464   3.140607555E-19
 94.6801834   3.138876938E-19
 94.8072128   3.137111941E-19
 94.9342499   3.135339448E-19
 95.0612793   3.133571867E-19
 95.1883087   3.131823931E-19
 95.3153458   3.130112959E-19
 95.4423752   3.1284617E-19
 95.5694122   3.126874806E-19
 95.6964417   3.125372439E-19
 95.8234787   3.12395977E-19
 95.9505081   3.122640934E-19
 96.0775375   3.121419291E-19
 96.2045746   3.120292775E-19
 96.331604   3.11926552E-19
 96.4586411   3.118326153E-19
 96.5856705   3.117464592E-19
 96.7126999   3.116671791E-19
 96.8397369   3.115933533E-19
 96.9667664   3.115233531E-19
 97.0938034   3.114556794E-19
 97.2208328   3.113891689E-19
 97.3478699   3.113214177E-19
 97.4748993   3.112520896E-19
 97.6019287   3.111792977E-19
 97.7289658   3.111016203E-19
 97.8559952   3.110179716E-19
 97.9830322   3.109272144E-19
 98.1100616   3.108281595E-19
 98.2370987   3.107201607E-19
 98.3641281   3.106033215E-19
 98.4911575   3.104774866E-19
 98.6181946   3.103429405E-19
 98.745224   3.10200407E-19
 98.872261   3.100512818E-19
 98.9992905   3.098952807E-19
 99.1263275   3.097348335E-19
 99.2533569   3.095706123E-19
 99.3803864   3.094056415E-19
 99.5074234   3.092405156E-19
 99.6344528   3.090767855E-19
 99.7614899   3.089157696E-19
 99.8885193   3.087587346E-19
 100.015549   3.086061973E-19
 100.142586   3.084592693E-19
 100.269615   3.083182092E-19
 100.396652   3.081827584E-19
 100.523682   3.080539508E-19
 100.650719   3.079303132E-19
 100.777748   3.078124658E-19
 100.904778   3.07698987E-19
 101.031815   3.075903678E-19
 101.158844   3.074857812E-19
 101.285881   3.073850202E-19
 101.41291   3.072874646E-19
 101.539948   3.071938898E-19
 101.666977   3.071034169E-19
 101.794006   3.07016899E-19
 101.921043   3.069341034E-19
 102.048073   3.068549525E-19
 102.17511   3.067795499E-19
 102.302139   3.06707947E-19
 102.429176   3.066407903E-19
 102.556206   3.065764512E-19
 102.683235   3.06515886E-19
 102.810272   3.064587589E-19
 102.937302   3.064042684E-19
 103.064339   3.063518716E-19
 103.191368   3.063014912E-19
 103.318398   3.062520154E-19
 103.445435   3.062035737E-19
 103.572464   3.061555455E-19
 103.699501   3.061073622E-19
 103.82653   3.060589463E-19
 103.953568   3.06009057E-19
 104.080597   3.059580044E-19
 104.207626   3.059049873E-19
 104.334663   3.058491526E-19
 104.461693   3.057901643E-19
 104.58873   3.057271435E-19
 104.715759   3.056591079E-19
 104.842796   3.055855663E-19
 104.969826   3.055063121E-19
 105.096855   3.054206214E-19
 105.223892   3.05327822E-19
 105.350922   3.052268026E-19
 105.477959   3.051184419E-19
 105.604988   3.050026625E-19
 105.732025   3.048793609E-19
 105.859055   3.047491316E-19
 105.986084   3.046131897E-19
 106.113121   3.044715092E-19
 106.24015   3.043260805E-19
 106.367188   3.04177343E-19
 106.494217   3.040277268E-19
 106.621246   3.038785757E-19
 106.748283   3.037309499E-19
 106.875313   3.035869946E-19
 107.00235   3.034469943E-19
 107.129379   3.033136114E-19
 107.256416   3.031879833E-19
 107.383446   3.030706012E-19
 107.510475   3.029620079E-19
 107.637512   3.0286347E-19
 107.764542   3.027739794E-19
 107.891579   3.026931225E-19
 108.018608   3.026210544E-19
 108.145645   3.025572064E-19
 108.272675   3.024995623E-19
 108.399704   3.024470105E-19
 108.526741   3.023981551E-19
 108.65377   3.0235098E-19
 108.780807   3.023027967E-19
 108.907837   3.022516407E-19
 109.034874   3.021968142E-19
 109.161903   3.021355511E-19
 109.288933   3.020659128E-19
 109.41597   3.019875633E-19
 109.542999   3.018998822E-19
 109.670036   3.01801913E-19
 109.797066   3.01694638E-19
 109.924095   3.015780314E-19
 110.051132   3.014541094E-19
 110.178162   3.013247332E-19
 110.305199   3.01191221E-19
 110.432228   3.010560287E-19
 110.559265   3.009208364E-19
 110.686295   3.007883324E-19
 110.813324   3.006614894E-19
 110.940361   3.005410312E-19
 111.06739   3.004288449E-19
 111.194427   3.003266363E-19
 111.321457   3.002348968E-19
 111.448494   3.00154195E-19
 111.575523   3.000847636E-19
 111.702553   3.000263698E-19
 111.82959   2.99978109E-19
 111.956619   2.999399294E-19
 112.083656   2.99910823E-19
 112.210686   2.998890837E-19
 112.337723   2.998734965E-19
 112.464752   2.998628465E-19
 112.591782   2.998542645E-19
 112.718819   2.998473627E-19
 112.845848   2.99839763E-19
 112.972885   2.998301987E-19
 113.099915   2.998168087E-19
 113.226944   2.99798404E-19
 113.353981   2.997736144E-19
 113.48101   2.997413802E-19
 113.608047   2.997006933E-19
 113.735077   2.996517087E-19
 113.862114   2.995937543E-19
 113.989143   2.995270887E-19
 114.116173   2.994523581E-19
 114.24321   2.993702346E-19
 114.370239   2.992810284E-19
 114.497276   2.99186006E-19
 114.624306   2.990865634E-19
 114.751343   2.989837086E-19
 114.878372   2.988788376E-19
 115.005402   2.987728551E-19
 115.132439   2.986678549E-19
 115.259468   2.985640437E-19
 115.386505   2.984626107E-19
 115.513535   2.983649258E-19
 115.640572   2.982722299E-19
 115.767601   2.981853501E-19
 115.89463   2.981045966E-19
 116.021667   2.980305122E-19
 116.148697   2.979631487E-19
 116.275734   2.979028421E-19
 116.402763   2.978492563E-19
 116.529793   2.978011505E-19
 116.65683   2.977580079E-19
 116.783859   2.97718174E-19
 116.910896   2.976807441E-19
 117.037926   2.976444774E-19
 117.164963   2.976076678E-19
 117.291992   2.97569023E-19
 117.419022   2.975268109E-19
 117.546059   2.974795582E-19
 117.673088   2.97426386E-19
 117.800125   2.973671651E-19
 117.927155   2.973010423E-19
 118.054192   2.972279144E-19
 118.181221   2.971486343E-19
 118.30825   2.970639258E-19
 118.435287   2.969737631E-19
 118.562317   2.968805502E-19
 118.689354   2.96785166E-19
 118.816383   2.966884375E-19
 118.943413   2.965922002E-19
 119.07045   2.964982894E-19
 119.197479   2.964077389E-19
 119.324516   2.96321738E-19
 119.451546   2.962418634E-19
 119.578583   2.961688388E-19
 119.705612   2.961035433E-19
 119.832642   2.96047295E-19
 119.959679   2.960000423E-19
 120.086708   2.959617077E-19
 120.213745   2.959325495E-19
 120.340775   2.959118959E-19