 -7.19999981   1.013318832E-17
 -7.07315636   1.013318832E-17
 -6.9463129   1.013318667E-17
 -6.81946898   1.013318502E-17
 -6.69262552   1.013318253E-17
 -6.56578159   1.013318088E-17
 -6.43893814   1.013317923E-17
 -6.31209469   1.01331784E-17
 -6.18525076   1.013317757E-17
 -6.05840731   1.013317757E-17
 -5.93156338   1.01331784E-17
 -5.80471992   1.013317923E-17
 -5.67787647   1.013318005E-17
 -5.55103254   1.013318088E-17
 -5.42418909   1.013318171E-17
 -5.29734564   1.013318005E-17
 -5.17050171   1.013317757E-17
 -5.04365826   1.013317343E-17
 -4.91681433   1.013316764E-17
 -4.78997087   1.01331602E-17
 -4.66312742   1.013315027E-17
 -4.53628349   1.013313869E-17
 -4.40944004   1.013312629E-17
 -4.28259611   1.013311222E-17
 -4.15575266   1.013309899E-17
 -4.02890921   1.013308575E-17
 -3.90206528   1.0133075E-17
 -3.77522182   1.013306425E-17
 -3.64837813   1.01330568E-17
 -3.52153444   1.013305018E-17
 -3.39469075   1.013304688E-17
 -3.2678473   1.013304522E-17
 -3.14100361   1.013304605E-17
 -3.01415992   1.013304936E-17
 -2.88731623   1.013305349E-17
 -2.76047254   1.013305846E-17
 -2.63362908   1.013306425E-17
 -2.50678539   1.013306921E-17
 -2.3799417   1.013307252E-17
 -2.25309801   1.0133075E-17
 -2.12625432   1.0133075E-17
 -1.99941075   1.013307335E-17
 -1.87256718   1.013306921E-17
 -1.74572349   1.013306425E-17
 -1.61887991   1.013305846E-17
 -1.49203622   1.013305267E-17
 -1.36519253   1.013304688E-17
 -1.23834896   1.013304109E-17
 -1.11150527   1.013303778E-17
 -0.984661698   1.01330353E-17
 -0.857818007   1.01330353E-17
 -0.730974376   1.013303695E-17
 -0.604130745   1.013304026E-17
 -0.477287114   1.013304605E-17
 -0.350443482   1.013305432E-17
 -0.223599836   1.013306342E-17
 -9.675619751E-2   1.013307335E-17
 3.008744121E-2   1.013308327E-17
 0.156931072   1.01330932E-17
 0.283774734   1.013310312E-17
 0.410618365   1.013311222E-17
 0.537461996   1.01331205E-17
 0.664305627   1.013312877E-17
 0.791149259   1.013313621E-17
 0.91799289   1.013314448E-17
 1.04483652   1.013315358E-17
 1.17168021   1.013316268E-17
 1.29852378   1.013317426E-17
 1.42536747   1.013318667E-17
 1.55221117   1.013319908E-17
 1.67905474   1.013321397E-17
 1.80589843   1.013322886E-17
 1.932742   1.013324457E-17
 2.05958557   1.013325946E-17
 2.18642926   1.013327352E-17
 2.31327295   1.013328593E-17
 2.44011664   1.013329668E-17
 2.56696033   1.013330413E-17
 2.69380379   1.013330909E-17
 2.82064748   1.013331157E-17
 2.94749117   1.013331075E-17
 3.07433486   1.013330744E-17
 3.20117831   1.01333033E-17
 3.328022   1.013329834E-17
 3.45486569   1.013329255E-17
 3.58170938   1.013328841E-17
 3.70855308   1.013328593E-17
 3.83539653   1.01332851E-17
 3.96224022   1.013328593E-17
 4.08908367   1.013328924E-17
 4.2159276   1.013329503E-17
 4.34277105   1.013330165E-17
 4.46961498   1.013330909E-17
 4.59645844   1.013331736E-17
 4.72330189   1.013332564E-17
 4.85014582   1.013333225E-17
 4.97698927   1.013333804E-17
 5.1038332   1.013334218E-17
 5.23067665   1.013334383E-17
 5.3575201   1.013334383E-17
 5.48436403   1.013334301E-17
 5.61120749   1.013334053E-17
 5.73805141   1.013333722E-17
 5.86489487   1.013333474E-17
 5.99173832   1.013333308E-17
 6.11858225   1.013333225E-17
 6.2454257   1.013333225E-17
 6.37226963   1.013333391E-17
 6.49911308   1.013333722E-17
 6.62595654   1.013334218E-17
 6.75280046   1.013334797E-17
 6.87964392   1.013335459E-17
 7.00648737   1.013336203E-17
 7.1333313   1.013336865E-17
 7.26017475   1.013337527E-17
 7.38701868   1.013338023E-17
 7.51386213   1.013338271E-17
 7.64070559   1.013338354E-17
 7.76754951   1.013338188E-17
 7.89439297   1.013337775E-17
 8.02123642   1.013337196E-17
 8.14808083   1.013336451E-17
 8.27492428   1.013335459E-17
 8.40176773   1.013334549E-17
 8.52861118   1.013333556E-17
 8.65545464   1.013332564E-17
 8.78229809   1.013331654E-17
 8.90914249   1.013330909E-17
 9.03598595   1.01333033E-17
 9.1628294   1.013329751E-17
 9.28967285   1.01332942E-17
 9.4165163   1.013329172E-17
 9.54336071   1.013328924E-17
 9.67020416   1.013328676E-17
 9.79704762   1.013328428E-17
 9.92389107   1.013328014E-17
 10.0507345   1.013327435E-17
 10.1775789   1.013326608E-17
 10.3044224   1.013325615E-17
 10.4312658   1.013324375E-17
 10.5581093   1.013322803E-17
 10.6849527   1.013321066E-17
 10.8117971   1.013319081E-17
 10.9386406   1.013316847E-17
 11.065484   1.013314614E-17
 11.1923275   1.01331238E-17
 11.319171   1.013310064E-17
 11.4460154   1.013307914E-17
 11.5728588   1.013305846E-17
 11.6997023   1.013304026E-17
 11.8265457   1.013302289E-17
 11.9533892   1.013300717E-17
 12.0802336   1.013299228E-17
 12.207077   1.013297905E-17
 12.3339205   1.013296664E-17
 12.4607639   1.013295589E-17
 12.5876074   1.013294513E-17
 12.7144518   1.013293603E-17
 12.8412952   1.013292776E-17
 12.9681387   1.013292032E-17
 13.0949821   1.013291535E-17
 13.2218256   1.013291287E-17
 13.34867   1.013291287E-17
 13.4755135   1.013291618E-17
 13.6023569   1.013292197E-17
 13.7292004   1.013293273E-17
 13.8560438   1.013294513E-17
 13.9828882   1.013296168E-17
 14.1097317   1.013297987E-17
 14.2365751   1.013300138E-17
 14.3634186   1.013302372E-17
 14.490262   1.013304688E-17
 14.6171055   1.013306921E-17
 14.7439499   1.013308989E-17
 14.8707933   1.013310974E-17
 14.9976368   1.013312629E-17
 15.1244802   1.013313952E-17
 15.2513237   1.013314945E-17
 15.3781681   1.013315606E-17
 15.5050116   1.013315855E-17
 15.631855   1.013315937E-17
 15.7586985   1.013315689E-17
 15.8855419   1.013315276E-17
 16.0123863   1.013314779E-17
 16.1392288   1.0133142E-17
 16.2660732   1.013313704E-17
 16.3929176   1.01331329E-17
 16.5197601   1.013313042E-17
 16.6466045   1.013313042E-17
 16.773447   1.013313125E-17
 16.9002914   1.013313456E-17
 17.0271358   1.013314035E-17
 17.1539783   1.013314779E-17
 17.2808228   1.013315606E-17
 17.4076653   1.013316516E-17
 17.5345097   1.013317509E-17
 17.6613541   1.013318419E-17
 17.7881966   1.013319329E-17
 17.915041   1.013320156E-17
 18.0418835   1.013320983E-17
 18.1687279   1.013321728E-17
 18.2955723   1.013322472E-17
 18.4224148   1.013323299E-17
 18.5492592   1.013324292E-17
 18.6761017   1.013325367E-17
 18.8029461   1.013326773E-17
 18.9297905   1.013328428E-17
 19.056633   1.01333033E-17
 19.1834774   1.013332564E-17
 19.3103199   1.013335128E-17
 19.4371643   1.013337858E-17
 19.5640087   1.01334067E-17
 19.6908512   1.013343731E-17
 19.8176956   1.013346791E-17
 19.9445381   1.013349686E-17
 20.0713825   1.013352499E-17
 20.1982269   1.01335498E-17
 20.3250694   1.013357296E-17
 20.4519138   1.013359282E-17
 20.5787563   1.013361019E-17
 20.7056007   1.01336259E-17
 20.8324451   1.013363996E-17
 20.9592876   1.013365403E-17
 21.086132   1.013366892E-17
 21.2129745   1.013368546E-17
 21.339819   1.013370531E-17
 21.4666634   1.013372682E-17
 21.5935059   1.013375246E-17
 21.7203503   1.013378059E-17
 21.8471928   1.013381202E-17
 21.9740372   1.013384593E-17
 22.1008816   1.013388067E-17
 22.2277241   1.013391707E-17
 22.3545685   1.013395347E-17
 22.481411   1.013398903E-17
 22.6082554   1.01340246E-17
 22.7350998   1.013405935E-17
 22.8619423   1.013409243E-17
 22.9887867   1.013412469E-17
 23.1156292   1.013415695E-17
 23.2424736   1.013418839E-17
 23.369318   1.013422147E-17
 23.4961605   1.013425539E-17
 23.6230049   1.013429013E-17
 23.7498474   1.013432735E-17
 23.8766918   1.01343654E-17
 24.0035343   1.013440593E-17
 24.1303787   1.013444647E-17
 24.2572231   1.013448782E-17
 24.3840656   1.013452753E-17
 24.51091   1.013456723E-17
 24.6377525   1.013460446E-17
 24.7645969   1.01346392E-17
 24.8914413   1.013467063E-17
 25.0182838   1.013469958E-17
 25.1451283   1.013472523E-17
 25.2719707   1.013474756E-17
 25.3988152   1.013476824E-17
 25.5256596   1.013478726E-17
 25.6525021   1.013480463E-17
 25.7793465   1.013482201E-17
 25.906189   1.013483938E-17
 26.0330334   1.01348584E-17
 26.1598778   1.013487908E-17
 26.2867203   1.013490059E-17
 26.4135647   1.013492375E-17
 26.5404072   1.013494856E-17
 26.6672516   1.013497338E-17
 26.794096   1.013499985E-17
 26.9209385   1.013502549E-17
 27.0477829   1.013504865E-17
 27.1746254   1.013507099E-17
 27.3014698   1.013509084E-17
 27.4283142   1.013510656E-17
 27.5551567   1.013511979E-17
 27.6820011   1.013512972E-17
 27.8088436   1.013513551E-17
 27.935688   1.013513882E-17
 28.0625324   1.013513964E-17
 28.1893749   1.013513964E-17
 28.3162193   1.013513716E-17
 28.4430618   1.013513633E-17
 28.5699062   1.013513551E-17
 28.6967506   1.013513551E-17
 28.8235931   1.013513633E-17
 28.9504375   1.013513882E-17
 29.07728   1.013514212E-17
 29.2041245   1.013514626E-17
 29.3309689   1.01351504E-17
 29.4578114   1.013515536E-17
 29.5846558   1.013515867E-17
 29.7114983   1.013516115E-17
 29.8383427   1.013516198E-17
 29.9651871   1.013516198E-17
 30.0920296   1.01351595E-17
 30.218874   1.013515619E-17
 30.3457165   1.013515122E-17
 30.4725609   1.013514626E-17
 30.5994053   1.013514212E-17
 30.7262478   1.013513882E-17
 30.8530922   1.013513882E-17
 30.9799347   1.01351413E-17
 31.1067791   1.013514791E-17
 31.2336235   1.013515784E-17
 31.360466   1.01351719E-17
 31.4873104   1.013518927E-17
 31.6141529   1.013520995E-17
 31.7409973   1.013523146E-17
 31.8678417   1.013525462E-17
 31.9946842   1.013527613E-17
 32.1215286   1.013529681E-17
 32.2483711   1.013531418E-17
 32.3752136   1.013532741E-17
 32.5020599   1.013533651E-17
 32.6289024   1.013534148E-17
 32.7557449   1.013534148E-17
 32.8825912   1.013533899E-17
 33.0094337   1.013533403E-17
 33.1362762   1.013532824E-17
 33.2631226   1.013532245E-17
 33.3899651   1.013531831E-17
 33.5168076   1.013531749E-17
 33.6436501   1.013531997E-17
 33.7704964   1.013532659E-17
 33.8973389   1.013533734E-17
 34.0241814   1.013535223E-17
 34.1510277   1.013537043E-17
 34.2778702   1.013539193E-17
 34.4047127   1.013541509E-17
 34.531559   1.013543908E-17
 34.6584015   1.013546224E-17
 34.785244   1.01354854E-17
 34.9120865   1.013550774E-17
 35.0389328   1.013552842E-17
 35.1657753   1.013554827E-17
 35.2926178   1.013556812E-17
 35.4194641   1.013558798E-17
 35.5463066   1.013560948E-17
 35.6731491   1.013563264E-17
 35.7999954   1.013565911E-17
 35.9268379   1.013568972E-17
 36.0536804   1.013572281E-17
 36.1805229   1.013576003E-17
 36.3073692   1.013580056E-17
 36.4342117   1.013584192E-17
 36.5610542   1.013588411E-17
 36.6879005   1.013592546E-17
 36.814743   1.013596517E-17
 36.9415855   1.013599908E-17
 37.0684319   1.013602969E-17
 37.1952744   1.013605285E-17
 37.3221169   1.013606939E-17
 37.4489594   1.013607849E-17
 37.5758057   1.013608263E-17
 37.7026482   1.013608097E-17
 37.8294907   1.013607684E-17
 37.956337   1.013607105E-17
 38.0831795   1.013606609E-17
 38.210022   1.01360636E-17
 38.3368683   1.01360636E-17
 38.4637108   1.013607022E-17
 38.5905533   1.013608097E-17
 38.7173958   1.013609752E-17
 38.8442421   1.01361182E-17
 38.9710846   1.013614219E-17
 39.0979271   1.0136167E-17
 39.2247734   1.013619099E-17
 39.3516159   1.01362125E-17
 39.4784584   1.013623069E-17
 39.6053047   1.01362431E-17
 39.7321472   1.013625055E-17
 39.8589897   1.013625055E-17
 39.9858322   1.013624724E-17
 40.1126785   1.013623814E-17
 40.239521   1.013622656E-17
 40.3663635   1.01362125E-17
 40.4932098   1.013619843E-17
 40.6200523   1.013618603E-17
 40.7468948   1.013617527E-17
 40.8737411   1.013616783E-17
 41.0005836   1.013616287E-17
 41.1274261   1.013616121E-17
 41.2542686   1.013616204E-17
 41.381115   1.013616287E-17
 41.5079575   1.013616369E-17
 41.6348   1.013616287E-17
 41.7616463   1.013615956E-17
 41.8884888   1.013615377E-17
 42.0153313   1.013614301E-17
 42.1421776   1.013612895E-17
 42.2690201   1.013611323E-17
 42.3958626   1.013609504E-17
 42.5227051   1.013607684E-17
 42.6495514   1.01360603E-17
 42.7763939   1.013604623E-17
 42.9032364   1.013603796E-17
 43.0300827   1.013603465E-17
 43.1569252   1.013603713E-17
 43.2837677   1.013604623E-17
 43.4106102   1.013606112E-17
 43.5374565   1.013608097E-17
 43.664299   1.013610248E-17
 43.7911415   1.013612647E-17
 43.9179878   1.013614963E-17
 44.0448303   1.013617114E-17
 44.1716728   1.013619016E-17
 44.2985191   1.013620505E-17
 44.4253616   1.013621498E-17
 44.5522041   1.013621994E-17
 44.6790466   1.013622077E-17
 44.8058929   1.013621746E-17
 44.9327354   1.01362125E-17
 45.0595779   1.013620505E-17
 45.1864243   1.013619761E-17
 45.3132668   1.013619099E-17
 45.4401093   1.013618603E-17
 45.5669556   1.013618355E-17
 45.6937981   1.013618272E-17
 45.8206406   1.013618437E-17
 45.9474831   1.013618851E-17
 46.0743294   1.01361943E-17
 46.2011719   1.013620092E-17
 46.3280144   1.013620671E-17
 46.4548607   1.013621332E-17
 46.5817032   1.013621994E-17
 46.7085457   1.01362249E-17
 46.835392   1.013623069E-17
 46.9622345   1.013623483E-17
 47.089077   1.013624062E-17
 47.2159195   1.013624807E-17
 47.3427658   1.013625716E-17
 47.4696083   1.013626874E-17
 47.5964508   1.013628363E-17
 47.7232971   1.0136301E-17
 47.8501396   1.013632086E-17
 47.9769821   1.013634402E-17
 48.1038284   1.013636801E-17
 48.2306709   1.013639282E-17
 48.3575134   1.013641764E-17
 48.4843559   1.01364408E-17
 48.6112022   1.013646148E-17
 48.7380447   1.013647968E-17
 48.8648872   1.013649291E-17
 48.9917336   1.013650036E-17
 49.118576   1.013650366E-17
 49.2454185   1.013650118E-17
 49.3722649   1.013649374E-17
 49.4991074   1.01364805E-17
 49.6259499   1.013646396E-17
 49.7527924   1.013644411E-17
 49.8796387   1.013642177E-17
 50.0064812   1.013639696E-17
 50.1333237   1.013637214E-17
 50.26017   1.013634815E-17
 50.3870125   1.013632417E-17
 50.513855   1.013630266E-17
 50.6407013   1.013628281E-17
 50.7675438   1.013626626E-17
 50.8943863   1.013625303E-17
 51.0212288   1.013624227E-17
 51.1480751   1.0136234E-17
 51.2749176   1.013622904E-17
 51.4017601   1.013622573E-17
 51.5286064   1.01362249E-17
 51.6554489   1.013622573E-17
 51.7822914   1.013622739E-17
 51.9091377   1.013622987E-17
 52.0359802   1.013623318E-17
 52.1628227   1.013623648E-17
 52.2896652   1.013623897E-17
 52.4165115   1.013624062E-17
 52.543354   1.013624145E-17
 52.6701965   1.013624145E-17
 52.7970428   1.013623979E-17
 52.9238853   1.013623731E-17
 53.0507278   1.0136234E-17
 53.1775742   1.013622987E-17
 53.3044167   1.013622573E-17
 53.4312592   1.01362216E-17
 53.5581017   1.013621829E-17
 53.684948   1.013621415E-17
 53.8117905   1.013621084E-17
 53.938633   1.013620836E-17
 54.0654793   1.013620588E-17
 54.1923218   1.013620422E-17
 54.3191643   1.01362034E-17
 54.4460106   1.013620257E-17
 54.5728531   1.013620257E-17
 54.6996956   1.013620257E-17
 54.8265381   1.01362034E-17
 54.9533844   1.013620422E-17
 55.0802269   1.013620588E-17
 55.2070694   1.013620836E-17
 55.3339157   1.01362125E-17
 55.4607582   1.013621911E-17
 55.5876007   1.013622821E-17
 55.7144432   1.013623979E-17
 55.8412895   1.013625386E-17
 55.968132   1.013627205E-17
 56.0949745   1.013629439E-17
 56.2218208   1.013632003E-17
 56.3486633   1.013634815E-17
 56.4755058   1.013637959E-17
 56.6023521   1.013641267E-17
 56.7291946   1.013644742E-17
 56.8560371   1.013648216E-17
 56.9828796   1.01365169E-17
 57.109726   1.013655081E-17
 57.2365685   1.013658225E-17
 57.3634109   1.013661202E-17
 57.4902573   1.013664098E-17
 57.6170998   1.013666827E-17
 57.7439423   1.013669474E-17
 57.8707886   1.013671956E-17
 57.9976311   1.01367452E-17
 58.1244736   1.013677084E-17
 58.2513161   1.013679731E-17
 58.3781624   1.013682378E-17
 58.5050049   1.013685191E-17
 58.6318474   1.013688003E-17
 58.7586937   1.013690816E-17
 58.8855362   1.013693463E-17
 59.0123787   1.013696109E-17
 59.139225   1.013698426E-17
 59.2660675   1.013700576E-17
 59.39291   1.013702396E-17
 59.5197525   1.013703968E-17
 59.6465988   1.013705374E-17
 59.7734413   1.013706532E-17
 59.9002838   1.013707525E-17
 60.0271301   1.013708434E-17
 60.1539726   1.013709344E-17
 60.2808151   1.013710254E-17
 60.4076614   1.013711247E-17
 60.5345039   1.013712405E-17
 60.6613464   1.013713646E-17
 60.7881889   1.013714969E-17
 60.9150352   1.013716293E-17
 61.0418777   1.013717533E-17
 61.1687202   1.013718609E-17
 61.2955666   1.013719519E-17
 61.4224091   1.013720015E-17
 61.5492516   1.013720263E-17
 61.6760979   1.013720098E-17
 61.8029404   1.013719436E-17
 61.9297829   1.013718526E-17
 62.0566254   1.013717451E-17
 62.1834717   1.013716293E-17
 62.3103142   1.013715135E-17
 62.4371567   1.013714142E-17
 62.564003   1.013713398E-17
 62.6908455   1.013713067E-17
 62.817688   1.013713232E-17
 62.9445343   1.013713977E-17
 63.0713768   1.013715217E-17
 63.1982193   1.013717037E-17
 63.3250618   1.013719105E-17
 63.4519081   1.013721587E-17
 63.5787506   1.013724151E-17
 63.7055931   1.013726798E-17
 63.8324394   1.013729197E-17
 63.9592819   1.01373143E-17
 64.0861282   1.01373325E-17
 64.2129669   1.013734739E-17
 64.3398132   1.013735814E-17
 64.4666595   1.013736393E-17
 64.5934982   1.013736724E-17
 64.7203445   1.013736641E-17
 64.8471909   1.013736476E-17
 64.9740295   1.01373631E-17
 65.1008759   1.013736062E-17
 65.2277145   1.01373598E-17
 65.3545609   1.013736062E-17
 65.4814072   1.013736228E-17
 65.6082458   1.013736724E-17
 65.7350922   1.013737303E-17
 65.8619385   1.013738048E-17
 65.9887772   1.013738875E-17
 66.1156235   1.013739867E-17
 66.2424698   1.013740777E-17
 66.3693085   1.013741687E-17
 66.4961548   1.013742514E-17
 66.6230011   1.013743424E-17
 66.7498398   1.013744334E-17
 66.8766861   1.013745327E-17
 67.0035324   1.013746402E-17
 67.1303711   1.013747643E-17
 67.2572174   1.013749049E-17
 67.3840637   1.013750703E-17
 67.5109024   1.013752523E-17
 67.6377487   1.013754508E-17
 67.7645874   1.013756659E-17
 67.8914337   1.013758975E-17
 68.01828   1.013761374E-17
 68.1451187   1.013763856E-17
 68.271965   1.013766254E-17
 68.3988113   1.013768488E-17
 68.52565   1.013770638E-17
 68.6524963   1.013772706E-17
 68.7793427   1.013774692E-17
 68.9061813   1.013776511E-17
 69.0330276   1.013778414E-17
 69.159874   1.013780151E-17
 69.2867126   1.013781971E-17
 69.413559   1.013783791E-17
 69.5404053   1.013785528E-17
 69.667244   1.013787265E-17
 69.7940903   1.013789085E-17
 69.920929   1.013790987E-17
 70.0477753   1.013792807E-17
 70.1746216   1.013794709E-17
 70.3014603   1.013796529E-17
 70.4283066   1.013798349E-17
 70.5551529   1.013800086E-17
 70.6819916   1.01380174E-17
 70.8088379   1.013803312E-17
 70.9356842   1.013804801E-17
 71.0625229   1.01380629E-17
 71.1893692   1.013807613E-17
 71.3162155   1.013808937E-17
 71.4430542   1.01381026E-17
 71.5699005   1.013811501E-17
 71.6967468   1.013812742E-17
 71.8235855   1.013813983E-17
 71.9504318   1.013815058E-17
 72.0772781   1.013816216E-17
 72.2041168   1.013817209E-17
 72.3309631   1.013818284E-17
 72.4578018   1.013819194E-17
 72.5846481   1.013820104E-17
 72.7114944   1.013820848E-17
 72.8383331   1.013821676E-17
 72.9651794   1.01382242E-17
 73.0920258   1.013822999E-17
 73.2188644   1.013823578E-17
 73.3457108   1.013823992E-17
 73.4725571   1.013824322E-17
 73.5993958   1.013824571E-17
 73.7262421   1.013824571E-17
 73.8530884   1.013824488E-17
 73.9799271   1.01382424E-17
 74.1067734   1.013823743E-17
 74.2336197   1.013823082E-17
 74.3604584   1.013822089E-17
 74.4873047   1.013820931E-17
 74.614151   1.013819608E-17
 74.7409897   1.013818036E-17
 74.867836   1.013816382E-17
 74.9946747   1.013814727E-17
 75.121521   1.013813238E-17
 75.2483673   1.013811832E-17
 75.375206   1.013810674E-17
 75.5020523   1.013810012E-17
 75.6288986   1.013809847E-17
 75.7557373   1.01381026E-17
 75.8825836   1.013811418E-17
 76.0094299   1.013813321E-17
 76.1362686   1.013815885E-17
 76.2631149   1.013819111E-17
 76.3899612   1.013822999E-17
 76.5167999   1.0138273E-17
 76.6436462   1.01383185E-17
 76.7704926   1.013836565E-17
 76.8973312   1.013841197E-17
 77.0241776   1.013845498E-17
 77.1510239   1.013849303E-17
 77.2778625   1.013852447E-17
 77.4047089   1.013854763E-17
 77.5315475   1.013856334E-17
 77.6583939   1.013857079E-17
 77.7852402   1.013857079E-17
 77.9120789   1.013856417E-17
 78.0389252   1.013855259E-17
 78.1657715   1.01385377E-17
 78.2926102   1.013852281E-17
 78.4194565   1.013850875E-17
 78.5463028   1.013849717E-17
 78.6731415   1.013849055E-17
 78.7999878   1.013849055E-17
 78.9268341   1.013849717E-17
 79.0536728   1.013851123E-17
 79.1805191   1.013853357E-17
 79.3073654   1.013856252E-17
 79.4342041   1.013859726E-17
 79.5610504   1.013863944E-17
 79.6878967   1.013868659E-17
 79.8147354   1.013873871E-17
 79.9415817   1.013879495E-17
 80.0684204   1.013885534E-17
 80.1952667   1.013891903E-17
 80.322113   1.013898686E-17
 80.4489517   1.013905717E-17
 80.575798   1.013913162E-17
 80.7026443   1.013920772E-17
 80.829483   1.01392863E-17
 80.9563293   1.013936488E-17
 81.0831757   1.013944181E-17
 81.2100143   1.013951377E-17
 81.3368607   1.013957912E-17
 81.463707   1.013963206E-17
 81.5905457   1.013967094E-17
 81.717392   1.013968996E-17
 81.8442383   1.013968417E-17
 81.971077   1.013965109E-17
 82.0979233   1.013958574E-17
 82.224762   1.01394873E-17
 82.3516083   1.013935496E-17
 82.4784546   1.013918869E-17
 82.6052933   1.013899348E-17
 82.7321396   1.013877427E-17
 82.8589859   1.013853936E-17
 82.9858246   1.01383003E-17
 83.1126709   1.013806952E-17
 83.2395172   1.013786355E-17
 83.3663559   1.013769729E-17
 83.4932022   1.013759058E-17
 83.6200485   1.013755832E-17
 83.7468872   1.013761953E-17
 83.8737335   1.013778497E-17
 84.0005798   1.013806621E-17
 84.1274185   1.013846656E-17
 84.2542648   1.013898603E-17
 84.3811111   1.013961552E-17
 84.5079498   1.014033847E-17
 84.6347961   1.014113174E-17
 84.7616348   1.014196057E-17
 84.8884811   1.014278776E-17
 85.0153275   1.014356365E-17
 85.1421661   1.014423863E-17
 85.2690125   1.01447581E-17
 85.3958588   1.014506995E-17
 85.5226974   1.014512123E-17
 85.6495438   1.01448706E-17
 85.7763901   1.014428495E-17
 85.9032288   1.014334693E-17
 86.0300751   1.014205653E-17
 86.1569214   1.01404336E-17
 86.2837601   1.01385195E-17
 86.4106064   1.013637959E-17
 86.5374527   1.013409988E-17
 86.6642914   1.013179039E-17
 86.7911377   1.012957272E-17
 86.917984   1.0127585E-17
 87.0448227   1.012596786E-17
 87.171669   1.012486275E-17
 87.2985077   1.012439788E-17
 87.425354   1.012468408E-17
 87.5522003   1.012580574E-17
 87.679039   1.012780751E-17
 87.8058853   1.013069355E-17
 87.9327316   1.013441834E-17
 88.0595703   1.013888429E-17
 88.1864166   1.014394084E-17
 88.3132629   1.0149387E-17
 88.4401016   1.015497626E-17
 88.5669479   1.016042655E-17
 88.6937943   1.016543017E-17
 88.8206329   1.01696703E-17
 88.9474792   1.017283426E-17
 89.0743256   1.017463504E-17
 89.2011642   1.017482777E-17
 89.3280106   1.017322717E-17
 89.4548569   1.016972406E-17
 89.5816956   1.016430272E-17
 89.7085419   1.015704421E-17
 89.8353806   1.014813879E-17
 89.9622269   1.013788092E-17
 90.0890732   1.012666518E-17
 90.2159119   1.011497463E-17
 90.3427582   1.010336515E-17
 90.4696045   1.009244058E-17
 90.5964432   1.008282212E-17
 90.7232895   1.00751219E-17
 90.8501358   1.006990983E-17
 90.9769745   1.006767645E-17
 91.1038208   1.006880307E-17
 91.2306671   1.007353206E-17
 91.3575058   1.008194614E-17
 91.4843521   1.00939477E-17
 91.6111984   1.010925137E-17
 91.7380371   1.012738648E-17
 91.8648834   1.014770369E-17
 91.9917297   1.01693965E-17
 92.1185684   1.019153185E-17
 92.2454147   1.021308239E-17
 92.3722534   1.023297857E-17
 92.4990997   1.025015166E-17
 92.625946   1.026358756E-17
 92.7527847   1.027237883E-17
 92.879631   1.027577441E-17
 93.0064774   1.027322256E-17
 93.133316   1.026440977E-17
 93.2601624   1.024928312E-17
 93.3870087   1.022806925E-17
 93.5138474   1.020127935E-17
 93.6406937   1.016969594E-17
 93.76754   1.013435134E-17
 93.8943787   1.009649542E-17
 94.021225   1.00575501E-17
 94.1480713   1.001905808E-17
 94.27491   9.982622427E-18
 94.4017563   9.949850359E-18
 94.528595   9.922286219E-18
 94.6554413   9.901351105E-18
 94.7822876   9.888294059E-18
 94.9091263   9.884134168E-18
 95.0359726   9.889628301E-18
 95.1628189   9.905230582E-18
 95.2896576   9.931074186E-18
 95.4165039   9.966956454E-18
 95.5433502   1.001233145E-17
 95.6701889   1.00663116E-17
 95.7970352   1.012767765E-17
 95.9238815   1.019489103E-17
 96.0507202   1.026611129E-17
 96.1775665   1.033922082E-17
 96.3044128   1.041185306E-17
 96.4312515   1.048142061E-17
 96.5580978   1.054516067E-17
 96.6849442   1.060018058E-17
 96.8117828   1.064351823E-17
 96.9386292   1.067221478E-17
 97.0654678   1.068340488E-17
 97.1923141   1.067441922E-17
 97.3191605   1.064291273E-17
 97.4459991   1.058700111E-17
 97.5728455   1.050542043E-17
 97.6996918   1.03976876E-17
 97.8265305   1.026427164E-17
 97.9533768   1.01067508E-17
 98.0802231   9.927962333E-18
 98.2070618   9.732109952E-18
 98.3339081   9.524835034E-18
 98.4607544   9.313226517E-18
 98.5875931   9.105755557E-18
 98.7144394   8.912125811E-18
 98.8412857   8.743035204E-18
 98.9681244   8.60982852E-18
 99.0949707   8.524058162E-18
 99.221817   8.496948972E-18
 99.3486557   8.538786113E-18
 99.475502   8.658237611E-18
 99.6023407   8.861649595E-18
 99.729187   9.152345678E-18
 99.8560333   9.529962726E-18
 99.982872   9.989879283E-18
 100.109718   1.052276889E-17
 100.236565   1.111433703E-17
 100.363403   1.174527814E-17
 100.49025   1.239148321E-17
 100.617096   1.302453777E-17
 100.743935   1.361251347E-17
 100.870781   1.412105832E-17
 100.997627   1.451477975E-17
 101.124466   1.475885593E-17
 101.251312   1.482086304E-17
 101.378159   1.467271996E-17
 101.504997   1.429267513E-17
 101.631844   1.366723395E-17
 101.75869   1.279291645E-17
 101.885529   1.167774298E-17
 102.012375   1.034231613E-17
 102.139214   8.82041795E-18
 102.26606   7.159013282E-18
 102.392906   5.417597915E-18
 102.519745   3.666848228E-18
 102.646591   1.986560681E-18
 102.773438   4.628950788E-19
 102.900276   -8.150018256E-19
 103.027122   -1.758901552E-18
 103.153969   -2.285790786E-18
 103.280807   -2.322384016E-18
 103.407654   -1.809655079E-18
 103.5345   -7.071678726E-19
 103.661339   1.003026906E-18
 103.788185   3.313162135E-18
 103.915031   6.187410657E-18
 104.04187   9.560624657E-18
 104.168716   1.333832543E-17
 104.295563   1.739804681E-17
 104.422401   2.159211721E-17
 104.549248   2.575184308E-17
 104.676086   2.969305099E-17
 104.802933   3.32228358E-17
 104.929779   3.614728984E-17
 105.056618   3.827998646E-17
 105.183464   3.945081098E-17
 105.31031   3.951486123E-17
 105.437149   3.836094758E-17
 105.563995   3.591931556E-17
 105.690842   3.216819045E-17
 105.81768   2.713876027E-17
 105.944527   2.091825949E-17
 106.071373   1.365092029E-17
 106.198212   5.536568821E-18
 106.325058   -3.173205244E-18
 106.451904   -1.218131564E-17
 106.578743   -2.115376277E-17
 106.705589   -2.973032044E-17
 106.832428   -3.753702276E-17
 106.959274   -4.420002545E-17
 107.086121   -4.936039501E-17
 107.212959   -5.268924112E-17
 107.339806   -5.390266875E-17
 107.466652   -5.277589986E-17
 107.593491   -4.915602516E-17
 107.720337   -4.297280706E-17
 107.847183   -3.424704091E-17
 107.974022   -2.309604737E-17
 108.100868   -9.735941452E-18
 108.227715   5.519509875E-18
 108.354553   2.226361416E-17
 108.4814   4.000501207E-17
 108.608246   5.817940428E-17
 108.735085   7.616441514E-17
 108.861931   9.329739689E-17
 108.988777   1.088955814E-16
 109.115616   1.222780998E-16
 109.242462   1.327893287E-16
 109.369301   1.398228388E-16
 109.496147   1.428452774E-16
 109.622993   1.414194694E-16
 109.749832   1.352259778E-16
 109.876678   1.240825447E-16
 110.003525   1.079605232E-16
 110.130363   8.699771507E-17
 110.25721   6.150713865E-17
 110.384056   3.198095315E-17
 110.510895   -9.108001973E-19
 110.637741   -3.632709244E-17
 110.764587   -7.326869404E-17
 110.891426   -1.105970125E-16
 111.018272   -1.470590942E-16
 111.145119   -1.813184932E-16
 111.271957   -2.119918591E-16
 111.398804   -2.376906534E-16
 111.52565   -2.570671674E-16
 111.652489   -2.688638746E-16
 111.779335   -2.719652593E-16
 111.906174   -2.654499613E-16
 112.03302   -2.486420483E-16
 112.159866   -2.211597599E-16
 112.286705   -1.829587725E-16
 112.413551   -1.343688334E-16
 112.540398   -7.612085912E-17
 112.667236   -9.362809377E-18
 112.794083   6.433803525E-17
 112.920929   1.430077224E-16
 113.047768   2.242950126E-16
 113.174614   3.055179019E-16
 113.30146   3.837281068E-16
 113.428299   4.557925053E-16
 113.555145   5.184910487E-16
 113.681992   5.686286229E-16
 113.80883   6.031580798E-16
 113.935677   6.193113687E-16
 114.062523   6.147336321E-16
 114.189362   5.876155546E-16
 114.316208   5.368186182E-16
 114.443047   4.619864866E-16
 114.569893   3.636378882E-16
 114.696739   2.432335841E-16
 114.823578   1.032132344E-16
 114.950424   -5.300319255E-17
 115.077271   -2.21053047E-16
 115.204109   -3.95710076E-16
 115.330956   -5.710058738E-16
 115.457802   -7.40392558E-16
 115.584641   -8.969447872E-16
 115.711487   -1.033595766E-15
 115.838333   -1.143400776E-15
 115.965172   -1.219821147E-15
 116.092018   -1.257016693E-15
 116.218864   -1.250137409E-15
 116.345703   -1.195601193E-15
 116.472549   -1.091345731E-15
 116.599396   -9.370407858E-16
 116.726234   -7.342499809E-16
 116.853081   -4.865311192E-16
 116.979919   -1.994647977E-16
 117.106766   1.193947467E-16
 117.233612   4.606509274E-16
 117.360451   8.132799019E-16
 117.487297   1.164927059E-15
 117.614143   1.502279212E-15
 117.740982   1.811503413E-15
 117.867828   2.078739555E-15
 117.994675   2.290631623E-15
 118.121513   2.434877946E-15
 118.24836   2.500782403E-15
 118.375206   2.479782338E-15
 118.502045   2.365932005E-15
 118.628891   2.156319302E-15
 118.755737   1.851395912E-15
 118.882576   1.455201862E-15
 119.009422   9.754673884E-16
 119.136261   4.235839186E-16
 119.263107   -1.855671046E-16
 119.389954   -8.33925483E-16
 119.516792   -1.500704049E-15
 119.643639   -2.162969993E-15
 119.770485   -2.79634248E-15