 -7.19999981   -4.267165045E-18
 -7.07296753   -4.267167941E-18
 -6.94593477   -4.267173731E-18
 -6.81890202   -4.267182003E-18
 -6.69186926   -4.26719317E-18
 -6.56483698   -4.267206404E-18
 -6.43780422   -4.267222121E-18
 -6.31077147   -4.267239492E-18
 -6.18373871   -4.267258517E-18
 -6.05670643   -4.267278783E-18
 -5.92967367   -4.267299049E-18
 -5.80264091   -4.267320142E-18
 -5.67560816   -4.267340408E-18
 -5.5485754   -4.26736026E-18
 -5.42154312   -4.267378044E-18
 -5.29451036   -4.267393761E-18
 -5.16747761   -4.267407409E-18
 -5.04044485   -4.267417749E-18
 -4.91341257   -4.267424367E-18
 -4.78637981   -4.267428089E-18
 -4.65934706   -4.267428502E-18
 -4.5323143   -4.267426021E-18
 -4.40528202   -4.267420644E-18
 -4.27824926   -4.267412372E-18
 -4.15121651   -4.267402033E-18
 -4.02418375   -4.267391279E-18
 -3.89715123   -4.267380112E-18
 -3.77011847   -4.267368945E-18
 -3.64308596   -4.26736026E-18
 -3.5160532   -4.267354056E-18
 -3.38902068   -4.267351575E-18
 -3.26198792   -4.267353229E-18
 -3.13495541   -4.267359433E-18
 -3.00792265   -4.267371841E-18
 -2.88089013   -4.267389211E-18
 -2.75385737   -4.267413613E-18
 -2.62682486   -4.267443392E-18
 -2.4997921   -4.267478133E-18
 -2.37275958   -4.267518252E-18
 -2.24572682   -4.267562919E-18
 -2.11869431   -4.267611723E-18
 -1.99166155   -4.267662595E-18
 -1.86462891   -4.267715534E-18
 -1.73759627   -4.267769301E-18
 -1.61056364   -4.267821827E-18
 -1.483531   -4.267873112E-18
 -1.35649836   -4.267920675E-18
 -1.22946572   -4.267963275E-18
 -1.10243309   -4.268001325E-18
 -0.975400388   -4.268033172E-18
 -0.848367751   -4.268057573E-18
 -0.721335113   -4.268074117E-18
 -0.594302475   -4.268083216E-18
 -0.467269808   -4.268084457E-18
 -0.34023717   -4.268078253E-18
 -0.213204518   -4.268065018E-18
 -8.617187291E-2   -4.268045579E-18
 4.086076841E-2   -4.268021177E-18
 0.16789341   -4.267991812E-18
 0.294926047   -4.267959966E-18
 0.421958715   -4.267926879E-18
 0.548991323   -4.267894205E-18
 0.67602402   -4.267862772E-18
 0.803056657   -4.267833821E-18
 0.930089295   -4.267809833E-18
 1.05712187   -4.267791221E-18
 1.18415463   -4.2677784E-18
 1.31118727   -4.267773023E-18
 1.4382199   -4.267774264E-18
 1.56525254   -4.267783363E-18
 1.69228518   -4.267799493E-18
 1.81931782   -4.267821827E-18
 1.94635046   -4.267850778E-18
 2.07338309   -4.267884693E-18
 2.20041585   -4.267923156E-18
 2.32744837   -4.267965343E-18
 2.45448112   -4.268009183E-18
 2.58151364   -4.268053851E-18
 2.7085464   -4.268097692E-18
 2.83557892   -4.268140291E-18
 2.96261168   -4.268179582E-18
 3.08964419   -4.268215978E-18
 3.21667695   -4.268246584E-18
 3.34370947   -4.2682714E-18
 3.47074223   -4.268290838E-18
 3.59777474   -4.26830366E-18
 3.7248075   -4.268309036E-18
 3.85184002   -4.268306968E-18
 3.97887278   -4.268297456E-18
 4.10590553   -4.268280499E-18
 4.23293829   -4.26825651E-18
 4.35997057   -4.268225905E-18
 4.48700333   -4.268189509E-18
 4.61403608   -4.268148563E-18
 4.74106884   -4.268103482E-18
 4.86810112   -4.268055505E-18
 4.99513388   -4.268005461E-18
 5.12216663   -4.267956244E-18
 5.24919939   -4.267907854E-18
 5.37623167   -4.267862359E-18
 5.50326443   -4.267821E-18
 5.63029718   -4.267784604E-18
 5.75732994   -4.267754825E-18
 5.88436222   -4.267731251E-18
 6.01139498   -4.267715534E-18
 6.13842773   -4.26770809E-18
 6.26546049   -4.267708917E-18
 6.39249325   -4.267717602E-18
 6.51952553   -4.267733319E-18
 6.64655828   -4.267756066E-18
 6.77359104   -4.26778419E-18
 6.9006238   -4.267817277E-18
 7.02765608   -4.267852846E-18
 7.15468884   -4.267890069E-18
 7.28172159   -4.26792812E-18
 7.40875435   -4.267963688E-18
 7.53578663   -4.267997189E-18
 7.66281939   -4.268025313E-18
 7.78985214   -4.268048888E-18
 7.9168849   -4.268065432E-18
 8.04391766   -4.268074531E-18
 8.17094994   -4.268075771E-18
 8.29798317   -4.268069154E-18
 8.42501545   -4.268053437E-18
 8.55204773   -4.268030276E-18
 8.67908096   -4.268000911E-18
 8.80611324   -4.267963688E-18
 8.93314552   -4.267921089E-18
 9.06017876   -4.267873939E-18
 9.18721104   -4.267823895E-18
 9.31424427   -4.267771782E-18
 9.44127655   -4.267719256E-18
 9.56830883   -4.267668798E-18
 9.69534206   -4.267620822E-18
 9.82237434   -4.267577395E-18
 9.94940662   -4.267539758E-18
 10.0764399   -4.267509153E-18
 10.2034721   -4.267486819E-18
 10.3305054   -4.267474411E-18
 10.4575377   -4.267471516E-18
 10.5845699   -4.26747772E-18
 10.7116032   -4.267494677E-18
 10.8386354   -4.26752156E-18
 10.9656687   -4.267557956E-18
 11.092701   -4.26760221E-18
 11.2197332   -4.267653082E-18
 11.3467665   -4.26770933E-18
 11.4737988   -4.267769301E-18
 11.600831   -4.267831339E-18
 11.7278643   -4.267894205E-18
 11.8548965   -4.26795583E-18
 11.9819298   -4.268015387E-18
 12.1089621   -4.268070808E-18
 12.2359943   -4.268120853E-18
 12.3630276   -4.268164693E-18
 12.4900599   -4.268202744E-18
 12.6170931   -4.268233763E-18
 12.7441254   -4.268256924E-18
 12.8711576   -4.268273054E-18
 12.9981909   -4.268282153E-18
 13.1252232   -4.268284221E-18
 13.2522554   -4.268280499E-18
 13.3792887   -4.268270986E-18
 13.506321   -4.268256097E-18
 13.6333542   -4.268237899E-18
 13.7603865   -4.268215565E-18
 13.8874187   -4.268191163E-18
 14.014452   -4.26816428E-18
 14.1414843   -4.268136983E-18
 14.2685175   -4.268110513E-18
 14.3955498   -4.268084457E-18
 14.5225821   -4.268060468E-18
 14.6496153   -4.268038962E-18
 14.7766476   -4.268022005E-18
 14.9036798   -4.268009597E-18
 15.0307131   -4.268002152E-18
 15.1577454   -4.268000498E-18
 15.2847786   -4.268004634E-18
 15.4118109   -4.26801456E-18
 15.5388432   -4.268029863E-18
 15.6658764   -4.268050542E-18
 15.7929087   -4.268075358E-18
 15.9199409   -4.268104309E-18
 16.0469742   -4.268134915E-18
 16.1740074   -4.268167175E-18
 16.3010387   -4.268199021E-18
 16.428072   -4.268229213E-18
 16.5551052   -4.26825651E-18
 16.6821365   -4.268280085E-18
 16.8091698   -4.268298696E-18
 16.936203   -4.268311518E-18
 17.0632343   -4.268317308E-18
 17.1902676   -4.268316481E-18
 17.3173008   -4.268307795E-18
 17.444334   -4.268292906E-18
 17.5713654   -4.268270986E-18
 17.6983986   -4.268243275E-18
 17.8254318   -4.268210602E-18
 17.9524632   -4.268173379E-18
 18.0794964   -4.268134088E-18
 18.2065296   -4.268093556E-18
 18.3335609   -4.26805261E-18
 18.4605942   -4.268012492E-18
 18.5876274   -4.267974855E-18
 18.7146587   -4.267940527E-18
 18.841692   -4.267910749E-18
 18.9687252   -4.267886347E-18
 19.0957584   -4.267867735E-18
 19.2227898   -4.267855328E-18
 19.349823   -4.267849124E-18
 19.4768562   -4.267849124E-18
 19.6038876   -4.267855328E-18
 19.7309208   -4.267866908E-18
 19.857954   -4.267882625E-18
 19.9849854   -4.267902063E-18
 20.1120186   -4.267924811E-18
 20.2390518   -4.267948799E-18
 20.3660831   -4.267974028E-18
 20.4931164   -4.267997603E-18
 20.6201496   -4.268019109E-18
 20.7471828   -4.268037307E-18
 20.8742142   -4.268051783E-18
 21.0012474   -4.268061709E-18
 21.1282806   -4.268065018E-18
 21.255312   -4.268062123E-18
 21.3823452   -4.26805261E-18
 21.5093784   -4.268036894E-18
 21.6364098   -4.268014146E-18
 21.763443   -4.267984781E-18
 21.8904762   -4.267950453E-18
 22.0175076   -4.267911162E-18
 22.1445408   -4.267867735E-18
 22.271574   -4.26782224E-18
 22.3986073   -4.267774264E-18
 22.5256386   -4.267726701E-18
 22.6526718   -4.267679965E-18
 22.779705   -4.267635298E-18
 22.9067364   -4.267593939E-18
 23.0337696   -4.267557129E-18
 23.1608028   -4.267525283E-18
 23.2878342   -4.26749964E-18
 23.4148674   -4.267481028E-18
 23.5419006   -4.267469034E-18
 23.668932   -4.267464898E-18
 23.7959652   -4.26746738E-18
 23.9229984   -4.267476893E-18
 24.0500298   -4.267492195E-18
 24.177063   -4.267512875E-18
 24.3040962   -4.267538517E-18
 24.4311295   -4.267567469E-18
 24.5581608   -4.267598488E-18
 24.685194   -4.267629921E-18
 24.8122272   -4.267660527E-18
 24.9392586   -4.267689064E-18
 25.0662918   -4.267714293E-18
 25.193325   -4.267734973E-18
 25.3203564   -4.267749862E-18
 25.4473896   -4.267758548E-18
 25.5744228   -4.267759788E-18
 25.7014542   -4.267752757E-18
 25.8284874   -4.267738282E-18
 25.9555206   -4.267715121E-18
 26.0825539   -4.267685342E-18
 26.2095852   -4.26764936E-18
 26.3366184   -4.267607173E-18
 26.4636517   -4.267560438E-18
 26.590683   -4.26750998E-18
 26.7177162   -4.267457454E-18
 26.8447495   -4.267403273E-18
 26.9717808   -4.26734868E-18
 27.098814   -4.267295326E-18
 27.2258472   -4.267244455E-18
 27.3528786   -4.267196478E-18
 27.4799118   -4.267152224E-18
 27.606945   -4.267112106E-18
 27.7339783   -4.267076537E-18
 27.8610096   -4.267045104E-18
 27.9880428   -4.267018221E-18
 28.1150761   -4.266995887E-18
 28.2421074   -4.266977275E-18
 28.3691406   -4.2669628E-18
 28.4961739   -4.266950806E-18
 28.6232052   -4.266940052E-18
 28.7502384   -4.266930953E-18
 28.8772717   -4.266922682E-18
 29.004303   -4.266913996E-18
 29.1313362   -4.266903656E-18
 29.2583694   -4.266892489E-18
 29.3854027   -4.266879668E-18
 29.512434   -4.266863952E-18
 29.6394672   -4.266845754E-18
 29.7665005   -4.266824247E-18
 29.8935318   -4.266799845E-18
 30.020565   -4.266772962E-18
 30.1475983   -4.26674277E-18
 30.2746296   -4.266709269E-18
 30.4016628   -4.266673287E-18
 30.5286961   -4.266634823E-18
 30.6557274   -4.266593877E-18
 30.7827606   -4.266550037E-18
 30.9097939   -4.266503715E-18
 31.0368271   -4.266455738E-18
 31.1638584   -4.26640528E-18
 31.2908916   -4.266353581E-18
 31.4179249   -4.266300642E-18
 31.5449562   -4.266246461E-18
 31.6719894   -4.26619104E-18
 31.7990227   -4.266135619E-18
 31.926054   -4.266080198E-18
 32.0530891   -4.266025191E-18
 32.1801186   -4.265970597E-18
 32.3071518   -4.265917243E-18
 32.434185   -4.265865958E-18
 32.5612183   -4.265816327E-18
 32.6882515   -4.265768765E-18
 32.8152847   -4.265723683E-18
 32.9423141   -4.26568067E-18
 33.0693474   -4.265640552E-18
 33.1963806   -4.265602915E-18
 33.3234138   -4.265567346E-18
 33.4504471   -4.265533845E-18
 33.5774803   -4.265501999E-18
 33.7045135   -4.265471393E-18
 33.831543   -4.265442028E-18
 33.9585762   -4.265413904E-18
 34.0856094   -4.265386194E-18
 34.2126427   -4.265358483E-18
 34.3396759   -4.265331186E-18
 34.4667091   -4.265303475E-18
 34.5937386   -4.265276179E-18
 34.7207718   -4.265247641E-18
 34.847805   -4.265218689E-18
 34.9748383   -4.265188084E-18
 35.1018715   -4.265156651E-18
 35.2289047   -4.265123564E-18
 35.355938   -4.265088822E-18
 35.4829674   -4.265052426E-18
 35.6100006   -4.265013962E-18
 35.7370338   -4.264973017E-18
 35.8640671   -4.26492959E-18
 35.9911003   -4.264883268E-18
 36.1181335   -4.264834464E-18
 36.245163   -4.264782765E-18
 36.3721962   -4.264727758E-18
 36.4992294   -4.264670682E-18
 36.6262627   -4.264611539E-18
 36.7532959   -4.264550741E-18
 36.8803291   -4.264488289E-18
 37.0073624   -4.264424596E-18
 37.1343918   -4.26436173E-18
 37.261425   -4.264298865E-18
 37.3884583   -4.26423724E-18
 37.5154915   -4.264177683E-18
 37.6425247   -4.26411978E-18
 37.769558   -4.264065186E-18
 37.8965874   -4.264013074E-18
 38.0236206   -4.263964684E-18
 38.1506538   -4.263919602E-18
 38.2776871   -4.26387907E-18
 38.4047203   -4.26384102E-18
 38.5317535   -4.263805865E-18
 38.6587868   -4.263771951E-18
 38.7858162   -4.263740104E-18
 38.9128494   -4.263709085E-18
 39.0398827   -4.263677652E-18
 39.1669159   -4.263645392E-18
 39.2939491   -4.263611478E-18
 39.4209824   -4.263575495E-18
 39.5480118   -4.263537031E-18
 39.675045   -4.263495259E-18
 39.8020782   -4.263448937E-18
 39.9291115   -4.263399306E-18
 40.0561447   -4.263345539E-18
 40.1831779   -4.263287636E-18
 40.3102074   -4.263226011E-18
 40.4372406   -4.263160664E-18
 40.5642738   -4.263092422E-18
 40.6913071   -4.263021698E-18
 40.8183403   -4.262948906E-18
 40.9453735   -4.262874873E-18
 41.0724068   -4.262800841E-18
 41.1994362   -4.262726808E-18
 41.3264694   -4.262654016E-18
 41.4535027   -4.262583292E-18
 41.5805359   -4.262515463E-18
 41.7075691   -4.26245053E-18
 41.8346024   -4.262389732E-18
 41.9616318   -4.262333483E-18
 42.088665   -4.262281785E-18
 42.2156982   -4.262235049E-18
 42.3427315   -4.262192863E-18
 42.4697647   -4.262156053E-18
 42.5967979   -4.26212338E-18
 42.7238312   -4.262094842E-18
 42.8508606   -4.26207044E-18
 42.9778938   -4.262048933E-18
 43.1049271   -4.262029908E-18
 43.2319603   -4.262012537E-18
 43.3589935   -4.261995994E-18
 43.4860268   -4.261979864E-18
 43.6130562   -4.261962907E-18
 43.7400894   -4.261944709E-18
 43.8671227   -4.261924856E-18
 43.9941559   -4.261901695E-18
 44.1211891   -4.261875225E-18
 44.2482224   -4.261845447E-18
 44.3752556   -4.261810705E-18
 44.502285   -4.261771414E-18
 44.6293182   -4.26172716E-18
 44.7563515   -4.261676702E-18
 44.8833847   -4.261620867E-18
 45.0104179   -4.261559656E-18
 45.1374512   -4.261493068E-18
 45.2644806   -4.261421103E-18
 45.3915138   -4.261345003E-18
 45.5185471   -4.261264353E-18
 45.6455803   -4.261180807E-18
 45.7726135   -4.261095194E-18
 45.8996468   -4.261007927E-18
 46.02668   -4.260921073E-18
 46.1537094   -4.260835873E-18
 46.2807426   -4.260753155E-18
 46.4077759   -4.260674159E-18
 46.5348091   -4.260600127E-18
 46.6618423   -4.260533125E-18
 46.7888756   -4.260472327E-18
 46.915905   -4.260419388E-18
 47.0429382   -4.260374306E-18
 47.1699715   -4.260337083E-18
 47.2970047   -4.260307718E-18
 47.4240379   -4.260284144E-18
 47.5510712   -4.260266773E-18
 47.6781044   -4.260254365E-18
 47.8051338   -4.260244852E-18
 47.9321671   -4.260236581E-18
 48.0592003   -4.260227895E-18
 48.1862335   -4.260217555E-18
 48.3132668   -4.260203493E-18
 48.4403   -4.260184055E-18
 48.5673294   -4.260157171E-18
 48.6943626   -4.26012243E-18
 48.8213959   -4.260078589E-18
 48.9484291   -4.26002565E-18
 49.0754623   -4.25996237E-18
 49.2024956   -4.259889992E-18
 49.3295288   -4.259808515E-18
 49.4565582   -4.259719179E-18
 49.5835915   -4.259622813E-18
 49.7106247   -4.259520656E-18
 49.8376579   -4.259414777E-18
 49.9646912   -4.259306416E-18
 50.0917244   -4.259198055E-18
 50.2187538   -4.259092176E-18
 50.345787   -4.258990019E-18
 50.4728203   -4.258894067E-18
 50.5998535   -4.258805145E-18
 50.7268867   -4.258725322E-18
 50.85392   -4.258654598E-18
 50.9809532   -4.258594214E-18
 51.1079826   -4.258544583E-18
 51.2350159   -4.258505292E-18
 51.3620491   -4.25847634E-18
 51.4890823   -4.258455661E-18
 51.6161156   -4.258443253E-18
 51.7431488   -4.258437049E-18
 51.8701782   -4.258435395E-18
 51.9972115   -4.258435395E-18
 52.1242447   -4.258436222E-18
 52.2512779   -4.258435395E-18
 52.3783112   -4.258432086E-18
 52.5053444   -4.258422987E-18
 52.6323776   -4.258406857E-18
 52.759407   -4.258382455E-18
 52.8864403   -4.258348954E-18
 53.0134735   -4.258305941E-18
 53.1405067   -4.258252588E-18
 53.26754   -4.258189309E-18
 53.3945732   -4.258116103E-18
 53.5216026   -4.258034212E-18
 53.6486359   -4.25794405E-18
 53.7756691   -4.257847269E-18
 53.9027023   -4.257745526E-18
 54.0297356   -4.257640888E-18
 54.1567688   -4.257535422E-18
 54.283802   -4.257430784E-18
 54.4108315   -4.257329041E-18
 54.5378647   -4.257232261E-18
 54.6648979   -4.257143339E-18
 54.7919312   -4.257063929E-18
 54.9189644   -4.256994446E-18
 55.0459976   -4.256936957E-18
 55.173027   -4.256891876E-18
 55.3000603   -4.256859202E-18
 55.4270935   -4.25683935E-18
 55.5541267   -4.256831492E-18
 55.68116   -4.256833973E-18
 55.8081932   -4.256845967E-18
 55.9352264   -4.25686582E-18
 56.0622559   -4.256889808E-18
 56.1892891   -4.256915864E-18
 56.3163223   -4.256941507E-18
 56.4433556   -4.256963427E-18
 56.5703888   -4.256979557E-18
 56.697422   -4.256987002E-18
 56.8244514   -4.256982866E-18
 56.9514847   -4.256966322E-18
 57.0785179   -4.256936544E-18
 57.2055511   -4.256891049E-18
 57.3325844   -4.256830664E-18
 57.4596176   -4.256755805E-18
 57.5866508   -4.25666771E-18
 57.7136803   -4.256567207E-18
 57.8407135   -4.256456779E-18
 57.9677467   -4.256338906E-18
 58.09478   -4.256215656E-18
 58.2218132   -4.256089924E-18
 58.3488464   -4.25596502E-18
 58.4758759   -4.255843838E-18
 58.6029091   -4.255728446E-18
 58.7299423   -4.255621326E-18
 58.8569756   -4.25552496E-18
 58.9840088   -4.25543976E-18
 59.111042   -4.255367382E-18
 59.2380753   -4.255307825E-18
 59.3651047   -4.255261089E-18
 59.4921379   -4.255226348E-18
 59.6191711   -4.255202773E-18
 59.7462044   -4.255188711E-18
 59.8732376   -4.255182921E-18
 60.0002708   -4.255182094E-18
 60.1273003   -4.255184989E-18
 60.2543335   -4.255189952E-18
 60.3813667   -4.25519326E-18
 60.5084   -4.255194088E-18
 60.6354332   -4.255190365E-18
 60.7624664   -4.255180026E-18
 60.8894997   -4.255163068E-18
 61.0165291   -4.255136599E-18
 61.1435623   -4.255100203E-18
 61.2705956   -4.255054294E-18
 61.3976288   -4.254997632E-18
 61.524662   -4.254929803E-18
 61.6516953   -4.254852462E-18
 61.7787247   -4.254765194E-18
 61.9057579   -4.254670069E-18
 62.0327911   -4.254567498E-18
 62.1598244   -4.254458724E-18
 62.2868576   -4.254346227E-18
 62.4138908   -4.254230836E-18
 62.5409203   -4.254114617E-18
 62.6679535   -4.253999225E-18
 62.7949867   -4.253887142E-18
 62.92202   -4.253780022E-18
 63.0490532   -4.25367952E-18
 63.1760864   -4.253586049E-18
 63.3031197   -4.253501263E-18
 63.4301491   -4.253425575E-18
 63.5571823   -4.253360228E-18
 63.6842155   -4.253304394E-18
 63.8112488   -4.253258071E-18
 63.938282   -4.253221262E-18
 64.0653152   -4.253192724E-18
 64.1923447   -4.253171217E-18
 64.3193817   -4.253155501E-18
 64.4464111   -4.253144748E-18
 64.5734482   -4.253136476E-18
 64.7004776   -4.253129031E-18
 64.827507   -4.253120346E-18
 64.9545441   -4.253109179E-18
 65.0815735   -4.253092635E-18
 65.2086105   -4.253070715E-18
 65.33564   -4.253040523E-18
 65.4626694   -4.253002473E-18
 65.5897064   -4.25295491E-18
 65.7167358   -4.252897421E-18
 65.8437729   -4.252829592E-18
 65.9708023   -4.252751423E-18
 66.0978394   -4.252664156E-18
 66.2248688   -4.252568203E-18
 66.3518982   -4.252464392E-18
 66.4789352   -4.252353963E-18
 66.6059647   -4.252238571E-18
 66.7330017   -4.252119457E-18
 66.8600311   -4.251999103E-18
 66.9870682   -4.251877921E-18
 67.1140976   -4.251757979E-18
 67.241127   -4.251641347E-18
 67.3681641   -4.25152885E-18
 67.4951935   -4.251422144E-18
 67.6222305   -4.251322469E-18
 67.7492599   -4.251230652E-18
 67.876297   -4.25114752E-18
 68.0033264   -4.251073487E-18
 68.1303558   -4.251009381E-18
 68.2573929   -4.250955201E-18
 68.3844223   -4.250910119E-18
 68.5114594   -4.250873723E-18
 68.6384888   -4.250845599E-18
 68.7655182   -4.250824506E-18
 68.8925552   -4.250809203E-18
 69.0195847   -4.250798863E-18
 69.1466217   -4.250791005E-18
 69.2736511   -4.250784388E-18
 69.4006882   -4.250777357E-18
 69.5277176   -4.250767017E-18
 69.654747   -4.250752128E-18
 69.7817841   -4.250731035E-18
 69.9088135   -4.250701256E-18
 70.0358505   -4.250662379E-18
 70.1628799   -4.250612334E-18
 70.289917   -4.250550709E-18
 70.4169464   -4.25047709E-18
 70.5439758   -4.250391891E-18
 70.6710129   -4.250294283E-18
 70.7980423   -4.250185923E-18
 70.9250793   -4.250068049E-18
 71.0521088   -4.249941491E-18
 71.1791458   -4.249809142E-18
 71.3061752   -4.249672243E-18
 71.4332047   -4.249533277E-18
 71.5602417   -4.249394311E-18
 71.6872711   -4.249258653E-18
 71.8143082   -4.249126304E-18
 71.9413376   -4.2490014E-18
 72.068367   -4.248884768E-18
 72.1954041   -4.248777234E-18
 72.3224335   -4.248680867E-18
 72.4494705   -4.248595668E-18
 72.5764999   -4.248522462E-18
 72.703537   -4.248460424E-18
 72.8305664   -4.248409139E-18
 72.9575958   -4.248367366E-18
 73.0846329   -4.248333452E-18
 73.2116623   -4.248305741E-18
 73.3386993   -4.248282166E-18
 73.4657288   -4.248260246E-18
 73.5927658   -4.248237912E-18
 73.7197952   -4.24821351E-18
 73.8468246   -4.248184559E-18
 73.9738617   -4.24814899E-18
 74.1008911   -4.24810515E-18
 74.2279282   -4.248051797E-18
 74.3549576   -4.247986863E-18
 74.481987   -4.247911176E-18
 74.609024   -4.247823495E-18
 74.7360535   -4.247724647E-18
 74.8630905   -4.247614632E-18
 74.9901199   -4.247495104E-18
 75.117157   -4.247366477E-18
 75.2441864   -4.247231233E-18
 75.3712158   -4.247090199E-18
 75.4982529   -4.246945443E-18
 75.6252823   -4.246798618E-18
 75.7523193   -4.246651793E-18
 75.8793488   -4.246506623E-18
 76.0063858   -4.246364762E-18
 76.1334152   -4.246227863E-18
 76.2604446   -4.246097582E-18
 76.3874817   -4.245974333E-18
 76.5145111   -4.245859768E-18
 76.6415482   -4.245753889E-18
 76.7685776   -4.245657522E-18
 76.8956146   -4.245571082E-18
 77.022644   -4.245494568E-18
 77.1496735   -4.245427153E-18
 77.2767105   -4.245368836E-18
 77.4037399   -4.245318792E-18
 77.530777   -4.245275778E-18
 77.6578064   -4.245238969E-18
 77.7848358   -4.245207122E-18
 77.9118729   -4.245178998E-18
 78.0389023   -4.245153356E-18
 78.1659393   -4.245127713E-18
 78.2929688   -4.245101243E-18
 78.4200058   -4.245071465E-18
 78.5470352   -4.245037964E-18
 78.6740646   -4.244997432E-18
 78.8011017   -4.244949869E-18
 78.9281311   -4.244893207E-18
 79.0551682   -4.244825792E-18
 79.1821976   -4.24474721E-18
 79.3092346   -4.244657461E-18
 79.436264   -4.244555304E-18
 79.5632935   -4.244441153E-18
 79.6903305   -4.244316249E-18
 79.8173599   -4.244180178E-18
 79.944397   -4.244035008E-18
 80.0714264   -4.243881979E-18
 80.1984634   -4.243723574E-18
 80.3254929   -4.243562274E-18
 80.4525223   -4.243399319E-18
 80.5795593   -4.243238019E-18
 80.7065887   -4.243081268E-18
 80.8336258   -4.242931549E-18
 80.9606552   -4.242792582E-18
 81.0876846   -4.24266561E-18
 81.2147217   -4.242554354E-18
 81.3417511   -4.242459642E-18
 81.4687881   -4.242383541E-18
 81.5958176   -4.242326466E-18
 81.7228546   -4.242288829E-18
 81.849884   -4.242270631E-18
 81.9769135   -4.242271045E-18
 82.1039505   -4.242288416E-18
 82.2309799   -4.242321089E-18
 82.358017   -4.242365757E-18
 82.4850464   -4.242419937E-18
 82.6120834   -4.242479081E-18
 82.7391129   -4.242539879E-18
 82.8661423   -4.242596954E-18
 82.9931793   -4.242645344E-18
 83.1202087   -4.242679672E-18
 83.2472458   -4.242694561E-18
 83.3742752   -4.242685049E-18
 83.5013123   -4.242644103E-18
 83.6283417   -4.242566762E-18
 83.7553711   -4.242447648E-18
 83.8824081   -4.242282625E-18
 84.0094376   -4.242067972E-18
 84.1364746   -4.241800793E-18
 84.263504   -4.241481501E-18
 84.3905334   -4.241110097E-18
 84.5175705   -4.24069113E-18
 84.6445999   -4.240231218E-18
 84.771637   -4.239739872E-18
 84.8986664   -4.239229502E-18
 85.0257034   -4.238717063E-18
 85.1527328   -4.238221996E-18
 85.2797623   -4.237766219E-18
 85.4067993   -4.237374963E-18
 85.5338287   -4.237073042E-18
 85.6608658   -4.236886513E-18
 85.7878952   -4.236840604E-18
 85.9149323   -4.236955996E-18
 86.0419617   -4.237250059E-18
 86.1689911   -4.237733132E-18
 86.2960281   -4.238407284E-18
 86.4230576   -4.239265071E-18
 86.5500946   -4.240287052E-18
 86.677124   -4.241441383E-18
 86.8041611   -4.242685462E-18
 86.9311905   -4.243963043E-18
 87.0582199   -4.245208363E-18
 87.185257   -4.246345737E-18
 87.3122864   -4.247294513E-18
 87.4393234   -4.247971147E-18
 87.5663528   -4.248293747E-18
 87.6933823   -4.248188281E-18
 87.8204193   -4.247591884E-18
 87.9474487   -4.246459888E-18
 88.0744858   -4.244769958E-18
 88.2015152   -4.242527057E-18
 88.3285522   -4.239767169E-18
 88.4555817   -4.236558122E-18
 88.5826111   -4.2330029E-18
 88.7096481   -4.22923716E-18
 88.8366776   -4.225425925E-18
 88.9637146   -4.221760274E-18
 89.090744   -4.218446175E-18
 89.2177811   -4.21570159E-18
 89.3448105   -4.213738277E-18
 89.4718399   -4.212755173E-18
 89.598877   -4.212924331E-18
 89.7259064   -4.214376033E-18
 89.8529434   -4.217190102E-18
 89.9799728   -4.221381426E-18
 90.1070099   -4.226895825E-18
 90.2340393   -4.233600951E-18
 90.3610687   -4.241285873E-18
 90.4881058   -4.249663972E-18
 90.6151352   -4.25837956E-18
 90.7421722   -4.26701698E-18
 90.8692017   -4.275120455E-18
 90.9962311   -4.28221022E-18
 91.1232681   -4.287808578E-18
 91.2502975   -4.291463062E-18
 91.3773346   -4.292775384E-18
 91.504364   -4.29142708E-18
 91.6314011   -4.287203496E-18
 91.7584305   -4.280018191E-18
 91.8854599   -4.269929069E-18
 92.0124969   -4.257148302E-18
 92.1395264   -4.242047293E-18
 92.2665634   -4.225153369E-18
 92.3935928   -4.207135308E-18
 92.5206299   -4.188781411E-18
 92.6476593   -4.170970971E-18
 92.7746887   -4.154634981E-18
 92.9017258   -4.140714772E-18
 93.0287552   -4.130110317E-18
 93.1557922   -4.123636388E-18
 93.2828217   -4.121966724E-18
 93.4098587   -4.125592256E-18
 93.5368881   -4.134778097E-18
 93.6639175   -4.149533345E-18
 93.7909546   -4.16958958E-18
 93.917984   -4.194391763E-18
 94.0450211   -4.223104443E-18
 94.1720505   -4.254630778E-18
 94.2990799   -4.287650587E-18
 94.4261169   -4.320665433E-18
 94.5531464   -4.352062314E-18
 94.6801834   -4.380182733E-18
 94.8072128   -4.40340252E-18
 94.9342499   -4.420212898E-18
 95.0612793   -4.429298649E-18
 95.1883087   -4.429618768E-18
 95.3153458   -4.420469324E-18
 95.4423752   -4.401543017E-18
 95.5694122   -4.372965168E-18
 95.6964417   -4.335317283E-18
 95.8234787   -4.289637061E-18
 95.9505081   -4.237398538E-18
 96.0775375   -4.180471554E-18
 96.2045746   -4.121060134E-18
 96.331604   -4.061623485E-18
 96.4586411   -4.004783769E-18
 96.5856705   -3.953222292E-18
 96.7126999   -3.909566181E-18
 96.8397369   -3.876277538E-18
 96.9667664   -3.855542602E-18
 97.0938034   -3.849166694E-18
 97.2208328   -3.858483229E-18
 97.3478699   -3.884278443E-18
 97.4748993   -3.92673142E-18
 97.6019287   -3.985374389E-18
 97.7289658   -4.059076182E-18
 97.8559952   -4.146048847E-18
 97.9830322   -4.243871226E-18
 98.1100616   -4.349536932E-18
 98.2370987   -4.459521761E-18
 98.3641281   -4.569866E-18
 98.4911575   -4.676274928E-18
 98.6181946   -4.77423131E-18
 98.745224   -4.859121962E-18
 98.872261   -4.926370918E-18
 98.9992905   -4.971585024E-18
 99.1263275   -4.99070489E-18
 99.2533569   -4.980163714E-18
 99.3803864   -4.937050233E-18
 99.5074234   -4.859269613E-18
 99.6344528   -4.745713018E-18
 99.7614899   -4.596413121E-18
 99.8885193   -4.412695894E-18
 100.015549   -4.197311711E-18
 100.142586   -3.954544541E-18
 100.269615   -3.69028391E-18
 100.396652   -3.412053852E-18
 100.523682   -3.128983134E-18
 100.650719   -2.851705575E-18
 100.777748   -2.592183655E-18
 100.904778   -2.363440712E-18
 101.031815   -2.179201534E-18
 101.158844   -2.05343141E-18
 101.285881   -1.999782336E-18
 101.41291   -2.030956499E-18
 101.539948   -2.157990968E-18
 101.666977   -2.389501037E-18
 101.794006   -2.73090143E-18
 101.921043   -3.18364447E-18
 102.048073   -3.744518006E-18
 102.17511   -4.405049023E-18
 102.302139   -5.151062537E-18
 102.429176   -5.962444414E-18
 102.556206   -6.813153765E-18
 102.683235   -7.671524464E-18
 102.810272   -8.500888006E-18
 102.937302   -9.260537593E-18
 103.064339   -9.907031354E-18
 103.191368   -1.039582479E-17
 103.318398   -1.068319478E-17
 103.445435   -1.072840268E-17
 103.572464   -1.049601869E-17
 103.699501   -9.958314071E-18
 103.82653   -9.097611137E-18
 103.953568   -7.908465387E-18
 104.080597   -6.399547743E-18
 104.207626   -4.595099972E-18
 104.334663   -2.535825565E-18
 104.461693   -2.791147528E-19
 104.58873   2.101508388E-18
 104.715759   4.517764789E-18
 104.842796   6.868873065E-18
 104.969826   9.044658343E-18
 105.096855   1.092946878E-17
 105.223892   1.240680922E-17
 105.350922   1.336452968E-17
 105.477959   1.370040554E-17
 105.604988   1.332785828E-17
 105.732025   1.218158282E-17
 105.859055   1.022278439E-17
 105.986084   7.44374622E-18
 106.113121   3.871445563E-18
 106.24015   -4.300453327E-19
 106.367188   -5.358608357E-18
 106.494217   -1.077475622E-17
 106.621246   -1.650405151E-17
 106.748283   -2.234132944E-17
 106.875313   -2.805667267E-17
 107.00235   -3.340302552E-17
 107.129379   -3.812524412E-17
 107.256416   -4.197028401E-17
 107.383446   -4.469814369E-17
 107.510475   -4.609318711E-17
 107.637512   -4.597527416E-17
 107.764542   -4.421027919E-17
 107.891579   -4.071943142E-17
 108.018608   -3.548702435E-17
 108.145645   -2.856596115E-17
 108.272675   -2.008088801E-17
 108.399704   -1.022845885E-17
 108.526741   7.253201444E-19
 108.65377   1.245082019E-17
 108.780807   2.456348563E-17
 108.907837   3.663530324E-17
 109.034874   4.82087313E-17
 109.161903   5.881261434E-17
 109.288933   6.797954239E-17
 109.41597   7.526399265E-17
 109.542999   8.026055398E-17
 109.670036   8.26215392E-17
 109.797066   8.20732111E-17
 109.924095   7.842995696E-17
 110.051132   7.160583602E-17
 110.178162   6.162280497E-17
 110.305199   4.86154924E-17
 110.432228   3.283195326E-17
 110.559265   1.463052217E-17
 110.686295   -5.52733914E-18
 110.813324   -2.70879813E-17
 110.940361   -4.941990901E-17
 111.06739   -7.183117325E-17
 111.194427   -9.358917327E-17
 111.321457   -1.13942303E-16
 111.448494   -1.321427249E-16
 111.575523   -1.474695611E-16
 111.702553   -1.592519482E-16
 111.82959   -1.668911001E-16
 111.956619   -1.698810205E-16
 112.083656   -1.678271774E-16
 112.210686   -1.604627156E-16
 112.337723   -1.476620493E-16
 112.464752   -1.294512645E-16
 112.591782   -1.060153451E-16
 112.718819   -7.770191891E-17
 112.845848   -4.502154815E-17
 112.972885   -8.644343458E-18
 113.099915   3.060723776E-17
 113.226944   7.176931338E-17
 113.353981   1.137515617E-16
 113.48101   1.553561525E-16
 113.608047   1.953009425E-16
 113.735077   2.322468785E-16
 113.862114   2.648295361E-16
 113.989143   2.916947477E-16
 114.116173   3.115381621E-16
 114.24321   3.231479663E-16
 114.370239   3.25450493E-16
 114.497276   3.175570459E-16
 114.624306   2.988115715E-16
 114.751343   2.68836796E-16
 114.878372   2.275773712E-16
 115.005402   1.753377524E-16
 115.132439   1.128127713E-16
 115.259468   4.110812028E-17
 115.386505   -3.825118072E-17
 115.513535   -1.233268722E-16
 115.640572   -2.117898153E-16
 115.767601   -3.009598588E-16
 115.89463   -3.878646981E-16
 116.021667   -4.693169745E-16
 116.148697   -5.420091832E-16
 116.275734   -6.026248726E-16