-7.200000 -4.2671650E-18
-7.057088 -4.2734185E-18
-6.914176 -4.2855669E-18
-6.771265 -4.3030361E-18
-6.628353 -4.3250619E-18
-6.485441 -4.3507235E-18
-6.342530 -4.3789854E-18
-6.199618 -4.4087399E-18
-6.056706 -4.4388547E-18
-5.913795 -4.4682175E-18
-5.770883 -4.4957837E-18
-5.627971 -4.5206136E-18
-5.485059 -4.5419090E-18
-5.342147 -4.5590419E-18
-5.199236 -4.5715754E-18
-5.056324 -4.5792797E-18
-4.913413 -4.5821381E-18
-4.770501 -4.5803460E-18
-4.627589 -4.5743030E-18
-4.484677 -4.5645981E-18
-4.341765 -4.5519853E-18
-4.198854 -4.5373528E-18
-4.055942 -4.5216910E-18
-3.913030 -4.5060465E-18
-3.770118 -4.4914807E-18
-3.627207 -4.4790196E-18
-3.484295 -4.4696096E-18
-3.341383 -4.4640721E-18
-3.198472 -4.4630613E-18
-3.055560 -4.4670342E-18
-2.912648 -4.4762246E-18
-2.769737 -4.4906312E-18
-2.626825 -4.5100149E-18
-2.483913 -4.5339097E-18
-2.341001 -4.5616459E-18
-2.198090 -4.5923814E-18
-2.055178 -4.6251448E-18
-1.912266 -4.6588764E-18
-1.769354 -4.6924848E-18
-1.626443 -4.7248929E-18
-1.483531 -4.7550850E-18
-1.340619 -4.7821524E-18
-1.197708 -4.8053267E-18
-1.054796 -4.8240073E-18
-0.9118841 -4.8377857E-18
-0.7689723 -4.8464516E-18
-0.6260606 -4.8499953E-18
-0.4831489 -4.8486073E-18
-0.3402372 -4.8426627E-18
-0.1973254 -4.8327064E-18
-5.4413714E-02 -4.8194297E-18
8.8498011E-02 -4.8036471E-18
0.2314097 -4.7862647E-18
0.3743215 -4.7682500E-18
0.5172332 -4.7505983E-18
0.6601449 -4.7342971E-18
0.8030567 -4.7202863E-18
0.9459684 -4.7094250E-18
1.088880 -4.7024556E-18
1.231792 -4.6999683E-18
1.374704 -4.7023729E-18
1.517615 -4.7098779E-18
1.660527 -4.7224738E-18
1.803439 -4.7399290E-18
1.946350 -4.7617946E-18
2.089262 -4.7874215E-18
2.232174 -4.8159870E-18
2.375086 -4.8465290E-18
2.517997 -4.8779949E-18
2.660909 -4.9092888E-18
2.803821 -4.9393246E-18
2.946733 -4.9670765E-18
3.089644 -4.9916297E-18
3.232556 -5.0122203E-18
3.375468 -5.0282684E-18
3.518379 -5.0394023E-18
3.661291 -5.0454692E-18
3.804203 -5.0465367E-18
3.947115 -5.0428818E-18
4.090026 -5.0349727E-18
4.232938 -5.0234459E-18
4.375850 -5.0090687E-18
4.518762 -4.9927100E-18
4.661673 -4.9753003E-18
4.804585 -4.9577943E-18
4.947497 -4.9411390E-18
5.090408 -4.9262357E-18
5.233320 -4.9139090E-18
5.376232 -4.9048812E-18
5.519144 -4.8997423E-18
5.662055 -4.8989342E-18
5.804967 -4.9027284E-18
5.947879 -4.9112145E-18
6.090790 -4.9242963E-18
6.233702 -4.9416858E-18
6.376614 -4.9629145E-18
6.519526 -4.9873445E-18
6.662437 -5.0141914E-18
6.805349 -5.0425538E-18
6.948261 -5.0714510E-18
7.091173 -5.0998625E-18
7.234084 -5.1267769E-18
7.376996 -5.1512387E-18
7.519908 -5.1723935E-18
7.662819 -5.1895318E-18
7.805731 -5.2021248E-18
7.948643 -5.2098507E-18
8.091555 -5.2126106E-18
8.234467 -5.2105335E-18
8.377378 -5.2039686E-18
8.520289 -5.1934663E-18
8.663201 -5.1797471E-18
8.806113 -5.1636655E-18
8.949025 -5.1461673E-18
9.091937 -5.1282415E-18
9.234848 -5.1108764E-18
9.377760 -5.0950148E-18
9.520672 -5.0815157E-18
9.663584 -5.0711188E-18
9.806496 -5.0644232E-18
9.949407 -5.0618660E-18
10.09232 -5.0637135E-18
10.23523 -5.0700563E-18
10.37814 -5.0808117E-18
10.52105 -5.0957324E-18
10.66397 -5.1144164E-18
10.80688 -5.1363226E-18
10.94979 -5.1607906E-18
11.09270 -5.1870619E-18
11.23561 -5.2143021E-18
11.37852 -5.2416330E-18
11.52144 -5.2681574E-18
11.66435 -5.2929985E-18
11.80726 -5.3153290E-18
11.95017 -5.3344121E-18
12.09308 -5.3496301E-18
12.23599 -5.3605229E-18
12.37891 -5.3668099E-18
12.52182 -5.3684100E-18
12.66473 -5.3654541E-18
12.80764 -5.3582800E-18
12.95055 -5.3474240E-18
13.09346 -5.3335936E-18
13.23638 -5.3176344E-18
13.37929 -5.3004894E-18
13.52220 -5.2831443E-18
13.66511 -5.2665845E-18
13.80802 -5.2517399E-18
13.95094 -5.2394406E-18
14.09385 -5.2303763E-18
14.23676 -5.2250712E-18
14.37967 -5.2238606E-18
14.52258 -5.2268877E-18
14.66549 -5.2341040E-18
14.80841 -5.2452838E-18
14.95132 -5.2600432E-18
15.09423 -5.2778656E-18
15.23714 -5.2981290E-18
15.38005 -5.3201378E-18
15.52296 -5.3431504E-18
15.66588 -5.3664070E-18
15.80879 -5.3891549E-18
15.95170 -5.4106711E-18
16.09461 -5.4302823E-18
16.23752 -5.4473872E-18
16.38043 -5.4614716E-18
16.52335 -5.4721240E-18
16.66626 -5.4790545E-18
16.80917 -5.4821052E-18
16.95208 -5.4812610E-18
17.09499 -5.4766586E-18
17.23791 -5.4685878E-18
17.38082 -5.4574850E-18
17.52373 -5.4439221E-18
17.66664 -5.4285907E-18
17.80955 -5.4122705E-18
17.95246 -5.3957972E-18
18.09538 -5.3800249E-18
18.23829 -5.3657841E-18
18.38120 -5.3538376E-18
18.52411 -5.3448420E-18
18.66702 -5.3393115E-18
18.80993 -5.3375926E-18
18.95285 -5.3398434E-18
19.09576 -5.3460307E-18
19.23867 -5.3559316E-18
19.38158 -5.3691499E-18
19.52449 -5.3851439E-18
19.66740 -5.4032538E-18
19.81032 -5.4227413E-18
19.95323 -5.4428311E-18
20.09614 -5.4627425E-18
20.23905 -5.4817330E-18
20.38196 -5.4991211E-18
20.52488 -5.5143156E-18
20.66779 -5.5268296E-18
20.81070 -5.5362942E-18
20.95361 -5.5424641E-18
21.09652 -5.5452203E-18
21.23943 -5.5445652E-18
21.38235 -5.5406212E-18
21.52526 -5.5336236E-18
21.66817 -5.5239154E-18
21.81108 -5.5119329E-18
21.95399 -5.4982000E-18
22.09690 -5.4833087E-18
22.23981 -5.4679041E-18
22.38273 -5.4526604E-18
22.52564 -5.4382568E-18
22.66855 -5.4253469E-18
22.81146 -5.4145295E-18
22.95437 -5.4063189E-18
23.09729 -5.4011168E-18
23.24020 -5.3991874E-18
23.38311 -5.4006444E-18
23.52602 -5.4054396E-18
23.66893 -5.4133661E-18
23.81184 -5.4240669E-18
23.95476 -5.4370582E-18
24.09767 -5.4517530E-18
24.24058 -5.4674976E-18
24.38349 -5.4836049E-18
24.52640 -5.4993895E-18
24.66932 -5.5142068E-18
24.81223 -5.5274793E-18
24.95514 -5.5387220E-18
25.09805 -5.5475600E-18
25.24096 -5.5537411E-18
25.38387 -5.5571342E-18
25.52678 -5.5577298E-18
25.66970 -5.5556304E-18
25.81261 -5.5510387E-18
25.95552 -5.5442422E-18
26.09843 -5.5355952E-18
26.24134 -5.5255036E-18
26.38426 -5.5144070E-18
26.52717 -5.5027640E-18
26.67008 -5.4910354E-18
26.81299 -5.4796741E-18
26.95590 -5.4691122E-18
27.09881 -5.4597490E-18
27.24173 -5.4519429E-18
27.38464 -5.4459996E-18
27.52755 -5.4421660E-18
27.67046 -5.4406188E-18
27.81337 -5.4414600E-18
27.95629 -5.4447075E-18
28.09920 -5.4502918E-18
28.24211 -5.4580545E-18
28.38502 -5.4677478E-18
28.52793 -5.4790446E-18
28.67084 -5.4915433E-18
28.81376 -5.5047885E-18
28.95667 -5.5182856E-18
29.09958 -5.5315267E-18
29.24249 -5.5440151E-18
29.38540 -5.5552916E-18
29.52831 -5.5649585E-18
29.67122 -5.5727001E-18
29.81414 -5.5782993E-18
29.95705 -5.5816481E-18
30.09996 -5.5827474E-18
30.24287 -5.5817056E-18
30.38578 -5.5787240E-18
30.52870 -5.5740802E-18
30.67161 -5.5681092E-18
30.81452 -5.5611803E-18
30.95743 -5.5536733E-18
31.10034 -5.5459619E-18
31.24325 -5.5383965E-18
31.38617 -5.5312922E-18
31.52908 -5.5249238E-18
31.67199 -5.5195239E-18
31.81490 -5.5152809E-18
31.95781 -5.5123457E-18
32.10072 -5.5108336E-18
32.24364 -5.5108274E-18
32.38655 -5.5123783E-18
32.52946 -5.5155059E-18
32.67237 -5.5201935E-18
32.81528 -5.5263829E-18
32.95819 -5.5339686E-18
33.10111 -5.5427917E-18
33.24402 -5.5526368E-18
33.38693 -5.5632326E-18
33.52984 -5.5742564E-18
33.67275 -5.5853423E-18
33.81567 -5.5960981E-18
33.95858 -5.6061223E-18
34.10149 -5.6150298E-18
34.24440 -5.6224715E-18
34.38731 -5.6281625E-18
34.53022 -5.6318993E-18
34.67313 -5.6335744E-18
34.81605 -5.6331877E-18
34.95896 -5.6308434E-18
35.10187 -5.6267472E-18
35.24478 -5.6211882E-18
35.38770 -5.6145194E-18
35.53061 -5.6071327E-18
35.67352 -5.5994317E-18
35.81643 -5.5918096E-18
35.95934 -5.5846222E-18
36.10225 -5.5781789E-18
36.24516 -5.5727253E-18
36.38808 -5.5684463E-18
36.53099 -5.5654680E-18
36.67390 -5.5638650E-18
36.81681 -5.5636735E-18
36.95972 -5.5649031E-18
37.10263 -5.5675422E-18
37.24555 -5.5715689E-18
37.38846 -5.5769485E-18
37.53137 -5.5836275E-18
37.67428 -5.5915292E-18
37.81719 -5.6005368E-18
37.96011 -5.6104861E-18
38.10302 -5.6211551E-18
38.24593 -5.6322583E-18
38.38884 -5.6434513E-18
38.53175 -5.6543416E-18
38.67466 -5.6645047E-18
38.81758 -5.6735119E-18
38.96049 -5.6809594E-18
39.10340 -5.6864961E-18
39.24631 -5.6898549E-18
39.38922 -5.6908736E-18
39.53214 -5.6895124E-18
39.67505 -5.6858571E-18
39.81796 -5.6801157E-18
39.96087 -5.6726040E-18
40.10378 -5.6637247E-18
40.24669 -5.6539387E-18
40.38961 -5.6437379E-18
40.53252 -5.6336178E-18
40.67543 -5.6240485E-18
40.81834 -5.6154608E-18
40.96125 -5.6082287E-18
41.10416 -5.6026630E-18
41.24707 -5.5990090E-18
41.38999 -5.5974477E-18
41.53290 -5.5980966E-18
41.67581 -5.6010136E-18
41.81872 -5.6061976E-18
41.96163 -5.6135868E-18
42.10455 -5.6230534E-18
42.24746 -5.6344015E-18
42.39037 -5.6473602E-18
42.53328 -5.6615823E-18
42.67619 -5.6766465E-18
42.81910 -5.6920618E-18
42.96202 -5.7072848E-18
43.10493 -5.7217378E-18
43.24784 -5.7348362E-18
43.39075 -5.7460221E-18
43.53366 -5.7547981E-18
43.67657 -5.7607579E-18
43.81948 -5.7636187E-18
43.96240 -5.7632444E-18
44.10531 -5.7596586E-18
44.24822 -5.7530494E-18
44.39113 -5.7437635E-18
44.53405 -5.7322868E-18
44.67696 -5.7192177E-18
44.81987 -5.7052359E-18
44.96278 -5.6910613E-18
45.10569 -5.6774149E-18
45.24860 -5.6649861E-18
45.39151 -5.6543949E-18
45.53443 -5.6461661E-18
45.67734 -5.6407104E-18
45.82025 -5.6383125E-18
45.96316 -5.6391239E-18
46.10608 -5.6431684E-18
46.24899 -5.6503430E-18
46.39190 -5.6604292E-18
46.53481 -5.6731037E-18
46.67772 -5.6879520E-18
46.82063 -5.7044782E-18
46.96354 -5.7221220E-18
47.10646 -5.7402711E-18
47.24937 -5.7582801E-18
47.39228 -5.7754892E-18
47.53519 -5.7912437E-18
47.67810 -5.8049257E-18
47.82101 -5.8159755E-18
47.96392 -5.8239260E-18
48.10684 -5.8284271E-18
48.24975 -5.8292733E-18
48.39266 -5.8264245E-18
48.53557 -5.8200167E-18
48.67849 -5.8103631E-18
48.82140 -5.7979484E-18
48.96431 -5.7834065E-18
49.10722 -5.7674883E-18
49.25013 -5.7510253E-18
49.39304 -5.7348821E-18
49.53595 -5.7199080E-18
49.67887 -5.7068919E-18
49.82178 -5.6965216E-18
49.96469 -5.6893429E-18
50.10760 -5.6857405E-18
50.25051 -5.6859225E-18
50.39342 -5.6899153E-18
50.53634 -5.6975737E-18
50.67925 -5.7085930E-18
50.82216 -5.7225343E-18
50.96507 -5.7388472E-18
51.10798 -5.7569004E-18
51.25090 -5.7760087E-18
51.39381 -5.7954586E-18
51.53672 -5.8145350E-18
51.67963 -5.8325444E-18
51.82254 -5.8488341E-18
51.96545 -5.8628146E-18
52.10837 -5.8739816E-18
52.25128 -5.8819295E-18
52.39419 -5.8863756E-18
52.53710 -5.8871730E-18
52.68001 -5.8843259E-18
52.82293 -5.8779984E-18
52.96584 -5.8685131E-18
53.10875 -5.8563502E-18
53.25166 -5.8421269E-18
53.39457 -5.8265759E-18
53.53748 -5.8105104E-18
53.68040 -5.7947828E-18
53.82331 -5.7802393E-18
53.96622 -5.7676732E-18
54.10913 -5.7577784E-18
54.25204 -5.7511097E-18
54.39495 -5.7480528E-18
54.53786 -5.7488014E-18
54.68078 -5.7533522E-18
54.82369 -5.7615082E-18
54.96660 -5.7728972E-18
55.10951 -5.7869982E-18
55.25242 -5.8031753E-18
55.39534 -5.8207169E-18
55.53825 -5.8388769E-18
55.68116 -5.8569115E-18
55.82407 -5.8741139E-18
55.96698 -5.8898432E-18
56.10989 -5.9035450E-18
56.25281 -5.9147707E-18
56.39572 -5.9231815E-18
56.53863 -5.9285585E-18
56.68154 -5.9308039E-18
56.82445 -5.9299362E-18
56.96737 -5.9260907E-18
57.11028 -5.9195133E-18
57.25319 -5.9105529E-18
57.39610 -5.8996544E-18
57.53901 -5.8873426E-18
57.68192 -5.8742074E-18
57.82484 -5.8608828E-18
57.96775 -5.8480209E-18
58.11066 -5.8362605E-18
58.25357 -5.8261978E-18
58.39648 -5.8183533E-18
58.53939 -5.8131453E-18
58.68230 -5.8108615E-18
58.82522 -5.8116432E-18
58.96813 -5.8154768E-18
59.11104 -5.8221964E-18
59.25395 -5.8314930E-18
59.39687 -5.8429383E-18
59.53978 -5.8560086E-18
59.68269 -5.8701253E-18
59.82560 -5.8846841E-18
59.96851 -5.8990935E-18
60.11142 -5.9128053E-18
60.25433 -5.9253416E-18
60.39725 -5.9363138E-18
60.54016 -5.9454355E-18
60.68307 -5.9525249E-18
60.82598 -5.9575041E-18
60.96889 -5.9603926E-18
61.11180 -5.9612905E-18
61.25471 -5.9603703E-18
61.39763 -5.9578585E-18
61.54054 -5.9540204E-18
61.68345 -5.9491483E-18
61.82636 -5.9435458E-18
61.96928 -5.9375194E-18
62.11219 -5.9313664E-18
62.25510 -5.9253694E-18
62.39801 -5.9197888E-18
62.54092 -5.9148592E-18
62.68383 -5.9107828E-18
62.82674 -5.9077306E-18
62.96966 -5.9058371E-18
63.11257 -5.9052006E-18
63.25548 -5.9058806E-18
63.39839 -5.9078964E-18
63.54131 -5.9112275E-18
63.68422 -5.9158100E-18
63.82713 -5.9215366E-18
63.97004 -5.9282546E-18
64.11295 -5.9357674E-18
64.25586 -5.9438362E-18
64.39877 -5.9521841E-18
64.54169 -5.9605067E-18
64.68460 -5.9684837E-18
64.82751 -5.9757930E-18
64.97042 -5.9821313E-18
65.11333 -5.9872296E-18
65.25625 -5.9908775E-18
65.39915 -5.9929359E-18
65.54207 -5.9933504E-18
65.68498 -5.9921576E-18
65.82789 -5.9894837E-18
65.97080 -5.9855368E-18
66.11372 -5.9805919E-18
66.25663 -5.9749700E-18
66.39954 -5.9690155E-18
66.54245 -5.9630739E-18
66.68536 -5.9574681E-18
66.82828 -5.9524827E-18
66.97118 -5.9483517E-18
67.11410 -5.9452552E-18
67.25701 -5.9433171E-18
67.39992 -5.9426128E-18
67.54283 -5.9431765E-18
67.68575 -5.9450087E-18
67.82866 -5.9480841E-18
67.97157 -5.9523541E-18
68.11448 -5.9577448E-18
68.25739 -5.9641559E-18
68.40031 -5.9714512E-18
68.54321 -5.9794537E-18
68.68613 -5.9879427E-18
68.82904 -5.9966508E-18
68.97195 -6.0052758E-18
69.11486 -6.0134906E-18
69.25777 -6.0209662E-18
69.40069 -6.0273975E-18
69.54359 -6.0325302E-18
69.68651 -6.0361884E-18
69.82942 -6.0382940E-18
69.97233 -6.0388796E-18
70.11524 -6.0380917E-18
70.25816 -6.0361739E-18
70.40107 -6.0334517E-18
70.54398 -6.0302968E-18
70.68689 -6.0270890E-18
70.82980 -6.0241815E-18
70.97272 -6.0218653E-18
71.11562 -6.0203446E-18
71.25854 -6.0197217E-18
71.40145 -6.0199963E-18
71.54436 -6.0210770E-18
71.68727 -6.0228046E-18
71.83018 -6.0249809E-18
71.97310 -6.0274013E-18
72.11600 -6.0298857E-18
72.25892 -6.0323023E-18
72.40183 -6.0345816E-18
72.54475 -6.0367203E-18
72.68765 -6.0387700E-18
72.83057 -6.0408239E-18
72.97348 -6.0429891E-18
73.11639 -6.0453610E-18
73.25930 -6.0480005E-18
73.40221 -6.0509163E-18
73.54513 -6.0540584E-18
73.68803 -6.0573191E-18
73.83095 -6.0605489E-18
73.97386 -6.0635759E-18
74.11678 -6.0662341E-18
74.25968 -6.0683901E-18
74.40260 -6.0699655E-18
74.54551 -6.0709498E-18
74.68842 -6.0714089E-18
74.83133 -6.0714722E-18
74.97424 -6.0713171E-18
75.11716 -6.0711388E-18
75.26006 -6.0711215E-18
75.40298 -6.0714064E-18
75.54589 -6.0720678E-18
75.68880 -6.0730976E-18
75.83171 -6.0744058E-18
75.97462 -6.0758294E-18
76.11754 -6.0771599E-18
76.26044 -6.0781765E-18
76.40336 -6.0786856E-18
76.54627 -6.0785545E-18
76.68919 -6.0777451E-18
76.83209 -6.0763294E-18
76.97501 -6.0744922E-18
77.11792 -6.0725161E-18
77.26083 -6.0707538E-18
77.40374 -6.0695862E-18
77.54665 -6.0693753E-18
77.68957 -6.0704208E-18
77.83247 -6.0729189E-18
77.97539 -6.0769370E-18
78.11830 -6.0824026E-18
78.26122 -6.0891118E-18
78.40412 -6.0967488E-18
78.54704 -6.1049250E-18
78.68995 -6.1132183E-18
78.83286 -6.1212172E-18
78.97577 -6.1285621E-18
79.11868 -6.1349707E-18
79.26160 -6.1402552E-18
79.40450 -6.1443249E-18
79.54742 -6.1471749E-18
79.69033 -6.1488669E-18
79.83324 -6.1495030E-18
79.97615 -6.1492044E-18
80.11906 -6.1480919E-18
80.26198 -6.1462733E-18
80.40488 -6.1438431E-18
80.54780 -6.1408913E-18
80.69071 -6.1375159E-18
80.83363 -6.1338424E-18
80.97653 -6.1300353E-18
81.11945 -6.1263085E-18
81.26236 -6.1229241E-18
81.40527 -6.1201799E-18
81.54818 -6.1183870E-18
81.69109 -6.1178369E-18
81.83401 -6.1187683E-18
81.97691 -6.1213297E-18
82.11983 -6.1255549E-18
82.26274 -6.1313435E-18
82.40565 -6.1384606E-18
82.54856 -6.1465488E-18
82.69147 -6.1551581E-18
82.83439 -6.1637847E-18
82.97730 -6.1719196E-18
83.12021 -6.1790963E-18
83.26312 -6.1849345E-18
83.40604 -6.1891726E-18
83.54894 -6.1916909E-18
83.69186 -6.1925111E-18
83.83477 -6.1917864E-18
83.97768 -6.1897768E-18
84.12059 -6.1868110E-18
84.26350 -6.1832483E-18
84.40642 -6.1794404E-18
84.54933 -6.1756978E-18
84.69224 -6.1722675E-18
84.83515 -6.1693190E-18
84.97807 -6.1669508E-18
85.12097 -6.1651988E-18
85.26389 -6.1640593E-18
85.40680 -6.1635113E-18
85.54971 -6.1635407E-18
85.69262 -6.1641578E-18
85.83553 -6.1654077E-18
85.97845 -6.1673668E-18
86.12135 -6.1701329E-18
86.26427 -6.1738035E-18
86.40718 -6.1784490E-18
86.55009 -6.1840850E-18
86.69300 -6.1906462E-18
86.83591 -6.1979717E-18
86.97883 -6.2058018E-18
87.12174 -6.2137845E-18
87.26465 -6.2215017E-18
87.40756 -6.2285029E-18
87.55048 -6.2343503E-18
87.69338 -6.2386652E-18
87.83630 -6.2411712E-18
87.97921 -6.2417300E-18
88.12212 -6.2403630E-18
88.26503 -6.2372586E-18
88.40794 -6.2327567E-18
88.55086 -6.2273234E-18
88.69377 -6.2215099E-18
88.83668 -6.2159000E-18
88.97959 -6.2110626E-18
89.12251 -6.2075025E-18
89.26541 -6.2056186E-18
89.40833 -6.2056810E-18
89.55124 -6.2078135E-18
89.69415 -6.2119957E-18
89.83706 -6.2180759E-18
89.97997 -6.2257914E-18
90.12289 -6.2347907E-18
90.26580 -6.2446623E-18
90.40871 -6.2549562E-18
90.55162 -6.2652008E-18
90.69453 -6.2749189E-18
90.83744 -6.2836374E-18
90.98035 -6.2908959E-18
91.12327 -6.2962585E-18
91.26618 -6.2993282E-18
91.40909 -6.2997670E-18
91.55200 -6.2973260E-18
91.69492 -6.2918757E-18
91.83783 -6.2834418E-18
91.98074 -6.2722364E-18
92.12365 -6.2586863E-18
92.26656 -6.2434373E-18
92.40947 -6.2273544E-18
92.55238 -6.2114891E-18
92.69530 -6.1970299E-18
92.83821 -6.1852319E-18
92.98112 -6.1773265E-18
93.12403 -6.1744239E-18
93.26694 -6.1774121E-18
93.40986 -6.1868618E-18
93.55276 -6.2029488E-18
93.69568 -6.2254031E-18
93.83859 -6.2534809E-18
93.98150 -6.2859816E-18
94.12441 -6.3212927E-18
94.26733 -6.3574703E-18
94.41024 -6.3923496E-18
94.55315 -6.4236754E-18
94.69606 -6.4492452E-18
94.83897 -6.4670540E-18
94.98188 -6.4754321E-18
95.12479 -6.4731647E-18
95.26771 -6.4595891E-18
95.41062 -6.4346533E-18
95.55353 -6.3989526E-18
95.69644 -6.3537170E-18
95.83936 -6.3007725E-18
95.98227 -6.2424686E-18
96.12518 -6.1815761E-18
96.26809 -6.1211659E-18
96.41100 -6.0644701E-18
96.55391 -6.0147363E-18
96.69682 -5.9750738E-18
96.83974 -5.9483054E-18
96.98265 -5.9368275E-18
97.12556 -5.9424775E-18
97.26847 -5.9664215E-18
97.41138 -6.0090614E-18
97.55430 -6.0699651E-18
97.69720 -6.1478247E-18
97.84012 -6.2404495E-18
97.98303 -6.3447851E-18
98.12594 -6.4569735E-18
98.26885 -6.5724446E-18
98.41177 -6.6860413E-18
98.55468 -6.7921777E-18
98.69759 -6.8850196E-18
98.84050 -6.9586941E-18
98.98341 -7.0075152E-18
99.12633 -7.0262194E-18
99.26923 -7.0102159E-18
99.41215 -6.9558387E-18
99.55506 -6.8606013E-18
99.69797 -6.7234456E-18
99.84088 -6.5449917E-18
99.98380 -6.3277588E-18
100.1267 -6.0763728E-18
100.2696 -5.7977242E-18
100.4125 -5.5010704E-18
100.5554 -5.1980468E-18
100.6984 -4.9025721E-18
100.8413 -4.6306079E-18
100.9842 -4.3997542E-18
101.1271 -4.2286515E-18
101.2700 -4.1361831E-18
101.4129 -4.1404794E-18
101.5558 -4.2577397E-18
101.6987 -4.5009122E-18
101.8416 -4.8782972E-18
101.9846 -5.3921489E-18
102.1275 -6.0373754E-18
102.2704 -6.8004636E-18
102.4133 -7.6587280E-18
102.5562 -8.5800219E-18
102.6991 -9.5230037E-18
102.8420 -1.0438047E-17
102.9849 -1.1268856E-17
103.1279 -1.1954770E-17
103.2708 -1.2433755E-17
103.4137 -1.2645965E-17
103.5566 -1.2537725E-17
103.6995 -1.2065771E-17
103.8424 -1.1201458E-17
103.9853 -9.9347030E-18
104.1282 -8.2773416E-18
104.2711 -6.2656082E-18
104.4141 -3.9614589E-18
104.5570 -1.4524999E-18
104.6999 1.1496631E-18
104.8428 3.7127638E-18
104.9857 6.0888968E-18
105.1286 8.1211310E-18
105.2715 9.6515070E-18
105.4144 1.0530075E-17
105.5574 1.0624568E-17
105.7003 9.8301788E-18
105.8432 8.0788588E-18
105.9861 5.3475221E-18
106.1290 1.6645556E-18
106.2719 -2.8859620E-18
106.4148 -8.1628077E-18
106.5577 -1.3969307E-17
106.7006 -2.0058377E-17
106.8436 -2.6140965E-17
106.9865 -3.1897696E-17
107.1294 -3.6993360E-17
107.2723 -4.1093618E-17
107.4152 -4.3883212E-17
107.5581 -4.5084712E-17
107.7010 -4.4476777E-17
107.8439 -4.1910886E-17
107.9869 -3.7325446E-17
108.1298 -3.0756312E-17
108.2727 -2.2342880E-17
108.4156 -1.2329117E-17
108.5585 -1.0591714E-18
108.7014 1.1032578E-17
108.8443 2.3436756E-17
108.9872 3.5589022E-17
109.1301 4.6894087E-17
109.2731 5.6752617E-17
109.4160 6.4589809E-17
109.5589 6.9884222E-17
109.7018 7.2195417E-17
109.8447 7.1189010E-17
109.9876 6.6657840E-17
110.1305 5.8538143E-17
110.2734 4.6919809E-17
110.4164 3.2050221E-17
110.5593 1.4331351E-17
110.7022 -5.6897734E-18
110.8451 -2.7336913E-17
110.9880 -4.9826048E-17
111.1309 -7.2291602E-17
111.2738 -9.3816370E-17
111.4167 -1.1346398E-16
111.5596 -1.3031286E-16
111.7026 -1.4349040E-16
111.8455 -1.5220646E-16
111.9884 -1.5578519E-16
112.1313 -1.5369433E-16
112.2742 -1.4557151E-16
112.4171 -1.3124693E-16
112.5600 -1.1076191E-16
112.7029 -8.4382878E-17
112.8458 -5.2610394E-17
112.9888 -1.6182619E-17
113.1317 2.3927437E-17
113.2746 6.6521613E-17
113.4175 1.1019419E-16
113.5604 1.5335805E-16
113.7033 1.9428053E-16
113.8462 2.3112930E-16
113.9891 2.6202885E-16
114.1321 2.8512736E-16
114.2750 2.9867308E-16
114.4179 3.0109875E-16
114.5608 2.9111151E-16
114.7037 2.6778513E-16
114.8466 2.3064980E-16
114.9895 1.7977478E-16
115.1324 1.1583820E-16
115.2754 4.0177463E-17
115.4183 -4.5185383E-17
115.5612 -1.3754894E-16
115.7041 -2.3357328E-16
115.8470 -3.2935947E-16
115.9899 -4.2056898E-16
116.1328 -5.0258255E-16
116.2757 -5.7069470E-16
116.4186 -6.2033771E-16
116.5616 -6.4732698E-16
116.7045 -6.4811557E-16
116.8474 -6.2004506E-16
116.9903 -5.6157845E-16
117.1332 -4.7249864E-16
117.2761 -3.5405821E-16
117.4190 -2.0906613E-16
117.5619 -4.1899858E-17
117.7048 1.4156549E-16
117.8478 3.3411551E-16
117.9907 5.2744133E-16
118.1336 7.1246578E-16
118.2765 8.7973954E-16
118.4194 1.0198909E-15
118.5623 1.1241089E-15
118.7052 1.1846352E-15
118.8481 1.1952383E-15
118.9911 1.1516426E-15
119.1340 1.0518847E-15
119.2769 8.9657315E-16
119.4198 6.8903261E-16
119.5627 4.3531387E-16
119.7056 1.4406647E-16
119.8485 -1.7373065E-16
119.9914 -5.0517077E-16
120.1343 -8.3593856E-16
120.2773 -1.1509251E-15
120.4202 -1.4349083E-15
120.5631 -1.6732690E-15
120.7060 -1.8527027E-15
120.8489 -1.9618941E-15
120.9918 -1.9921177E-15
121.1347 -1.9377344E-15
121.2776 -1.7965562E-15
121.4206 -1.5700634E-15
121.5635 -1.2634592E-15
121.7064 -8.8556400E-16
121.8493 -4.4854958E-16
121.9922 3.2467312E-17
122.1351 5.3995740E-16
122.2780 1.0546087E-15
122.4209 1.5560277E-15
122.5639 2.0234804E-15
122.7068 2.4366472E-15
122.8497 2.7763612E-15
122.9926 3.0253114E-15
123.1355 3.1686869E-15
123.2784 3.1947535E-15
123.4213 3.0953464E-15
123.5642 2.8662788E-15
123.7071 2.5076593E-15
123.8501 2.0241146E-15
123.9930 1.4249183E-15
124.1359 7.2401639E-16
124.2788 -6.0054517E-17
124.4217 -9.0436787E-16
124.5646 -1.7819394E-15
124.7075 -2.6622097E-15
124.8504 -3.5116881E-15
124.9933 -4.2947743E-15
125.1363 -4.9747710E-15
125.2792 -5.5150794E-15
125.4221 -5.8805834E-15
125.5650 -6.0391831E-15
125.7079 -5.9634541E-15
125.8508 -5.6323668E-15
125.9937 -5.0329990E-15
126.1366 -4.1621505E-15
126.2795 -3.0277616E-15
126.4225 -1.6500257E-15
126.5654 -6.2083439E-17
126.7083 1.6898038E-15
126.8512 3.5466947E-15
126.9941 5.4380951E-15
127.1370 7.2838108E-15
127.2799 8.9965351E-15
127.4228 1.0485134E-14
127.5658 1.1658539E-14
127.7087 1.2430134E-14
127.8516 1.2722449E-14
127.9945 1.2471960E-14
128.1374 1.1633740E-14
128.2803 1.0185711E-14
128.4232 8.1322032E-15
128.5661 5.5065858E-15
128.7090 2.3726994E-15
128.8520 -1.1750854E-15
128.9949 -5.0133525E-15
129.1378 -8.9927193E-15
129.2807 -1.2942539E-14
129.4236 -1.6677106E-14
129.5665 -2.0003223E-14
129.7094 -2.2728826E-14
129.8523 -2.4672372E-14
129.9953 -2.5672522E-14
130.1382 -2.5597720E-14
130.2811 -2.4355126E-14
130.4240 -2.1898427E-14
130.5669 -1.8234041E-14
130.7098 -1.3425257E-14
130.8527 -7.5939917E-15
130.9956 -9.1982431E-16
131.1385 6.3637873E-15
131.2815 1.3976196E-14
131.4244 2.1598991E-14
131.5673 2.8887960E-14
131.7102 3.5487147E-14
131.8531 4.1044489E-14
131.9960 4.5228425E-14
132.1389 4.7744669E-14
132.2818 4.8352442E-14
132.4248 4.6879320E-14
132.5677 4.3233853E-14
132.7106 3.7415322E-14
132.8535 2.9519901E-14
132.9964 1.9742739E-14
133.1393 8.3756702E-15
133.2822 -4.1996791E-15
133.4251 -1.7523241E-14
133.5681 -3.1072089E-14
133.7110 -4.4279728E-14
133.8539 -5.6558382E-14
133.9968 -6.7323432E-14
134.1397 -7.6018971E-14
134.2826 -8.2143317E-14
134.4255 -8.5273416E-14
134.5684 -8.5086940E-14
134.7113 -8.1380954E-14
134.8542 -7.4086340E-14
134.9972 -6.3277041E-14
135.1401 -4.9173702E-14
135.2830 -3.2141333E-14
135.4259 -1.2680964E-14
135.5688 8.5844951E-15
135.7117 3.0929632E-14
135.8546 5.3550507E-14
135.9975 7.5592283E-14
136.1405 9.6179439E-14
136.2834 1.1444735E-13
136.4263 1.2957423E-13
136.5692 1.4081207E-13
136.7121 1.4751552E-13
136.8550 1.4916792E-13
136.9979 1.4540353E-13
137.1408 1.3602514E-13
137.2838 1.2101717E-13
137.4267 1.0055329E-13
137.5696 7.4999035E-14
137.7125 4.4909040E-14
137.8554 1.1019219E-14
137.9983 -2.5766066E-14
138.1412 -6.4391621E-14
138.2841 -1.0367358E-13
138.4270 -1.4232590E-13
138.5700 -1.7899118E-13
138.7129 -2.1227533E-13
138.8558 -2.4078615E-13
138.9987 -2.6317509E-13
139.1416 -2.7818215E-13
139.2845 -2.8468281E-13
139.4274 -2.8173622E-13
139.5703 -2.6863356E-13
139.7133 -2.4494428E-13
139.8562 -2.1055946E-13
139.9991 -1.6572892E-13
140.1420 -1.1109041E-13
140.2849 -4.7688267E-14
140.4278 2.3021209E-14
140.5707 9.9179372E-14
140.7136 1.7855221E-13
140.8566 2.5857552E-13
140.9995 3.3641888E-13
141.1424 4.0906791E-13
141.2853 4.7342360E-13
141.4282 5.2641545E-13
141.5711 5.6512575E-13
141.7140 5.8691946E-13
141.8569 5.8957434E-13
141.9998 5.7140620E-13
142.1427 5.3138115E-13
142.2857 4.6921023E-13
142.4286 3.8541953E-13
142.5715 2.8139058E-13
142.7144 1.5936739E-13
142.8573 2.2427195E-14
143.0002 -1.2558590E-13
143.1431 -2.8016340E-13
143.2860 -4.3626878E-13
143.4290 -5.8850261E-13
143.5719 -7.3129073E-13
143.7148 -8.5908781E-13
143.8577 -9.6658760E-13
144.0006 -1.0489321E-12
144.1435 -1.1019084E-12
144.2864 -1.1221271E-12
144.4293 -1.1071723E-12
144.5723 -1.0557186E-12
144.7152 -9.6760848E-13
144.8581 -8.4388838E-13
145.0010 -6.8680136E-13
145.1439 -4.9973800E-13
145.2868 -2.8714658E-13
145.4297 -5.4409039E-14
145.5726 1.9231483E-13
145.7155 4.4626569E-13
145.8585 7.0028103E-13
146.0014 9.4700224E-13
146.1443 1.1790833E-12
146.2872 1.3893992E-12
146.4301 1.5712445E-12
146.5730 1.7185193E-12
146.7159 1.8258988E-12
146.8588 1.8889822E-12
147.0018 1.9044211E-12
147.1447 1.8700211E-12
147.2876 1.7848197E-12
147.4305 1.6491359E-12
147.5734 1.4645916E-12
147.7163 1.2341035E-12
147.8592 9.6184269E-13
148.0021 6.5316291E-13
148.1451 3.1449555E-13
148.2880 -4.6788924E-14
148.4309 -4.2255086E-13
148.5738 -8.0408184E-13
148.7167 -1.1823305E-12
148.8596 -1.5481490E-12
149.0025 -1.8925525E-12
149.1454 -2.2069818E-12
149.2883 -2.4835596E-12
149.4312 -2.7153269E-12
149.5742 -2.8964509E-12
149.7171 -3.0223879E-12
149.8600 -3.0899966E-12
150.0029 -3.0975877E-12
150.1458 -3.0449107E-12
150.2887 -2.9330702E-12
150.4316 -2.7643810E-12
150.5745 -2.5421635E-12
150.7175 -2.2704943E-12
150.8604 -1.9539277E-12
151.0033 -1.5972060E-12
151.1462 -1.2049787E-12
151.2891 -7.8155673E-13
151.4320 -3.3071806E-13
151.5749 1.4441242E-13
151.7178 6.4139444E-13
151.8607 1.1584066E-12
152.0037 1.6940766E-12
152.1466 2.2472137E-12
152.2895 2.8164521E-12
152.4324 3.3998269E-12
152.5753 3.9943019E-12
152.7182 4.5952886E-12
152.8611 5.1961816E-12
153.0040 5.7879561E-12
153.1470 6.3588579E-12
153.2899 6.8942243E-12
153.4328 7.3764606E-12
153.5757 7.7851978E-12
153.7186 8.0976510E-12
153.8615 8.2891619E-12
154.0044 8.3339429E-12
154.1473 8.2059914E-12
154.2903 7.8801410E-12
154.4332 7.3332243E-12
154.5761 6.5452930E-12
154.7190 5.5008433E-12
154.8619 4.1900042E-12
155.0048 2.6096191E-12
155.1477 7.6418331E-13
155.2906 -1.3334143E-12
155.4335 -3.6613846E-12
155.5765 -6.1887891E-12
155.7194 -8.8755774E-12
155.8623 -1.1672907E-11
156.0052 -1.4523748E-11
156.1481 -1.7363765E-11
156.2910 -2.0122438E-11
156.4339 -2.2724414E-11
156.5768 -2.5091026E-11
156.7197 -2.7141974E-11
156.8627 -2.8797102E-11
157.0056 -2.9978232E-11
157.1485 -3.0611052E-11
157.2914 -3.0626973E-11
157.4343 -2.9964947E-11
157.5772 -2.8573250E-11
157.7201 -2.6411148E-11
157.8630 -2.3450472E-11
158.0060 -1.9677078E-11
158.1489 -1.5092145E-11
158.2918 -9.7133464E-12
158.4347 -3.5758304E-12
158.5776 3.2669752E-12
158.7205 1.0742776E-11
158.8634 1.8760049E-11
159.0063 2.7207965E-11
159.1492 3.5956575E-11
159.2922 4.4857344E-11
159.4351 5.3744058E-11
159.5780 6.2434106E-11
159.7209 7.0730213E-11
159.8638 7.8422643E-11
160.0067 8.5291864E-11
160.1496 9.1111785E-11
160.2925 9.5653464E-11
160.4355 9.8689334E-11
160.5784 9.9997989E-11
160.7213 9.9369367E-11
160.8642 9.6610407E-11
161.0071 9.1551010E-11
161.1500 8.4050281E-11
161.2929 7.4002929E-11
161.4358 6.1345609E-11
161.5788 4.6063153E-11
161.7217 2.8194436E-11
161.8646 7.8377886E-12
162.0075 -1.4844440E-11
162.1504 -3.9622149E-11
162.2933 -6.6194994E-11
162.4362 -9.4191238E-11
162.5791 -1.2316818E-10
162.7220 -1.5261434E-10
162.8650 -1.8195359E-10
163.0079 -2.1055124E-10
163.1508 -2.3772229E-10
163.2937 -2.6274172E-10
163.4366 -2.8485692E-10
163.5795 -3.0330213E-10
163.7224 -3.1731448E-10
163.8653 -3.2615174E-10
164.0083 -3.2911135E-10
164.1512 -3.2555006E-10
164.2941 -3.1490421E-10
164.4370 -2.9670993E-10
164.5799 -2.7062252E-10
164.7228 -2.3643493E-10
164.8657 -1.9409438E-10
165.0086 -1.4371686E-10
165.1515 -8.5598702E-11
165.2944 -2.0224966E-11
165.4374 5.1725853E-11
165.5803 1.2938109E-10
165.7232 2.1167749E-10
165.8661 2.9736927E-10
166.0090 3.8504039E-10
166.1519 4.7312165E-10
166.2948 5.5991151E-10
166.4377 6.4360134E-10
166.5807 7.2230394E-10
166.7236 7.9408519E-10
166.8665 8.5699858E-10
167.0094 9.0912111E-10
167.1523 9.4859154E-10
167.2952 9.7364827E-10
167.4381 9.8266806E-10
167.5810 9.7420372E-10
167.7240 9.4702046E-10
167.8669 9.0013080E-10
168.0098 8.3282620E-10
168.1527 7.4470669E-10
168.2956 6.3570621E-10
168.4385 5.0611415E-10
168.5814 3.5659289E-10
168.7243 1.8819014E-10
168.8672 2.3467790E-12
169.0102 -1.9910126E-10
169.1531 -4.1392600E-10
169.2960 -6.3951650E-10
169.4389 -8.7289392E-10
169.5818 -1.1107331E-09
169.7247 -1.3493894E-09
169.8676 -1.5849335E-09
170.0105 -1.8131913E-09
170.1535 -2.0297906E-09
170.2964 -2.2302153E-09
170.4393 -2.4098641E-09
170.5822 -2.5641158E-09
170.7251 -2.6884011E-09
170.8680 -2.7782761E-09
171.0109 -2.8295040E-09
171.1538 -2.8381355E-09
171.2968 -2.8005949E-09
171.4397 -2.7137625E-09
171.5826 -2.5750599E-09
171.7255 -2.3825302E-09
171.8684 -2.1349140E-09
172.0113 -1.8317197E-09
172.1542 -1.4732863E-09