 -7.19999981   9.374043937E-19
 -7.07315636   9.37400568E-19
 -6.9463129   9.373920894E-19
 -6.81946898   9.373796817E-19
 -6.69262552   9.373636551E-19
 -6.56578159   9.373444231E-19
 -6.43893814   9.37322813E-19
 -6.31209469   9.372983078E-19
 -6.18525076   9.372720448E-19
 -6.05840731   9.372452649E-19
 -5.93156338   9.372176577E-19
 -5.80471992   9.371892234E-19
 -5.67787647   9.371622366E-19
 -5.55103254   9.371363872E-19
 -5.42418909   9.37112399E-19
 -5.29734564   9.370906855E-19
 -5.17050171   9.370718671E-19
 -5.04365826   9.370562541E-19
 -4.91681433   9.370440532E-19
 -4.78997087   9.370347474E-19
 -4.66312742   9.370289571E-19
 -4.53628349   9.370268892E-19
 -4.40944004   9.370278198E-19
 -4.28259611   9.370314387E-19
 -4.15575266   9.370375391E-19
 -4.02890921   9.370446736E-19
 -3.90206528   9.37052842E-19
 -3.77522182   9.370612172E-19
 -3.64837813   9.370685584E-19
 -3.52153444   9.370739351E-19
 -3.39469075   9.370771404E-19
 -3.2678473   9.370769336E-19
 -3.14100361   9.370734181E-19
 -3.01415992   9.370653531E-19
 -2.88731623   9.370525318E-19
 -2.76047254   9.370347474E-19
 -2.63362908   9.370115863E-19
 -2.50678539   9.369835656E-19
 -2.3799417   9.369509954E-19
 -2.25309801   9.369136688E-19
 -2.12625432   9.368728268E-19
 -1.99941075   9.368289862E-19
 -1.87256718   9.367833879E-19
 -1.74572349   9.36736342E-19
 -1.61887991   9.366895029E-19
 -1.49203622   9.366435944E-19
 -1.36519253   9.365994436E-19
 -1.23834896   9.36558705E-19
 -1.11150527   9.365227226E-19
 -0.984661698   9.364919101E-19
 -0.857818007   9.364669913E-19
 -0.730974376   9.364479661E-19
 -0.604130745   9.364362822E-19
 -0.477287114   9.364311123E-19
 -0.350443482   9.364329735E-19
 -0.223599836   9.364412453E-19
 -9.675619751E-2   9.364559278E-19
 3.008744121E-2   9.364760903E-19
 0.156931072   9.365009057E-19
 0.283774734   9.365292366E-19
 0.410618365   9.365604627E-19
 0.537461996   9.365927228E-19
 0.664305627   9.366253964E-19
 0.791149259   9.366574496E-19
 0.91799289   9.366868145E-19
 1.04483652   9.367131809E-19
 1.17168021   9.367355148E-19
 1.29852378   9.367525754E-19
 1.42536747   9.367642593E-19
 1.55221117   9.367700496E-19
 1.67905474   9.367699462E-19
 1.80589843   9.367643627E-19
 1.932742   9.36752472E-19
 2.05958557   9.36735825E-19
 2.18642926   9.367148353E-19
 2.31327295   9.366903301E-19
 2.44011664   9.366632399E-19
 2.56696033   9.366347022E-19
 2.69380379   9.366058542E-19
 2.82064748   9.365772131E-19
 2.94749117   9.365508467E-19
 3.07433486   9.365264449E-19
 3.20117831   9.36505662E-19
 3.328022   9.364888082E-19
 3.45486569   9.364768141E-19
 3.58170938   9.36469266E-19
 3.70855308   9.364677151E-19
 3.83539653   9.364712306E-19
 3.96224022   9.364802262E-19
 4.08908367   9.364944951E-19
 4.2159276   9.365128998E-19
 4.34277105   9.365360609E-19
 4.46961498   9.365624273E-19
 4.59645844   9.365913786E-19
 4.72330189   9.366228114E-19
 4.85014582   9.366553817E-19
 4.97698927   9.366880553E-19
 5.1038332   9.367201086E-19
 5.23067665   9.36750921E-19
 5.3575201   9.36779252E-19
 5.48436403   9.368041708E-19
 5.61120749   9.368252639E-19
 5.73805141   9.368417041E-19
 5.86489487   9.368526643E-19
 5.99173832   9.368582477E-19
 6.11858225   9.368572138E-19
 6.2454257   9.368503895E-19
 6.37226963   9.36837258E-19
 6.49911308   9.368184397E-19
 6.62595654   9.367945548E-19
 6.75280046   9.367656035E-19
 6.87964392   9.367324129E-19
 7.00648737   9.366965339E-19
 7.1333313   9.366584836E-19
 7.26017475   9.366201231E-19
 7.38701868   9.365822796E-19
 7.51386213   9.365462972E-19
 7.64070559   9.365133134E-19
 7.76754951   9.364838451E-19
 7.89439297   9.364593399E-19
 8.02123642   9.364402113E-19
 8.14808083   9.364270798E-19
 8.27492428   9.36419842E-19
 8.40176773   9.364184978E-19
 8.52861118   9.364226337E-19
 8.65545464   9.364317327E-19
 8.78229809   9.364451744E-19
 8.90914249   9.364624418E-19
 9.03598595   9.364815704E-19
 9.1628294   9.365017329E-19
 9.28967285   9.365214818E-19
 9.4165163   9.365396798E-19
 9.54336071   9.36555086E-19
 9.67020416   9.365663564E-19
 9.79704762   9.365729738E-19
 9.92389107   9.365730772E-19
 10.0507345   9.365664598E-19
 10.1775789   9.365526045E-19
 10.3044224   9.365307876E-19
 10.4312658   9.365006989E-19
 10.5581093   9.364630622E-19
 10.6849527   9.364173605E-19
 10.8117971   9.363646277E-19
 10.9386406   9.363052775E-19
 11.065484   9.362403438E-19
 11.1923275   9.361712742E-19
 11.319171   9.360989993E-19
 11.4460154   9.360241395E-19
 11.5728588   9.359487626E-19
 11.6997023   9.35874213E-19
 11.8265457   9.358009041E-19
 11.9533892   9.357302836E-19
 12.0802336   9.356628683E-19
 12.207077   9.355996924E-19
 12.3339205   9.355408592E-19
 12.4607639   9.354876095E-19
 12.5876074   9.354392194E-19
 12.7144518   9.353952754E-19
 12.8412952   9.353569149E-19
 12.9681387   9.353234141E-19
 13.0949821   9.352933254E-19
 13.2218256   9.352670624E-19
 13.34867   9.35243798E-19
 13.4755135   9.352233252E-19
 13.6023569   9.352047137E-19
 13.7292004   9.351886871E-19
 13.8560438   9.35174108E-19
 13.9828882   9.351600459E-19
 14.1097317   9.351465009E-19
 14.2365751   9.351330592E-19
 14.3634186   9.351193073E-19
 14.490262   9.351055554E-19
 14.6171055   9.35090356E-19
 14.7439499   9.350744327E-19
 14.8707933   9.350568552E-19
 14.9976368   9.350368994E-19
 15.1244802   9.350145655E-19
 15.2513237   9.349899569E-19
 15.3781681   9.349623498E-19
 15.5050116   9.349319509E-19
 15.631855   9.348990704E-19
 15.7586985   9.348630881E-19
 15.8855419   9.348249344E-19
 16.0123863   9.347848161E-19
 16.1392288   9.347425265E-19
 16.2660732   9.346994097E-19
 16.3929176   9.346554658E-19
 16.5197601   9.346116252E-19
 16.6466045   9.345686118E-19
 16.773447   9.345262188E-19
 16.9002914   9.344853767E-19
 17.0271358   9.344469128E-19
 17.1539783   9.344113441E-19
 17.2808228   9.343784637E-19
 17.4076653   9.343494089E-19
 17.5345097   9.343234561E-19
 17.6613541   9.343011223E-19
 17.7881966   9.342825107E-19
 17.915041   9.342665875E-19
 18.0418835   9.342531458E-19
 18.1687279   9.342425992E-19
 18.2955723   9.342332935E-19
 18.4224148   9.342250216E-19
 18.5492592   9.3421706E-19
 18.6761017   9.342082712E-19
 18.8029461   9.341974145E-19
 18.9297905   9.341844898E-19
 19.056633   9.341683598E-19
 19.1834774   9.341480939E-19
 19.3103199   9.341235886E-19
 19.4371643   9.340940169E-19
 19.5640087   9.340593787E-19
 19.6908512   9.340196741E-19
 19.8176956   9.339750063E-19
 19.9445381   9.339264094E-19
 20.0713825   9.338746073E-19
 20.1982269   9.338202201E-19
 20.3250694   9.337649024E-19
 20.4519138   9.337097915E-19
 20.5787563   9.336565418E-19
 20.7056007   9.336059804E-19
 20.8324451   9.335594514E-19
 20.9592876   9.335184026E-19
 21.086132   9.334839712E-19
 21.2129745   9.334567777E-19
 21.339819   9.334373389E-19
 21.4666634   9.334263788E-19
 21.5935059   9.334232768E-19
 21.7203503   9.334278263E-19
 21.8471928   9.334394069E-19
 21.9740372   9.334569844E-19
 22.1008816   9.334790081E-19
 22.2277241   9.335041337E-19
 22.3545685   9.335306035E-19
 22.481411   9.335569699E-19
 22.6082554   9.335815785E-19
 22.7350998   9.336023614E-19
 22.8619423   9.336183881E-19
 22.9887867   9.336279006E-19
 23.1156292   9.336303822E-19
 23.2424736   9.336245919E-19
 23.369318   9.336097027E-19
 23.4961605   9.335855076E-19
 23.6230049   9.335526272E-19
 23.7498474   9.335103376E-19
 23.8766918   9.334598796E-19
 24.0035343   9.334019769E-19
 24.1303787   9.333375602E-19
 24.2572231   9.332684907E-19
 24.3840656   9.331968361E-19
 24.51091   9.331233205E-19
 24.6377525   9.330504252E-19
 24.7645969   9.32979908E-19
 24.8914413   9.3291332E-19
 25.0182838   9.328534528E-19
 25.1451283   9.328006166E-19
 25.2719707   9.327567761E-19
 25.3988152   9.327223447E-19
 25.5256596   9.32698253E-19
 25.6525021   9.326846046E-19
 25.7793465   9.326804686E-19
 25.906189   9.326857419E-19
 26.0330334   9.32699804E-19
 26.1598778   9.327208971E-19
 26.2867203   9.327476771E-19
 26.4135647   9.327783862E-19
 26.5404072   9.328110598E-19
 26.6672516   9.328444572E-19
 26.794096   9.328764071E-19
 26.9209385   9.329056686E-19
 27.0477829   9.329312078E-19
 27.1746254   9.329512669E-19
 27.3014698   9.32965846E-19
 27.4283142   9.32973911E-19
 27.5551567   9.329756687E-19
 27.6820011   9.32970809E-19
 27.8088436   9.329599523E-19
 27.935688   9.329440291E-19
 28.0625324   9.329243835E-19
 28.1893749   9.329019463E-19
 28.3162193   9.32877441E-19
 28.4430618   9.328523154E-19
 28.5699062   9.328283272E-19
 28.6967506   9.328064069E-19
 28.8235931   9.327871749E-19
 28.9504375   9.327719755E-19
 29.07728   9.327615323E-19
 29.2041245   9.327566727E-19
 29.3309689   9.327570863E-19
 29.4578114   9.327626697E-19
 29.5846558   9.327734231E-19
 29.7114983   9.327895531E-19
 29.8383427   9.328100258E-19
 29.9651871   9.328333937E-19
 30.0920296   9.328590363E-19
 30.218874   9.328861264E-19
 30.3457165   9.329130098E-19
 30.4725609   9.329391694E-19
 30.5994053   9.329633644E-19
 30.7262478   9.329845609E-19
 30.8530922   9.330030691E-19
 30.9799347   9.330172346E-19
 31.1067791   9.330273675E-19
 31.2336235   9.330336748E-19
 31.360466   9.330356393E-19
 31.4873104   9.330338816E-19
 31.6141529   9.330291253E-19
 31.7409973   9.330221976E-19
 31.8678417   9.330130987E-19
 31.9946842   9.330029657E-19
 32.1215286   9.329917988E-19
 32.2483711   9.329811488E-19
 32.3752136   9.329701887E-19
 32.5020599   9.329603659E-19
 32.6289024   9.329509567E-19
 32.7557449   9.329424781E-19
 32.8825912   9.329349301E-19
 33.0094337   9.32927899E-19
 33.1362762   9.329215918E-19
 33.2631226   9.329154913E-19
 33.3899651   9.329088739E-19
 33.5168076   9.3290267E-19
 33.6436501   9.328962594E-19
 33.7704964   9.328887114E-19
 33.8973389   9.328809565E-19
 34.0241814   9.328724779E-19
 34.1510277   9.328634824E-19
 34.2778702   9.328535562E-19
 34.4047127   9.32842596E-19
 34.531559   9.328312223E-19
 34.6584015   9.328190214E-19
 34.785244   9.328059933E-19
 34.9120865   9.327925516E-19
 35.0389328   9.327782828E-19
 35.1657753   9.327634969E-19
 35.2926178   9.327480907E-19
 35.4194641   9.327316504E-19
 35.5463066   9.327145898E-19
 35.6731491   9.326965987E-19
 35.7999954   9.326779871E-19
 35.9268379   9.326587552E-19
 36.0536804   9.326391096E-19
 36.1805229   9.326190505E-19
 36.3073692   9.32597854E-19
 36.4342117   9.325764507E-19
 36.5610542   9.325546338E-19
 36.6879005   9.325318863E-19
 36.814743   9.325090355E-19
 36.9415855   9.324855642E-19
 37.0684319   9.32461576E-19
 37.1952744   9.324373809E-19
 37.3221169   9.324127723E-19
 37.4489594   9.323884739E-19
 37.5758057   9.323636585E-19
 37.7026482   9.3233936E-19
 37.8294907   9.32315682E-19
 37.956337   9.322928311E-19
 38.0831795   9.322710142E-19
 38.210022   9.322508517E-19
 38.3368683   9.322327571E-19
 38.4637108   9.322166271E-19
 38.5905533   9.322024617E-19
 38.7173958   9.321902607E-19
 38.8442421   9.321800244E-19
 38.9710846   9.321707186E-19
 39.0979271   9.3216224E-19
 39.2247734   9.32154175E-19
 39.3516159   9.321459032E-19
 39.4784584   9.32135977E-19
 39.6053047   9.321241897E-19
 39.7321472   9.321104378E-19
 39.8589897   9.320931704E-19
 39.9858322   9.320723875E-19
 40.1126785   9.320482959E-19
 40.239521   9.320204819E-19
 40.3663635   9.319883253E-19
 40.4932098   9.319533769E-19
 40.6200523   9.319153266E-19
 40.7468948   9.318761389E-19
 40.8737411   9.318355037E-19
 41.0005836   9.317950752E-19
 41.1274261   9.317555773E-19
 41.2542686   9.317174236E-19
 41.381115   9.316820616E-19
 41.5079575   9.316494914E-19
 41.6348   9.316201265E-19
 41.7616463   9.315950009E-19
 41.8884888   9.315732874E-19
 42.0153313   9.315553996E-19
 42.1421776   9.3153989E-19
 42.2690201   9.315269653E-19
 42.3958626   9.31515178E-19
 42.5227051   9.315041144E-19
 42.6495514   9.314930509E-19
 42.7763939   9.314811602E-19
 42.9032364   9.314675117E-19
 43.0300827   9.314516918E-19
 43.1569252   9.314324599E-19
 43.2837677   9.314105396E-19
 43.4106102   9.31385414E-19
 43.5374565   9.313571865E-19
 43.664299   9.313261672E-19
 43.7911415   9.312923562E-19
 43.9179878   9.312568908E-19
 44.0448303   9.312198745E-19
 44.1716728   9.311823412E-19
 44.2985191   9.31145118E-19
 44.4253616   9.311087221E-19
 44.5522041   9.310738771E-19
 44.6790466   9.310415137E-19
 44.8058929   9.310115284E-19
 44.9327354   9.309852654E-19
 45.0595779   9.309627247E-19
 45.1864243   9.309442165E-19
 45.3132668   9.309300511E-19
 45.4401093   9.309205385E-19
 45.5669556   9.30915472E-19
 45.6937981   9.309145414E-19
 45.8206406   9.30918057E-19
 45.9474831   9.309249846E-19
 46.0743294   9.309355311E-19
 46.2011719   9.309480423E-19
 46.3280144   9.309626213E-19
 46.4548607   9.309781309E-19
 46.5817032   9.309938474E-19
 46.7085457   9.310085298E-19
 46.835392   9.310212477E-19
 46.9622345   9.310304501E-19
 47.089077   9.310357234E-19
 47.2159195   9.310359302E-19
 47.3427658   9.310299331E-19
 47.4696083   9.310175254E-19
 47.5964508   9.309981901E-19
 47.7232971   9.309719271E-19
 47.8501396   9.309393569E-19
 47.9769821   9.309002726E-19
 48.1038284   9.308556048E-19
 48.2306709   9.30806491E-19
 48.3575134   9.307541718E-19
 48.4843559   9.307003017E-19
 48.6112022   9.306462247E-19
 48.7380447   9.305930784E-19
 48.8648872   9.305418966E-19
 48.9917336   9.304950575E-19
 49.118576   9.304518373E-19
 49.2454185   9.30413787E-19
 49.3722649   9.303817337E-19
 49.4991074   9.303555741E-19
 49.6259499   9.30336032E-19
 49.7527924   9.303222801E-19
 49.8796387   9.303138015E-19
 50.0064812   9.303104928E-19
 50.1333237   9.303117336E-19
 50.26017   9.303163865E-19
 50.3870125   9.303244515E-19
 50.513855   9.303346878E-19
 50.6407013   9.303460616E-19
 50.7675438   9.303580557E-19
 50.8943863   9.303702566E-19
 51.0212288   9.303816303E-19
 51.1480751   9.303916599E-19
 51.2749176   9.303994147E-19
 51.4017601   9.304048948E-19
 51.5286064   9.304081001E-19
 51.6554489   9.304076865E-19
 51.7822914   9.30405205E-19
 51.9091377   9.303994147E-19
 52.0359802   9.303905225E-19
 52.1628227   9.303791488E-19
 52.2896652   9.303647765E-19
 52.4165115   9.303482329E-19
 52.543354   9.303292078E-19
 52.6701965   9.303086316E-19
 52.7970428   9.302862978E-19
 52.9238853   9.302629299E-19
 53.0507278   9.302390451E-19
 53.1775742   9.302152636E-19
 53.3044167   9.301919992E-19
 53.4312592   9.301694585E-19
 53.5581017   9.301483654E-19
 53.684948   9.301287199E-19
 53.8117905   9.301114525E-19
 53.938633   9.300968734E-19
 54.0654793   9.300842589E-19
 54.1923218   9.300742293E-19
 54.3191643   9.300673017E-19
 54.4460106   9.300630624E-19
 54.5728531   9.300607876E-19
 54.6996956   9.300606843E-19
 54.8265381   9.300622352E-19
 54.9533844   9.300649236E-19
 55.0802269   9.300684391E-19
 55.2070694   9.300729886E-19
 55.3339157   9.300779516E-19
 55.4607582   9.300833283E-19
 55.5876007   9.300889118E-19
 55.7144432   9.300940817E-19
 55.8412895   9.30098838E-19
 55.968132   9.30103801E-19
 56.0949745   9.301085573E-19
 56.2218208   9.301135204E-19
 56.3486633   9.301175529E-19
 56.4755058   9.301210684E-19
 56.6023521   9.301234466E-19
 56.7291946   9.30124584E-19
 56.8560371   9.301237568E-19
 56.9828796   9.301207582E-19
 57.109726   9.30115485E-19
 57.2365685   9.301073166E-19
 57.3634109   9.300963564E-19
 57.4902573   9.300826045E-19
 57.6170998   9.300658541E-19
 57.7439423   9.30046829E-19
 57.8707886   9.300260461E-19
 57.9976311   9.300041258E-19
 58.1244736   9.299815851E-19
 58.2513161   9.299595614E-19
 58.3781624   9.299387785E-19
 58.5050049   9.299198568E-19
 58.6318474   9.299037267E-19
 58.7586937   9.298905952E-19
 58.8855362   9.298807725E-19
 59.0123787   9.298748788E-19
 59.139225   9.298725007E-19
 59.2660675   9.298734312E-19
 59.39291   9.298777739E-19
 59.5197525   9.298847016E-19
 59.6465988   9.29893387E-19
 59.7734413   9.299039335E-19
 59.9002838   9.299155141E-19
 60.0271301   9.299278184E-19
 60.1539726   9.299400193E-19
 60.2808151   9.299518066E-19
 60.4076614   9.299621464E-19
 60.5345039   9.29971142E-19
 60.6613464   9.299785866E-19
 60.7881889   9.299842734E-19
 60.9150352   9.299878924E-19
 61.0418777   9.299895467E-19
 61.1687202   9.299891331E-19
 61.2955666   9.299870652E-19
 61.4224091   9.299831361E-19
 61.5492516   9.299775526E-19
 61.6760979   9.299703148E-19
 61.8029404   9.299618362E-19
 61.9297829   9.299518066E-19
 62.0566254   9.299413634E-19
 62.1834717   9.299300931E-19
 62.3103142   9.299188228E-19
 62.4371567   9.299070355E-19
 62.564003   9.298956617E-19
 62.6908455   9.298843914E-19
 62.817688   9.298738448E-19
 62.9445343   9.298643323E-19
 63.0713768   9.29855957E-19
 63.1982193   9.29848409E-19
 63.3250618   9.298421018E-19
 63.4519081   9.298367251E-19
 63.5787506   9.29832796E-19
 63.7055931   9.298303145E-19
 63.8324394   9.298287635E-19
 63.9592819   9.298282465E-19
 64.0861282   9.298286601E-19
 64.2129669   9.298287635E-19
 64.3398132   9.298290737E-19
 64.4666595   9.298289703E-19
 64.5934982   9.298279363E-19
 64.7203445   9.298255582E-19
 64.8471909   9.298220426E-19
 64.9740295   9.298165626E-19
 65.1008759   9.298095315E-19
 65.2277145   9.298009495E-19
 65.3545609   9.297908166E-19
 65.4814072   9.297794428E-19
 65.6082458   9.297673453E-19
 65.7350922   9.297543172E-19
 65.8619385   9.29740462E-19
 65.9887772   9.297268135E-19
 66.1156235   9.297138888E-19
 66.2424698   9.297015845E-19
 66.3693085   9.296909345E-19
 66.4961548   9.296814219E-19
 66.6230011   9.296732535E-19
 66.7498398   9.296665327E-19
 66.8766861   9.296619832E-19
 67.0035324   9.296598118E-19
 67.1303711   9.29660122E-19
 67.2572174   9.296629138E-19
 67.3840637   9.296678769E-19
 67.5109024   9.296747011E-19
 67.6377487   9.296841103E-19
 67.7645874   9.2969445E-19
 67.8914337   9.297054102E-19
 68.01828   9.297166805E-19
 68.1451187   9.297276407E-19
 68.271965   9.297371532E-19
 68.3988113   9.297452182E-19
 68.52565   9.297512153E-19
 68.6524963   9.297546274E-19
 68.7793427   9.297547308E-19
 68.9061813   9.297516289E-19
 69.0330276   9.297453216E-19
 69.159874   9.297363261E-19
 69.2867126   9.297246421E-19
 69.413559   9.297106835E-19
 69.5404053   9.296951738E-19
 69.667244   9.296787336E-19
 69.7940903   9.29661673E-19
 69.920929   9.296446124E-19
 70.0477753   9.296284824E-19
 70.1746216   9.296130761E-19
 70.3014603   9.295988073E-19
 70.4283066   9.295862962E-19
 70.5551529   9.295751292E-19
 70.6819916   9.295654099E-19
 70.8088379   9.295569313E-19
 70.9356842   9.295491764E-19
 71.0625229   9.295424556E-19
 71.1893692   9.295365619E-19
 71.3162155   9.295305649E-19
 71.4430542   9.29524361E-19
 71.5699005   9.295180538E-19
 71.6967468   9.295119533E-19
 71.8235855   9.295049223E-19
 71.9504318   9.294973743E-19
 72.0772781   9.294888957E-19
 72.2041168   9.294797967E-19
 72.3309631   9.294705943E-19
 72.4578018   9.294606681E-19
 72.5846481   9.294503284E-19
 72.7114944   9.294393682E-19
 72.8383331   9.294285115E-19
 72.9651794   9.294168275E-19
 73.0920258   9.294051436E-19
 73.2188644   9.293932529E-19
 73.3457108   9.293812588E-19
 73.4725571   9.293693681E-19
 73.5993958   9.293569603E-19
 73.7262421   9.293445526E-19
 73.8530884   9.293317313E-19
 73.9799271   9.2931891E-19
 74.1067734   9.293055717E-19
 74.2336197   9.292922335E-19
 74.3604584   9.292782748E-19
 74.4873047   9.292640059E-19
 74.614151   9.292496337E-19
 74.7409897   9.292344342E-19
 74.867836   9.292192348E-19
 74.9946747   9.292038285E-19
 75.121521   9.291883189E-19
 75.2483673   9.291724991E-19
 75.375206   9.291566792E-19
 75.5020523   9.291414798E-19
 75.6288986   9.291276245E-19
 75.7557373   9.291136658E-19
 75.8825836   9.291007412E-19
 76.0094299   9.290896776E-19
 76.1362686   9.290791311E-19
 76.2631149   9.290700321E-19
 76.3899612   9.290611399E-19
 76.5167999   9.290526613E-19
 76.6436462   9.290450099E-19
 76.7704926   9.290370482E-19
 76.8973312   9.290282594E-19
 77.0241776   9.290183333E-19
 77.1510239   9.290068562E-19
 77.2778625   9.289928975E-19
 77.4047089   9.289757335E-19
 77.5315475   9.289556744E-19
 77.6583939   9.289320997E-19
 77.7852402   9.289038722E-19
 77.9120789   9.288719223E-19
 78.0389252   9.288367671E-19
 78.1657715   9.287978896E-19
 78.2926102   9.287565306E-19
 78.4194565   9.287143444E-19
 78.5463028   9.286716412E-19
 78.6731415   9.286307992E-19
 78.7999878   9.285931624E-19
 78.9268341   9.285603854E-19
 79.0536728   9.28534019E-19
 79.1805191   9.285154075E-19
 79.3073654   9.285054813E-19
 79.4342041   9.285052745E-19
 79.5610504   9.285144769E-19
 79.6878967   9.285330885E-19
 79.8147354   9.285598684E-19
 79.9415817   9.285923353E-19
 80.0684204   9.28628421E-19
 80.1952667   9.286655408E-19
 80.322113   9.287004891E-19
 80.4489517   9.287287167E-19
 80.575798   9.287467078E-19
 80.7026443   9.287512573E-19
 80.829483   9.287380225E-19
 80.9563293   9.287042114E-19
 81.0831757   9.286484802E-19
 81.2100143   9.28568864E-19
 81.3368607   9.284656732E-19
 81.463707   9.283401486E-19
 81.5905457   9.281950818E-19
 81.717392   9.280350223E-19
 81.8442383   9.278658639E-19
 81.971077   9.276942239E-19
 82.0979233   9.275289946E-19
 82.224762   9.273787579E-19
 82.3516083   9.27253957E-19
 82.4784546   9.271628638E-19
 82.6052933   9.271153009E-19
 82.7321396   9.271188164E-19
 82.8589859   9.271802346E-19
 82.9858246   9.273027607E-19
 83.1126709   9.274878424E-19
 83.2395172   9.277333082E-19
 83.3663559   9.28033885E-19
 83.4932022   9.283806804E-19
 83.6200485   9.287608733E-19
 83.7468872   9.291587472E-19
 83.8737335   9.295562075E-19
 84.0005798   9.299318509E-19
 84.1274185   9.302640673E-19
 84.2542648   9.305299025E-19
 84.3811111   9.307077463E-19
 84.5079498   9.307783668E-19
 84.6347961   9.307250137E-19
 84.7616348   9.305347621E-19
 84.8884811   9.302021321E-19
 85.0153275   9.297259863E-19
 85.1421661   9.291128387E-19
 85.2690125   9.283767513E-19
 85.3958588   9.275391276E-19
 85.5226974   9.266288153E-19
 85.6495438   9.256809697E-19
 85.7763901   9.247361226E-19
 85.9032288   9.238387351E-19
 86.0300751   9.230370937E-19
 86.1569214   9.223778307E-19
 86.2837601   9.219073717E-19
 86.4106064   9.216666622E-19
 86.5374527   9.216907538E-19
 86.6642914   9.22006013E-19
 86.7911377   9.226282597E-19
 86.917984   9.235614228E-19
 87.0448227   9.247952661E-19
 87.171669   9.263040435E-19
 87.2985077   9.280483606E-19
 87.425354   9.299739337E-19
 87.5522003   9.320127271E-19
 87.679039   9.340857451E-19
 87.8058853   9.36104893E-19
 87.9327316   9.37973494E-19
 88.0595703   9.395939408E-19
 88.1864166   9.408688329E-19
 88.3132629   9.417061465E-19
 88.4401016   9.420240941E-19
 88.5669479   9.41753606E-19
 88.6937943   9.408453617E-19
 88.8206329   9.392709268E-19
 88.9474792   9.37027613E-19
 89.0743256   9.341416832E-19
 89.2011642   9.306685586E-19
 89.3280106   9.266946795E-19
 89.4548569   9.223355411E-19
 89.5816956   9.177361067E-19
 89.7085419   9.130667756E-19
 89.8353806   9.085186264E-19
 89.9622269   9.042986611E-19
 90.0890732   9.006226704E-19
 90.2159119   8.977070656E-19
 90.3427582   8.957618469E-19
 90.4696045   8.949775763E-19
 90.5964432   8.95518966E-19
 90.7232895   8.975125747E-19
 90.8501358   9.010389491E-19
 90.9769745   9.061235249E-19
 91.1038208   9.127282519E-19
 91.2306671   9.207454932E-19
 91.3575058   9.299956472E-19
 91.4843521   9.402238388E-19
 91.6111984   9.511032285E-19
 91.7380371   9.622391475E-19
 91.8648834   9.731775771E-19
 91.9917297   9.834180731E-19
 92.1185684   9.924277243E-19
 92.2454147   9.996628663E-19
 92.3722534   1.004587486E-18
 92.4990997   1.00670176E-18
 92.625946   1.005567385E-18
 92.7527847   1.000833223E-18
 92.879631   9.922653901E-19
 93.0064774   9.797706202E-19
 93.133316   9.634182934E-19
 93.2601624   9.434610102E-19
 93.3870087   9.20344931E-19
 93.5138474   8.947146363E-19
 93.6406937   8.674086805E-19
 93.76754   8.394483731E-19
 93.8943787   8.1201255E-19
 94.021225   7.864036586E-19
 94.1480713   7.640036076E-19
 94.27491   7.462203101E-19
 94.4017563   7.344257485E-19
 94.528595   7.298861813E-19
 94.6554413   7.336918842E-19
 94.7822876   7.466851339E-19
 94.9091263   7.693868473E-19
 95.0359726   8.019366629E-19
 95.1628189   8.440368991E-19
 95.2896576   8.949159514E-19
 95.4165039   9.533044595E-19
 95.5433502   1.017437944E-18
 95.6701889   1.085077847E-18
 95.7970352   1.15356168E-18
 95.9238815   1.219876647E-18
 96.0507202   1.280759001E-18
 96.1775665   1.332817613E-18
 96.3044128   1.372676241E-18
 96.4312515   1.397131422E-18
 96.5580978   1.403320595E-18
 96.6849442   1.388891153E-18
 96.8117828   1.35216485E-18
 96.9386292   1.292287831E-18
 97.0654678   1.209358838E-18
 97.1923141   1.104525173E-18
 97.3191605   9.800429694E-19
 97.4459991   8.392877967E-19
 97.5728455   6.867191924E-19
 97.6996918   5.277890005E-19
 97.8265305   3.687977782E-19
 97.9533768   2.16695665E-19
 98.0802231   7.883899777E-20
 98.2070618   -3.729760936E-20
 98.3339081   -1.24440599E-19
 98.4607544   -1.758555609E-19
 98.5875931   -1.85693905E-19
 98.7144394   -1.493295977E-19
 98.8412857   -6.367204671E-20
 98.9681244   7.255905549E-20
 99.0949707   2.586175015E-19
 99.221817   4.915814956E-19
 99.3486557   7.662850234E-19
 99.475502   1.075339863E-18
 99.6023407   1.409253237E-18
 99.729187   1.756642521E-18
 99.8560333   2.104546002E-18
 99.982872   2.4388192E-18
 100.109718   2.744616912E-18
 100.236565   3.00692974E-18
 100.363403   3.211174902E-18
 100.49025   3.343810418E-18
 100.617096   3.392949909E-18
 100.743935   3.348960031E-18
 100.870781   3.205015301E-18
 100.997627   2.957579524E-18
 101.124466   2.60679973E-18
 101.251312   2.156792177E-18
 101.378159   1.615798789E-18
 101.504997   9.962055615E-19
 101.631844   3.144138324E-19
 101.75869   -4.094426417E-19
 101.885529   -1.151930273E-18
 102.012375   -1.886896378E-18
 102.139214   -2.586184735E-18
 102.26606   -3.220472205E-18
 102.392906   -3.760212104E-18
 102.519745   -4.176654529E-18
 102.646591   -4.442922314E-18
 102.773438   -4.535116143E-18
 102.900276   -4.433408083E-18
 103.027122   -4.123101202E-18
 103.153969   -3.595610607E-18
 103.280807   -2.849332187E-18
 103.407654   -1.890364332E-18
 103.5345   -7.330439433E-19
 103.661339   5.997467344E-19
 103.788185   2.07652319E-18
 103.915031   3.657433259E-18
 104.04187   5.294806676E-18
 104.168716   6.934036699E-18
 104.295563   8.51480532E-18
 104.422401   9.972659864E-18
 104.549248   1.124091386E-17
 104.676086   1.22528618E-17
 104.802933   1.294426072E-17
 104.929779   1.325601351E-17
 105.056618   1.313699546E-17
 105.183464   1.254690301E-17
 105.31031   1.145905049E-17
 105.437149   9.862952554E-18
 105.563995   7.766608875E-18
 105.690842   5.198295378E-18
 105.81768   2.207788689E-18
 105.944527   -1.133178192E-18
 106.071373   -4.73128947E-18
 106.198212   -8.472954944E-18
 106.325058   -1.222665341E-17
 106.451904   -1.584629072E-17
 106.578743   -1.91755835E-17
 106.705589   -2.205340275E-17
 106.832428   -2.431992726E-17
 106.959274   -2.582348685E-17
 107.086121   -2.642780515E-17
 107.212959   -2.601939961E-17
 107.339806   -2.451483418E-17
 107.466652   -2.186743105E-17
 107.593491   -1.80731238E-17
 107.720337   -1.317504825E-17
 107.847183   -7.266555034E-18
 107.974022   -4.923034175E-19
 108.100868   6.952803773E-18
 108.227715   1.482703877E-17
 108.354553   2.284766489E-17
 108.4814   3.06992004E-17
 108.608246   3.804393889E-17
 108.735085   4.453449428E-17
 108.861931   4.982794728E-17
 108.988777   5.360121105E-17
 109.115616   5.556683041E-17
 109.242462   5.548875118E-17
 109.369301   5.319710685E-17
 109.496147   4.86014932E-17
 109.622993   4.170172825E-17
 109.749832   3.259557482E-17
 109.876678   2.148278048E-17
 110.003525   8.664814524E-18
 110.130363   -5.459857332E-18
 110.25721   -2.040529501E-17
 110.384056   -3.561219001E-17
 110.510895   -5.046639836E-17
 110.637741   -6.432131959E-17
 110.764587   -7.6523438E-17
 110.891426   -8.644015564E-17
 111.018272   -9.348865428E-17
 111.145119   -9.716477727E-17
 111.271957   -9.70704853E-17
 111.398804   -9.293865196E-17
 111.52565   -8.465377639E-17
 111.652489   -7.226759375E-17
 111.779335   -5.600841913E-17
 111.906174   -3.628342723E-17
 112.03302   -1.367335674E-17
 112.159866   1.108050699E-17
 112.286705   3.709724722E-17
 112.413551   6.338438865E-17
 112.540398   8.887250339E-17
 112.667236   1.124551116E-16
 112.794083   1.330325992E-16
 112.920929   1.495583179E-16
 113.047768   1.610852054E-16
 113.174614   1.668108437E-16
 113.30146   1.661190296E-16
 113.428299   1.586158794E-16
 113.555145   1.44158999E-16
 113.681992   1.228776668E-16
 113.80883   9.518328266E-17
 113.935677   6.176895785E-17
 114.062523   2.359793425E-17
 114.189362   -1.811947734E-17
 114.316208   -6.195944101E-17
 114.443047   -1.063283039E-16
 114.569893   -1.495149471E-16
 114.696739   -1.897498724E-16
 114.823578   -2.252695241E-16
 114.950424   -2.543829729E-16
 115.077271   -2.755393148E-16
 115.204109   -2.873926674E-16
 115.330956   -2.888628519E-16
 115.457802   -2.791889945E-16
 115.584641   -2.579744985E-16
 115.711487   -2.252208991E-16
 115.838333   -1.81349754E-16
 115.965172   -1.272107829E-16
 116.092018   -6.407628222E-17
 116.218864   6.37920034E-18
 116.345703   8.211321356E-17
 116.472549   1.607635314E-16
 116.599396   2.397088153E-16
 116.726234   3.161409921E-16
 116.853081   3.871468641E-16
 116.979919   4.497979472E-16
 117.106766   5.012454049E-16
 117.233612   5.388185689E-16
 117.360451   5.601237768E-16
 117.487297   5.631408023E-16
 117.614143   5.463151281E-16
 117.740982   5.086416966E-16
 117.867828   4.497383373E-16
 117.994675   3.699059849E-16
 118.121513   2.701722229E-16
 118.24836   1.523163763E-16
 118.375206   1.887332343E-17
 118.502045   -1.268861972E-16
 118.628891   -2.809997921E-16
 118.755737   -4.388841924E-16
 118.882576   -5.954322394E-16
 119.009422   -7.451366307E-16
 119.136261   -8.822392364E-16
 119.263107   -1.000902941E-15
 119.389954   -1.095404395E-15
 119.516792   -1.160341329E-15
 119.643639   -1.190851138E-15
 119.770485   -1.182832383E-15