 -7.19999981   9.374043937E-19
 -7.07296753   9.37400568E-19
 -6.94593477   9.373921928E-19
 -6.81890202   9.373797851E-19
 -6.69186926   9.373637585E-19
 -6.56483698   9.373446299E-19
 -6.43780422   9.37322813E-19
 -6.31077147   9.372983078E-19
 -6.18373871   9.37271838E-19
 -6.05670643   9.372446445E-19
 -5.92967367   9.372167271E-19
 -5.80264091   9.371883962E-19
 -5.67560816   9.371610992E-19
 -5.5485754   9.371353532E-19
 -5.42154312   9.371116752E-19
 -5.29451036   9.370900651E-19
 -5.16747761   9.370712467E-19
 -5.04044485   9.370556337E-19
 -4.91341257   9.370436396E-19
 -4.78637981   9.37034644E-19
 -4.65934706   9.370291639E-19
 -4.5323143   9.370269926E-19
 -4.40528202   9.370281299E-19
 -4.27824926   9.370318523E-19
 -4.15121651   9.370378493E-19
 -4.02418375   9.370449838E-19
 -3.89715123   9.370530488E-19
 -3.77011847   9.370611138E-19
 -3.64308596   9.370687652E-19
 -3.5160532   9.370741419E-19
 -3.38902068   9.370771404E-19
 -3.26198792   9.370769336E-19
 -3.13495541   9.370731079E-19
 -3.00792265   9.370647327E-19
 -2.88089013   9.370511876E-19
 -2.75385737   9.370329896E-19
 -2.62682486   9.370098286E-19
 -2.4997921   9.369817044E-19
 -2.37275958   9.369486172E-19
 -2.24572682   9.369111873E-19
 -2.11869431   9.368700351E-19
 -1.99166155   9.368257809E-19
 -1.86462891   9.367801826E-19
 -1.73759627   9.367326197E-19
 -1.61056364   9.366855738E-19
 -1.483531   9.366394585E-19
 -1.35649836   9.365957213E-19
 -1.22946572   9.36555603E-19
 -1.10243309   9.365198275E-19
 -0.975400388   9.364896354E-19
 -0.848367751   9.364651301E-19
 -0.721335113   9.36447139E-19
 -0.594302475   9.364360754E-19
 -0.467269808   9.364320429E-19
 -0.34023717   9.364348347E-19
 -0.213204518   9.364443472E-19
 -8.617187291E-2   9.364598569E-19
 4.086076841E-2   9.36480433E-19
 0.16789341   9.36506179E-19
 0.294926047   9.365349235E-19
 0.421958715   9.365660462E-19
 0.548991323   9.365984096E-19
 0.67602402   9.366306697E-19
 0.803056657   9.366616889E-19
 0.930089295   9.366906403E-19
 1.05712187   9.367159727E-19
 1.18415463   9.367379963E-19
 1.31118727   9.367546434E-19
 1.4382199   9.367657069E-19
 1.56525254   9.367709802E-19
 1.69228518   9.367703598E-19
 1.81931782   9.367640525E-19
 1.94635046   9.36751955E-19
 2.07338309   9.36734791E-19
 2.20041585   9.367130775E-19
 2.32744837   9.366885723E-19
 2.45448112   9.366611719E-19
 2.58151364   9.366325308E-19
 2.7085464   9.366030625E-19
 2.83557892   9.365746282E-19
 2.96261168   9.365477448E-19
 3.08964419   9.365232396E-19
 3.21667695   9.365022499E-19
 3.34370947   9.364857063E-19
 3.47074223   9.364740223E-19
 3.59777474   9.364673015E-19
 3.7248075   9.364660607E-19
 3.85184002   9.364698864E-19
 3.97887278   9.364792956E-19
 4.10590553   9.364939781E-19
 4.23293829   9.365133134E-19
 4.35997057   9.365369915E-19
 4.48700333   9.365643918E-19
 4.61403608   9.365941703E-19
 4.74106884   9.36626327E-19
 4.86810112   9.366595176E-19
 4.99513388   9.366931218E-19
 5.12216663   9.367260022E-19
 5.24919939   9.367572283E-19
 5.37623167   9.367861796E-19
 5.50326443   9.368114086E-19
 5.63029718   9.36831778E-19
 5.75732994   9.368477012E-19
 5.88436222   9.368580409E-19
 6.01139498   9.368620734E-19
 6.13842773   9.368600055E-19
 6.26546049   9.368515269E-19
 6.39249325   9.368366376E-19
 6.51952553   9.368160615E-19
 6.64655828   9.367903155E-19
 6.77359104   9.367596064E-19
 6.9006238   9.367249683E-19
 7.02765608   9.366877451E-19
 7.15468884   9.366492812E-19
 7.28172159   9.366103003E-19
 7.40875435   9.3657225E-19
 7.53578663   9.365359575E-19
 7.66281939   9.365032838E-19
 7.78985214   9.364749529E-19
 7.9168849   9.364514817E-19
 8.04391766   9.364341109E-19
 8.17094994   9.364229439E-19
 8.29798317   9.364178775E-19
 8.42501545   9.364183944E-19
 8.55204773   9.364248051E-19
 8.67908096   9.364358686E-19
 8.80611324   9.364506545E-19
 8.93314552   9.364683355E-19
 9.06017876   9.364881878E-19
 9.18721104   9.365083503E-19
 9.31424427   9.365274789E-19
 9.44127655   9.365447463E-19
 9.56830883   9.365584982E-19
 9.69534206   9.365680107E-19
 9.82237434   9.36571733E-19
 9.94940662   9.365691481E-19
 10.0764399   9.365598423E-19
 10.2034721   9.365428851E-19
 10.3305054   9.365182765E-19
 10.4575377   9.364857063E-19
 10.5845699   9.364457948E-19
 10.7116032   9.363984387E-19
 10.8386354   9.363444652E-19
 10.9656687   9.36284598E-19
 11.092701   9.362198711E-19
 11.2197332   9.361513185E-19
 11.3467665   9.360797674E-19
 11.4737988   9.360065619E-19
 11.600831   9.359329428E-19
 11.7278643   9.358598407E-19
 11.8548965   9.357887032E-19
 11.9819298   9.357193234E-19
 12.1089621   9.35653666E-19
 12.2359943   9.355917308E-19
 12.3630276   9.355342418E-19
 12.4900599   9.35480992E-19
 12.6170931   9.354329121E-19
 12.7441254   9.353898987E-19
 12.8711576   9.353513314E-19
 12.9981909   9.353178306E-19
 13.1252232   9.352884657E-19
 13.2522554   9.352627197E-19
 13.3792887   9.352402825E-19
 13.506321   9.352204301E-19
 13.6333542   9.352028525E-19
 13.7603865   9.351877565E-19
 13.8874187   9.351733842E-19
 14.014452   9.351603561E-19
 14.1414843   9.351475348E-19
 14.2685175   9.351346101E-19
 14.3955498   9.351214786E-19
 14.5225821   9.351066928E-19
 14.6496153   9.35090873E-19
 14.7766476   9.350736056E-19
 14.9036798   9.350542702E-19
 15.0307131   9.350326601E-19
 15.1577454   9.350086719E-19
 15.2847786   9.349820987E-19
 15.4118109   9.349524236E-19
 15.5388432   9.349200602E-19
 15.6658764   9.34885422E-19
 15.7929087   9.348483022E-19
 15.9199409   9.348091146E-19
 16.0469742   9.347679623E-19
 16.1740074   9.347257761E-19
 16.3010387   9.346827627E-19
 16.428072   9.346397493E-19
 16.5551052   9.345968393E-19
 16.6821365   9.345550667E-19
 16.8091698   9.345142247E-19
 16.936203   9.344753472E-19
 17.0632343   9.344389512E-19
 17.1902676   9.344049334E-19
 17.3173008   9.343742244E-19
 17.444334   9.343466172E-19
 17.5713654   9.343223188E-19
 17.6983986   9.343013291E-19
 17.8254318   9.342834413E-19
 17.9524632   9.342678282E-19
 18.0794964   9.342543866E-19
 18.2065296   9.342432196E-19
 18.3335609   9.342325697E-19
 18.4605942   9.342224367E-19
 18.5876274   9.342126139E-19
 18.7146587   9.342015504E-19
 18.841692   9.341884189E-19
 18.9687252   9.341729093E-19
 19.0957584   9.341541943E-19
 19.2227898   9.341315502E-19
 19.349823   9.341042533E-19
 19.4768562   9.340724068E-19
 19.6038876   9.340358041E-19
 19.7309208   9.339946518E-19
 19.857954   9.339500875E-19
 19.9849854   9.339014906E-19
 20.1120186   9.338502054E-19
 20.2390518   9.337972659E-19
 20.3660831   9.337437059E-19
 20.4931164   9.336907664E-19
 20.6201496   9.336399982E-19
 20.7471828   9.335920217E-19
 20.8742142   9.335489049E-19
 21.0012474   9.335110614E-19
 21.1282806   9.334797319E-19
 21.255312   9.334560539E-19
 21.3823452   9.334395103E-19
 21.5093784   9.334308249E-19
 21.6364098   9.334296875E-19
 21.763443   9.334356845E-19
 21.8904762   9.334482991E-19
 22.0175076   9.334663936E-19
 22.1445408   9.334887275E-19
 22.271574   9.335132327E-19
 22.3986073   9.335390821E-19
 22.5256386   9.335643111E-19
 22.6526718   9.33587679E-19
 22.779705   9.336071177E-19
 22.9067364   9.336212832E-19
 23.0337696   9.336292448E-19
 23.1608028   9.33629038E-19
 23.2878342   9.336202492E-19
 23.4148674   9.336021546E-19
 23.5419006   9.335754781E-19
 23.668932   9.335391855E-19
 23.7959652   9.334940008E-19
 23.9229984   9.334405442E-19
 24.0500298   9.333800567E-19
 24.177063   9.333134686E-19
 24.3040962   9.332433651E-19
 24.4311295   9.331700562E-19
 24.5581608   9.330963337E-19
 24.685194   9.330239554E-19
 24.8122272   9.329547824E-19
 24.9392586   9.328908827E-19
 25.0662918   9.328330835E-19
 25.193325   9.327831424E-19
 25.3203564   9.327428174E-19
 25.4473896   9.327120049E-19
 25.5744228   9.326916356E-19
 25.7014542   9.326819162E-19
 25.8284874   9.326817094E-19
 25.9555206   9.326908084E-19
 26.0825539   9.327082826E-19
 26.2095852   9.327319606E-19
 26.3366184   9.327604984E-19
 26.4636517   9.327928618E-19
 26.590683   9.328262592E-19
 26.7177162   9.328598634E-19
 26.8447495   9.328921235E-19
 26.9717808   9.329206612E-19
 27.098814   9.329449596E-19
 27.2258472   9.32963261E-19
 27.3528786   9.329758755E-19
 27.4799118   9.329816658E-19
 27.606945   9.329808386E-19
 27.7339783   9.329743246E-19
 27.8610096   9.329617101E-19
 27.9880428   9.329441325E-19
 28.1150761   9.329225224E-19
 28.2421074   9.328982239E-19
 28.3691406   9.328727881E-19
 28.4961739   9.32846732E-19
 28.6232052   9.328218131E-19
 28.7502384   9.327991691E-19
 28.8772717   9.327798337E-19
 29.004303   9.327650479E-19
 29.1313362   9.327555353E-19
 29.2583694   9.327511926E-19
 29.3854027   9.327530537E-19
 29.512434   9.32760395E-19
 29.6394672   9.327731129E-19
 29.7665005   9.327907939E-19
 29.8935318   9.32812404E-19
 30.020565   9.328372194E-19
 30.1475983   9.328637926E-19
 30.2746296   9.328917099E-19
 30.4016628   9.329195238E-19
 30.5286961   9.329467174E-19
 30.6557274   9.329715328E-19
 30.7827606   9.329936599E-19
 30.9097939   9.330116511E-19
 31.0368271   9.330256098E-19
 31.1638584   9.330356393E-19
 31.2908916   9.330409126E-19
 31.4179249   9.330423602E-19
 31.5449562   9.330397752E-19
 31.6719894   9.330338816E-19
 31.7990227   9.330251962E-19
 31.926054   9.33014753E-19
 32.0530891   9.330022419E-19
 32.1801186   9.329893172E-19
 32.3071518   9.329763925E-19
 32.434185   9.32963261E-19
 32.5612183   9.329508533E-19
 32.6882515   9.329393762E-19
 32.8152847   9.329286228E-19
 32.9423141   9.329188001E-19
 33.0693474   9.329106317E-19
 33.1963806   9.329029802E-19
 33.3234138   9.32896156E-19
 33.4504471   9.328906759E-19
 33.5774803   9.328852992E-19
 33.7045135   9.328804396E-19
 33.831543   9.328757867E-19
 33.9585762   9.328711338E-19
 34.0856094   9.328662741E-19
 34.2126427   9.328604838E-19
 34.3396759   9.3285428E-19
 34.4667091   9.328472489E-19
 34.5937386   9.328392873E-19
 34.7207718   9.328300849E-19
 34.847805   9.328197452E-19
 34.9748383   9.328078545E-19
 35.1018715   9.327939992E-19
 35.2289047   9.327785929E-19
 35.355938   9.327616357E-19
 35.4829674   9.327425072E-19
 35.6100006   9.327221379E-19
 35.7370338   9.327000108E-19
 35.8640671   9.326771599E-19
 35.9911003   9.326531717E-19
 36.1181335   9.326285631E-19
 36.245163   9.326031273E-19
 36.3721962   9.325771745E-19
 36.4992294   9.325510149E-19
 36.6262627   9.325250621E-19
 36.7532959   9.324993161E-19
 36.8803291   9.324738803E-19
 37.0073624   9.324487547E-19
 37.1343918   9.324244562E-19
 37.261425   9.324007782E-19
 37.3884583   9.323775137E-19
 37.5154915   9.323548697E-19
 37.6425247   9.323329494E-19
 37.769558   9.323126835E-19
 37.8965874   9.322932447E-19
 38.0236206   9.322751501E-19
 38.1506538   9.322587099E-19
 38.2776871   9.322443377E-19
 38.4047203   9.322315164E-19
 38.5317535   9.322203494E-19
 38.6587868   9.322103199E-19
 38.7858162   9.322012209E-19
 38.9128494   9.321935695E-19
 39.0398827   9.321860214E-19
 39.1669159   9.321779564E-19
 39.2939491   9.321696846E-19
 39.4209824   9.321597585E-19
 39.5480118   9.321477643E-19
 39.675045   9.321329785E-19
 39.8020782   9.321151941E-19
 39.9291115   9.32093584E-19
 40.0561447   9.320682516E-19
 40.1831779   9.320388867E-19
 40.3102074   9.320061097E-19
 40.4372406   9.319701273E-19
 40.5642738   9.319313532E-19
 40.6913071   9.318904078E-19
 40.8183403   9.318486351E-19
 40.9453735   9.318065523E-19
 41.0724068   9.317650899E-19
 41.1994362   9.317254886E-19
 41.3264694   9.316880587E-19
 41.4535027   9.316534205E-19
 41.5805359   9.316227114E-19
 41.7075691   9.315953111E-19
 41.8346024   9.315717364E-19
 41.9616318   9.315518841E-19
 42.088665   9.315350303E-19
 42.2156982   9.315212784E-19
 42.3427315   9.315098013E-19
 42.4697647   9.314993581E-19
 42.5967979   9.314893286E-19
 42.7238312   9.314784718E-19
 42.8508606   9.314663743E-19
 42.9778938   9.31452002E-19
 43.1049271   9.314350448E-19
 43.2319603   9.314153993E-19
 43.3589935   9.313928586E-19
 43.4860268   9.31367216E-19
 43.6130562   9.313389885E-19
 43.7400894   9.313084862E-19
 43.8671227   9.312758126E-19
 43.9941559   9.312417948E-19
 44.1211891   9.312069498E-19
 44.2482224   9.311725184E-19
 44.3752556   9.31138604E-19
 44.502285   9.311054134E-19
 44.6293182   9.310736703E-19
 44.7563515   9.310444088E-19
 44.8833847   9.310175254E-19
 45.0104179   9.309931236E-19
 45.1374512   9.309721339E-19
 45.2644806   9.309541427E-19
 45.3915138   9.309404942E-19
 45.5185471   9.309304647E-19
 45.6455803   9.309238472E-19
 45.7726135   9.309212623E-19
 45.8996468   9.309222963E-19
 46.02668   9.309264322E-19
 46.1537094   9.309330496E-19
 46.2807426   9.309428724E-19
 46.4077759   9.309539359E-19
 46.5348091   9.309665504E-19
 46.6618423   9.309794751E-19
 46.7888756   9.30991159E-19
 46.915905   9.310014988E-19
 47.0429382   9.31009357E-19
 47.1699715   9.310128725E-19
 47.2970047   9.310120454E-19
 47.4240379   9.310060483E-19
 47.5510712   9.309934338E-19
 47.6781044   9.309748222E-19
 47.8051338   9.309498E-19
 47.9321671   9.309184705E-19
 48.0592003   9.308804202E-19
 48.1862335   9.308370967E-19
 48.3132668   9.307894304E-19
 48.4403   9.30738869E-19
 48.5673294   9.306864464E-19
 48.6943626   9.306329898E-19
 48.8213959   9.305804639E-19
 48.9484291   9.305299025E-19
 49.0754623   9.30482443E-19
 49.2024956   9.304392228E-19
 49.3295288   9.304007589E-19
 49.4565582   9.30368292E-19
 49.5835915   9.303418223E-19
 49.7106247   9.303219699E-19
 49.8376579   9.303079079E-19
 49.9646912   9.302996361E-19
 50.0917244   9.302965341E-19
 50.2187538   9.302981885E-19
 50.345787   9.30303255E-19
 50.4728203   9.303109064E-19
 50.5998535   9.303208326E-19
 50.7268867   9.303324131E-19
 50.85392   9.303448208E-19
 50.9809532   9.303568149E-19
 51.1079826   9.303686022E-19
 51.2350159   9.303787352E-19
 51.3620491   9.303872138E-19
 51.4890823   9.303935211E-19
 51.6161156   9.303977604E-19
 51.7431488   9.303991045E-19
 51.8701782   9.3039714E-19
 51.9972115   9.303920735E-19
 52.1242447   9.303841119E-19
 52.2512779   9.303722211E-19
 52.3783112   9.303571251E-19
 52.5053444   9.303393407E-19
 52.6323776   9.30318868E-19
 52.759407   9.302965341E-19
 52.8864403   9.302720289E-19
 53.0134735   9.302464897E-19
 53.1405067   9.302210539E-19
 53.26754   9.301961351E-19
 53.3945732   9.3017194E-19
 53.5216026   9.301496062E-19
 53.6486359   9.301293402E-19
 53.7756691   9.301119694E-19
 53.9027023   9.300971836E-19
 54.0297356   9.300857065E-19
 54.1567688   9.300773313E-19
 54.283802   9.300718512E-19
 54.4108315   9.300692663E-19
 54.5378647   9.300690595E-19
 54.6648979   9.300711274E-19
 54.7919312   9.300745395E-19
 54.9189644   9.300789856E-19
 55.0459976   9.300839487E-19
 55.173027   9.300891186E-19
 55.3000603   9.300942885E-19
 55.4270935   9.300992515E-19
 55.5541267   9.301035942E-19
 55.68116   9.301076268E-19
 55.8081932   9.301116593E-19
 55.9352264   9.30114968E-19
 56.0622559   9.301177597E-19
 56.1892891   9.301207582E-19
 56.3163223   9.301232398E-19
 56.4433556   9.301249975E-19
 56.5703888   9.301261349E-19
 56.697422   9.301261349E-19
 56.8244514   9.301247907E-19
 56.9514847   9.301218956E-19
 57.0785179   9.301166223E-19
 57.2055511   9.301086607E-19
 57.3325844   9.300977006E-19
 57.4596176   9.300843623E-19
 57.5866508   9.300674051E-19
 57.7136803   9.300486901E-19
 57.8407135   9.300274936E-19
 57.9677467   9.30004953E-19
 58.09478   9.299819987E-19
 58.2218132   9.299590444E-19
 58.3488464   9.299372275E-19
 58.4758759   9.299169616E-19
 58.6029091   9.298992806E-19
 58.7299423   9.298847016E-19
 58.8569756   9.298733278E-19
 58.9840088   9.298659866E-19
 59.111042   9.298623677E-19
 59.2380753   9.298630915E-19
 59.3651047   9.298669172E-19
 59.4921379   9.298737414E-19
 59.6191711   9.298831506E-19
 59.7462044   9.298941108E-19
 59.8732376   9.299066219E-19
 60.0002708   9.299200635E-19
 60.1273003   9.299334018E-19
 60.2543335   9.299463265E-19
 60.3813667   9.299586308E-19
 60.5084   9.299693842E-19
 60.6354332   9.299782764E-19
 60.7624664   9.299848938E-19
 60.8894997   9.299897535E-19
 61.0165291   9.299923385E-19
 61.1435623   9.299926486E-19
 61.2705956   9.299905807E-19
 61.3976288   9.299861346E-19
 61.524662   9.299796206E-19
 61.6516953   9.29971142E-19
 61.7787247   9.299612158E-19
 61.9057579   9.299505658E-19
 62.0327911   9.299386751E-19
 62.1598244   9.299260606E-19
 62.2868576   9.299135495E-19
 62.4138908   9.299016588E-19
 62.5409203   9.298898715E-19
 62.6679535   9.298789113E-19
 62.7949867   9.298685716E-19
 62.92202   9.298596794E-19
 63.0490532   9.298522347E-19
 63.1760864   9.298465479E-19
 63.3031197   9.298423086E-19
 63.4301491   9.29839827E-19
 63.5571823   9.298386897E-19
 63.6842155   9.2983931E-19
 63.8112488   9.298406542E-19
 63.938282   9.298431358E-19
 64.0653152   9.298454105E-19
 64.1923447   9.298470649E-19
 64.3193817   9.298487192E-19
 64.4464111   9.298488226E-19
 64.5734482   9.298473751E-19
 64.7004776   9.298442731E-19
 64.827507   9.298387931E-19
 64.9545441   9.298313484E-19
 65.0815735   9.29822146E-19
 65.2086105   9.298106689E-19
 65.33564   9.297978476E-19
 65.4626694   9.297838889E-19
 65.5897064   9.297688963E-19
 65.7167358   9.297541104E-19
 65.8437729   9.297395314E-19
 65.9708023   9.297258829E-19
 66.0978394   9.297132684E-19
 66.2248688   9.297021015E-19
 66.3518982   9.296927957E-19
 66.4789352   9.296851443E-19
 66.6059647   9.296799744E-19
 66.7330017   9.296763555E-19
 66.8600311   9.296749079E-19
 66.9870682   9.296748045E-19
 67.1140976   9.296769758E-19
 67.241127   9.29680905E-19
 67.3681641   9.29685868E-19
 67.4951935   9.296916583E-19
 67.6222305   9.296984825E-19
 67.7492599   9.297051E-19
 67.876297   9.297117174E-19
 68.0033264   9.297178179E-19
 68.1303558   9.297229878E-19
 68.2573929   9.297266067E-19
 68.3844223   9.297285712E-19
 68.5114594   9.297289848E-19
 68.6384888   9.297270203E-19
 68.7655182   9.297225742E-19
 68.8925552   9.297159567E-19
 69.0195847   9.297074781E-19
 69.1466217   9.296976554E-19
 69.2736511   9.296866952E-19
 69.4006882   9.296754249E-19
 69.5277176   9.296634308E-19
 69.654747   9.296517468E-19
 69.7817841   9.296412003E-19
 69.9088135   9.296319979E-19
 70.0358505   9.296238295E-19
 70.1628799   9.296167985E-19
 70.289917   9.296114218E-19
 70.4169464   9.296071825E-19
 70.5439758   9.296034602E-19
 70.6710129   9.296007718E-19
 70.7980423   9.295979801E-19
 70.9250793   9.295948782E-19
 71.0521088   9.295913627E-19
 71.1791458   9.295862962E-19
 71.3061752   9.295791617E-19
 71.4332047   9.295707865E-19
 71.5602417   9.295605502E-19
 71.6872711   9.295487628E-19
 71.8143082   9.295348042E-19
 71.9413376   9.295195013E-19
 72.068367   9.295029577E-19
 72.1954041   9.294854835E-19
 72.3224335   9.294672856E-19
 72.4494705   9.294489842E-19
 72.5764999   9.29430993E-19
 72.703537   9.294136222E-19
 72.8305664   9.293965616E-19
 72.9575958   9.293801214E-19
 73.0846329   9.29364922E-19
 73.2116623   9.293509633E-19
 73.3386993   9.29338142E-19
 73.4657288   9.293267683E-19
 73.5927658   9.293165319E-19
 73.7197952   9.293071227E-19
 73.8468246   9.292993679E-19
 73.9738617   9.292920267E-19
 74.1008911   9.292848922E-19
 74.2279282   9.292779646E-19
 74.3549576   9.292711404E-19
 74.481987   9.292640059E-19
 74.609024   9.292562511E-19
 74.7360535   9.292483929E-19
 74.8630905   9.292398109E-19
 74.9901199   9.292298847E-19
 75.117157   9.292192348E-19
 75.2441864   9.292081712E-19
 75.3712158   9.291965907E-19
 75.4982529   9.291845966E-19
 75.6252823   9.291719821E-19
 75.7523193   9.291592642E-19
 75.8793488   9.291467531E-19
 76.0063858   9.291341386E-19
 76.1334152   9.291212139E-19
 76.2604446   9.291085994E-19
 76.3874817   9.290954679E-19
 76.5145111   9.290816126E-19
 76.6415482   9.290675505E-19
 76.7685776   9.290523511E-19
 76.8956146   9.290362211E-19
 77.022644   9.290184367E-19
 77.1496735   9.289987911E-19
 77.2767105   9.289772844E-19
 77.4037399   9.289533996E-19
 77.530777   9.28926723E-19
 77.6578064   9.288975649E-19
 77.7848358   9.288659253E-19
 77.9118729   9.288320108E-19
 78.0389023   9.287957183E-19
 78.1659393   9.28758185E-19
 78.2929688   9.287195143E-19
 78.4200058   9.286812572E-19
 78.5470352   9.28644551E-19
 78.6740646   9.286105332E-19
 78.8011017   9.285805479E-19
 78.9281311   9.285553189E-19
 79.0551682   9.28536604E-19
 79.1821976   9.285256438E-19
 79.3092346   9.285234725E-19
 79.436264   9.285301933E-19
 79.5632935   9.285449792E-19
 79.6903305   9.285679334E-19
 79.8173599   9.285977119E-19
 79.944397   9.286320399E-19
 80.0714264   9.286687461E-19
 80.1984634   9.28705142E-19
 80.3254929   9.287377123E-19
 80.4525223   9.287621141E-19
 80.5795593   9.28774832E-19
 80.7065887   9.287723504E-19
 80.8336258   9.287507404E-19
 80.9606552   9.287080372E-19
 81.0876846   9.286424831E-19
 81.2147217   9.28552734E-19
 81.3417511   9.284394103E-19
 81.4687881   9.283047866E-19
 81.5958176   9.281513446E-19
 81.7228546   9.279844609E-19
 81.849884   9.278095122E-19
 81.9769135   9.276347703E-19
 82.1039505   9.274687138E-19
 82.2309799   9.273199247E-19
 82.358017   9.271987427E-19
 82.4850464   9.271145771E-19
 82.6120834   9.27075803E-19
 82.7391129   9.270906923E-19
 82.8661423   9.271641045E-19
 82.9931793   9.272998656E-19
 83.1202087   9.274983889E-19
 83.2472458   9.27757193E-19
 83.3742752   9.280699707E-19
 83.5013123   9.284268991E-19
 83.6283417   9.288152604E-19
 83.7553711   9.292183042E-19
 83.8824081   9.296173154E-19
 84.0094376   9.299913045E-19
 84.1364746   9.303181442E-19
 84.263504   9.305748804E-19
 84.3905334   9.307411437E-19
 84.5175705   9.307964614E-19
 84.6445999   9.307259443E-19
 84.771637   9.305173913E-19
 84.8986664   9.301653226E-19
 85.0257034   9.296705652E-19
 85.1527328   9.290396332E-19
 85.2797623   9.282879328E-19
 85.4067993   9.274385217E-19
 85.5338287   9.265193173E-19
 85.6608658   9.255674392E-19
 85.7878952   9.246237295E-19
 85.9149323   9.237332696E-19
 86.0419617   9.229428985E-19
 86.1689911   9.223007995E-19
 86.2960281   9.218524676E-19
 86.4230576   9.216387448E-19
 86.5500946   9.216935456E-19
 86.677124   9.22042926E-19
 86.8041611   9.227010515E-19
 86.9311905   9.236711276E-19
 87.0582199   9.249403329E-19
 87.185257   9.264812669E-19
 87.3122864   9.282541218E-19
 87.4393234   9.302024423E-19
 87.5663528   9.322554012E-19
 87.6933823   9.343336925E-19
 87.8204193   9.363464297E-19
 87.9474487   9.381970396E-19
 88.0744858   9.397875011E-19
 88.2015152   9.410190696E-19
 88.3285522   9.418011689E-19
 88.4555817   9.420522182E-19
 88.5826111   9.417055261E-19
 88.7096481   9.407127026E-19
 88.8366776   9.390493458E-19
 88.9637146   9.367162829E-19
 89.090744   9.337423618E-19
 89.2177811   9.301881735E-19
 89.3448105   9.261443976E-19
 89.4718399   9.217311823E-19
 89.598877   9.170979369E-19
 89.7259064   9.124195067E-19
 89.8529434   9.078913133E-19
 89.9799728   9.037229434E-19
 90.1070099   9.001319455E-19
 90.2340393   8.973360751E-19
 90.3610687   8.955424373E-19
 90.4881058   8.949409736E-19
 90.6151352   8.956922604E-19
 90.7421722   8.979172728E-19
 90.8692017   9.016881824E-19
 90.9962311   9.070211193E-19
 91.1232681   9.138681068E-19
 91.2502975   9.221093072E-19
 91.3773346   9.315525045E-19
 91.504364   9.419295887E-19
 91.6314011   9.529016225E-19
 91.7584305   9.640609094E-19
 91.8854599   9.749427805E-19
 92.0124969   9.850381063E-19
 92.1395264   9.938074616E-19
 92.2665634   1.00070377E-18
 92.3935928   1.005193809E-18
 92.5206299   1.006783547E-18
 92.6476593   1.005044917E-18
 92.7746887   9.996447717E-19
 92.9017258   9.903699057E-19
 93.0287552   9.771540411E-19
 93.1557922   9.600992312E-19
 93.2828217   9.394929214E-19
 93.4098587   9.158198394E-19
 93.5368881   8.897632365E-19
 93.6639175   8.622019921E-19
 93.7909546   8.341933464E-19
 93.917984   8.069482918E-19
 94.0450211   7.817944014E-19
 94.1720505   7.601299725E-19
 94.2990799   7.433679329E-19
 94.4261169   7.328708041E-19
 94.5531464   7.2988401E-19
 94.6801834   7.354589488E-19
 94.8072128   7.503830965E-19
 94.9342499   7.751085073E-19
 95.0612793   8.096904989E-19
 95.1883087   8.537368325E-19
 95.3153458   9.063709553E-19
 95.4423752   9.662151979E-19
 95.5694122   1.031394549E-18
 95.6964417   1.099566432E-18
 95.8234787   1.167974372E-18
 95.9505081   1.233528746E-18
 96.0775375   1.292912559E-18
 96.2045746   1.342708832E-18
 96.331604   1.379548665E-18
 96.4586411   1.400273882E-18
 96.5856705   1.402105259E-18
 96.7126999   1.382814684E-18
 96.8397369   1.340888207E-18
 96.9667664   1.275670703E-18
 97.0938034   1.187491492E-18
 97.2208328   1.077752025E-18
 97.3478699   9.489754097E-19
 97.4748993   8.048089442E-19
 97.6019287   6.499723141E-19
 97.7289658   4.901568321E-19
 97.8559952   3.318650944E-19
 97.9830322   1.821999199E-19
 98.1100616   4.860817979E-20
 98.2370987   -6.141861285E-20
 98.3641281   -1.406712268E-19
 98.4911575   -1.825664514E-19
 98.6181946   -1.814961314E-19
 98.745224   -1.33162456E-19
 98.872261   -3.488361522E-20
 98.9992905   1.141409854E-19
 99.1263275   3.126290093E-19
 99.2533569   5.570833951E-19
 99.3803864   8.417467462E-19
 99.5074234   1.158646049E-18
 99.6344528   1.497736644E-18
 99.7614899   1.847143525E-18
 99.8885193   2.193497903E-18
 100.015549   2.522359065E-18
 100.142586   2.818715131E-18
 100.269615   3.067542847E-18
 100.396652   3.254405842E-18
 100.523682   3.366081429E-18
 100.650719   3.391173953E-18
 100.777748   3.320710779E-18
 100.904778   3.148679132E-18
 101.031815   2.872492211E-18
 101.158844   2.493361008E-18
 101.285881   2.01654267E-18
 101.41291   1.451465091E-18
 101.539948   8.117062346E-19
 101.666977   1.14817645E-19
 101.794006   -6.179986298E-19
 101.921043   -1.362370501E-18
 102.048073   -2.09137832E-18
 102.17511   -2.776313439E-18
 102.302139   -3.387554003E-18
 102.429176   -3.895536784E-18
 102.556206   -4.271807183E-18
 102.683235   -4.490113795E-18
 102.810272   -4.527520557E-18
 102.937302   -4.365506067E-18
 103.064339   -3.991006248E-18
 103.191368   -3.397379875E-18
 103.318398   -2.585240922E-18
 103.445435   -1.563134887E-18
 103.572464   -3.480137796E-19
 103.699501   1.034523152E-18
 103.82653   2.550262555E-18
 103.953568   4.156700451E-18
 104.080597   5.803701837E-18
 104.207626   7.43448676E-18
 104.334663   8.986979866E-18
 104.461693   1.039550053E-17
 104.58873   1.159277829E-17
 104.715759   1.251227557E-17
 104.842796   1.309076433E-17
 104.969826   1.32710773E-17
 105.096855   1.300497909E-17
 105.223892   1.225603735E-17
 105.350922   1.100237896E-17
 105.477959   9.239221976E-18
 105.604988   6.981024694E-18
 105.732025   4.263132954E-18
 105.859055   1.142760666E-18
 105.986084   -2.300794809E-18
 106.113121   -5.966841292E-18
 106.24015   -9.734945527E-18
 106.367188   -1.346763113E-17
 106.494217   -1.701411755E-17
 106.621246   -2.021506829E-17
 106.748283   -2.290827407E-17
 106.875313   -2.49351081E-17
 107.00235   -2.614758944E-17
 107.129379   -2.641577463E-17
 107.256416   -2.563520234E-17
 107.383446   -2.373405674E-17
 107.510475   -2.067967579E-17
 107.637512   -1.64840569E-17
 107.764542   -1.120796064E-17
 107.891579   -4.96330081E-18
 108.018608   2.086490924E-18
 108.145645   9.728353725E-18
 108.272675   1.77038985E-17
 108.399704   2.571616678E-17
 108.526741   3.34387895E-17
 108.65377   4.052736008E-17
 108.780807   4.66327107E-17
 108.907837   5.141569399E-17
 109.034874   5.45628813E-17
 109.161903   5.580257689E-17
 109.288933   5.492041854E-17
 109.41597   5.177383342E-17
 109.542999   4.630453506E-17
 109.670036   3.85483437E-17
 109.797066   2.864162833E-17
 109.924095   1.682378494E-17
 110.051132   3.43533878E-18
 110.178162   -1.108863983E-17
 110.305199   -2.622992369E-17
 110.432228   -4.140305318E-17
 110.559265   -5.597560322E-17
 110.686295   -6.929207288E-17
 110.813324   -8.070056774E-17
 110.940361   -8.958141703E-17
 111.06739   -9.537645911E-17
 111.194427   -9.761769505E-17
 111.321457   -9.595410911E-17
 111.448494   -9.017511433E-17
 111.575523   -8.022963066E-17
 111.702553   -6.623934629E-17
 111.82959   -4.850541452E-17
 111.956619   -2.750775727E-17
 112.083656   -3.896652651E-18
 112.210686   2.152368622E-17
 112.337723   4.7819116E-17
 112.464752   7.395662376E-17
 112.591782   9.884156502E-17
 112.718819   1.213596646E-16
 112.845848   1.404223925E-16
 112.972885   1.550138983E-16
 113.099915   1.64237518E-16
 113.226944   1.673599593E-16
 113.353981   1.638511783E-16
 113.48101   1.53418022E-16
 113.608047   1.360299841E-16
 113.735077   1.119355231E-16
 113.862114   8.166813745E-17
 113.989143   4.604122031E-17
 114.116173   6.131312095E-18
 114.24321   -3.674944424E-17
 114.370239   -8.10917977E-17
 114.497276   -1.252373417E-16
 114.624306   -1.674343129E-16
 114.751343   -2.058996673E-16
 114.878372   -2.388851816E-16
 115.005402   -2.647453887E-16
 115.132439   -2.820044261E-16
 115.259468   -2.894203055E-16
 115.386505   -2.860427881E-16
 115.513535   -2.712640748E-16
 115.640572   -2.448591991E-16
 115.767601   -2.070151699E-16
 115.89463   -1.583466156E-16
 116.021667   -9.989844376E-17
 116.148697   -3.3133047E-17
 116.275734   4.009622031E-17
 116.402763   1.175860666E-16
 116.529793   1.968375662E-16
 116.65683   2.751227864E-16
 116.783859   3.495621329E-16
 116.910896   4.172106574E-16
 117.037926   4.751511786E-16
 117.164963   5.205916375E-16
 117.291992   5.509651802E-16
 117.419022   5.640285987E-16
 117.546059   5.5795839E-16
 117.673088   5.314395355E-16
 117.800125   4.83745969E-16
 117.927155   4.148084191E-16
 118.054192   3.25267428E-16
 118.181221   2.165092976E-16
 118.30825   9.068089888E-17
 118.435287   -4.931647503E-17
 118.562317   -1.998591974E-16
 118.689354   -3.566580455E-16
 118.816383   -5.148423484E-16
 118.943413   -6.690705309E-16
 119.07045   -8.136676842E-16
 119.197479   -9.427865279E-16
 119.324516   -1.050592117E-15
 119.451546   -1.131463329E-15
 119.578583   -1.180208169E-15
 119.705612   -1.192286859E-15
 119.832642   -1.164034075E-15
 119.959679   -1.092872719E-15