 -7.19999981   1.079815303E-17
 -7.07296753   1.079815303E-17
 -6.94593477   1.07981522E-17
 -6.81890202   1.079815137E-17
 -6.69186926   1.079815137E-17
 -6.56483698   1.079815055E-17
 -6.43780422   1.079815055E-17
 -6.31077147   1.07981522E-17
 -6.18373871   1.079815303E-17
 -6.05670643   1.079815468E-17
 -5.92967367   1.079815551E-17
 -5.80264091   1.079815716E-17
 -5.67560816   1.079815716E-17
 -5.5485754   1.079815882E-17
 -5.42154312   1.079816047E-17
 -5.29451036   1.079816213E-17
 -5.16747761   1.079816378E-17
 -5.04044485   1.079816626E-17
 -4.91341257   1.079816874E-17
 -4.78637981   1.07981704E-17
 -4.65934706   1.079817288E-17
 -4.5323143   1.079817536E-17
 -4.40528202   1.079817784E-17
 -4.27824926   1.079818115E-17
 -4.15121651   1.079818446E-17
 -4.02418375   1.079818777E-17
 -3.89715123   1.079819108E-17
 -3.77011847   1.079819356E-17
 -3.64308596   1.079819604E-17
 -3.5160532   1.07981977E-17
 -3.38902068   1.079820018E-17
 -3.26198792   1.079820349E-17
 -3.13495541   1.079820679E-17
 -3.00792265   1.079821176E-17
 -2.88089013   1.079821672E-17
 -2.75385737   1.079822251E-17
 -2.62682486   1.07982283E-17
 -2.4997921   1.079823326E-17
 -2.37275958   1.07982374E-17
 -2.24572682   1.079824071E-17
 -2.11869431   1.079824402E-17
 -1.99166155   1.07982465E-17
 -1.86462891   1.079824981E-17
 -1.73759627   1.079825312E-17
 -1.61056364   1.079825891E-17
 -1.483531   1.079826387E-17
 -1.35649836   1.079826883E-17
 -1.22946572   1.07982738E-17
 -1.10243309   1.079827793E-17
 -0.975400388   1.079828207E-17
 -0.848367751   1.079828538E-17
 -0.721335113   1.079828786E-17
 -0.594302475   1.079829117E-17
 -0.467269808   1.079829365E-17
 -0.34023717   1.079829778E-17
 -0.213204518   1.079830275E-17
 -8.617187291E-2   1.079830854E-17
 4.086076841E-2   1.079831516E-17
 0.16789341   1.07983226E-17
 0.294926047   1.079833004E-17
 0.421958715   1.079833584E-17
 0.548991323   1.079834245E-17
 0.67602402   1.079834742E-17
 0.803056657   1.079835155E-17
 0.930089295   1.079835403E-17
 1.05712187   1.079835651E-17
 1.18415463   1.079835982E-17
 1.31118727   1.079836313E-17
 1.4382199   1.079836727E-17
 1.56525254   1.07983714E-17
 1.69228518   1.079837637E-17
 1.81931782   1.07983805E-17
 1.94635046   1.079838381E-17
 2.07338309   1.079838629E-17
 2.20041585   1.079838877E-17
 2.32744837   1.079839126E-17
 2.45448112   1.079839374E-17
 2.58151364   1.07983987E-17
 2.7085464   1.079840449E-17
 2.83557892   1.079841276E-17
 2.96261168   1.079842186E-17
 3.08964419   1.079843096E-17
 3.21667695   1.079844006E-17
 3.34370947   1.079844833E-17
 3.47074223   1.079845412E-17
 3.59777474   1.079845909E-17
 3.7248075   1.079846157E-17
 3.85184002   1.079846405E-17
 3.97887278   1.07984657E-17
 4.10590553   1.079846818E-17
 4.23293829   1.079847315E-17
 4.35997057   1.079847811E-17
 4.48700333   1.079848473E-17
 4.61403608   1.079849052E-17
 4.74106884   1.079849631E-17
 4.86810112   1.07985021E-17
 4.99513388   1.079850541E-17
 5.12216663   1.079850954E-17
 5.24919939   1.079851285E-17
 5.37623167   1.079851699E-17
 5.50326443   1.079852278E-17
 5.63029718   1.07985294E-17
 5.75732994   1.079853684E-17
 5.88436222   1.079854594E-17
 6.01139498   1.079855338E-17
 6.13842773   1.079856E-17
 6.26546049   1.079856579E-17
 6.39249325   1.07985691E-17
 6.51952553   1.079857075E-17
 6.64655828   1.079857324E-17
 6.77359104   1.079857572E-17
 6.9006238   1.079858068E-17
 7.02765608   1.079858813E-17
 7.15468884   1.079859805E-17
 7.28172159   1.07986088E-17
 7.40875435   1.079862039E-17
 7.53578663   1.079863114E-17
 7.66281939   1.079864024E-17
 7.78985214   1.079864686E-17
 7.9168849   1.079865182E-17
 8.04391766   1.079865678E-17
 8.17094994   1.079866092E-17
 8.29798317   1.079866588E-17
 8.42501545   1.07986725E-17
 8.55204773   1.079867994E-17
 8.67908096   1.079868739E-17
 8.80611324   1.079869483E-17
 8.93314552   1.079870062E-17
 9.06017876   1.079870558E-17
 9.18721104   1.079870972E-17
 9.31424427   1.07987122E-17
 9.44127655   1.079871468E-17
 9.56830883   1.079871882E-17
 9.69534206   1.079872461E-17
 9.82237434   1.079873288E-17
 9.94940662   1.079874281E-17
 10.0764399   1.079875522E-17
 10.2034721   1.07987668E-17
 10.3305054   1.079877755E-17
 10.4575377   1.079878748E-17
 10.5845699   1.079879409E-17
 10.7116032   1.079879906E-17
 10.8386354   1.079880237E-17
 10.9656687   1.07988065E-17
 11.092701   1.079881146E-17
 11.2197332   1.079881891E-17
 11.3467665   1.079882801E-17
 11.4737988   1.079883876E-17
 11.600831   1.079884951E-17
 11.7278643   1.079886027E-17
 11.8548965   1.079886937E-17
 11.9819298   1.079887681E-17
 12.1089621   1.07988826E-17
 12.2359943   1.079888756E-17
 12.3630276   1.079889335E-17
 12.4900599   1.079889997E-17
 12.6170931   1.079890742E-17
 12.7441254   1.079891817E-17
 12.8711576   1.079892975E-17
 12.9981909   1.079894216E-17
 13.1252232   1.079895374E-17
 13.2522554   1.079896367E-17
 13.3792887   1.079897028E-17
 13.506321   1.079897442E-17
 13.6333542   1.079897773E-17
 13.7603865   1.079898021E-17
 13.8874187   1.079898269E-17
 14.014452   1.079898765E-17
 14.1414843   1.07989951E-17
 14.2685175   1.079900502E-17
 14.3955498   1.07990166E-17
 14.5225821   1.079903067E-17
 14.6496153   1.07990439E-17
 14.7766476   1.079905631E-17
 14.9036798   1.079906706E-17
 15.0307131   1.079907616E-17
 15.1577454   1.079908443E-17
 15.2847786   1.079909188E-17
 15.4118109   1.079910015E-17
 15.5388432   1.079910842E-17
 15.6658764   1.079911835E-17
 15.7929087   1.079912993E-17
 15.9199409   1.079914068E-17
 16.0469742   1.079915061E-17
 16.1740074   1.079915971E-17
 16.3010387   1.079916715E-17
 16.428072   1.079917211E-17
 16.5551052   1.079917708E-17
 16.6821365   1.079918287E-17
 16.8091698   1.079919031E-17
 16.936203   1.079919941E-17
 17.0632343   1.079921182E-17
 17.1902676   1.079922754E-17
 17.3173008   1.079924408E-17
 17.444334   1.079926228E-17
 17.5713654   1.079928048E-17
 17.6983986   1.079929785E-17
 17.8254318   1.079931274E-17
 17.9524632   1.079932597E-17
 18.0794964   1.079933838E-17
 18.2065296   1.079934996E-17
 18.3335609   1.079935988E-17
 18.4605942   1.079937064E-17
 18.5876274   1.079938056E-17
 18.7146587   1.079939049E-17
 18.841692   1.079940042E-17
 18.9687252   1.079940869E-17
 19.0957584   1.079941613E-17
 19.2227898   1.079942275E-17
 19.349823   1.079942854E-17
 19.4768562   1.079943433E-17
 19.6038876   1.079944012E-17
 19.7309208   1.079944674E-17
 19.857954   1.079945336E-17
 19.9849854   1.079946163E-17
 20.1120186   1.079947073E-17
 20.2390518   1.079948065E-17
 20.3660831   1.079949058E-17
 20.4931164   1.079950051E-17
 20.6201496   1.079951126E-17
 20.7471828   1.079952201E-17
 20.8742142   1.079953277E-17
 21.0012474   1.079954352E-17
 21.1282806   1.07995551E-17
 21.255312   1.079956751E-17
 21.3823452   1.079957991E-17
 21.5093784   1.079959232E-17
 21.6364098   1.079960638E-17
 21.763443   1.079961962E-17
 21.8904762   1.07996312E-17
 22.0175076   1.079964113E-17
 22.1445408   1.079965105E-17
 22.271574   1.079965932E-17
 22.3986073   1.079966677E-17
 22.5256386   1.079967421E-17
 22.6526718   1.079968166E-17
 22.779705   1.07996891E-17
 22.9067364   1.079969737E-17
 23.0337696   1.079970565E-17
 23.1608028   1.079971475E-17
 23.2878342   1.079972467E-17
 23.4148674   1.079973377E-17
 23.5419006   1.079974204E-17
 23.668932   1.079975114E-17
 23.7959652   1.079975941E-17
 23.9229984   1.079976686E-17
 24.0500298   1.079977513E-17
 24.177063   1.079978423E-17
 24.3040962   1.079979415E-17
 24.4311295   1.079980408E-17
 24.5581608   1.079981483E-17
 24.685194   1.079982641E-17
 24.8122272   1.079983882E-17
 24.9392586   1.079985206E-17
 25.0662918   1.079986612E-17
 25.193325   1.079988101E-17
 25.3203564   1.07998959E-17
 25.4473896   1.079991079E-17
 25.5744228   1.079992568E-17
 25.7014542   1.079993974E-17
 25.8284874   1.079995297E-17
 25.9555206   1.079996455E-17
 26.0825539   1.079997696E-17
 26.2095852   1.07999902E-17
 26.3366184   1.080000426E-17
 26.4636517   1.080001832E-17
 26.590683   1.080003321E-17
 26.7177162   1.080004893E-17
 26.8447495   1.080006382E-17
 26.9717808   1.080007788E-17
 27.098814   1.080009194E-17
 27.2258472   1.0800106E-17
 27.3528786   1.080012089E-17
 27.4799118   1.080013826E-17
 27.606945   1.080015563E-17
 27.7339783   1.080017631E-17
 27.8610096   1.080019865E-17
 27.9880428   1.080022181E-17
 28.1150761   1.080024497E-17
 28.2421074   1.08002673E-17
 28.3691406   1.080028715E-17
 28.4961739   1.080030535E-17
 28.6232052   1.080032107E-17
 28.7502384   1.080033596E-17
 28.8772717   1.080035085E-17
 29.004303   1.080036739E-17
 29.1313362   1.080038559E-17
 29.2583694   1.08004071E-17
 29.3854027   1.080043108E-17
 29.512434   1.080045673E-17
 29.6394672   1.080048237E-17
 29.7665005   1.080050553E-17
 29.8935318   1.080052621E-17
 30.020565   1.080054358E-17
 30.1475983   1.080055847E-17
 30.2746296   1.08005717E-17
 30.4016628   1.080058577E-17
 30.5286961   1.080060066E-17
 30.6557274   1.080061885E-17
 30.7827606   1.080064036E-17
 30.9097939   1.080066435E-17
 31.0368271   1.080068916E-17
 31.1638584   1.080071233E-17
 31.2908916   1.080073383E-17
 31.4179249   1.080075203E-17
 31.5449562   1.080076857E-17
 31.6719894   1.080078429E-17
 31.7990227   1.080079918E-17
 31.926054   1.080081738E-17
 32.0530891   1.080083806E-17
 32.1801186   1.080086122E-17
 32.3071518   1.080088438E-17
 32.434185   1.080090754E-17
 32.5612183   1.080092822E-17
 32.6882515   1.080094476E-17
 32.8152847   1.080095634E-17
 32.9423141   1.080096462E-17
 33.0693474   1.080097123E-17
 33.1963806   1.080097785E-17
 33.3234138   1.080098695E-17
 33.4504471   1.080099936E-17
 33.5774803   1.080101673E-17
 33.7045135   1.080103741E-17
 33.831543   1.080106057E-17
 33.9585762   1.08010829E-17
 34.0856094   1.080110441E-17
 34.2126427   1.080112261E-17
 34.3396759   1.080113832E-17
 34.4667091   1.080115321E-17
 34.5937386   1.080116727E-17
 34.7207718   1.080118382E-17
 34.847805   1.080120284E-17
 34.9748383   1.0801226E-17
 35.1018715   1.080125165E-17
 35.2289047   1.080127894E-17
 35.355938   1.080130624E-17
 35.4829674   1.080133188E-17
 35.6100006   1.080135504E-17
 35.7370338   1.08013749E-17
 35.8640671   1.080139392E-17
 35.9911003   1.080141295E-17
 36.1181335   1.080143445E-17
 36.245163   1.080145761E-17
 36.3721962   1.080148574E-17
 36.4992294   1.080151717E-17
 36.6262627   1.080154943E-17
 36.7532959   1.080158169E-17
 36.8803291   1.080161064E-17
 37.0073624   1.080163711E-17
 37.1343918   1.08016611E-17
 37.261425   1.080168344E-17
 37.3884583   1.080170577E-17
 37.5154915   1.080173141E-17
 37.6425247   1.080176036E-17
 37.769558   1.080179428E-17
 37.8965874   1.08018315E-17
 38.0236206   1.080187121E-17
 38.1506538   1.080191008E-17
 38.2776871   1.080194731E-17
 38.4047203   1.080198039E-17
 38.5317535   1.080200852E-17
 38.6587868   1.080203333E-17
 38.7858162   1.080205649E-17
 38.9128494   1.080207965E-17
 39.0398827   1.080210447E-17
 39.1669159   1.080213177E-17
 39.2939491   1.080216155E-17
 39.4209824   1.080219298E-17
 39.5480118   1.080222524E-17
 39.675045   1.080225502E-17
 39.8020782   1.080228231E-17
 39.9291115   1.08023063E-17
 40.0561447   1.080232698E-17
 40.1831779   1.080234518E-17
 40.3102074   1.080236255E-17
 40.4372406   1.08023824E-17
 40.5642738   1.080240474E-17
 40.6913071   1.080243038E-17
 40.8183403   1.080245768E-17
 40.9453735   1.080248745E-17
 41.0724068   1.080251641E-17
 41.1994362   1.080254453E-17
 41.3264694   1.080257265E-17
 41.4535027   1.08025983E-17
 41.5805359   1.080262477E-17
 41.7075691   1.080265206E-17
 41.8346024   1.080268101E-17
 41.9616318   1.080271162E-17
 42.088665   1.080274388E-17
 42.2156982   1.080277531E-17
 42.3427315   1.080280509E-17
 42.4697647   1.080283239E-17
 42.5967979   1.080285555E-17
 42.7238312   1.080287623E-17
 42.8508606   1.080289525E-17
 42.9778938   1.080291428E-17
 43.1049271   1.080293496E-17
 43.2319603   1.080295895E-17
 43.3589935   1.080298542E-17
 43.4860268   1.080301602E-17
 43.6130562   1.080304828E-17
 43.7400894   1.080307972E-17
 43.8671227   1.080311115E-17
 43.9941559   1.080313927E-17
 44.1211891   1.080316409E-17
 44.2482224   1.08031856E-17
 44.3752556   1.080320462E-17
 44.502285   1.080322282E-17
 44.6293182   1.080324102E-17
 44.7563515   1.080326004E-17
 44.8833847   1.080328155E-17
 45.0104179   1.080330305E-17
 45.1374512   1.080332622E-17
 45.2644806   1.080334772E-17
 45.3915138   1.08033684E-17
 45.5185471   1.080338743E-17
 45.6455803   1.080340397E-17
 45.7726135   1.080342051E-17
 45.8996468   1.080343706E-17
 46.02668   1.080345443E-17
 46.1537094   1.080347263E-17
 46.2807426   1.080349165E-17
 46.4077759   1.080351233E-17
 46.5348091   1.080353384E-17
 46.6618423   1.080355534E-17
 46.7888756   1.080357685E-17
 46.915905   1.080359753E-17
 47.0429382   1.080361904E-17
 47.1699715   1.080363972E-17
 47.2970047   1.080366288E-17
 47.4240379   1.080368769E-17
 47.5510712   1.080371499E-17
 47.6781044   1.080374394E-17
 47.8051338   1.080377537E-17
 47.9321671   1.080380763E-17
 48.0592003   1.080383989E-17
 48.1862335   1.080387133E-17
 48.3132668   1.080390193E-17
 48.4403   1.080393171E-17
 48.5673294   1.080396066E-17
 48.6943626   1.080398879E-17
 48.8213959   1.080401691E-17
 48.9484291   1.080404586E-17
 49.0754623   1.080407564E-17
 49.2024956   1.080410625E-17
 49.3295288   1.080413768E-17
 49.4565582   1.080416829E-17
 49.5835915   1.080419889E-17
 49.7106247   1.080422784E-17
 49.8376579   1.080425514E-17
 49.9646912   1.080427913E-17
 50.0917244   1.080430063E-17
 50.2187538   1.080431966E-17
 50.345787   1.08043362E-17
 50.4728203   1.080435109E-17
 50.5998535   1.080436515E-17
 50.7268867   1.080437839E-17
 50.85392   1.080439245E-17
 50.9809532   1.080440651E-17
 51.1079826   1.08044214E-17
 51.2350159   1.080443795E-17
 51.3620491   1.080445614E-17
 51.4890823   1.080447517E-17
 51.6161156   1.080449585E-17
 51.7431488   1.080451736E-17
 51.8701782   1.080453969E-17
 51.9972115   1.080456368E-17
 52.1242447   1.080458767E-17
 52.2512779   1.080461248E-17
 52.3783112   1.080463978E-17
 52.5053444   1.080466708E-17
 52.6323776   1.080469603E-17
 52.759407   1.080472498E-17
 52.8864403   1.08047531E-17
 53.0134735   1.08047804E-17
 53.1405067   1.080480604E-17
 53.26754   1.08048292E-17
 53.3945732   1.080485071E-17
 53.5216026   1.080487056E-17
 53.6486359   1.080489041E-17
 53.7756691   1.080490944E-17
 53.9027023   1.080492846E-17
 54.0297356   1.080494749E-17
 54.1567688   1.080496734E-17
 54.283802   1.080498554E-17
 54.4108315   1.080500374E-17
 54.5378647   1.080502028E-17
 54.6648979   1.080503517E-17
 54.7919312   1.080505006E-17
 54.9189644   1.080506495E-17
 55.0459976   1.080508149E-17
 55.173027   1.080510135E-17
 55.3000603   1.080512451E-17
 55.4270935   1.080515015E-17
 55.5541267   1.080518075E-17
 55.68116   1.080521219E-17
 55.8081932   1.080524445E-17
 55.9352264   1.080527671E-17
 56.0622559   1.080530649E-17
 56.1892891   1.080533626E-17
 56.3163223   1.080536439E-17
 56.4433556   1.080539251E-17
 56.5703888   1.080542146E-17
 56.697422   1.080545207E-17
 56.8244514   1.08054835E-17
 56.9514847   1.080551742E-17
 57.0785179   1.08055505E-17
 57.2055511   1.080558276E-17
 57.3325844   1.080561337E-17
 57.4596176   1.080564149E-17
 57.5866508   1.080566714E-17
 57.7136803   1.08056903E-17
 57.8407135   1.080571346E-17
 57.9677467   1.080573579E-17
 58.09478   1.080576061E-17
 58.2218132   1.080578542E-17
 58.3488464   1.080581272E-17
 58.4758759   1.080584084E-17
 58.6029091   1.080586814E-17
 58.7299423   1.080589461E-17
 58.8569756   1.080591943E-17
 58.9840088   1.080594093E-17
 59.111042   1.080596244E-17
 59.2380753   1.080598147E-17
 59.3651047   1.080600132E-17
 59.4921379   1.080602448E-17
 59.6191711   1.080604929E-17
 59.7462044   1.080607659E-17
 59.8732376   1.080610637E-17
 60.0002708   1.080613532E-17
 60.1273003   1.080616345E-17
 60.2543335   1.080618909E-17
 60.3813667   1.080621059E-17
 60.5084   1.080622962E-17
 60.6354332   1.080624699E-17
 60.7624664   1.080626602E-17
 60.8894997   1.08062867E-17
 61.0165291   1.080631151E-17
 61.1435623   1.080634129E-17
 61.2705956   1.080637438E-17
 61.3976288   1.080641243E-17
 61.524662   1.080645213E-17
 61.6516953   1.080649018E-17
 61.7787247   1.080652823E-17
 61.9057579   1.08065638E-17
 62.0327911   1.080659689E-17
 62.1598244   1.080662749E-17
 62.2868576   1.080665727E-17
 62.4138908   1.080668705E-17
 62.5409203   1.080671848E-17
 62.6679535   1.08067524E-17
 62.7949867   1.080678714E-17
 62.92202   1.080682188E-17
 63.0490532   1.08068558E-17
 63.1760864   1.080688723E-17
 63.3031197   1.080691453E-17
 63.4301491   1.080693851E-17
 63.5571823   1.080696002E-17
 63.6842155   1.080697987E-17
 63.8112488   1.080700138E-17
 63.938282   1.080702537E-17
 64.0653152   1.080705101E-17
 64.1923447   1.080707996E-17
 64.3193817   1.080710974E-17
 64.4464111   1.080713952E-17
 64.5734482   1.080716599E-17
 64.7004776   1.080718915E-17
 64.827507   1.080720817E-17
 64.9545441   1.080722472E-17
 65.0815735   1.080724126E-17
 65.2086105   1.080725781E-17
 65.33564   1.080727683E-17
 65.4626694   1.080729999E-17
 65.5897064   1.080732646E-17
 65.7167358   1.080735459E-17
 65.8437729   1.080738354E-17
 65.9708023   1.080741001E-17
 66.0978394   1.080743399E-17
 66.2248688   1.080745633E-17
 66.3518982   1.080747701E-17
 66.4789352   1.080750017E-17
 66.6059647   1.080752664E-17
 66.7330017   1.08075589E-17
 66.8600311   1.080759778E-17
 66.9870682   1.080764162E-17
 67.1140976   1.080768711E-17
 67.241127   1.080773261E-17
 67.3681641   1.080777314E-17
 67.4951935   1.08078054E-17
 67.6222305   1.080782691E-17
 67.7492599   1.080783766E-17
 67.876297   1.080783849E-17
 68.0033264   1.080782856E-17
 68.1303558   1.080781119E-17
 68.2573929   1.080778555E-17
 68.3844223   1.080775163E-17
 68.5114594   1.080770862E-17
 68.6384888   1.080765485E-17
 68.7655182   1.080759116E-17
 68.8925552   1.080751754E-17
 69.0195847   1.080743648E-17
 69.1466217   1.080735624E-17
 69.2736511   1.080728262E-17
 69.4006882   1.080722472E-17
 69.5277176   1.080719163E-17
 69.654747   1.08071908E-17
 69.7817841   1.080722885E-17
 69.9088135   1.080730661E-17
 70.0358505   1.080742655E-17
 70.1628799   1.080758702E-17
 70.289917   1.080778472E-17
 70.4169464   1.080801798E-17
 70.5439758   1.080828268E-17
 70.6710129   1.08085722E-17
 70.7980423   1.080888073E-17
 70.9250793   1.080919754E-17
 71.0521088   1.080950856E-17
 71.1791458   1.08097989E-17
 71.3061752   1.081004789E-17
 71.4332047   1.081023731E-17
 71.5602417   1.081034567E-17
 71.6872711   1.081035477E-17
 71.8143082   1.081024972E-17
 71.9413376   1.081002059E-17
 72.068367   1.080966573E-17
 72.1954041   1.080918514E-17
 72.3224335   1.080858874E-17
 72.4494705   1.080789225E-17
 72.5764999   1.080711718E-17
 72.703537   1.080629E-17
 72.8305664   1.080544628E-17
 72.9575958   1.080462406E-17
 73.0846329   1.08038705E-17
 73.2116623   1.080323274E-17
 73.3386993   1.080276208E-17
 73.4657288   1.080250813E-17
 73.5927658   1.080251558E-17
 73.7197952   1.080282494E-17
 73.8468246   1.08034627E-17
 73.9738617   1.080444208E-17
 74.1008911   1.080575813E-17
 74.2279282   1.080739015E-17
 74.3549576   1.080929763E-17
 74.481987   1.081142101E-17
 74.609024   1.081368417E-17
 74.7360535   1.081599531E-17
 74.8630905   1.081825021E-17
 74.9901199   1.082033305E-17
 75.117157   1.08221239E-17
 75.2441864   1.082349784E-17
 75.3712158   1.082433826E-17
 75.4982529   1.082453513E-17
 75.6252823   1.082399911E-17
 75.7523193   1.082266404E-17
 75.8793488   1.0820496E-17
 76.0063858   1.081749913E-17
 76.1334152   1.081371891E-17
 76.2604446   1.080924635E-17
 76.3874817   1.080421709E-17
 76.5145111   1.079880981E-17
 76.6415482   1.07932404E-17
 76.7685776   1.078775785E-17
 76.8956146   1.078263347E-17
 77.022644   1.077815263E-17
 77.1496735   1.077460071E-17
 77.2767105   1.077225152E-17
 77.4037399   1.077135403E-17
 77.530777   1.077211669E-17
 77.6578064   1.077469005E-17
 77.7848358   1.077915848E-17
 77.9118729   1.078552363E-17
 78.0389023   1.079369618E-17
 78.1659393   1.080348752E-17
 78.2929688   1.081461392E-17
 78.4200058   1.082669241E-17
 78.5470352   1.083925315E-17
 78.6740646   1.085175433E-17
 78.8011017   1.08635979E-17
 78.9281311   1.087415356E-17
 79.0551682   1.088278353E-17
 79.1821976   1.088887737E-17
 79.3092346   1.089187673E-17
 79.436264   1.089131011E-17
 79.5632935   1.088682762E-17
 79.6903305   1.087822659E-17
 79.8173599   1.086547809E-17
 79.944397   1.084875249E-17
 80.0714264   1.082842701E-17
 80.1984634   1.080509142E-17
 80.3254929   1.077954891E-17
 80.4525223   1.075278962E-17
 80.5795593   1.072597325E-17
 80.7065887   1.070038524E-17
 80.8336258   1.067738631E-17
 80.9606552   1.06583595E-17
 81.0876846   1.064463989E-17
 81.2147217   1.063744755E-17
 81.3417511   1.063781399E-17
 81.4687881   1.064651262E-17
 81.5958176   1.066399095E-17
 81.7228546   1.069031515E-17
 81.849884   1.072512042E-17
 81.9769135   1.076758788E-17
 82.1039505   1.081642628E-17
 82.2309799   1.086989027E-17
 82.358017   1.092581016E-17
 82.4850464   1.098165808E-17
 82.6120834   1.103463404E-17
 82.7391129   1.108177258E-17
 82.8661423   1.112007683E-17
 82.9931793   1.11466649E-17
 83.1202087   1.115892951E-17
 83.2472458   1.115470013E-17
 83.3742752   1.113239934E-17
 83.5013123   1.1091195E-17
 83.6283417   1.103112431E-17
 83.7553711   1.095318653E-17
 83.8824081   1.085941072E-17
 84.0094376   1.075286075E-17
 84.1364746   1.063760472E-17
 84.263504   1.051861809E-17
 84.3905334   1.040163242E-17
 84.5175705   1.029293344E-17
 84.6445999   1.019909725E-17
 84.771637   1.012668917E-17
 84.8986664   1.008192298E-17
 85.0257034   1.007030771E-17
 85.1527328   1.009627704E-17
 85.2797623   1.016284358E-17
 85.4067993   1.027127868E-17
 85.5338287   1.042084865E-17
 85.6608658   1.060862031E-17
 85.7878952   1.08293609E-17
 85.9149323   1.107553647E-17
 86.0419617   1.133743756E-17
 86.1689911   1.160341749E-17
 86.2960281   1.186026865E-17
 86.4230576   1.209371308E-17
 86.5500946   1.228900298E-17
 86.677124   1.243161719E-17
 86.8041611   1.250801476E-17
 86.9311905   1.250643485E-17
 87.0582199   1.241768416E-17
 87.185257   1.22358864E-17
 87.3122864   1.195914734E-17
 87.4393234   1.159009327E-17
 87.5663528   1.113624077E-17
 87.6933823   1.061016548E-17
 87.8204193   1.002943671E-17
 87.9474487   9.416300666E-18
 88.0744858   8.797099729E-18
 88.2015152   8.201432908E-18
 88.3285522   7.661063938E-18
 88.4555817   7.208616822E-18
 88.5826111   6.876092284E-18
 88.7096481   6.693266343E-18
 88.8366776   6.686026445E-18
 88.9637146   6.874737776E-18
 89.090744   7.272699331E-18
 89.2177811   7.884788169E-18
 89.3448105   8.706368769E-18
 89.4718399   9.722540299E-18
 89.598877   1.090779499E-17
 89.7259064   1.222612815E-17
 89.8529434   1.363165774E-17
 89.9799728   1.506973853E-17
 90.1070099   1.647859255E-17
 90.2340393   1.779141421E-17
 90.3610687   1.893888246E-17
 90.4881058   1.985203361E-17
 90.6151352   2.04653566E-17
 90.7421722   2.072003558E-17
 90.8692017   2.056716268E-17
 90.9962311   1.997081013E-17
 91.1232681   1.891080299E-17
 91.2502975   1.73850518E-17
 91.3773346   1.541130291E-17
 91.504364   1.302819226E-17
 91.6314011   1.029550846E-17
 91.7584305   7.293581506E-18
 91.8854599   4.121757861E-18
 92.0124969   8.959740188E-19
 92.1395264   -2.254571336E-18
 92.2665634   -5.191550961E-18
 92.3935928   -7.772358608E-18
 92.5206299   -9.855523645E-18
 92.6476593   -1.130652996E-17
 92.7746887   -1.200383412E-17
 92.9017258   -1.18448591E-17
 93.0287552   -1.07517482E-17
 93.1557922   -8.6766217E-18
 93.2828217   -5.606121889E-18
 93.4098587   -1.565001317E-18
 93.5368881   3.381426663E-18
 93.6639175   9.126171202E-18
 93.7909546   1.552091427E-17
 93.917984   2.237793383E-17
 94.0450211   2.947365953E-17
 94.1720505   3.655386897E-17
 94.2990799   4.334046238E-17
 94.4261169   4.953976748E-17
 94.5531464   5.48521232E-17
 94.6801834   5.898263636E-17
 94.8072128   6.165276214E-17
 94.9342499   6.261238429E-17
 95.0612793   6.165209378E-17
 95.1883087   5.861516964E-17
 95.3153458   5.340881876E-17
 95.4423752   4.601427077E-17
 95.5694122   3.649508289E-17
 95.6964417   2.500335877E-17
 95.8234787   1.178320933E-17
 95.9505081   -2.828831963E-18
 96.0775375   -1.840691268E-17
 96.2045746   -3.444271545E-17
 96.331604   -5.035628739E-17
 96.4586411   -6.55109178E-17
 96.5856705   -7.923193172E-17
 96.7126999   -9.082918258E-17
 96.8397369   -9.96227213E-17
 96.9667664   -1.049711719E-16
 97.0938034   -1.063016952E-16
 97.2208328   -1.031408065E-16
 97.3478699   -9.514469634E-17
 97.4748993   -8.212768591E-17
 97.6019287   -6.408754511E-17
 97.7289658   -4.122601668E-17
 97.8559952   -1.39631909E-17
 97.9830322   1.705569826E-17
 98.1100616   5.096221704E-17
 98.2370987   8.667644474E-17
 98.3641281   1.229290711E-16
 98.4911575   1.582942054E-16
 98.6181946   1.912325506E-16
 98.745224   2.201444056E-16
 98.872261   2.434312075E-16
 98.9992905   2.595636911E-16
 99.1263275   2.67154721E-16
 99.2533569   2.650335387E-16
 99.3803864   2.523187271E-16
 99.5074234   2.284860787E-16
 99.6344528   1.934282188E-16
 99.7614899   1.475016954E-16
 99.8885193   9.155896102E-17
 100.015549   2.696138958E-17
 100.142586   -4.442846627E-17
 100.269615   -1.202776991E-16
 100.396652   -1.978376209E-16
 100.523682   -2.740219082E-16
 100.650719   -3.455073332E-16
 100.777748   -4.088545186E-16
 100.904778   -4.606453688E-16
 101.031815   -4.976324918E-16
 101.158844   -5.168951857E-16
 101.285881   -5.15995372E-16
 101.41291   -4.931271765E-16
 101.539948   -4.472517132E-16
 101.666977   -3.7821154E-16
 101.794006   -2.868163674E-16
 101.921043   -1.748947806E-16
 102.048073   -4.530630342E-17
 102.17511   9.808979019E-17
 102.302139   2.505114235E-16
 102.429176   4.063767355E-16
 102.556206   5.594715615E-16
 102.683235   7.031583661E-16
 102.810272   8.306197251E-16
 102.937302   9.351306206E-16
 103.064339   1.010348523E-15
 103.191368   1.050611599E-15
 103.318398   1.051231839E-15
 103.445435   1.0087723E-15
 103.572464   9.212937022E-16
 103.699501   7.885585042E-16
 103.82653   6.121814159E-16
 103.953568   3.957146553E-16
 104.080597   1.446604822E-16
 104.207626   -1.335951614E-16
 104.334663   -4.299319012E-16
 104.461693   -7.337264616E-16
 104.58873   -1.033163567E-15
 104.715759   -1.31562015E-15
 104.842796   -1.568112413E-15
 104.969826   -1.777792137E-15
 105.096855   -1.932477717E-15
 105.223892   -2.021199336E-15
 105.350922   -2.034738522E-15
 105.477959   -1.966141983E-15
 105.604988   -1.811183446E-15
 105.732025   -1.568754676E-15
 105.859055   -1.241164048E-15
 105.986084   -8.343225297E-16
 106.113121   -3.578023606E-16
 106.24015   1.752444332E-16
 106.367188   7.483149101E-16
 106.494217   1.341934817E-15
 106.621246   1.934185124E-15
 106.748283   2.501367067E-15
 106.875313   3.018789849E-15
 107.00235   3.461661872E-15
 107.129379   3.806056151E-15
 107.256416   4.029920183E-15
 107.383446   4.1140962E-15
 107.510475   4.043306692E-15
 107.637512   3.807071744E-15
 107.764542   3.400512234E-15
 107.891579   2.824999298E-15
 108.018608   2.08861363E-15
 108.145645   1.206379793E-15
 108.272675   2.002505795E-16
 108.399704   -9.011810107E-16
 108.526741   -2.063249863E-15
 108.65377   -3.246069541E-15
 108.780807   -4.405652563E-15
 108.907837   -5.495282099E-15
 109.034874   -6.467097823E-15
 109.161903   -7.273852236E-15
 109.288933   -7.870783459E-15
 109.41597   -8.217540113E-15
 109.542999   -8.280089261E-15
 109.670036   -8.032523553E-15
 109.797066   -7.45870193E-15
 109.924095   -6.553638332E-15
 110.051132   -5.324562185E-15
 110.178162   -3.791596028E-15
 110.305199   -1.98798061E-15
 110.432228   4.018343823E-17
 110.559265   2.234712837E-15
 110.686295   4.526640208E-15
 110.813324   6.838024562E-15
 110.940361   9.084241165E-15
 111.06739   1.117669291E-14
 111.194427   1.302587087E-14
 111.321457   1.45446704E-14
 111.448494   1.565184749E-14
 111.575523   1.627549922E-14
 111.702553   1.635641797E-14
 111.82959   1.585120517E-14
 111.956619   1.473498176E-14
 112.083656   1.30035956E-14
 112.210686   1.067516216E-14
 112.337723   7.79088877E-15
 112.464752   4.415068182E-15
 112.591782   6.342069725E-16
 112.718819   -3.444726719E-15
 112.845848   -7.696940111E-15
 112.972885   -1.198326055E-14
 113.099915   -1.615432099E-14
 113.226944   -2.005536511E-14
 113.353981   -2.353151887E-14
 113.48101   -2.64333538E-14
 113.608047   -2.862256466E-14
 113.735077   -2.997751922E-14
 113.862114   -3.03985217E-14
 113.989143   -2.981251381E-14
 114.116173   -2.817709987E-14
 114.24321   -2.548362996E-14
 114.370239   -2.175926675E-14
 114.497276   -1.706788499E-14
 114.624306   -1.150971832E-14
 114.751343   -5.219759222E-15
 114.878372   1.635123519E-15
 115.005402   8.86026109E-15
 115.132439   1.623835682E-14
 115.259468   2.353564392E-14
 115.386505   3.050881555E-14
 115.513535   3.691253371E-14
 115.640572   4.250731847E-14
 115.767601   4.70675304E-14
 115.89463   5.038924126E-14
 116.021667   5.229771491E-14
 116.148697   5.265428189E-14
 116.275734   5.136236014E-14
 116.402763   4.837244903E-14
 116.529793   4.368592754E-14
 116.65683   3.735743607E-14
 116.783859   2.949583191E-14
 116.910896   2.026356581E-14
 117.037926   9.874466154E-15
 117.164963   -1.410108581E-15
 117.291992   -1.328667824E-14
 117.419022   -2.541659069E-14
 117.546059   -3.743437377E-14
 117.673088   -4.895738627E-14
 117.800125   -5.959655377E-14
 117.927155   -6.896797044E-14
 118.054192   -7.670515563E-14
 118.181221   -8.247160008E-14
 118.30825   -8.597327494E-14
 118.435287   -8.697081548E-14
 118.562317   -8.529075612E-14
 118.689354   -8.083569485E-14
 118.816383   -7.359263481E-14
 118.943413   -6.363926584E-14
 119.07045   -5.114773215E-14
 119.197479   -3.638541156E-14
 119.324516   -1.97124777E-14
 119.451546   -1.575978808E-15
 119.578583   1.749971255E-14
 119.705612   3.692604219E-14
 119.832642   5.606691326E-14