 -7.19999981   -7.912887934E-20
 -7.07315636   -7.912429107E-20
 -6.9463129   -7.911592233E-20
 -6.81946898   -7.910447105E-20
 -6.69262552   -7.909046714E-20
 -6.56578159   -7.907447929E-20
 -6.43893814   -7.905878225E-20
 -6.31209469   -7.904396408E-20
 -6.18525076   -7.903078089E-20
 -6.05840731   -7.902017618E-20
 -5.93156338   -7.901246659E-20
 -5.80471992   -7.900753582E-20
 -5.67787647   -7.90053774E-20
 -5.55103254   -7.900544202E-20
 -5.42418909   -7.900756813E-20
 -5.29734564   -7.901000444E-20
 -5.17050171   -7.901213055E-20
 -5.04365826   -7.901244075E-20
 -4.91681433   -7.90111095E-20
 -4.78997087   -7.900610118E-20
 -4.66312742   -7.899832698E-20
 -4.53628349   -7.898719235E-20
 -4.40944004   -7.89731949E-20
 -4.28259611   -7.895634756E-20
 -4.15575266   -7.893805911E-20
 -4.02890921   -7.891894349E-20
 -3.90206528   -7.890033192E-20
 -3.77522182   -7.88832067E-20
 -3.64837813   -7.886853071E-20
 -3.52153444   -7.88564655E-20
 -3.39469075   -7.884819369E-20
 -3.2678473   -7.884347618E-20
 -3.14100361   -7.88420997E-20
 -3.01415992   -7.884368298E-20
 -2.88731623   -7.884751515E-20
 -2.76047254   -7.885282074E-20
 -2.63362908   -7.885832666E-20
 -2.50678539   -7.886335436E-20
 -2.3799417   -7.886607501E-20
 -2.25309801   -7.886566142E-20
 -2.12625432   -7.886202958E-20
 -1.99941075   -7.885499855E-20
 -1.87256718   -7.884423874E-20
 -1.74572349   -7.883088753E-20
 -1.61887991   -7.881544251E-20
 -1.49203622   -7.879830436E-20
 -1.36519253   -7.878079786E-20
 -1.23834896   -7.876455798E-20
 -1.11150527   -7.874992722E-20
 -0.984661698   -7.873773923E-20
 -0.857818007   -7.872849161E-20
 -0.730974376   -7.872277243E-20
 -0.604130745   -7.871989023E-20
 -0.477287114   -7.871967051E-20
 -0.350443482   -7.872184186E-20
 -0.223599836   -7.872484685E-20
 -9.675619751E-2   -7.872863378E-20
 3.008744121E-2   -7.873188435E-20
 0.156931072   -7.873344823E-20
 0.283774734   -7.873278261E-20
 0.410618365   -7.87290603E-20
 0.537461996   -7.872218436E-20
 0.664305627   -7.871227758E-20
 0.791149259   -7.869981171E-20
 0.91799289   -7.8684916E-20
 1.04483652   -7.866837238E-20
 1.17168021   -7.865217128E-20
 1.29852378   -7.863644838E-20
 1.42536747   -7.86225608E-20
 1.55221117   -7.861101258E-20
 1.67905474   -7.860250167E-20
 1.80589843   -7.85973641E-20
 1.932742   -7.859519275E-20
 2.05958557   -7.859624611E-20
 2.18642926   -7.859941913E-20
 2.31327295   -7.860395569E-20
 2.44011664   -7.860966841E-20
 2.56696033   -7.861495461E-20
 2.69380379   -7.861890311E-20
 2.82064748   -7.862108738E-20
 2.94749117   -7.862060917E-20
 3.07433486   -7.861749431E-20
 3.20117831   -7.86110772E-20
 3.328022   -7.860272139E-20
 3.45486569   -7.859256904E-20
 3.58170938   -7.858110483E-20
 3.70855308   -7.856908486E-20
 3.83539653   -7.855796316E-20
 3.96224022   -7.854796591E-20
 4.08908367   -7.85401917E-20
 4.2159276   -7.853470517E-20
 4.34277105   -7.853197159E-20
 4.46961498   -7.853198452E-20
 4.59645844   -7.853409771E-20
 4.72330189   -7.853821422E-20
 4.85014582   -7.854333886E-20
 4.97698927   -7.854913559E-20
 5.1038332   -7.855594044E-20
 5.23067665   -7.856163377E-20
 5.3575201   -7.856606048E-20
 5.48436403   -7.856850971E-20
 5.61120749   -7.856854849E-20
 5.73805141   -7.856642237E-20
 5.86489487   -7.856171778E-20
 5.99173832   -7.855489354E-20
 6.11858225   -7.854653773E-20
 6.2454257   -7.85367085E-20
 6.37226963   -7.85265303E-20
 6.49911308   -7.851631332E-20
 6.62595654   -7.850746637E-20
 6.75280046   -7.850016391E-20
 6.87964392   -7.84948971E-20
 7.00648737   -7.849203428E-20
 7.1333313   -7.849118771E-20
 7.26017475   -7.849266759E-20
 7.38701868   -7.84948454E-20
 7.51386213   -7.849821229E-20
 7.64070559   -7.850241927E-20
 7.76754951   -7.850645178E-20
 7.89439297   -7.85099673E-20
 8.02123642   -7.851193831E-20
 8.14808083   -7.851213218E-20
 8.27492428   -7.851029041E-20
 8.40176773   -7.850735651E-20
 8.52861118   -7.850194106E-20
 8.65545464   -7.849531069E-20
 8.78229809   -7.848843475E-20
 8.90914249   -7.848210811E-20
 9.03598595   -7.847622738E-20
 9.1628294   -7.847141293E-20
 9.28967285   -7.846889907E-20
 9.4165163   -7.846825284E-20
 9.54336071   -7.846890553E-20
 9.67020416   -7.847093471E-20
 9.79704762   -7.847487028E-20
 9.92389107   -7.847881231E-20
 10.0507345   -7.848273496E-20
 10.1775789   -7.848612123E-20
 10.3044224   -7.848828612E-20
 10.4312658   -7.848953335E-20
 10.5581093   -7.848878372E-20
 10.6849527   -7.84858692E-20
 10.8117971   -7.848139079E-20
 10.9386406   -7.847541312E-20
 11.065484   -7.846811713E-20
 11.1923275   -7.846034938E-20
 11.319171   -7.845294353E-20
 11.4460154   -7.844666213E-20
 11.5728588   -7.844126607E-20
 11.6997023   -7.843795735E-20
 11.8265457   -7.843665842E-20
 11.9533892   -7.843678766E-20
 12.0802336   -7.843823523E-20
 12.207077   -7.844069738E-20
 12.3339205   -7.844391563E-20
 12.4607639   -7.844640364E-20
 12.5876074   -7.844885933E-20
 12.7144518   -7.845050077E-20
 12.8412952   -7.845110823E-20
 12.9681387   -7.844988038E-20
 13.0949821   -7.844734068E-20
 13.2218256   -7.844367006E-20
 13.34867   -7.843895901E-20
 13.4755135   -7.843360172E-20
 13.6023569   -7.84286451E-20
 13.7292004   -7.842410853E-20
 13.8560438   -7.842050901E-20
 13.9828882   -7.841822133E-20
 14.1097317   -7.841810501E-20
 14.2365751   -7.841997263E-20
 14.3634186   -7.842334598E-20
 14.490262   -7.842852232E-20
 14.6171055   -7.843472617E-20
 14.7439499   -7.844085894E-20
 14.8707933   -7.844559584E-20
 14.9976368   -7.844833588E-20
 15.1244802   -7.84481614E-20
 15.2513237   -7.844518225E-20
 15.3781681   -7.843966987E-20
 15.5050116   -7.843172118E-20
 15.631855   -7.842176916E-20
 15.7586985   -7.841047944E-20
 15.8855419   -7.839911863E-20
 16.0123863   -7.838860439E-20
 16.1392288   -7.837987376E-20
 16.2660732   -7.837369575E-20
 16.3929176   -7.837018024E-20
 16.5197601   -7.836972787E-20
 16.6466045   -7.837246791E-20
 16.773447   -7.837694631E-20
 16.9002914   -7.838341513E-20
 17.0271358   -7.839066588E-20
 17.1539783   -7.83973221E-20
 17.2808228   -7.840343548E-20
 17.4076653   -7.840675067E-20
 17.5345097   -7.840785573E-20
 17.6613541   -7.840537419E-20
 17.7881966   -7.839962916E-20
 17.915041   -7.839074989E-20
 18.0418835   -7.837951187E-20
 18.1687279   -7.836727218E-20
 18.2955723   -7.835514881E-20
 18.4224148   -7.834411758E-20
 18.5492592   -7.833555497E-20
 18.6761017   -7.833025585E-20
 18.8029461   -7.832870488E-20
 18.9297905   -7.833066944E-20
 19.056633   -7.833558728E-20
 19.1834774   -7.834269587E-20
 19.3103199   -7.835033436E-20
 19.4371643   -7.835761097E-20
 19.5640087   -7.836334307E-20
 19.6908512   -7.83662382E-20
 19.8176956   -7.83653981E-20
 19.9445381   -7.836060304E-20
 20.0713825   -7.83518207E-20
 20.1982269   -7.833952932E-20
 20.3250694   -7.832455606E-20
 20.4519138   -7.830790905E-20
 20.5787563   -7.829183718E-20
 20.7056007   -7.827727751E-20
 20.8324451   -7.82654708E-20
 20.9592876   -7.825816835E-20
 21.086132   -7.825574497E-20
 21.2129745   -7.825847208E-20
 21.339819   -7.826616227E-20
 21.4666634   -7.82776911E-20
 21.5935059   -7.829278715E-20
 21.7203503   -7.830910458E-20
 21.8471928   -7.832551248E-20
 21.9740372   -7.834011093E-20
 22.1008816   -7.835143943E-20
 22.2277241   -7.835800517E-20
 22.3545685   -7.835943335E-20
 22.481411   -7.835580797E-20
 22.6082554   -7.834690286E-20
 22.7350998   -7.833470194E-20
 22.8619423   -7.832071096E-20
 22.9887867   -7.830600265E-20
 23.1156292   -7.829303272E-20
 23.2424736   -7.828298377E-20
 23.369318   -7.827692855E-20
 23.4961605   -7.827507385E-20
 23.6230049   -7.827793021E-20
 23.7498474   -7.828500648E-20
 23.8766918   -7.829502958E-20
 24.0035343   -7.830694616E-20
 24.1303787   -7.831881103E-20
 24.2572231   -7.83294222E-20
 24.3840656   -7.833708655E-20
 24.51091   -7.834037588E-20
 24.6377525   -7.833883138E-20
 24.7645969   -7.833247889E-20
 24.8914413   -7.832136366E-20
 25.0182838   -7.830644855E-20
 25.1451283   -7.828953013E-20
 25.2719707   -7.827107366E-20
 25.3988152   -7.825333451E-20
 25.5256596   -7.823792827E-20
 25.6525021   -7.822643176E-20
 25.7793465   -7.82197303E-20
 25.906189   -7.82175848E-20
 26.0330334   -7.82201245E-20
 26.1598778   -7.822685827E-20
 26.2867203   -7.823756638E-20
 26.4135647   -7.825045877E-20
 26.5404072   -7.826470825E-20
 26.6672516   -7.827781389E-20
 26.794096   -7.828902606E-20
 26.9209385   -7.829708461E-20
 27.0477829   -7.830162118E-20
 27.1746254   -7.830127221E-20
 27.3014698   -7.8297104E-20
 27.4283142   -7.828919408E-20
 27.5551567   -7.827875739E-20
 27.6820011   -7.826598133E-20
 27.8088436   -7.825268181E-20
 27.935688   -7.824024179E-20
 28.0625324   -7.822901669E-20
 28.1893749   -7.822069319E-20
 28.3162193   -7.821615016E-20
 28.4430618   -7.821573657E-20
 28.5699062   -7.821972384E-20
 28.6967506   -7.822740111E-20
 28.8235931   -7.823882654E-20
 28.9504375   -7.825274644E-20
 29.07728   -7.826805574E-20
 29.2041245   -7.828286744E-20
 29.3309689   -7.829632205E-20
 29.4578114   -7.830699785E-20
 29.5846558   -7.831407413E-20
 29.7114983   -7.831673015E-20
 29.8383427   -7.831514688E-20
 29.9651871   -7.830912397E-20
 30.0920296   -7.829972771E-20
 30.218874   -7.828744925E-20
 30.3457165   -7.827361982E-20
 30.4725609   -7.826043663E-20
 30.5994053   -7.824927616E-20
 30.7262478   -7.824073293E-20
 30.8530922   -7.823704939E-20
 30.9799347   -7.823776671E-20
 31.1067791   -7.824376377E-20
 31.2336235   -7.825474977E-20
 31.360466   -7.826953562E-20
 31.4873104   -7.828697104E-20
 31.6141529   -7.830510439E-20
 31.7409973   -7.832277891E-20
 31.8678417   -7.833724165E-20
 31.9946842   -7.834716135E-20
 32.1215286   -7.835138126E-20
 32.2483711   -7.834867354E-20
 32.3752136   -7.833987828E-20
 32.5020599   -7.832489856E-20
 32.6289024   -7.830488467E-20
 32.7557449   -7.82809869E-20
 32.8825912   -7.82555511E-20
 33.0094337   -7.822988911E-20
 33.1362762   -7.820562946E-20
 33.2631226   -7.81851632E-20
 33.3899651   -7.817037088E-20
 33.5168076   -7.816110387E-20
 33.6436501   -7.815817643E-20
 33.7704964   -7.816078076E-20
 33.8973389   -7.816793458E-20
 34.0241814   -7.817815155E-20
 34.1510277   -7.819057865E-20
 34.2778702   -7.820348396E-20
 34.4047127   -7.821511618E-20
 34.531559   -7.822395668E-20
 34.6584015   -7.822952076E-20
 34.785244   -7.823060643E-20
 34.9120865   -7.822801503E-20
 35.0389328   -7.822109386E-20
 35.1657753   -7.821110953E-20
 35.2926178   -7.819847564E-20
 35.4194641   -7.81846656E-20
 35.5463066   -7.817008654E-20
 35.6731491   -7.815597923E-20
 35.7999954   -7.814366846E-20
 35.9268379   -7.813332224E-20
 36.0536804   -7.812616196E-20
 36.1805229   -7.812152845E-20
 36.3073692   -7.811996456E-20
 36.4342117   -7.812104378E-20
 36.5610542   -7.812395183E-20
 36.6879005   -7.812851425E-20
 36.814743   -7.813388446E-20
 36.9415855   -7.813933868E-20
 37.0684319   -7.814432115E-20
 37.1952744   -7.81477979E-20
 37.3221169   -7.814926485E-20
 37.4489594   -7.814770743E-20
 37.5758057   -7.814244707E-20
 37.7026482   -7.813365828E-20
 37.8294907   -7.812175463E-20
 37.956337   -7.810602528E-20
 38.0831795   -7.80870389E-20
 38.210022   -7.806585532E-20
 38.3368683   -7.80431854E-20
 38.4637108   -7.802061242E-20
 38.5905533   -7.799880845E-20
 38.7173958   -7.797955712E-20
 38.8442421   -7.796342709E-20
 38.9710846   -7.79516527E-20
 39.0979271   -7.794451826E-20
 39.2247734   -7.794199795E-20
 39.3516159   -7.794349721E-20
 39.4784584   -7.794869294E-20
 39.6053047   -7.795599539E-20
 39.7321472   -7.79649716E-20
 39.8589897   -7.797295906E-20
 39.9858322   -7.797930508E-20
 40.1126785   -7.798243286E-20
 40.239521   -7.798189649E-20
 40.3663635   -7.79775344E-20
 40.4932098   -7.79687133E-20
 40.6200523   -7.7956577E-20
 40.7468948   -7.79414228E-20
 40.8737411   -7.792418771E-20
 41.0005836   -7.79061513E-20
 41.1274261   -7.788890329E-20
 41.2542686   -7.787371031E-20
 41.381115   -7.786100533E-20
 41.5079575   -7.785159615E-20
 41.6348   -7.78458382E-20
 41.7616463   -7.784360223E-20
 41.8884888   -7.784412568E-20
 42.0153313   -7.78457348E-20
 42.1421776   -7.784761535E-20
 42.2690201   -7.784806125E-20
 42.3958626   -7.784591575E-20
 42.5227051   -7.784061662E-20
 42.6495514   -7.783235774E-20
 42.7763939   -7.782031192E-20
 42.9032364   -7.780500908E-20
 43.0300827   -7.778726994E-20
 43.1569252   -7.776826417E-20
 43.2837677   -7.774883835E-20
 43.4106102   -7.772979381E-20
 43.5374565   -7.771241655E-20
 43.664299   -7.769694569E-20
 43.7911415   -7.768365264E-20
 43.9179878   -7.767291868E-20
 44.0448303   -7.766489244E-20
 44.1716728   -7.765867566E-20
 44.2985191   -7.765353163E-20
 44.4253616   -7.764865902E-20
 44.5522041   -7.764400613E-20
 44.6790466   -7.763842266E-20
 44.8058929   -7.763165012E-20
 44.9327354   -7.762379837E-20
 45.0595779   -7.761439565E-20
 45.1864243   -7.760333211E-20
 45.3132668   -7.759170634E-20
 45.4401093   -7.757993841E-20
 45.5669556   -7.756896534E-20
 45.6937981   -7.755891639E-20
 45.8206406   -7.755042486E-20
 45.9474831   -7.754310948E-20
 46.0743294   -7.75366019E-20
 46.2011719   -7.753093442E-20
 46.3280144   -7.75258227E-20
 46.4548607   -7.752093717E-20
 46.5817032   -7.751673018E-20
 46.7085457   -7.751221946E-20
 46.835392   -7.750788322E-20
 46.9622345   -7.750430954E-20
 47.089077   -7.750137564E-20
 47.2159195   -7.749934E-20
 47.3427658   -7.749831895E-20
 47.4696083   -7.749856451E-20
 47.5964508   -7.749981821E-20
 47.7232971   -7.7501828E-20
 47.8501396   -7.750416091E-20
 47.9769821   -7.750668769E-20
 48.1038284   -7.750878795E-20
 48.2306709   -7.751010627E-20
 48.3575134   -7.751068142E-20
 48.4843559   -7.750988009E-20
 48.6112022   -7.750765058E-20
 48.7380447   -7.750461974E-20
 48.8648872   -7.750069063E-20
 48.9917336   -7.749581155E-20
 49.118576   -7.749048012E-20
 49.2454185   -7.748465108E-20
 49.3722649   -7.747873803E-20
 49.4991074   -7.747288314E-20
 49.6259499   -7.746781666E-20
 49.7527924   -7.746284065E-20
 49.8796387   -7.745796804E-20
 50.0064812   -7.745283694E-20
 50.1333237   -7.744734394E-20
 50.26017   -7.744139858E-20
 50.3870125   -7.743439339E-20
 50.513855   -7.742654164E-20
 50.6407013   -7.741733926E-20
 50.7675438   -7.740740663E-20
 50.8943863   -7.73971638E-20
 51.0212288   -7.738708254E-20
 51.1480751   -7.737751826E-20
 51.2749176   -7.736899443E-20
 51.4017601   -7.736268717E-20
 51.5286064   -7.735853188E-20
 51.6554489   -7.735669012E-20
 51.7822914   -7.735760777E-20
 51.9091377   -7.736162735E-20
 52.0359802   -7.736845805E-20
 52.1628227   -7.737822912E-20
 52.2896652   -7.73904365E-20
 52.4165115   -7.740442748E-20
 52.543354   -7.741905178E-20
 52.6701965   -7.743351451E-20
 52.7970428   -7.744673002E-20
 52.9238853   -7.745776125E-20
 53.0507278   -7.746567762E-20
 53.1775742   -7.747023358E-20
 53.3044167   -7.747117062E-20
 53.4312592   -7.746866323E-20
 53.5581017   -7.746365491E-20
 53.684948   -7.745568037E-20
 53.8117905   -7.744638751E-20
 53.938633   -7.743623516E-20
 54.0654793   -7.742633485E-20
 54.1923218   -7.74174168E-20
 54.3191643   -7.740993987E-20
 54.4460106   -7.74040979E-20
 54.5728531   -7.739992969E-20
 54.6996956   -7.73972672E-20
 54.8265381   -7.739474689E-20
 54.9533844   -7.739187114E-20
 55.0802269   -7.738869813E-20
 55.2070694   -7.738419387E-20
 55.3339157   -7.737881073E-20
 55.4607582   -7.737218036E-20
 55.5876007   -7.736487145E-20
 55.7144432   -7.735677413E-20
 55.8412895   -7.734891591E-20
 55.968132   -7.734217568E-20
 56.0949745   -7.73375551E-20
 56.2218208   -7.733590074E-20
 56.3486633   -7.733693472E-20
 56.4755058   -7.734143897E-20
 56.6023521   -7.734956861E-20
 56.7291946   -7.736078724E-20
 56.8560371   -7.737417077E-20
 56.9828796   -7.738951885E-20
 57.109726   -7.740578458E-20
 57.2365685   -7.742177889E-20
 57.3634109   -7.743640965E-20
 57.4902573   -7.744908231E-20
 57.6170998   -7.745918943E-20
 57.7439423   -7.74655613E-20
 57.8707886   -7.746892172E-20
 57.9976311   -7.746965197E-20
 58.1244736   -7.746758402E-20
 58.2513161   -7.746385524E-20
 58.3781624   -7.745880168E-20
 58.5050049   -7.745299203E-20
 58.6318474   -7.744718238E-20
 58.7586937   -7.744222576E-20
 58.8855362   -7.743845821E-20
 59.0123787   -7.743578926E-20
 59.139225   -7.743465835E-20
 59.2660675   -7.743564709E-20
 59.39291   -7.743828373E-20
 59.5197525   -7.744265228E-20
 59.6465988   -7.74486041E-20
 59.7734413   -7.745606165E-20
 59.9002838   -7.746420421E-20
 60.0271301   -7.747300593E-20
 60.1539726   -7.748189166E-20
 60.2808151   -7.749016346E-20
 60.4076614   -7.749801522E-20
 60.5345039   -7.750468436E-20
 60.6613464   -7.751048755E-20
 60.7881889   -7.751526322E-20
 60.9150352   -7.751930865E-20
 61.0418777   -7.752250752E-20
 61.1687202   -7.752564176E-20
 61.2955666   -7.752833655E-20
 61.4224091   -7.753091503E-20
 61.5492516   -7.75326017E-20
 61.6760979   -7.753302822E-20
 61.8029404   -7.753298298E-20
 61.9297829   -7.753099258E-20
 62.0566254   -7.752733489E-20
 62.1834717   -7.75214283E-20
 62.3103142   -7.751320173E-20
 62.4371567   -7.750334665E-20
 62.564003   -7.749137192E-20
 62.6908455   -7.747786561E-20
 62.817688   -7.746246584E-20
 62.9445343   -7.744602562E-20
 63.0713768   -7.742800859E-20
 63.1982193   -7.740862801E-20
 63.3250618   -7.738907941E-20
 63.4519081   -7.736861961E-20
 63.5787506   -7.734768806E-20
 63.7055931   -7.732711195E-20
 63.8324394   -7.730711744E-20
 63.9592819   -7.728810521E-20
 64.0861282   -7.727017219E-20
 64.2129669   -7.725351226E-20
 64.3398132   -7.723831928E-20
 64.4666595   -7.722485174E-20
 64.5934982   -7.721309027E-20
 64.7203445   -7.720389435E-20
 64.8471909   -7.719685685E-20
 64.9740295   -7.719195839E-20
 65.1008759   -7.718891462E-20
 65.2277145   -7.718731196E-20
 65.3545609   -7.718704054E-20
 65.4814072   -7.718619397E-20
 65.6082458   -7.718449438E-20
 65.7350922   -7.718103702E-20
 65.8619385   -7.717533077E-20
 65.9887772   -7.71668457E-20
 66.1156235   -7.715516178E-20
 66.2424698   -7.714044055E-20
 66.3693085   -7.712243644E-20
 66.4961548   -7.710198957E-20
 66.6230011   -7.707900946E-20
 66.7498398   -7.705471103E-20
 66.8766861   -7.702985038E-20
 67.0035324   -7.700403976E-20
 67.1303711   -7.697844886E-20
 67.2572174   -7.695362051E-20
 67.3840637   -7.692901189E-20
 67.5109024   -7.690654877E-20
 67.6377487   -7.688663181E-20
 67.7645874   -7.687061165E-20
 67.8914337   -7.685890187E-20
 68.01828   -7.685346703E-20
 68.1451187   -7.685480474E-20
 68.271965   -7.68644401E-20
 68.3988113   -7.688267039E-20
 68.52565   -7.690919187E-20
 68.6524963   -7.694383005E-20
 68.7793427   -7.698484012E-20
 68.9061813   -7.703113638E-20
 69.0330276   -7.707993358E-20
 69.159874   -7.712891172E-20
 69.2867126   -7.717389612E-20
 69.413559   -7.7212192E-20
 69.5404053   -7.723985085E-20
 69.667244   -7.725256876E-20
 69.7940903   -7.724701114E-20
 69.920929   -7.721870605E-20
 70.0477753   -7.716528181E-20
 70.1746216   -7.708404363E-20
 70.3014603   -7.69733953E-20
 70.4283066   -7.683334328E-20
 70.5551529   -7.666533514E-20
 70.6819916   -7.647243404E-20
 70.8088379   -7.625803917E-20
 70.9356842   -7.60300152E-20
 71.0625229   -7.579658871E-20
 71.1893692   -7.556814468E-20
 71.3162155   -7.535736873E-20
 71.4430542   -7.517762496E-20
 71.5699005   -7.504299486E-20
 71.6967468   -7.496832242E-20
 71.8235855   -7.496777312E-20
 71.9504318   -7.505236526E-20
 72.0772781   -7.523217365E-20
 72.2041168   -7.551264604E-20
 72.3309631   -7.589468069E-20
 72.4578018   -7.637315298E-20
 72.5846481   -7.693825951E-20
 72.7114944   -7.757238392E-20
 72.8383331   -7.825237162E-20
 72.9651794   -7.894999507E-20
 73.0920258   -7.96310426E-20
 73.2188644   -8.025864004E-20
 73.3457108   -8.079287593E-20
 73.4725571   -8.119343814E-20
 73.5993958   -8.142121654E-20
 73.7262421   -8.144039679E-20
 73.8530884   -8.122178846E-20
 73.9799271   -8.074340665E-20
 74.1067734   -7.999276609E-20
 74.2336197   -7.897030623E-20
 74.3604584   -7.76896497E-20
 74.4873047   -7.617888186E-20
 74.614151   -7.447964608E-20
 74.7409897   -7.264996781E-20
 74.867836   -7.076040294E-20
 74.9946747   -6.889424471E-20
 75.121521   -6.714423426E-20
 75.2483673   -6.560942648E-20
 75.375206   -6.439029797E-20
 75.5020523   -6.35848567E-20
 75.6288986   -6.328378881E-20
 75.7557373   -6.356330477E-20
 75.8825836   -6.448210209E-20
 76.0094299   -6.6073785E-20
 76.1362686   -6.834446687E-20
 76.2631149   -7.12663596E-20
 76.3899612   -7.477842631E-20
 76.5167999   -7.878256855E-20
 76.6436462   -8.314694148E-20
 76.7704926   -8.770585695E-20
 76.8973312   -9.22652571E-20
 77.0241776   -9.660942227E-20
 77.1510239   -1.005082929E-19
 77.2778625   -1.037279512E-19
 77.4047089   -1.060409033E-19
 77.5315475   -1.072394169E-19
 77.6583939   -1.071460295E-19
 77.7852402   -1.056255229E-19
 77.9120789   -1.025973827E-19
 78.0389252   -9.804535611E-20
 78.1657715   -9.202229865E-20
 78.2926102   -8.465872391E-20
 78.4194565   -7.616127842E-20
 78.5463028   -6.681255422E-20
 78.6731415   -5.696309495E-20
 78.7999878   -4.702393505E-20
 78.9268341   -3.745142941E-20
 79.0536728   -2.872921052E-20
 79.1805191   -2.134909863E-20
 79.3073654   -1.578869039E-20
 79.4342041   -1.248394632E-20
 79.5610504   -1.180751534E-20
 79.6878967   -1.404266237E-20
 79.8147354   -1.936204278E-20
 79.9415817   -2.780749867E-20
 80.0684204   -3.927642572E-20
 80.1952667   -5.351289877E-20
 80.322113   -7.010450042E-20
 80.4489517   -8.848891911E-20
 80.575798   -1.079644084E-19
 80.7026443   -1.277128867E-19
 80.829483   -1.468265491E-19
 80.9563293   -1.643445155E-19
 81.0831757   -1.7929291E-19
 81.2100143   -1.907309825E-19
 81.3368607   -1.977999905E-19
 81.463707   -1.997712265E-19
 81.5905457   -1.960948611E-19
 81.717392   -1.864402933E-19
 81.8442383   -1.707351061E-19
 81.971077   -1.491919884E-19
 82.0979233   -1.223247744E-19
 82.224762   -9.095250854E-20
 82.3516083   -5.618864064E-20
 82.4784546   -1.941586768E-20
 82.6052933   1.775497302E-20
 82.7321396   5.354174992E-20
 82.8589859   8.605859139E-20
 82.9858246   1.133994697E-19
 83.1126709   1.337265932E-19
 83.2395172   1.453670406E-19
 83.3663559   1.469107794E-19
 83.4932022   1.37304886E-19
 83.6200485   1.159420678E-19
 83.7468872   8.273405557E-20
 83.8737335   3.817188111E-20
 84.0005798   -1.663989478E-20
 84.1274185   -7.99728039E-20
 84.2542648   -1.494914407E-19
 84.3811111   -2.223057719E-19
 84.5079498   -2.950516022E-19
 84.6347961   -3.640056624E-19
 84.7616348   -4.252294613E-19
 84.8884811   -4.747381855E-19
 85.0153275   -5.086943115E-19
 85.1421661   -5.236102908E-19
 85.2690125   -5.165635909E-19
 85.3958588   -4.854012674E-19
 85.5226974   -4.28938229E-19
 85.6495438   -3.471246121E-19
 85.7763901   -2.411810254E-19
 85.9032288   -1.136866953E-19
 86.0300751   3.13877884E-20
 86.1569214   1.887141482E-19
 86.2837601   3.517079424E-19
 86.4106064   5.127047933E-19
 86.5374527   6.632115466E-19
 86.6642914   7.942259437E-19
 86.7911377   8.966237691E-19
 86.917984   9.615952907E-19
 87.0448227   9.811221299E-19
 87.171669   9.484718635E-19
 87.2985077   8.5868999E-19
 87.425354   7.090639257E-19
 87.5522003   4.995358712E-19
 87.679039   2.330282557E-19
 87.8058853   -8.433262088E-20
 87.9327316   -4.431262893E-19
 88.0595703   -8.307024891E-19
 88.1864166   -1.231412301E-18
 88.3132629   -1.627015875E-18
 88.4401016   -1.997270809E-18
 88.5669479   -2.32068995E-18
 88.6937943   -2.575453721E-18
 88.8206329   -2.740448335E-18
 88.9474792   -2.796391387E-18
 89.0743256   -2.727004789E-18
 89.2011642   -2.520171586E-18
 89.3280106   -2.169026592E-18
 89.4548569   -1.672913025E-18
 89.5816956   -1.038139379E-18
 89.7085419   -2.784834589E-19
 89.8353806   5.846179112E-19
 89.9622269   1.522236596E-18
 90.0890732   2.498509587E-18
 90.2159119   3.471594726E-18
 90.3427582   4.395031038E-18
 90.4696045   5.219473683E-18
 90.5964432   5.894755811E-18
 90.7232895   6.372217282E-18
 90.8501358   6.607205232E-18
 90.9769745   6.561644537E-18
 91.1038208   6.206555752E-18
 91.2306671   5.524398513E-18
 91.3575058   4.511094404E-18
 91.4843521   3.177606051E-18
 91.6111984   1.550956307E-18
 91.7380371   -3.25430017E-19
 91.8648834   -2.392130024E-18
 91.9917297   -4.574935377E-18
 92.1185684   -6.786880855E-18
 92.2454147   -8.931069074E-18
 92.3722534   -1.090422736E-17
 92.4990997   -1.260089557E-17
 92.625946   -1.391808143E-17
 92.7527847   -1.476022574E-17
 92.879631   -1.504425144E-17
 93.0064774   -1.470445888E-17
 93.133316   -1.36970414E-17
 93.2601624   -1.200396233E-17
 93.3870087   -9.635969231E-18
 93.5138474   -6.634536933E-18
 93.6406937   -3.072569416E-18
 93.76754   9.462511938E-19
 93.8943787   5.289554492E-18
 94.021225   9.799798141E-18
 94.1480713   1.429914534E-17
 94.27491   1.859559589E-17
 94.4017563   2.249015412E-17
 94.528595   2.578479465E-17
 94.6554413   2.829092691E-17
 94.7822876   2.983804251E-17
 94.9091263   3.028213262E-17
 95.0359726   2.951359912E-17
 95.1628189   2.746420952E-17
 95.2896576   2.411286741E-17
 95.4165039   1.948979633E-17
 95.5433502   1.367898322E-17
 95.6701889   6.81864459E-18
 95.7970352   -9.003615915E-19
 95.9238815   -9.238255829E-18
 96.0507202   -1.791213294E-17
 96.1775665   -2.660372992E-17
 96.3044128   -3.496901407E-17
 96.4312515   -4.26493232E-17
 96.5580978   -4.92838014E-17
 96.6849442   -5.452273988E-17
 96.8117828   -5.804148349E-17
 96.9386292   -5.9554463E-17
 97.0654678   -5.882891311E-17
 97.1923141   -5.569782935E-17
 97.3191605   -5.007166777E-17
 97.4459991   -4.194838689E-17
 97.5728455   -3.142125297E-17
 97.6996918   -1.868410421E-17
 97.8265305   -4.033510511E-18
 97.9533768   1.213242348E-17
 98.0802231   2.93189966E-17
 98.2070618   4.694385303E-17
 98.3339081   6.435003268E-17
 98.4607544   8.0823189E-17
 98.5875931   9.561285409E-17
 98.7144394   1.07957552E-16
 98.8412857   1.171131576E-16
 98.9681244   1.223839921E-16
 99.0949707   1.23155745E-16
 99.221817   1.18929183E-16
 99.3486557   1.093532902E-16
 99.475502   9.425652273E-17
 99.6023407   7.367462135E-17
 99.729187   4.787314082E-17
 99.8560333   1.736329861E-17
 99.982872   -1.709062679E-17
 100.109718   -5.447375756E-17
 100.236565   -9.353410951E-17
 100.363403   -1.328079766E-16
 100.49025   -1.706576571E-16
 100.617096   -2.053212496E-16
 100.743935   -2.349741129E-16
 100.870781   -2.578003008E-16
 100.997627   -2.720722766E-16
 101.124466   -2.762361847E-16
 101.251312   -2.68999294E-16
 101.378159   -2.49416104E-16
 101.504997   -2.169690247E-16
 101.631844   -1.716391433E-16
 101.75869   -1.139628567E-16
 101.885529   -4.50701202E-17
 102.012375   3.329936324E-17
 102.139214   1.18805397E-16
 102.26606   2.085441703E-16
 102.392906   2.991140152E-16
 102.519745   3.867102186E-16
 102.646591   4.672478318E-16
 102.773438   5.365095041E-16
 102.900276   5.903147839E-16
 103.027122   6.24704851E-16
 103.153969   6.361368841E-16
 103.280807   6.216798316E-16
 103.407654   5.79203194E-16
 103.5345   5.075505594E-16
 103.661339   4.066875966E-16
 103.788185   2.778169864E-16
 103.915031   1.234514257E-16
 104.04187   -5.256225235E-17
 104.168716   -2.450731808E-16
 104.295563   -4.477148814E-16
 104.422401   -6.530534555E-16
 104.549248   -8.527946242E-16
 104.676086   -1.038047135E-15
 104.802933   -1.199635081E-15
 104.929779   -1.328452487E-15
 105.056618   -1.41584797E-15
 105.183464   -1.45402671E-15
 105.31031   -1.436454482E-15
 105.437149   -1.358248142E-15
 105.563995   -1.21653413E-15
 105.690842   -1.010758275E-15
 105.81768   -7.429290511E-16
 105.944527   -4.177802871E-16
 106.071373   -4.283581272E-17
 106.198212   3.716317881E-16
 106.325058   8.127590296E-16
 106.451904   1.26536865E-15
 106.578743   1.712366359E-15
 106.705589   2.135252958E-15
 106.832428   2.514738753E-15
 106.959274   2.831449878E-15
 107.086121   3.066700361E-15
 107.212959   3.203311106E-15
 107.339806   3.226439129E-15
 107.466652   3.124393258E-15
 107.593491   2.88939519E-15
 107.720337   2.518250975E-15
 107.847183   2.012902437E-15
 107.974022   1.380817758E-15
 108.100868   6.351944011E-16
 108.227715   -2.05048558E-16
 108.354553   -1.115515075E-15
 108.4814   -2.066815872E-15
 108.608246   -3.025302473E-15
 108.735085   -3.954034925E-15
 108.861931   -4.813972419E-15
 108.988777   -5.565352476E-15
 109.115616   -6.169221323E-15
 109.242462   -6.589065909E-15
 109.369301   -6.792483412E-15
 109.496147   -6.7528338E-15
 109.622993   -6.45079498E-15
 109.749832   -5.875749818E-15
 109.876678   -5.02694403E-15
 110.003525   -3.914326867E-15
 110.130363   -2.559036882E-15
 110.25721   -9.93461121E-16
 110.384056   7.391501724E-16
 110.510895   2.585546472E-15
 110.637741   4.483815493E-15
 110.764587   6.36517816E-15
 110.891426   8.156198834E-15
 111.018272   9.781354363E-15
 111.145119   1.116588138E-14
 111.271957   1.223880108E-14
 111.398804   1.29360083E-14
 111.52565   1.320330479E-14
 111.652489   1.2999241E-14
 111.779335   1.229764022E-14
 111.906174   1.108967214E-14
 112.03302   9.385364766E-15
 112.159866   7.21445998E-15
 112.286705   4.626517675E-15
 112.413551   1.690241329E-15
 112.540398   -1.508007802E-15
 112.667236   -4.866491003E-15
 112.794083   -8.271120029E-15
 112.920929   -1.159913958E-14
 113.047768   -1.472336216E-14
 113.174614   -1.75167989E-14
 113.30146   -1.985752193E-14
 113.428299   -2.163357384E-14
 113.555145   -2.274772371E-14
 113.681992   -2.312186324E-14
 113.80883   -2.270088787E-14
 113.935677   -2.145582736E-14
 114.062523   -1.938613793E-14
 114.189362   -1.652099817E-14
 114.316208   -1.291952249E-14
 114.443047   -8.669882812E-15
 114.569893   -3.887314986E-15
 114.696739   1.288937236E-15
 114.823578   6.699635048E-15
 114.950424   1.217040232E-14
 115.077271   1.75172563E-14
 115.204109   2.255260967E-14
 115.330956   2.709155769E-14
 115.457802   3.095821397E-14
 115.584641   3.399187602E-14
 115.711487   3.605283593E-14
 115.838333   3.702759806E-14
 115.965172   3.683338018E-14
 116.092018   3.542173878E-14
 116.218864   3.278121183E-14
 116.345703   2.893888403E-14
 116.472549   2.396088326E-14
 116.599396   1.79517554E-14