 -7.19999981   1.079815303E-17
 -7.07315636   1.079815303E-17
 -6.9463129   1.07981522E-17
 -6.81946898   1.079815137E-17
 -6.69262552   1.079815137E-17
 -6.56578159   1.079815055E-17
 -6.43893814   1.079815137E-17
 -6.31209469   1.07981522E-17
 -6.18525076   1.079815303E-17
 -6.05840731   1.079815386E-17
 -5.93156338   1.079815551E-17
 -5.80471992   1.079815634E-17
 -5.67787647   1.079815799E-17
 -5.55103254   1.079815882E-17
 -5.42418909   1.079815965E-17
 -5.29734564   1.07981613E-17
 -5.17050171   1.079816295E-17
 -5.04365826   1.079816461E-17
 -4.91681433   1.079816626E-17
 -4.78997087   1.079816874E-17
 -4.66312742   1.079817123E-17
 -4.53628349   1.079817453E-17
 -4.40944004   1.079817702E-17
 -4.28259611   1.079818033E-17
 -4.15575266   1.079818446E-17
 -4.02890921   1.079818777E-17
 -3.90206528   1.079819108E-17
 -3.77522182   1.079819439E-17
 -3.64837813   1.07981977E-17
 -3.52153444   1.079820018E-17
 -3.39469075   1.079820349E-17
 -3.2678473   1.079820597E-17
 -3.14100361   1.079820928E-17
 -3.01415992   1.079821259E-17
 -2.88731623   1.079821589E-17
 -2.76047254   1.079822086E-17
 -2.63362908   1.079822665E-17
 -2.50678539   1.079823244E-17
 -2.3799417   1.07982374E-17
 -2.25309801   1.079824236E-17
 -2.12625432   1.079824567E-17
 -1.99941075   1.079824898E-17
 -1.87256718   1.079825146E-17
 -1.74572349   1.079825394E-17
 -1.61887991   1.079825725E-17
 -1.49203622   1.079826139E-17
 -1.36519253   1.079826635E-17
 -1.23834896   1.079827214E-17
 -1.11150527   1.079827793E-17
 -0.984661698   1.079828372E-17
 -0.857818007   1.079828869E-17
 -0.730974376   1.079829282E-17
 -0.604130745   1.07982953E-17
 -0.477287114   1.079829696E-17
 -0.350443482   1.079829944E-17
 -0.223599836   1.079830192E-17
 -9.675619751E-2   1.079830606E-17
 3.008744121E-2   1.079831185E-17
 0.156931072   1.079831846E-17
 0.283774734   1.079832591E-17
 0.410618365   1.079833418E-17
 0.537461996   1.07983408E-17
 0.664305627   1.079834576E-17
 0.791149259   1.07983499E-17
 0.91799289   1.079835238E-17
 1.04483652   1.079835486E-17
 1.17168021   1.079835651E-17
 1.29852378   1.079835982E-17
 1.42536747   1.079836396E-17
 1.55221117   1.079836892E-17
 1.67905474   1.079837471E-17
 1.80589843   1.07983805E-17
 1.932742   1.079838547E-17
 2.05958557   1.079839043E-17
 2.18642926   1.079839374E-17
 2.31327295   1.079839705E-17
 2.44011664   1.079840036E-17
 2.56696033   1.079840366E-17
 2.69380379   1.07984078E-17
 2.82064748   1.079841359E-17
 2.94749117   1.079842103E-17
 3.07433486   1.079842931E-17
 3.20117831   1.079843841E-17
 3.328022   1.07984475E-17
 3.45486569   1.079845412E-17
 3.58170938   1.079845909E-17
 3.70855308   1.079846239E-17
 3.83539653   1.079846405E-17
 3.96224022   1.079846405E-17
 4.08908367   1.079846488E-17
 4.2159276   1.079846818E-17
 4.34277105   1.079847315E-17
 4.46961498   1.079848059E-17
 4.59645844   1.079848886E-17
 4.72330189   1.079849796E-17
 4.85014582   1.079850541E-17
 4.97698927   1.07985112E-17
 5.1038332   1.079851616E-17
 5.23067665   1.079851864E-17
 5.3575201   1.07985203E-17
 5.48436403   1.079852278E-17
 5.61120749   1.079852609E-17
 5.73805141   1.079853105E-17
 5.86489487   1.079853849E-17
 5.99173832   1.079854594E-17
 6.11858225   1.079855421E-17
 6.2454257   1.079856083E-17
 6.37226963   1.079856579E-17
 6.49911308   1.079856827E-17
 6.62595654   1.079856993E-17
 6.75280046   1.079857158E-17
 6.87964392   1.079857489E-17
 7.00648737   1.079857985E-17
 7.1333313   1.079858895E-17
 7.26017475   1.079860053E-17
 7.38701868   1.07986146E-17
 7.51386213   1.079862948E-17
 7.64070559   1.079864272E-17
 7.76754951   1.079865347E-17
 7.89439297   1.079866009E-17
 8.02123642   1.07986634E-17
 8.14808083   1.079866505E-17
 8.27492428   1.079866505E-17
 8.40176773   1.079866753E-17
 8.52861118   1.079867167E-17
 8.65545464   1.079867912E-17
 8.78229809   1.079868739E-17
 8.90914249   1.079869731E-17
 9.03598595   1.079870558E-17
 9.1628294   1.079871138E-17
 9.28967285   1.079871551E-17
 9.4165163   1.079871717E-17
 9.54336071   1.079871799E-17
 9.67020416   1.079872047E-17
 9.79704762   1.079872461E-17
 9.92389107   1.079873288E-17
 10.0507345   1.079874446E-17
 10.1775789   1.079875935E-17
 10.3044224   1.079877507E-17
 10.4312658   1.079878996E-17
 10.5581093   1.079880237E-17
 10.6849527   1.079881064E-17
 10.8117971   1.079881643E-17
 10.9386406   1.079881891E-17
 11.065484   1.079882056E-17
 11.1923275   1.079882304E-17
 11.319171   1.079882801E-17
 11.4460154   1.079883463E-17
 11.5728588   1.079884455E-17
 11.6997023   1.079885613E-17
 11.8265457   1.079886689E-17
 11.9533892   1.079887516E-17
 12.0802336   1.07988826E-17
 12.207077   1.079888591E-17
 12.3339205   1.079888839E-17
 12.4607639   1.079888839E-17
 12.5876074   1.079889087E-17
 12.7144518   1.079889666E-17
 12.8412952   1.079890742E-17
 12.9681387   1.079892065E-17
 13.0949821   1.079893802E-17
 13.2218256   1.079895457E-17
 13.34867   1.079896946E-17
 13.4755135   1.079898021E-17
 13.6023569   1.079898848E-17
 13.7292004   1.079899262E-17
 13.8560438   1.07989951E-17
 13.9828882   1.079899758E-17
 14.1097317   1.079900254E-17
 14.2365751   1.079900999E-17
 14.3634186   1.079902157E-17
 14.490262   1.079903646E-17
 14.6171055   1.079905052E-17
 14.7439499   1.079906375E-17
 14.8707933   1.079907368E-17
 14.9976368   1.07990803E-17
 15.1244802   1.079908443E-17
 15.2513237   1.079908526E-17
 15.3781681   1.079908692E-17
 15.5050116   1.079909022E-17
 15.631855   1.079909767E-17
 15.7586985   1.079911008E-17
 15.8855419   1.079912579E-17
 16.0123863   1.079914399E-17
 16.1392288   1.079916136E-17
 16.2660732   1.079917625E-17
 16.3929176   1.0799187E-17
 16.5197601   1.079919279E-17
 16.6466045   1.07991961E-17
 16.773447   1.079919776E-17
 16.9002914   1.079920107E-17
 17.0271358   1.079920851E-17
 17.1539783   1.079922175E-17
 17.2808228   1.079923912E-17
 17.4076653   1.079926062E-17
 17.5345097   1.07992813E-17
 17.6613541   1.079930033E-17
 17.7881966   1.079931439E-17
 17.915041   1.079932514E-17
 18.0418835   1.079933176E-17
 18.1687279   1.07993359E-17
 18.2955723   1.079934003E-17
 18.4224148   1.079934665E-17
 18.5492592   1.07993574E-17
 18.6761017   1.079937147E-17
 18.8029461   1.079938801E-17
 18.9297905   1.079940455E-17
 19.056633   1.079941944E-17
 19.1834774   1.07994302E-17
 19.3103199   1.079943681E-17
 19.4371643   1.079943929E-17
 19.5640087   1.079944095E-17
 19.6908512   1.07994426E-17
 19.8176956   1.079944674E-17
 19.9445381   1.079945418E-17
 20.0713825   1.079946659E-17
 20.1982269   1.079948148E-17
 20.3250694   1.07994972E-17
 20.4519138   1.079951209E-17
 20.5787563   1.079952449E-17
 20.7056007   1.079953194E-17
 20.8324451   1.079953607E-17
 20.9592876   1.079953856E-17
 21.086132   1.079954104E-17
 21.2129745   1.079954683E-17
 21.339819   1.079955758E-17
 21.4666634   1.079957247E-17
 21.5935059   1.07995915E-17
 21.7203503   1.079961217E-17
 21.8471928   1.079963285E-17
 21.9740372   1.079965023E-17
 22.1008816   1.079966263E-17
 22.2277241   1.07996709E-17
 22.3545685   1.079967421E-17
 22.481411   1.079967587E-17
 22.6082554   1.079967835E-17
 22.7350998   1.079968249E-17
 22.8619423   1.079968993E-17
 22.9887867   1.079969986E-17
 23.1156292   1.079971144E-17
 23.2424736   1.079972384E-17
 23.369318   1.07997346E-17
 23.4961605   1.079974204E-17
 23.6230049   1.079974701E-17
 23.7498474   1.079975031E-17
 23.8766918   1.07997528E-17
 24.0035343   1.079975859E-17
 24.1303787   1.079976603E-17
 24.2572231   1.079977844E-17
 24.3840656   1.079979415E-17
 24.51091   1.079981318E-17
 24.6377525   1.079983138E-17
 24.7645969   1.079984958E-17
 24.8914413   1.079986446E-17
 25.0182838   1.079987522E-17
 25.1451283   1.079988349E-17
 25.2719707   1.079989011E-17
 25.3988152   1.079989672E-17
 25.5256596   1.079990582E-17
 25.6525021   1.079991823E-17
 25.7793465   1.079993312E-17
 25.906189   1.079995049E-17
 26.0330334   1.079996869E-17
 26.1598778   1.079998606E-17
 26.2867203   1.08000026E-17
 26.4135647   1.080001584E-17
 26.5404072   1.080002659E-17
 26.6672516   1.080003652E-17
 26.794096   1.080004644E-17
 26.9209385   1.08000572E-17
 27.0477829   1.080007291E-17
 27.1746254   1.080009111E-17
 27.3014698   1.080011262E-17
 27.4283142   1.080013743E-17
 27.5551567   1.080016142E-17
 27.6820011   1.080018458E-17
 27.8088436   1.080020444E-17
 27.935688   1.080022346E-17
 28.0625324   1.080023918E-17
 28.1893749   1.080025407E-17
 28.3162193   1.080026978E-17
 28.4430618   1.080028798E-17
 28.5699062   1.080030866E-17
 28.6967506   1.080033182E-17
 28.8235931   1.080035664E-17
 28.9504375   1.080038228E-17
 29.07728   1.080040627E-17
 29.2041245   1.08004286E-17
 29.3309689   1.08004468E-17
 29.4578114   1.080046169E-17
 29.5846558   1.08004741E-17
 29.7114983   1.080048568E-17
 29.8383427   1.080049809E-17
 29.9651871   1.080051132E-17
 30.0920296   1.080052786E-17
 30.218874   1.080054606E-17
 30.3457165   1.080056674E-17
 30.4725609   1.080058742E-17
 30.5994053   1.08006081E-17
 30.7262478   1.080062713E-17
 30.8530922   1.080064532E-17
 30.9799347   1.080066352E-17
 31.1067791   1.080068172E-17
 31.2336235   1.080070074E-17
 31.360466   1.080072225E-17
 31.4873104   1.080074541E-17
 31.6141529   1.080077188E-17
 31.7409973   1.080080001E-17
 31.8678417   1.08008273E-17
 31.9946842   1.080085295E-17
 32.1215286   1.080087611E-17
 32.2483711   1.080089513E-17
 32.3752136   1.080091002E-17
 32.5020599   1.080092243E-17
 32.6289024   1.080093236E-17
 32.7557449   1.080094311E-17
 32.8825912   1.080095386E-17
 33.0094337   1.080096627E-17
 33.1362762   1.080098116E-17
 33.2631226   1.080099688E-17
 33.3899651   1.080101342E-17
 33.5168076   1.080103079E-17
 33.6436501   1.080104733E-17
 33.7704964   1.080106222E-17
 33.8973389   1.080107628E-17
 34.0241814   1.080109035E-17
 34.1510277   1.080110524E-17
 34.2778702   1.080112261E-17
 34.4047127   1.080114246E-17
 34.531559   1.080116397E-17
 34.6584015   1.080118795E-17
 34.785244   1.080121194E-17
 34.9120865   1.08012351E-17
 35.0389328   1.080125744E-17
 35.1657753   1.080127729E-17
 35.2926178   1.080129466E-17
 35.4194641   1.080131203E-17
 35.5463066   1.08013294E-17
 35.6731491   1.08013476E-17
 35.7999954   1.080136911E-17
 35.9268379   1.080139227E-17
 36.0536804   1.080141874E-17
 36.1805229   1.080144603E-17
 36.3073692   1.080147333E-17
 36.4342117   1.08014998E-17
 36.5610542   1.080152462E-17
 36.6879005   1.080154695E-17
 36.814743   1.080156846E-17
 36.9415855   1.080158996E-17
 37.0684319   1.080161395E-17
 37.1952744   1.080164125E-17
 37.3221169   1.080167185E-17
 37.4489594   1.080170742E-17
 37.5758057   1.080174465E-17
 37.7026482   1.080178435E-17
 37.8294907   1.080182323E-17
 37.956337   1.080186045E-17
 38.0831795   1.080189685E-17
 38.210022   1.080192911E-17
 38.3368683   1.080196054E-17
 38.4637108   1.080198949E-17
 38.5905533   1.080201844E-17
 38.7173958   1.080204739E-17
 38.8442421   1.080207883E-17
 38.9710846   1.080211026E-17
 39.0979271   1.080214335E-17
 39.2247734   1.080217561E-17
 39.3516159   1.080220539E-17
 39.4784584   1.080223351E-17
 39.6053047   1.080225833E-17
 39.7321472   1.080227983E-17
 39.8589897   1.080229886E-17
 39.9858322   1.080231623E-17
 40.1126785   1.08023336E-17
 40.239521   1.080235097E-17
 40.3663635   1.080237E-17
 40.4932098   1.08023915E-17
 40.6200523   1.080241384E-17
 40.7468948   1.080243782E-17
 40.8737411   1.080246347E-17
 41.0005836   1.080248994E-17
 41.1274261   1.080251806E-17
 41.2542686   1.080254784E-17
 41.381115   1.080257762E-17
 41.5079575   1.080260822E-17
 41.6348   1.080263966E-17
 41.7616463   1.080267192E-17
 41.8884888   1.0802705E-17
 42.0153313   1.080273726E-17
 42.1421776   1.080276787E-17
 42.2690201   1.080279765E-17
 42.3958626   1.080282412E-17
 42.5227051   1.080284976E-17
 42.6495514   1.080287209E-17
 42.7763939   1.08028936E-17
 42.9032364   1.080291263E-17
 43.0300827   1.080293248E-17
 43.1569252   1.080295316E-17
 43.2837677   1.080297466E-17
 43.4106102   1.0802997E-17
 43.5374565   1.080302016E-17
 43.664299   1.080304415E-17
 43.7911415   1.080306731E-17
 43.9179878   1.08030913E-17
 44.0448303   1.080311446E-17
 44.1716728   1.080313762E-17
 44.2985191   1.080315995E-17
 44.4253616   1.080318229E-17
 44.5522041   1.080320627E-17
 44.6790466   1.080323109E-17
 44.8058929   1.080325756E-17
 44.9327354   1.080328568E-17
 45.0595779   1.080331381E-17
 45.1864243   1.080334111E-17
 45.3132668   1.080336592E-17
 45.4401093   1.080338991E-17
 45.5669556   1.080341059E-17
 45.6937981   1.080342961E-17
 45.8206406   1.080344698E-17
 45.9474831   1.08034627E-17
 46.0743294   1.080347842E-17
 46.2011719   1.080349413E-17
 46.3280144   1.08035115E-17
 46.4548607   1.08035297E-17
 46.5817032   1.080354955E-17
 46.7085457   1.080356941E-17
 46.835392   1.080359091E-17
 46.9622345   1.080361325E-17
 47.089077   1.080363641E-17
 47.2159195   1.080366122E-17
 47.3427658   1.080368521E-17
 47.4696083   1.080371085E-17
 47.5964508   1.080373815E-17
 47.7232971   1.080376545E-17
 47.8501396   1.08037944E-17
 47.9769821   1.080382501E-17
 48.1038284   1.080385644E-17
 48.2306709   1.080388704E-17
 48.3575134   1.080391682E-17
 48.4843559   1.080394495E-17
 48.6112022   1.080397224E-17
 48.7380447   1.080399789E-17
 48.8648872   1.08040227E-17
 48.9917336   1.080404752E-17
 49.118576   1.080407399E-17
 49.2454185   1.080410128E-17
 49.3722649   1.080413024E-17
 49.4991074   1.080416084E-17
 49.6259499   1.080419227E-17
 49.7527924   1.080422205E-17
 49.8796387   1.0804251E-17
 50.0064812   1.080427665E-17
 50.1333237   1.080429815E-17
 50.26017   1.080431635E-17
 50.3870125   1.080433289E-17
 50.513855   1.080434778E-17
 50.6407013   1.08043635E-17
 50.7675438   1.080437922E-17
 50.8943863   1.080439741E-17
 51.0212288   1.080441727E-17
 51.1480751   1.080443877E-17
 51.2749176   1.080445945E-17
 51.4017601   1.080447931E-17
 51.5286064   1.08044975E-17
 51.6554489   1.080451405E-17
 51.7822914   1.080453059E-17
 51.9091377   1.080454796E-17
 52.0359802   1.080456864E-17
 52.1628227   1.080459263E-17
 52.2896652   1.080461993E-17
 52.4165115   1.080465136E-17
 52.543354   1.080468362E-17
 52.6701965   1.080471671E-17
 52.7970428   1.080474731E-17
 52.9238853   1.080477378E-17
 53.0507278   1.080479529E-17
 53.1775742   1.080481266E-17
 53.3044167   1.080482755E-17
 53.4312592   1.080483996E-17
 53.5581017   1.080485319E-17
 53.684948   1.080486808E-17
 53.8117905   1.080488545E-17
 53.938633   1.08049053E-17
 54.0654793   1.080492764E-17
 54.1923218   1.080494997E-17
 54.3191643   1.080497148E-17
 54.4460106   1.080499216E-17
 54.5728531   1.080500953E-17
 54.6996956   1.08050269E-17
 54.8265381   1.080504344E-17
 54.9533844   1.080506164E-17
 55.0802269   1.080508232E-17
 55.2070694   1.080510631E-17
 55.3339157   1.080513361E-17
 55.4607582   1.080516338E-17
 55.5876007   1.080519482E-17
 55.7144432   1.080522625E-17
 55.8412895   1.080525768E-17
 55.968132   1.080528912E-17
 56.0949745   1.080531972E-17
 56.2218208   1.080535115E-17
 56.3486633   1.080538341E-17
 56.4755058   1.080541733E-17
 56.6023521   1.08054529E-17
 56.7291946   1.080548847E-17
 56.8560371   1.080552321E-17
 56.9828796   1.080555629E-17
 57.109726   1.080558607E-17
 57.2365685   1.080561172E-17
 57.3634109   1.080563405E-17
 57.4902573   1.08056539E-17
 57.6170998   1.080567127E-17
 57.7439423   1.080568947E-17
 57.8707886   1.080570932E-17
 57.9976311   1.080573166E-17
 58.1244736   1.080575482E-17
 58.2513161   1.080578046E-17
 58.3781624   1.08058061E-17
 58.5050049   1.080583175E-17
 58.6318474   1.080585491E-17
 58.7586937   1.080587559E-17
 58.8855362   1.080589378E-17
 59.0123787   1.080591198E-17
 59.139225   1.080593101E-17
 59.2660675   1.080595251E-17
 59.39291   1.080597816E-17
 59.5197525   1.080600794E-17
 59.6465988   1.08060402E-17
 59.7734413   1.080607494E-17
 59.9002838   1.080610968E-17
 60.0271301   1.080614277E-17
 60.1539726   1.080617254E-17
 60.2808151   1.080619901E-17
 60.4076614   1.0806223E-17
 60.5345039   1.080624534E-17
 60.6613464   1.080626602E-17
 60.7881889   1.080628752E-17
 60.9150352   1.080631151E-17
 61.0418777   1.080633798E-17
 61.1687202   1.080636693E-17
 61.2955666   1.080639754E-17
 61.4224091   1.080642814E-17
 61.5492516   1.080645792E-17
 61.6760979   1.080648687E-17
 61.8029404   1.0806515E-17
 61.9297829   1.080654312E-17
 62.0566254   1.080657125E-17
 62.1834717   1.080660268E-17
 62.3103142   1.080663659E-17
 62.4371567   1.080667464E-17
 62.564003   1.080671517E-17
 62.6908455   1.080675736E-17
 62.817688   1.080679955E-17
 62.9445343   1.080683925E-17
 63.0713768   1.080687647E-17
 63.1982193   1.080691039E-17
 63.3250618   1.0806941E-17
 63.4519081   1.080696829E-17
 63.5787506   1.080699393E-17
 63.7055931   1.080701875E-17
 63.8324394   1.080704191E-17
 63.9592819   1.08070659E-17
 64.0861282   1.080708906E-17
 64.2129669   1.080711139E-17
 64.3398132   1.080713207E-17
 64.4666595   1.080715027E-17
 64.5934982   1.080716682E-17
 64.7203445   1.080718253E-17
 64.8471909   1.080719742E-17
 64.9740295   1.080721314E-17
 65.1008759   1.080723134E-17
 65.2277145   1.080725119E-17
 65.3545609   1.080727352E-17
 65.4814072   1.080729834E-17
 65.6082458   1.080732398E-17
 65.7350922   1.080734962E-17
 65.8619385   1.080737526E-17
 65.9887772   1.080739925E-17
 66.1156235   1.080742324E-17
 66.2424698   1.080744806E-17
 66.3693085   1.080747535E-17
 66.4961548   1.080750513E-17
 66.6230011   1.080753905E-17
 66.7498398   1.08075771E-17
 66.8766861   1.080761763E-17
 67.0035324   1.080766064E-17
 67.1303711   1.080770283E-17
 67.2572174   1.080774253E-17
 67.3840637   1.080777645E-17
 67.5109024   1.080780292E-17
 67.6377487   1.080782194E-17
 67.7645874   1.080783104E-17
 67.8914337   1.080783187E-17
 68.01828   1.080782277E-17
 68.1451187   1.08078054E-17
 68.271965   1.08077781E-17
 68.3988113   1.080774171E-17
 68.52565   1.080769373E-17
 68.6524963   1.080763583E-17
 68.7793427   1.080756883E-17
 68.9061813   1.080749603E-17
 69.0330276   1.080741993E-17
 69.159874   1.080734797E-17
 69.2867126   1.08072851E-17
 69.413559   1.080723878E-17
 69.5404053   1.080721562E-17
 69.667244   1.080722224E-17
 69.7940903   1.080726277E-17
 69.920929   1.08073397E-17
 70.0477753   1.080745467E-17
 70.1746216   1.080760936E-17
 70.3014603   1.080780292E-17
 70.4283066   1.080803205E-17
 70.5551529   1.080829344E-17
 70.6819916   1.080858295E-17
 70.8088379   1.080889149E-17
 70.9356842   1.08092083E-17
 71.0625229   1.080951932E-17
 71.1893692   1.0809808E-17
 71.3162155   1.081005368E-17
 71.4430542   1.081023648E-17
 71.5699005   1.08103374E-17
 71.6967468   1.081033905E-17
 71.8235855   1.081022738E-17
 71.9504318   1.080999246E-17
 72.0772781   1.080963264E-17
 72.2041168   1.080915039E-17
 72.3309631   1.080855317E-17
 72.4578018   1.080785751E-17
 72.5846481   1.08070841E-17
 72.7114944   1.08062594E-17
 72.8383331   1.080541816E-17
 72.9651794   1.08046009E-17
 73.0920258   1.080385148E-17
 73.2188644   1.080322034E-17
 73.3457108   1.080275794E-17
 73.4725571   1.080251392E-17
 73.5993958   1.080253378E-17
 73.7262421   1.080285555E-17
 73.8530884   1.080350489E-17
 73.9799271   1.080449337E-17
 74.1067734   1.080581851E-17
 74.2336197   1.080745633E-17
 74.3604584   1.080936877E-17
 74.4873047   1.081149462E-17
 74.614151   1.081375862E-17
 74.7409897   1.081606893E-17
 74.867836   1.081832052E-17
 74.9946747   1.082039674E-17
 75.121521   1.082217683E-17
 75.2483673   1.082353672E-17
 75.375206   1.082435811E-17
 75.5020523   1.08245343E-17
 75.6288986   1.082397513E-17
 75.7557373   1.082261607E-17
 75.8825836   1.082042735E-17
 76.0094299   1.081741393E-17
 76.1362686   1.081362213E-17
 76.2631149   1.080914378E-17
 76.3899612   1.080411369E-17
 76.5167999   1.079871138E-17
 76.6436462   1.079315107E-17
 76.7704926   1.078768009E-17
 76.8973312   1.078256895E-17
 77.0241776   1.077810217E-17
 77.1510239   1.077456349E-17
 77.2778625   1.077222753E-17
 77.4047089   1.077133997E-17
 77.5315475   1.077210759E-17
 77.6583939   1.077468343E-17
 77.7852402   1.07791469E-17
 77.9120789   1.078550213E-17
 78.0389252   1.079365813E-17
 78.1657715   1.080343044E-17
 78.2926102   1.081453369E-17
 78.4194565   1.082658902E-17
 78.5463028   1.083913073E-17
 78.6731415   1.08516195E-17
 78.7999878   1.086345894E-17
 78.9268341   1.087402203E-17
 79.0536728   1.088267517E-17
 79.1805191   1.088880789E-17
 79.3073654   1.089186267E-17
 79.4342041   1.089137132E-17
 79.5610504   1.08869823E-17
 79.6878967   1.087848798E-17
 79.8147354   1.086585942E-17
 79.9415817   1.08492579E-17
 80.0684204   1.082905401E-17
 80.1952667   1.080582926E-17
 80.322113   1.078037526E-17
 80.4489517   1.07536747E-17
 80.575798   1.072687653E-17
 80.7026443   1.070125709E-17
 80.829483   1.067817296E-17
 80.9563293   1.065899974E-17
 81.0831757   1.064507085E-17
 81.2100143   1.06376072E-17
 81.3368607   1.063764442E-17
 81.463707   1.064596255E-17
 81.5905457   1.066302232E-17
 81.717392   1.06889048E-17
 81.8442383   1.072326837E-17
 81.971077   1.076531644E-17
 82.0979233   1.081379005E-17
 82.224762   1.086697115E-17
 82.3516083   1.092272477E-17
 82.4784546   1.097855202E-17
 82.6052933   1.103167852E-17
 82.7321396   1.107915952E-17
 82.8589859   1.111800888E-17
 82.9858246   1.11453472E-17
 83.1126709   1.115855728E-17
 83.2395172   1.115544459E-17
 83.3663559   1.113439947E-17
 83.4932022   1.109453846E-17
 83.6200485   1.103583841E-17
 83.7468872   1.095922825E-17
 83.8737335   1.086665434E-17
 84.0005798   1.076109451E-17
 84.1274185   1.064652669E-17
 84.2542648   1.052783785E-17
 84.3811111   1.041068178E-17
 84.5079498   1.030127804E-17
 84.6347961   1.020615889E-17
 84.7616348   1.013187063E-17
 84.8884811   1.008464523E-17
 85.0153275   1.007003722E-17
 85.1421661   1.009256631E-17
 85.2690125   1.015536835E-17
 85.3958588   1.025987517E-17
 85.5226974   1.04055425E-17
 85.6495438   1.058965471E-17
 85.7763901   1.080721396E-17
 85.9032288   1.105093115E-17
 86.0300751   1.131133919E-17
 86.1569214   1.157701802E-17
 86.2837601   1.183495692E-17
 86.4106064   1.207102765E-17
 86.5374527   1.227057257E-17
 86.6642914   1.241908127E-17
 86.7911377   1.250294249E-17
 86.917984   1.251022334E-17
 87.0448227   1.243146085E-17
 87.171669   1.226041148E-17
 87.2985077   1.199472024E-17
 87.425354   1.163647245E-17
 87.5522003   1.119258335E-17
 87.679039   1.067498914E-17
 87.8058853   1.010060982E-17
 87.9327316   9.491067867E-18
 88.0595703   8.872138245E-18
 88.1864166   8.272944326E-18
 88.3132629   7.724905737E-18
 88.4401016   7.26046533E-18
 88.5669479   6.911637062E-18
 88.6937943   6.708428978E-18
 88.8206329   6.677197119E-18
 88.9474792   6.839013499E-18
 89.0743256   7.208122168E-18
 89.2011642   7.790562371E-18
 89.3280106   8.583046066E-18
 89.4548569   9.572160518E-18
 89.5816956   1.073396878E-17
 89.7085419   1.203405847E-17
 89.8353806   1.342807783E-17
 89.9622269   1.486277628E-17
 90.0890732   1.627755788E-17
 90.2159119   1.760648971E-17
 90.3427582   1.878076523E-17
 90.4696045   1.973149023E-17
 90.5964432   2.039274338E-17
 90.7232895   2.070476583E-17
 90.8501358   2.061717237E-17
 90.9769745   2.009202683E-17
 91.1038208   1.910665619E-17
 91.2306671   1.765602459E-17
 91.3575058   1.575459444E-17
 91.4843521   1.343746964E-17
 91.6111984   1.076079838E-17
 91.7380371   7.801308275E-18
 91.8648834   4.654943181E-18
 91.9917297   1.434598465E-18
 92.1185684   -1.733038302E-18
 92.2454147   -4.71146195E-18
 92.3722534   -7.359055333E-18
 92.4990997   -9.534384834E-18
 92.625946   -1.110191526E-17
 92.7527847   -1.193796738E-17
 92.879631   -1.193669104E-17
 93.0064774   -1.101582974E-17
 93.133316   -9.122047706E-18
 93.2601624   -6.235577798E-18
 93.3870087   -2.373976925E-18
 93.5138474   2.405231945E-18
 93.6406937   8.003189148E-18
 93.76754   1.427976946E-17
 93.8943787   2.105519924E-17
 94.021225   2.811327829E-17
 94.1480713   3.520622631E-17
 94.27491   4.206113491E-17
 94.4017563   4.838791516E-17
 94.528595   5.388859676E-17
 94.6554413   5.826778687E-17
 94.7822876   6.124404889E-17
 94.9091263   6.256180054E-17
 95.0359726   6.200352642E-17
 95.1628189   5.940172576E-17
 95.2896576   5.46502779E-17
 95.4165039   4.77147225E-17
 95.5433502   3.864090852E-17
 95.6701889   2.756160838E-17
 95.7970352   1.470058767E-17
 95.9238815   3.736589894E-19
 96.0507202   -1.501362921E-17
 96.1775665   -3.097198471E-17
 96.3044128   -4.693829107E-17
 96.4312515   -6.228949269E-17
 96.5580978   -7.636044371E-17
 96.6849442   -8.846545112E-17
 96.8117828   -9.792312984E-17
 96.9386292   -1.040840107E-16
 97.0654678   -1.063600147E-16
 97.1923141   -1.042549658E-16
 97.3191605   -9.739487245E-17
 97.4459991   -8.555672012E-17
 97.5728455   -6.869442496E-17
 97.6996918   -4.696040988E-17
 97.8265305   -2.072142028E-17
 97.9533768   9.432874056E-18
 98.0802231   4.268968299E-17
 98.2070618   7.802238853E-17
 98.3339081   1.142099654E-16
 98.4607544   1.498669952E-16
 98.5875931   1.83484105E-16
 98.7144394   2.134783357E-16
 98.8412857   2.382522363E-16
 98.9681244   2.562601832E-16
 99.0949707   2.660795715E-16
 99.221817   2.664846385E-16
 99.3486557   2.565193753E-16
 99.475502   2.355665065E-16
 99.6023407   2.034090198E-16
 99.729187   1.602804844E-16
 99.8560333   1.069007791E-16
 99.982872   4.44941775E-17
 100.109718   -2.521282738E-17
 100.236565   -1.000160755E-16
 100.363403   -1.772816798E-16
 100.49025   -2.540175311E-16
 100.617096   -3.269674761E-16
 100.743935   -3.927262172E-16
 100.870781   -4.478716884E-16
 100.997627   -4.891105462E-16
 101.124466   -5.134320385E-16
 101.251312   -5.182633027E-16
 101.378159   -5.016199523E-16
 101.504997   -4.622451493E-16
 101.631844   -3.997289297E-16
 101.75869   -3.146022509E-16
 101.885529   -2.083979645E-16
 102.012375   -8.367451365E-17
 102.139214   5.600282077E-17
 102.26606   2.061251633E-16
 102.392906   3.613492316E-16
 102.519745   5.156512119E-16
 102.646591   6.625226486E-16
 102.773438   7.952029483E-16
 102.900276   9.069423171E-16
 103.027122   9.91285411E-16
 103.153969   1.042365839E-15
 103.280807   1.0552004E-15
 103.407654   1.025969928E-15
 103.5345   9.522740381E-16
 103.661339   8.333484947E-16
 103.788185   6.702307543E-16
 103.915031   4.658656328E-16
 104.04187   2.251405368E-16
 104.168716   -4.515642822E-17
 104.295563   -3.364589302E-16
 104.422401   -6.386272668E-16
 104.549248   -9.402330412E-16
 104.676086   -1.228918704E-15
 104.802933   -1.491822908E-15
 104.929779   -1.716059529E-15
 105.056618   -1.889235203E-15
 105.183464   -1.999988361E-15
 105.31031   -2.038528995E-15
 105.437149   -1.997158212E-15
 105.563995   -1.870746168E-15
 105.690842   -1.657145528E-15
 105.81768   -1.35751874E-15
 105.944527   -9.765612255E-16
 106.071373   -5.226028643E-16
 106.198212   -7.573407608E-18
 106.325058   5.531754597E-16
 106.451904   1.14119722E-15
 106.578743   1.735425243E-15
 106.705589   2.312787675E-15
 106.832428   2.848950849E-15
 106.959274   3.319170178E-15
 107.086121   3.699227932E-15
 107.212959   3.966423205E-15
 107.339806   4.100585601E-15
 107.466652   4.085067957E-15
 107.593491   3.907686552E-15
 107.720337   3.561560938E-15
 107.847183   3.045814647E-15
 107.974022   2.366104164E-15
 108.100868   1.534929897E-15
 108.227715   5.717129875E-16
 108.354553   -4.973943167E-16
 108.4814   -1.639970982E-15
 108.608246   -2.818073745E-15
 108.735085   -3.98925286E-15
 108.861931   -5.107826783E-15
 108.988777   -6.126382631E-15
 109.115616   -6.997465385E-15
 109.242462   -7.675398369E-15
 109.369301   -8.118184842E-15
 109.496147   -8.289411705E-15
 109.622993   -8.16009095E-15
 109.749832   -7.710360501E-15
 109.876678   -6.930958476E-15
 110.003525   -5.82440988E-15
 110.130363   -4.405846534E-15
 110.25721   -2.703409413E-15
 110.384056   -7.581727854E-16
 110.510895   1.376423457E-15
 110.637741   3.635668698E-15
 110.764587   5.94518492E-15
 110.891426   8.223021263E-15
 111.018272   1.038218787E-14
 111.145119   1.233357221E-14
 111.271957   1.398913961E-14
 111.398804   1.526532603E-14
 111.52565   1.608649567E-14
 111.652489   1.638833248E-14
 111.779335   1.612104954E-14
 111.906174   1.525224445E-14
 112.03302   1.37693066E-14
 112.159866   1.168122893E-14
 112.286705   9.019717583E-15
 112.413551   5.839524759E-15
 112.540398   2.217942432E-15
 112.667236   -1.746589878E-15
 112.794083   -5.936744237E-15
 112.920929   -1.021940084E-14
 113.047768   -1.444951641E-14
 113.174614   -1.847465255E-14
 113.30146   -2.214003517E-14
 113.428299   -2.529398606E-14
 113.555145   -2.779352439E-14
 113.681992   -2.950996042E-14
 113.80883   -3.033424884E-14
 113.935677   -3.018194554E-14
 114.062523   -2.899747838E-14
 114.189362   -2.675763867E-14
 114.316208   -2.347407987E-14
 114.443047   -1.919470849E-14
 114.569893   -1.400388476E-14
 114.696739   -8.021351189E-15
 114.823578   -1.399930527E-15
 114.950424   5.678023952E-15
 115.077271   1.300530576E-14
 115.204109   2.035556036E-14
 115.330956   2.748984783E-14
 115.457802   3.416388131E-14
 115.584641   4.013570753E-14
 115.711487   4.517363927E-14
 115.838333   4.906412597E-14
 115.965172   5.161939398E-14
 116.092018   5.268457179E-14
 116.218864   5.214404958E-14
 116.345703   4.992695439E-14
 116.472549   4.601142601E-14
 116.599396   4.042766623E-14
 116.726234   3.325953133E-14
 116.853081   2.464462011E-14
 116.979919   1.47727967E-14
 117.106766   3.883118785E-15
 117.233612   -7.740840134E-15
 117.360451   -1.977718933E-14
 117.487297   -3.187338902E-14
 117.614143   -4.365524801E-14
 117.740982   -5.473710881E-14
 117.867828   -6.473298189E-14
 117.994675   -7.326845836E-14
 118.121513   -7.99930326E-14
 118.24836   -8.459262479E-14
 118.375206   -8.680180191E-14
 118.502045   -8.64154668E-14
 118.628891   -8.329949686E-14
 118.755737   -7.739991238E-14
 118.882576   -6.8750161E-14
 119.009422   -5.747607116E-14
 119.136261   -4.379811536E-14
 119.263107   -2.803053606E-14
 119.389954   -1.057719094E-14
 119.516792   8.076172008E-15
 119.643639   2.737322494E-14