 -7.19999981   -7.912887934E-20
 -7.07296753   -7.912429107E-20
 -6.94593477   -7.911592233E-20
 -6.81890202   -7.910447105E-20
 -6.69186926   -7.909053823E-20
 -6.56483698   -7.907454391E-20
 -6.43780422   -7.905877578E-20
 -6.31077147   -7.904378314E-20
 -6.18373871   -7.903060641E-20
 -6.05670643   -7.901964626E-20
 -5.92967367   -7.901196899E-20
 -5.80264091   -7.900727733E-20
 -5.67560816   -7.900533216E-20
 -5.5485754   -7.900576514E-20
 -5.42154312   -7.900750997E-20
 -5.29451036   -7.900981703E-20
 -5.16747761   -7.901195607E-20
 -5.04044485   -7.901192376E-20
 -4.91341257   -7.901019185E-20
 -4.78637981   -7.900525461E-20
 -4.65934706   -7.899712498E-20
 -4.5323143   -7.89860162E-20
 -4.40528202   -7.897199291E-20
 -4.27824926   -7.89552425E-20
 -4.15121651   -7.893726424E-20
 -4.02418375   -7.891901457E-20
 -3.89715123   -7.890095231E-20
 -3.77011847   -7.888443455E-20
 -3.64308596   -7.88699395E-20
 -3.5160532   -7.885859161E-20
 -3.38902068   -7.885032627E-20
 -3.26198792   -7.884536319E-20
 -3.13495541   -7.884407072E-20
 -3.00792265   -7.884544073E-20
 -2.88089013   -7.884864606E-20
 -2.75385737   -7.885313093E-20
 -2.62682486   -7.88577709E-20
 -2.4997921   -7.886157076E-20
 -2.37275958   -7.886374211E-20
 -2.24572682   -7.886298601E-20
 -2.11869431   -7.885918615E-20
 -1.99166155   -7.885210342E-20
 -1.86462891   -7.884191229E-20
 -1.73759627   -7.882880665E-20
 -1.61056364   -7.881388509E-20
 -1.483531   -7.879746426E-20
 -1.35649836   -7.878064277E-20
 -1.22946572   -7.876394406E-20
 -1.10243309   -7.874935207E-20
 -0.975400388   -7.873689913E-20
 -0.848367751   -7.872702466E-20
 -0.721335113   -7.872076911E-20
 -0.594302475   -7.871784812E-20
 -0.467269808   -7.87177318E-20
 -0.34023717   -7.871974159E-20
 -0.213204518   -7.872344452E-20
 -8.617187291E-2   -7.872843991E-20
 4.086076841E-2   -7.873221393E-20
 0.16789341   -7.873446929E-20
 0.294926047   -7.873415909E-20
 0.421958715   -7.873092792E-20
 0.548991323   -7.872513119E-20
 0.67602402   -7.871565093E-20
 0.803056657   -7.870345647E-20
 0.930089295   -7.868842505E-20
 1.05712187   -7.867187498E-20
 1.18415463   -7.865456881E-20
 1.31118727   -7.863738542E-20
 1.4382199   -7.862212136E-20
 1.56525254   -7.860953916E-20
 1.69228518   -7.859999427E-20
 1.81931782   -7.859410707E-20
 1.94635046   -7.859146397E-20
 2.07338309   -7.859183233E-20
 2.20041585   -7.859505058E-20
 2.32744837   -7.859971639E-20
 2.45448112   -7.860545496E-20
 2.58151364   -7.861135508E-20
 2.7085464   -7.861655081E-20
 2.83557892   -7.861954934E-20
 2.96261168   -7.862000817E-20
 3.08964419   -7.861825041E-20
 3.21667695   -7.86132227E-20
 3.34370947   -7.860582978E-20
 3.47074223   -7.859598116E-20
 3.59777474   -7.858467205E-20
 3.7248075   -7.857295581E-20
 3.85184002   -7.85610457E-20
 3.97887278   -7.855011787E-20
 4.10590553   -7.854108351E-20
 4.23293829   -7.85343562E-20
 4.35997057   -7.853091823E-20
 4.48700333   -7.852986487E-20
 4.61403608   -7.853198452E-20
 4.74106884   -7.85363466E-20
 4.86810112   -7.854226612E-20
 4.99513388   -7.854938762E-20
 5.12216663   -7.855607615E-20
 5.24919939   -7.856215722E-20
 5.37623167   -7.856642884E-20
 5.50326443   -7.856860019E-20
 5.63029718   -7.856844509E-20
 5.75732994   -7.856536255E-20
 5.88436222   -7.855958521E-20
 6.01139498   -7.855155251E-20
 6.13842773   -7.854178144E-20
 6.26546049   -7.853094408E-20
 6.39249325   -7.851977714E-20
 6.51952553   -7.850928875E-20
 6.64655828   -7.850022208E-20
 6.77359104   -7.849338491E-20
 6.9006238   -7.848887419E-20
 7.02765608   -7.848726507E-20
 7.15468884   -7.848893235E-20
 7.28172159   -7.84931458E-20
 7.40875435   -7.849911701E-20
 7.53578663   -7.850608989E-20
 7.66281939   -7.851310154E-20
 7.78985214   -7.851907275E-20
 7.9168849   -7.852260119E-20
 8.04391766   -7.852421678E-20
 8.17094994   -7.852262704E-20
 8.29798317   -7.851820033E-20
 8.42501545   -7.851133085E-20
 8.55204773   -7.850238696E-20
 8.67908096   -7.849246079E-20
 8.80611324   -7.84822309E-20
 8.93314552   -7.847264077E-20
 9.06017876   -7.846478902E-20
 9.18721104   -7.845892121E-20
 9.31424427   -7.845547677E-20
 9.44127655   -7.845506318E-20
 9.56830883   -7.845772567E-20
 9.69534206   -7.846274045E-20
 9.82237434   -7.846948715E-20
 9.94940662   -7.847706748E-20
 10.0764399   -7.848504848E-20
 10.2034721   -7.849197612E-20
 10.3305054   -7.849685519E-20
 10.4575377   -7.849906532E-20
 10.5845699   -7.849895546E-20
 10.7116032   -7.849573721E-20
 10.8386354   -7.848951396E-20
 10.9656687   -7.84814748E-20
 11.092701   -7.847165203E-20
 11.2197332   -7.846133166E-20
 11.3467665   -7.845136026E-20
 11.4737988   -7.84424616E-20
 11.600831   -7.843590232E-20
 11.7278643   -7.843205076E-20
 11.8548965   -7.843067428E-20
 11.9819298   -7.843247728E-20
 12.1089621   -7.843611558E-20
 12.2359943   -7.84409171E-20
 12.3630276   -7.844706926E-20
 12.4900599   -7.845257518E-20
 12.6170931   -7.845674339E-20
 12.7441254   -7.845929602E-20
 12.8711576   -7.845978716E-20
 12.9981909   -7.845737024E-20
 13.1252232   -7.845271089E-20
 13.2522554   -7.844609991E-20
 13.3792887   -7.843813183E-20
 13.506321   -7.842907162E-20
 13.6333542   -7.84203733E-20
 13.7603865   -7.841316778E-20
 13.8874187   -7.840836625E-20
 14.014452   -7.840607858E-20
 14.1414843   -7.840698331E-20
 14.2685175   -7.841075732E-20
 14.3955498   -7.841701288E-20
 14.5225821   -7.842415377E-20
 14.6496153   -7.843265822E-20
 14.7766476   -7.843996714E-20
 14.9036798   -7.844584787E-20
 15.0307131   -7.84488464E-20
 15.1577454   -7.844882056E-20
 15.2847786   -7.844532442E-20
 15.4118109   -7.843810598E-20
 15.5388432   -7.842827029E-20
 15.6658764   -7.841588196E-20
 15.7929087   -7.840341609E-20
 15.9199409   -7.839065296E-20
 16.0469742   -7.838008702E-20
 16.1740074   -7.837175705E-20
 16.3010387   -7.836638684E-20
 16.428072   -7.836481649E-20
 16.5551052   -7.836703307E-20
 16.6821365   -7.837257777E-20
 16.8091698   -7.838082372E-20
 16.936203   -7.839032984E-20
 17.0632343   -7.840058559E-20
 17.1902676   -7.840934207E-20
 17.3173008   -7.841625032E-20
 17.444334   -7.841997909E-20
 17.5713654   -7.841962366E-20
 17.6983986   -7.841519696E-20
 17.8254318   -7.840655033E-20
 17.9524632   -7.839524122E-20
 18.0794964   -7.838167675E-20
 18.2065296   -7.836734326E-20
 18.3335609   -7.835326181E-20
 18.4605942   -7.834175883E-20
 18.5876274   -7.833273093E-20
 18.7146587   -7.832675972E-20
 18.841692   -7.832471761E-20
 18.9687252   -7.832665632E-20
 19.0957584   -7.833187143E-20
 19.2227898   -7.83390511E-20
 19.349823   -7.834712258E-20
 19.4768562   -7.835499372E-20
 19.6038876   -7.836119111E-20
 19.7309208   -7.836475833E-20
 19.857954   -7.836433181E-20
 19.9849854   -7.836054487E-20
 20.1120186   -7.835189825E-20
 20.2390518   -7.833942592E-20
 20.3660831   -7.8324737E-20
 20.4931164   -7.83086199E-20
 20.6201496   -7.829287762E-20
 20.7471828   -7.827931962E-20
 20.8742142   -7.826910264E-20
 21.0012474   -7.826280185E-20
 21.1282806   -7.826158693E-20
 21.255312   -7.826510891E-20
 21.3823452   -7.827316746E-20
 21.5093784   -7.828514219E-20
 21.6364098   -7.82992495E-20
 21.763443   -7.831411936E-20
 21.8904762   -7.832825252E-20
 22.0175076   -7.83401497E-20
 22.1445408   -7.834831811E-20
 22.271574   -7.835270605E-20
 22.3986073   -7.835253802E-20
 22.5256386   -7.83481307E-20
 22.6526718   -7.833983951E-20
 22.779705   -7.832909909E-20
 22.9067364   -7.831665907E-20
 23.0337696   -7.830409626E-20
 23.1608028   -7.829269021E-20
 23.2878342   -7.828417284E-20
 23.4148674   -7.8278738E-20
 23.5419006   -7.827715473E-20
 23.668932   -7.827992708E-20
 23.7959652   -7.828683533E-20
 23.9229984   -7.82963479E-20
 24.0500298   -7.830790905E-20
 24.177063   -7.83194508E-20
 24.3040962   -7.832916371E-20
 24.4311295   -7.8335807E-20
 24.5581608   -7.833854704E-20
 24.685194   -7.833614951E-20
 24.8122272   -7.832862733E-20
 24.9392586   -7.831645873E-20
 25.0662918   -7.830078107E-20
 25.193325   -7.828284806E-20
 25.3203564   -7.826385522E-20
 25.4473896   -7.82453212E-20
 25.5744228   -7.822937859E-20
 25.7014542   -7.821731984E-20
 25.8284874   -7.820992045E-20
 25.9555206   -7.820818855E-20
 26.0825539   -7.821143911E-20
 26.2095852   -7.821980785E-20
 26.3366184   -7.823237065E-20
 26.4636517   -7.824694971E-20
 26.590683   -7.826306035E-20
 26.7177162   -7.827821455E-20
 26.8447495   -7.829104878E-20
 26.9717808   -7.830065183E-20
 27.098814   -7.830628053E-20
 27.2258472   -7.830636454E-20
 27.3528786   -7.830206062E-20
 27.4799118   -7.829358202E-20
 27.606945   -7.828136172E-20
 27.7339783   -7.826716394E-20
 27.8610096   -7.825242332E-20
 27.9880428   -7.823878777E-20
 28.1150761   -7.822723309E-20
 28.2421074   -7.821911638E-20
 28.3691406   -7.821565256E-20
 28.4961739   -7.821686748E-20
 28.6232052   -7.822292916E-20
 28.7502384   -7.823347571E-20
 28.8772717   -7.824711127E-20
 29.004303   -7.826313143E-20
 29.1313362   -7.827940363E-20
 29.2583694   -7.829461599E-20
 29.3854027   -7.830744376E-20
 29.512434   -7.831583188E-20
 29.6394672   -7.831923108E-20
 29.7665005   -7.831724068E-20
 29.8935318   -7.831077187E-20
 30.020565   -7.829961785E-20
 30.1475983   -7.828576904E-20
 30.2746296   -7.827018185E-20
 30.4016628   -7.825585483E-20
 30.5286961   -7.824397057E-20
 30.6557274   -7.823593141E-20
 30.7827606   -7.823329477E-20
 30.9097939   -7.823598957E-20
 31.0368271   -7.824405458E-20
 31.1638584   -7.825699866E-20
 31.2908916   -7.82736069E-20
 31.4179249   -7.82922637E-20
 31.5449562   -7.831059092E-20
 31.6719894   -7.832770322E-20
 31.7990227   -7.834058268E-20
 31.926054   -7.834894496E-20
 32.0530891   -7.835110338E-20
 32.1801186   -7.834751678E-20
 32.3071518   -7.83379525E-20
 32.434185   -7.832364486E-20
 32.5612183   -7.830565369E-20
 32.6882515   -7.828529729E-20
 32.8152847   -7.826478579E-20
 32.9423141   -7.824530828E-20
 33.0693474   -7.8227763E-20
 33.1963806   -7.821395296E-20
 33.3234138   -7.820454378E-20
 33.4504471   -7.819879229E-20
 33.5774803   -7.819673726E-20
 33.7045135   -7.819686005E-20
 33.831543   -7.819896677E-20
 33.9585762   -7.820218502E-20
 34.0856094   -7.820480874E-20
 34.2126427   -7.820645017E-20
 34.3396759   -7.820685084E-20
 34.4667091   -7.820462133E-20
 34.5937386   -7.820010415E-20
 34.7207718   -7.819432035E-20
 34.847805   -7.818650737E-20
 34.9748383   -7.817835188E-20
 35.1018715   -7.816989913E-20
 35.2289047   -7.816206676E-20
 35.355938   -7.815529422E-20
 35.4829674   -7.815102907E-20
 35.6100006   -7.8148638E-20
 35.7370338   -7.814808224E-20
 35.8640671   -7.814932947E-20
 35.9911003   -7.815189503E-20
 36.1181335   -7.815541054E-20
 36.245163   -7.815833799E-20
 36.3721962   -7.816074198E-20
 36.4992294   -7.816186643E-20
 36.6262627   -7.816078076E-20
 36.7532959   -7.81583186E-20
 36.8803291   -7.81536851E-20
 37.0073624   -7.814671222E-20
 37.1343918   -7.813833702E-20
 37.261425   -7.812846255E-20
 37.3884583   -7.811732792E-20
 37.5154915   -7.810607051E-20
 37.6425247   -7.809513622E-20
 37.769558   -7.808415023E-20
 37.8965874   -7.807419821E-20
 38.0236206   -7.80643819E-20
 38.1506538   -7.805539278E-20
 38.2776871   -7.804625502E-20
 38.4047203   -7.803737575E-20
 38.5317535   -7.802822506E-20
 38.6587868   -7.80186414E-20
 38.7858162   -7.80089608E-20
 38.9128494   -7.799831085E-20
 39.0398827   -7.798793232E-20
 39.1669159   -7.797672661E-20
 39.2939491   -7.796592802E-20
 39.4209824   -7.795547194E-20
 39.5480118   -7.794622432E-20
 39.675045   -7.793809469E-20
 39.8020782   -7.793125106E-20
 39.9291115   -7.792605533E-20
 40.0561447   -7.79222167E-20
 40.1831779   -7.792031677E-20
 40.3102074   -7.791955421E-20
 40.4372406   -7.791978039E-20
 40.5642738   -7.792010351E-20
 40.6913071   -7.792000011E-20
 40.8183403   -7.791954129E-20
 40.9453735   -7.79176672E-20
 41.0724068   -7.791453297E-20
 41.1994362   -7.791030659E-20
 41.3264694   -7.790423198E-20
 41.4535027   -7.789653532E-20
 41.5805359   -7.788805026E-20
 41.7075691   -7.787888665E-20
 41.8346024   -7.786962611E-20
 41.9616318   -7.786129614E-20
 42.088665   -7.785325698E-20
 42.2156982   -7.784545046E-20
 42.3427315   -7.783864561E-20
 42.4697647   -7.783275194E-20
 42.5967979   -7.782661918E-20
 42.7238312   -7.782001466E-20
 42.8508606   -7.781232446E-20
 42.9778938   -7.780292821E-20
 43.1049271   -7.779175481E-20
 43.2319603   -7.777878487E-20
 43.3589935   -7.776453539E-20
 43.4860268   -7.77483149E-20
 43.6130562   -7.773148048E-20
 43.7400894   -7.771397398E-20
 43.8671227   -7.769715249E-20
 43.9941559   -7.768095138E-20
 44.1211891   -7.766593288E-20
 44.2482224   -7.765201298E-20
 44.3752556   -7.763992839E-20
 44.502285   -7.762901348E-20
 44.6293182   -7.762002436E-20
 44.7563515   -7.761276714E-20
 44.8833847   -7.760701565E-20
 45.0104179   -7.760193624E-20
 45.1374512   -7.759777449E-20
 45.2644806   -7.759349641E-20
 45.3915138   -7.758932174E-20
 45.5185471   -7.758419063E-20
 45.6455803   -7.757816126E-20
 45.7726135   -7.757091051E-20
 45.8996468   -7.756264516E-20
 46.02668   -7.755362372E-20
 46.1537094   -7.754429856E-20
 46.2807426   -7.753454041E-20
 46.4077759   -7.752540265E-20
 46.5348091   -7.751691112E-20
 46.6618423   -7.750948588E-20
 46.7888756   -7.750380548E-20
 46.915905   -7.749931415E-20
 47.0429382   -7.749630269E-20
 47.1699715   -7.749421535E-20
 47.2970047   -7.749327185E-20
 47.4240379   -7.749293581E-20
 47.5510712   -7.7493246E-20
 47.6781044   -7.749353681E-20
 47.8051338   -7.749353681E-20
 47.9321671   -7.749344633E-20
 48.0592003   -7.749382115E-20
 48.1862335   -7.749435753E-20
 48.3132668   -7.749539796E-20
 48.4403   -7.749707817E-20
 48.5673294   -7.74988424E-20
 48.6943626   -7.750102667E-20
 48.8213959   -7.75033725E-20
 48.9484291   -7.750493639E-20
 49.0754623   -7.750604145E-20
 49.2024956   -7.750534998E-20
 49.3295288   -7.750284259E-20
 49.4565582   -7.749791828E-20
 49.5835915   -7.749082908E-20
 49.7106247   -7.748200798E-20
 49.8376579   -7.747117708E-20
 49.9646912   -7.74587306E-20
 50.0917244   -7.744531476E-20
 50.2187538   -7.74313367E-20
 50.345787   -7.741771407E-20
 50.4728203   -7.740478938E-20
 50.5998535   -7.739288573E-20
 50.7268867   -7.738277862E-20
 50.85392   -7.737456497E-20
 50.9809532   -7.736852914E-20
 51.1079826   -7.736460649E-20
 51.2350159   -7.736273887E-20
 51.3620491   -7.736231236E-20
 51.4890823   -7.736359837E-20
 51.6161156   -7.736600882E-20
 51.7431488   -7.736957604E-20
 51.8701782   -7.737462313E-20
 51.9972115   -7.738089161E-20
 52.1242447   -7.738783863E-20
 52.2512779   -7.739625908E-20
 52.3783112   -7.740559717E-20
 52.5053444   -7.741527777E-20
 52.6323776   -7.742535903E-20
 52.759407   -7.743506548E-20
 52.8864403   -7.744329851E-20
 53.0134735   -7.7450252E-20
 53.1405067   -7.745476918E-20
 53.26754   -7.745698576E-20
 53.3945732   -7.745678543E-20
 53.5216026   -7.745487258E-20
 53.6486359   -7.745131828E-20
 53.7756691   -7.744673648E-20
 53.9027023   -7.744159891E-20
 54.0297356   -7.743649366E-20
 54.1567688   -7.743162105E-20
 54.283802   -7.742712971E-20
 54.4108315   -7.742287749E-20
 54.5378647   -7.741858649E-20
 54.6648979   -7.741344246E-20
 54.7919312   -7.740721922E-20
 54.9189644   -7.739988445E-20
 55.0459976   -7.739099226E-20
 55.173027   -7.738051679E-20
 55.3000603   -7.736924646E-20
 55.4270935   -7.735734927E-20
 55.5541267   -7.734616941E-20
 55.68116   -7.733653405E-20
 55.8081932   -7.732943839E-20
 55.9352264   -7.732594226E-20
 56.0622559   -7.732625245E-20
 56.1892891   -7.733142233E-20
 56.3163223   -7.734070873E-20
 56.4433556   -7.735422796E-20
 56.5703888   -7.737091374E-20
 56.697422   -7.738997767E-20
 56.8244514   -7.74097977E-20
 56.9514847   -7.742906196E-20
 57.0785179   -7.744601916E-20
 57.2055511   -7.745896324E-20
 57.3325844   -7.746748062E-20
 57.4596176   -7.747068594E-20
 57.5866508   -7.74686503E-20
 57.7136803   -7.746258216E-20
 57.8407135   -7.745308897E-20
 57.9677467   -7.744220637E-20
 58.09478   -7.743076155E-20
 58.2218132   -7.742013099E-20
 58.3488464   -7.741178164E-20
 58.4758759   -7.740723214E-20
 58.6029091   -7.740670223E-20
 58.7299423   -7.741037931E-20
 58.8569756   -7.741708076E-20
 58.9840088   -7.742651579E-20
 59.111042   -7.74378766E-20
 59.2380753   -7.745032308E-20
 59.3651047   -7.746260155E-20
 59.4921379   -7.747431778E-20
 59.6191711   -7.748384328E-20
 59.7462044   -7.749153348E-20
 59.8732376   -7.749641902E-20
 60.0002708   -7.749835126E-20
 60.1273003   -7.749934646E-20
 60.2543335   -7.749881008E-20
 60.3813667   -7.749819616E-20
 60.5084   -7.749799583E-20
 60.6354332   -7.749891348E-20
 60.7624664   -7.750151781E-20
 60.8894997   -7.750595744E-20
 61.0165291   -7.75121613E-20
 61.1435623   -7.751901139E-20
 61.2705956   -7.752644309E-20
 61.3976288   -7.753291836E-20
 61.524662   -7.753771342E-20
 61.6516953   -7.754001402E-20
 61.7787247   -7.753895419E-20
 61.9057579   -7.753410097E-20
 62.0327911   -7.752618459E-20
 62.1598244   -7.75155411E-20
 62.2868576   -7.750205418E-20
 62.4138908   -7.748731357E-20
 62.5409203   -7.747115769E-20
 62.6679535   -7.745475625E-20
 62.7949867   -7.74384776E-20
 62.92202   -7.742229588E-20
 63.0490532   -7.740765866E-20
 63.1760864   -7.739343503E-20
 63.3031197   -7.738085284E-20
 63.4301491   -7.736895565E-20
 63.5571823   -7.7358254E-20
 63.6842155   -7.734837953E-20
 63.8112488   -7.733847275E-20
 63.938282   -7.732736398E-20
 64.0653152   -7.731551203E-20
 64.1923447   -7.730225775E-20
 64.3193817   -7.728743313E-20
 64.4464111   -7.727189764E-20
 64.5734482   -7.725596149E-20
 64.7004776   -7.723998656E-20
 64.827507   -7.722447046E-20
 64.9545441   -7.721027268E-20
 65.0815735   -7.71973286E-20
 65.2086105   -7.718661403E-20
 65.33564   -7.717712084E-20
 65.4626694   -7.716939833E-20
 65.5897064   -7.716287136E-20
 65.7167358   -7.715668689E-20
 65.8437729   -7.715076092E-20
 65.9708023   -7.714430503E-20
 66.0978394   -7.713659545E-20
 66.2248688   -7.712697301E-20
 66.3518982   -7.711519861E-20
 66.4789352   -7.710044507E-20
 66.6059647   -7.708191752E-20
 66.7330017   -7.705951256E-20
 66.8600311   -7.703431586E-20
 66.9870682   -7.70060754E-20
 67.1140976   -7.697645199E-20
 67.241127   -7.694646669E-20
 67.3681641   -7.691708239E-20
 67.4951935   -7.689030242E-20
 67.6222305   -7.686790392E-20
 67.7492599   -7.685077224E-20
 67.876297   -7.684041309E-20
 68.0033264   -7.683789277E-20
 68.1303558   -7.68432436E-20
 68.2573929   -7.685785497E-20
 68.3844223   -7.688049904E-20
 68.5114594   -7.691120166E-20
 68.6384888   -7.694892885E-20
 68.7655182   -7.699256909E-20
 68.8925552   -7.704048094E-20
 69.0195847   -7.709076447E-20
 69.1466217   -7.714075074E-20
 69.2736511   -7.718721502E-20
 69.4006882   -7.722596973E-20
 69.5277176   -7.725425543E-20
 69.654747   -7.726765188E-20
 69.7817841   -7.726180345E-20
 69.9088135   -7.723402828E-20
 70.0358505   -7.718074621E-20
 70.1628799   -7.709948864E-20
 70.289917   -7.698865937E-20
 70.4169464   -7.684880122E-20
 70.5439758   -7.668114851E-20
 70.6710129   -7.648780151E-20
 70.7980423   -7.62738073E-20
 70.9250793   -7.604540205E-20
 71.0521088   -7.581169768E-20
 71.1791458   -7.558255572E-20
 71.3061752   -7.537093966E-20
 71.4332047   -7.5190233E-20
 71.5602417   -7.505467878E-20
 71.6872711   -7.497772514E-20
 71.8143082   -7.49742807E-20
 71.9413376   -7.50554478E-20
 72.068367   -7.523046759E-20
 72.1954041   -7.550448409E-20
 72.3224335   -7.587871223E-20
 72.4494705   -7.634857667E-20
 72.5764999   -7.690403491E-20
 72.703537   -7.752945454E-20
 72.8305664   -7.820323192E-20
 72.9575958   -7.889659669E-20
 73.0846329   -7.957717892E-20
 73.2116623   -8.02080657E-20
 73.3386993   -8.074891257E-20
 73.4657288   -8.115954958E-20
 73.5927658   -8.139978739E-20
 73.7197952   -8.143308141E-20
 73.8468246   -8.122902629E-20
 73.9738617   -8.076444159E-20
 74.1008911   -8.002654479E-20
 74.2279282   -7.901502568E-20
 74.3549576   -7.77416716E-20
 74.481987   -7.623413494E-20
 74.609024   -7.453540969E-20
 74.7360535   -7.270285567E-20
 74.8630905   -7.080757163E-20
 74.9901199   -6.893274092E-20
 75.117157   -6.717233255E-20
 75.2441864   -6.56251623E-20
 75.3712158   -6.439281829E-20
 75.4982529   -6.357465265E-20
 75.6252823   -6.326144847E-20
 75.7523193   -6.353075392E-20
 75.8793488   -6.444091108E-20
 76.0063858   -6.602675849E-20
 76.1334152   -6.829398946E-20
 76.2604446   -7.121640564E-20
 76.3874817   -7.473125762E-20
 76.5145111   -7.874174589E-20
 76.6415482   -8.311432601E-20
 76.7685776   -8.76835877E-20
 76.8956146   -9.225433573E-20
 77.022644   -9.661040455E-20
 77.1496735   -1.005203839E-19
 77.2767105   -1.037496841E-19
 77.4037399   -1.06069706E-19
 77.530777   -1.0727158E-19
 77.6578064   -1.071770165E-19
 77.7848358   -1.056511591E-19
 77.9118729   -1.026130927E-19
 78.0389023   -9.804576324E-20
 78.1659393   -9.20039068E-20
 78.2929688   -8.4618373E-20
 78.4200058   -7.60978117E-20
 78.5470352   -6.672554516E-20
 78.6740646   -5.685539991E-20
 78.8011017   -4.690072068E-20
 78.9281311   -3.731923884E-20
 79.0551682   -2.859812178E-20
 79.1821976   -2.123111554E-20
 79.3092346   -1.569659061E-20
 79.436264   -1.243282187E-20
 79.5632935   -1.181168517E-20
 79.6903305   -1.411569821E-20
 79.8173599   -1.951522629E-20
 79.944397   -2.805025356E-20
 80.0714264   -3.961343397E-20
 80.1984634   -5.394369831E-20
 80.3254929   -7.06219859E-20
 80.4525223   -8.907893153E-20
 80.5795593   -1.086070179E-19
 80.7065887   -1.283798657E-19
 80.8336258   -1.474836924E-19
 80.9606552   -1.64952545E-19
 81.0876846   -1.798076231E-19
 81.2147217   -1.911072075E-19
 81.3417511   -1.979915345E-19
 81.4687881   -1.997353346E-19
 81.5958176   -1.957929531E-19
 81.7228546   -1.858438961E-19
 81.849884   -1.698269652E-19
 81.9769135   -1.479695835E-19
 82.1039505   -1.208031756E-19
 82.2309799   -8.916680008E-20
 82.358017   -5.419467654E-20
 82.4850464   -1.72900442E-20
 82.6120834   1.991709066E-20
 82.7391129   5.562718534E-20
 82.8661423   8.794223674E-20
 82.9931793   1.149470212E-19
 83.1202087   1.3480313E-19
 83.2472458   1.458433933E-19
 83.3742752   1.466718793E-19
 83.5013123   1.362590971E-19
 83.6283417   1.140285535E-19
 83.7553711   7.993156119E-20
 83.8824081   3.450413319E-20
 84.0094376   -2.109791845E-20
 84.1364746   -8.509133937E-20
 84.263504   -1.550861543E-19
 84.3905334   -2.281395924E-19
 84.5175705   -3.008400829E-19
 84.6445999   -3.69424962E-19
 84.771637   -4.299280798E-19
 84.8986664   -4.783518791E-19
 85.0257034   -5.108630757E-19
 85.1527328   -5.239987038E-19
 85.2797623   -5.148805368E-19
 85.4067993   -4.814239762E-19
 85.5338287   -4.2253293E-19
 85.6608658   -3.382679118E-19
 85.7878952   -2.299783374E-19
 85.9149323   -1.003857796E-19
 86.0419617   4.638817243E-20
 86.1689911   2.048623422E-19
 86.2960281   3.683047785E-19
 86.4230576   5.289194979E-19
 86.5500946   6.78103641E-19
 86.677124   8.067804775E-19
 86.8041611   9.057936866E-19
 86.9311905   9.663518895E-19
 87.0582199   9.805141521E-19
 87.185257   9.416867078E-19
 87.3122864   8.451185411E-19
 87.4393234   6.883648682E-19
 87.5663528   4.71692248E-19
 87.6933823   1.983986754E-19
 87.8204193   -1.249756944E-19
 87.9474487   -4.885764002E-19
 88.0744858   -8.793166692E-19
 88.2015152   -1.28113299E-18
 88.3285522   -1.675417831E-18
 88.4555817   -2.041633746E-18
 88.5826111   -2.358097746E-18
 88.7096481   -2.602917771E-18
 88.8366776   -2.755052416E-18
 88.9637146   -2.795455019E-18
 89.090744   -2.708254673E-18
 89.2177811   -2.481919032E-18
 89.3448105   -2.11033792E-18
 89.4718399   -1.593761456E-18
 89.598877   -9.395369687E-19
 89.7259064   -1.625723715E-19
 89.8529434   7.145206294E-19
 89.9799728   1.661646101E-18
 90.1070099   2.641842616E-18
 90.2340393   3.61230642E-18
 90.3610687   4.525816978E-18
 90.4881058   5.33253976E-18
 90.6151352   5.982146615E-18
 90.7421722   6.426193712E-18
 90.8692017   6.620662633E-18
 90.9962311   6.528546559E-18
 91.1232681   6.122372341E-18
 91.2502975   5.386514949E-18
 91.3773346   4.319179403E-18
 91.504364   2.933908717E-18
 91.6314011   1.26050507E-18
 91.7584305   -6.547373397E-19
 91.8854599   -2.749576067E-18
 92.0124969   -4.947172443E-18
 92.1395264   -7.158273783E-18
 92.2665634   -9.284189169E-18
 92.3935928   -1.122048994E-17
 92.5206299   -1.286131518E-17
 92.6476593   -1.410414082E-17
 92.7746887   -1.485480392E-17
 92.9017258   -1.503257827E-17
 93.0287552   -1.457506632E-17
 93.1557922   -1.344264117E-17
 93.2828217   -1.162221931E-17
 93.4098587   -9.130111063E-18
 93.5368881   -6.013764767E-18
 93.6639175   -2.352233862E-18
 93.7909546   1.744755522E-18
 93.917984   6.139169484E-18
 94.0450211   1.066848006E-17
 94.1720505   1.515083201E-17
 94.2990799   1.939142966E-17
 94.4261169   2.31899423E-17
 94.5531464   2.634864231E-17
 94.6801834   2.868100543E-17
 94.8072128   3.002039282E-17
 94.9342499   3.022846845E-17
 95.0612793   2.920298287E-17
 95.1883087   2.688460241E-17
 95.3153458   2.326237189E-17
 95.4423752   1.837761725E-17
 95.5694122   1.23260036E-17
 95.6964417   5.257583134E-18
 95.8234787   -2.625262194E-18
 95.9505081   -1.107199613E-17
 96.0775375   -1.97902184E-17
 96.2045746   -2.845387156E-17
 96.331604   -3.671326336E-17
 96.4586411   -4.420659989E-17
 96.5856705   -5.057274401E-17
 96.7126999   -5.546478279E-17
 96.8397369   -5.856412267E-17
 96.9667664   -5.959459119E-17
 97.0938034   -5.833610537E-17
 97.2208328   -5.463750292E-17
 97.3478699   -4.842797387E-17
 97.4748993   -3.972671211E-17
 97.6019287   -2.865023762E-17
 97.7289658   -1.541702038E-17
 97.8559952   -3.489105209E-19
 97.9830322   1.61309153E-17
 98.1100616   3.350385883E-17
 98.2370987   5.116585236E-17
 98.3641281   6.84414996E-17
 98.4911575   8.460243163E-17
 98.6181946   9.888968046E-17
 98.745224   1.105397584E-16
 98.872261   1.188140659E-16
 98.9992905   1.23030715E-16
 99.1263275   1.225980135E-16
 99.2533569   1.17048386E-16
 99.3803864   1.060714743E-16
 99.5074234   8.95449152E-17
 99.6344528   6.756115444E-17
 99.7614899   4.044866212E-17
 99.8885193   8.785854208E-18
 100.015549   -2.65938964E-17
 100.142586   -6.46074579E-17
 100.269615   -1.039385725E-16
 100.396652   -1.430666971E-16
 100.523682   -1.803081549E-16
 100.650719   -2.138696517E-16
 100.777748   -2.419128744E-16
 100.904778   -2.626291298E-16
 101.031815   -2.743212285E-16
 101.158844   -2.754904251E-16
 101.285881   -2.64924695E-16
 101.41291   -2.417843107E-16
 101.539948   -2.056808284E-16
 101.666977   -1.567449954E-16
 101.794006   -9.567904839E-17
 101.921043   -2.378938685E-17
 102.048073   5.700396077E-17
 102.17511   1.441843438E-16
 102.302139   2.346837659E-16
 102.429176   3.249576257E-16
 102.556206   4.110884356E-16
 102.683235   4.889172639E-16
 102.810272   5.541993108E-16
 102.937302   6.027796678E-16
 103.064339   6.307832124E-16
 103.191368   6.348115952E-16
 103.318398   6.12139276E-16
 103.445435   5.609004531E-16
 103.572464   4.802567755E-16
 103.699501   3.705377127E-16
 103.82653   2.33344395E-16
 103.953568   7.160889328E-17
 104.080597   -1.103975429E-16
 104.207626   -3.071123885E-16
 104.334663   -5.117894828E-16
 104.461693   -7.166666887E-16
 104.58873   -9.131927849E-16
 104.715759   -1.092308701E-15
 104.842796   -1.244777173E-15
 104.969826   -1.3615503E-15
 105.096855   -1.434164634E-15
 105.223892   -1.455148287E-15
 105.350922   -1.418426127E-15
 105.477959   -1.319704225E-15
 105.604988   -1.156817672E-15
 105.732025   -9.300231178E-16
 105.859055   -6.422191101E-16
 105.986084   -2.990789428E-16
 106.113121   9.091749239E-17
 106.24015   5.165635723E-16
 106.367188   9.64124029E-16
 106.494217   1.417655327E-15
 106.621246   1.859444419E-15
 106.748283   2.270561177E-15
 106.875313   2.631511139E-15
 107.00235   2.922971576E-15
 107.129379   3.126589826E-15
 107.256416   3.22581423E-15
 107.383446   3.206730578E-15
 107.510475   3.058868483E-15
 107.637512   2.775941691E-15
 107.764542   2.356486952E-15
 107.891579   1.804366313E-15
 108.018608   1.129098201E-15
 108.145645   3.459902744E-16
 108.272675   -5.239520819E-16
 108.399704   -1.454355676E-15
 108.526741   -2.414058087E-15
 108.65377   -3.367933441E-15
 108.780807   -4.277950912E-15
 108.907837   -5.104448816E-15
 109.034874   -5.807582724E-15
 109.161903   -6.348913857E-15
 109.288933   -6.693073084E-15
 109.41597   -6.809448211E-15
 109.542999   -6.673817484E-15
 109.670036   -6.269868319E-15
 109.797066   -5.59051232E-15
 109.924095   -4.638944919E-15
 110.051132   -3.429362388E-15
 110.178162   -1.987294513E-15
 110.305199   -3.49499876E-16
 110.432228   1.436604936E-15
 110.559265   3.31399883E-15
 110.686295   5.217584465E-15
 110.813324   7.076162793E-15
 110.940361   8.814811843E-15
 111.06739   1.035759342E-14
 111.194427   1.163050183E-14
 111.321457   1.256455894E-14
 111.448494   1.309891391E-14
 111.575523   1.318384251E-14
 111.702553   1.278350086E-14
 111.82959   1.187830216E-14
 111.956619   1.046679545E-14
 112.083656   8.566936121E-15
 112.210686   6.216647968E-15
 112.337723   3.473623248E-15
 112.464752   4.143054403E-16
 112.591782   -2.867933492E-15
 112.718819   -6.265402337E-15
 112.845848   -9.659431593E-15
 112.972885   -1.292432263E-14
 113.099915   -1.593180035E-14
 113.226944   -1.855579831E-14
 113.353981   -2.0677399E-14
 113.48101   -2.218973737E-14
 113.608047   -2.300267724E-14
 113.735077   -2.304703127E-14
 113.862114   -2.227818624E-14
 113.989143   -2.067890841E-14
 114.116173   -1.826123583E-14
 114.24321   -1.506733886E-14
 114.370239   -1.116925596E-14
 114.497276   -6.667536735E-15
 114.624306   -1.688755316E-15
 114.751343   3.617992814E-15
 114.878372   9.085522726E-15
 115.005402   1.453376909E-14
 115.132439   1.977558505E-14
 115.259468   2.462294793E-14
 115.386505   2.889333399E-14
 115.513535   3.241605592E-14
 115.640572   3.503833101E-14
 115.767601   3.663090203E-14
 115.89463   3.709298222E-14
 116.021667   3.635642609E-14
 116.148697   3.438893796E-14
 116.275734   3.119625055E-14
 116.402763   2.68232329E-14
 116.529793   2.135388017E-14
 116.65683   1.491017528E-14
 116.783859   7.649884042E-15