 -7.19999981   2.27212659E-18
 -7.07296753   2.272129278E-18
 -6.94593477   2.272134448E-18
 -6.81890202   2.272141686E-18
 -6.69186926   2.272150371E-18
 -6.56483698   2.272160091E-18
 -6.43780422   2.27216981E-18
 -6.31077147   2.272179529E-18
 -6.18373871   2.272187801E-18
 -6.05670643   2.272195039E-18
 -5.92967367   2.272200209E-18
 -5.80264091   2.272203931E-18
 -5.67560816   2.272204965E-18
 -5.5485754   2.272205172E-18
 -5.42154312   2.272204138E-18
 -5.29451036   2.272202691E-18
 -5.16747761   2.27220145E-18
 -5.04044485   2.272200829E-18
 -4.91341257   2.272201243E-18
 -4.78637981   2.272203311E-18
 -4.65934706   2.272207654E-18
 -4.5323143   2.272214271E-18
 -4.40528202   2.272223163E-18
 -4.27824926   2.272234123E-18
 -4.15121651   2.272245911E-18
 -4.02418375   2.272259352E-18
 -3.89715123   2.272272587E-18
 -3.77011847   2.272285615E-18
 -3.64308596   2.272297403E-18
 -3.5160532   2.272306709E-18
 -3.38902068   2.272313533E-18
 -3.26198792   2.272317255E-18
 -3.13495541   2.272318082E-18
 -3.00792265   2.272316635E-18
 -2.88089013   2.272313119E-18
 -2.75385737   2.272308156E-18
 -2.62682486   2.2723034E-18
 -2.4997921   2.272299264E-18
 -2.37275958   2.272296576E-18
 -2.24572682   2.272296162E-18
 -2.11869431   2.272298437E-18
 -1.99166155   2.272303193E-18
 -1.86462891   2.272310638E-18
 -1.73759627   2.272320771E-18
 -1.61056364   2.272332558E-18
 -1.483531   2.272345793E-18
 -1.35649836   2.272359441E-18
 -1.22946572   2.272372263E-18
 -1.10243309   2.272384463E-18
 -0.975400388   2.272395217E-18
 -0.848367751   2.272403075E-18
 -0.721335113   2.272408452E-18
 -0.594302475   2.27241114E-18
 -0.467269808   2.272411347E-18
 -0.34023717   2.272409899E-18
 -0.213204518   2.272406384E-18
 -8.617187291E-2   2.272403075E-18
 4.086076841E-2   2.27240018E-18
 0.16789341   2.272398732E-18
 0.294926047   2.272399353E-18
 0.421958715   2.272402455E-18
 0.548991323   2.272408452E-18
 0.67602402   2.272417551E-18
 0.803056657   2.272428924E-18
 0.930089295   2.272442573E-18
 1.05712187   2.272457462E-18
 1.18415463   2.272473385E-18
 1.31118727   2.272488068E-18
 1.4382199   2.272501923E-18
 1.56525254   2.272513297E-18
 1.69228518   2.272522189E-18
 1.81931782   2.272527979E-18
 1.94635046   2.272530254E-18
 2.07338309   2.272530047E-18
 2.20041585   2.272527152E-18
 2.32744837   2.272521982E-18
 2.45448112   2.272515778E-18
 2.58151364   2.272509781E-18
 2.7085464   2.272504611E-18
 2.83557892   2.272501303E-18
 2.96261168   2.272500682E-18
 3.08964419   2.272503577E-18
 3.21667695   2.272509988E-18
 3.34370947   2.272519294E-18
 3.47074223   2.272531908E-18
 3.59777474   2.272545971E-18
 3.7248075   2.27256086E-18
 3.85184002   2.272575749E-18
 3.97887278   2.272589604E-18
 4.10590553   2.272601598E-18
 4.23293829   2.272611111E-18
 4.35997057   2.272617522E-18
 4.48700333   2.272620417E-18
 4.61403608   2.272619796E-18
 4.74106884   2.272616488E-18
 4.86810112   2.272610904E-18
 4.99513388   2.272603046E-18
 5.12216663   2.272595395E-18
 5.24919939   2.272588364E-18
 5.37623167   2.272582573E-18
 5.50326443   2.272579471E-18
 5.63029718   2.272579678E-18
 5.75732994   2.272583194E-18
 5.88436222   2.272590638E-18
 6.01139498   2.272601598E-18
 6.13842773   2.27261504E-18
 6.26546049   2.272629929E-18
 6.39249325   2.272645025E-18
 6.51952553   2.272660121E-18
 6.64655828   2.272673563E-18
 6.77359104   2.272684937E-18
 6.9006238   2.272693829E-18
 7.02765608   2.272699619E-18
 7.15468884   2.272702514E-18
 7.28172159   2.272702721E-18
 7.40875435   2.272699826E-18
 7.53578663   2.27269507E-18
 7.66281939   2.272688866E-18
 7.78985214   2.272681835E-18
 7.9168849   2.272675838E-18
 8.04391766   2.272670875E-18
 8.17094994   2.272668807E-18
 8.29798317   2.272669427E-18
 8.42501545   2.27267377E-18
 8.55204773   2.272681835E-18
 8.67908096   2.272693002E-18
 8.80611324   2.272706237E-18
 8.93314552   2.272720919E-18
 9.06017876   2.272735602E-18
 9.18721104   2.27274925E-18
 9.31424427   2.272760003E-18
 9.44127655   2.272767241E-18
 9.56830883   2.272770343E-18
 9.69534206   2.272769102E-18
 9.82237434   2.272763933E-18
 9.94940662   2.272755661E-18
 10.0764399   2.272744701E-18
 10.2034721   2.272732293E-18
 10.3305054   2.272720506E-18
 10.4575377   2.272710166E-18
 10.5845699   2.272702308E-18
 10.7116032   2.272698585E-18
 10.8386354   2.272698999E-18
 10.9656687   2.272703962E-18
 11.092701   2.272713475E-18
 11.2197332   2.272726709E-18
 11.3467665   2.272742426E-18
 11.4737988   2.272759797E-18
 11.600831   2.272776134E-18
 11.7278643   2.272790816E-18
 11.8548965   2.27280219E-18
 11.9819298   2.272810255E-18
 12.1089621   2.272813563E-18
 12.2359943   2.272812943E-18
 12.3630276   2.2728086E-18
 12.4900599   2.272801156E-18
 12.6170931   2.27279185E-18
 12.7441254   2.272782131E-18
 12.8711576   2.272772618E-18
 12.9981909   2.272764553E-18
 13.1252232   2.272758556E-18
 13.2522554   2.27275442E-18
 13.3792887   2.272752972E-18
 13.506321   2.272754627E-18
 13.6333542   2.272758763E-18
 13.7603865   2.272765173E-18
 13.8874187   2.272773445E-18
 14.014452   2.272782337E-18
 14.1414843   2.272791436E-18
 14.2685175   2.272799708E-18
 14.3955498   2.272805705E-18
 14.5225821   2.272810255E-18
 14.6496153   2.272811702E-18
 14.7766476   2.272810048E-18
 14.9036798   2.272804878E-18
 15.0307131   2.27279702E-18
 15.1577454   2.27278668E-18
 15.2847786   2.272774066E-18
 15.4118109   2.272761244E-18
 15.5388432   2.272748423E-18
 15.6658764   2.272737463E-18
 15.7929087   2.272728364E-18
 15.9199409   2.27272278E-18
 16.0469742   2.272720506E-18
 16.1740074   2.272721953E-18
 16.3010387   2.272727537E-18
 16.428072   2.272736222E-18
 16.5551052   2.272747596E-18
 16.6821365   2.27276021E-18
 16.8091698   2.272772825E-18
 16.936203   2.272783785E-18
 17.0632343   2.272792057E-18
 17.1902676   2.272796399E-18
 17.3173008   2.272795986E-18
 17.444334   2.272790196E-18
 17.5713654   2.272779649E-18
 17.6983986   2.272764553E-18
 17.8254318   2.272746562E-18
 17.9524632   2.272726916E-18
 18.0794964   2.272707478E-18
 18.2065296   2.27269052E-18
 18.3335609   2.272677079E-18
 18.4605942   2.27266798E-18
 18.5876274   2.272664464E-18
 18.7146587   2.272665498E-18
 18.841692   2.272671702E-18
 18.9687252   2.272680801E-18
 19.0957584   2.272692381E-18
 19.2227898   2.272704582E-18
 19.349823   2.272715749E-18
 19.4768562   2.272724021E-18
 19.6038876   2.272728571E-18
 19.7309208   2.27272795E-18
 19.857954   2.272721333E-18
 19.9849854   2.272708925E-18
 20.1120186   2.27269052E-18
 20.2390518   2.27266798E-18
 20.3660831   2.272642337E-18
 20.4931164   2.272614626E-18
 20.6201496   2.272586916E-18
 20.7471828   2.27256086E-18
 20.8742142   2.272537699E-18
 21.0012474   2.272518467E-18
 21.1282806   2.272504818E-18
 21.255312   2.272495099E-18
 21.3823452   2.272489929E-18
 21.5093784   2.272487447E-18
 21.6364098   2.272486827E-18
 21.763443   2.272486413E-18
 21.8904762   2.27248538E-18
 22.0175076   2.272481657E-18
 22.1445408   2.272474626E-18
 22.271574   2.272463252E-18
 22.3986073   2.272446709E-18
 22.5256386   2.272425616E-18
 22.6526718   2.27240018E-18
 22.779705   2.272371022E-18
 22.9067364   2.272339589E-18
 23.0337696   2.272307536E-18
 23.1608028   2.272276516E-18
 23.2878342   2.272248185E-18
 23.4148674   2.27222337E-18
 23.5419006   2.272203931E-18
 23.668932   2.272189869E-18
 23.7959652   2.272180977E-18
 23.9229984   2.272176014E-18
 24.0500298   2.272173946E-18
 24.177063   2.272172085E-18
 24.3040962   2.272169397E-18
 24.4311295   2.27216402E-18
 24.5581608   2.2721543E-18
 24.685194   2.272139411E-18
 24.8122272   2.272118732E-18
 24.9392586   2.272093089E-18
 25.0662918   2.272062897E-18
 25.193325   2.27202981E-18
 25.3203564   2.271995275E-18
 25.4473896   2.27196074E-18
 25.5744228   2.27192786E-18
 25.7014542   2.271898702E-18
 25.8284874   2.271873679E-18
 25.9555206   2.271853414E-18
 26.0825539   2.271838111E-18
 26.2095852   2.271827151E-18
 26.3366184   2.271819706E-18
 26.4636517   2.271815156E-18
 26.590683   2.271811021E-18
 26.7177162   2.271806678E-18
 26.8447495   2.271799647E-18
 26.9717808   2.271789721E-18
 27.098814   2.271776072E-18
 27.2258472   2.271757874E-18
 27.3528786   2.271735954E-18
 27.4799118   2.271710932E-18
 27.606945   2.271683428E-18
 27.7339783   2.27165489E-18
 27.8610096   2.271625525E-18
 27.9880428   2.271596988E-18
 28.1150761   2.271570311E-18
 28.2421074   2.271545496E-18
 28.3691406   2.271522955E-18
 28.4961739   2.271502482E-18
 28.6232052   2.271484491E-18
 28.7502384   2.271468154E-18
 28.8772717   2.271453885E-18
 29.004303   2.271441064E-18
 29.1313362   2.271429277E-18
 29.2583694   2.271417489E-18
 29.3854027   2.271405702E-18
 29.512434   2.271393294E-18
 29.6394672   2.271379232E-18
 29.7665005   2.271362895E-18
 29.8935318   2.271343663E-18
 30.020565   2.27132133E-18
 30.1475983   2.271295687E-18
 30.2746296   2.271268183E-18
 30.4016628   2.271238405E-18
 30.5286961   2.271208006E-18
 30.6557274   2.271178021E-18
 30.7827606   2.271148862E-18
 30.9097939   2.271122186E-18
 31.0368271   2.271098818E-18
 31.1638584   2.271078139E-18
 31.2908916   2.271060768E-18
 31.4179249   2.271047326E-18
 31.5449562   2.271036779E-18
 31.6719894   2.271028714E-18
 31.7990227   2.27102189E-18
 31.926054   2.271014652E-18
 32.0530891   2.27100514E-18
 32.1801186   2.270993146E-18
 32.3071518   2.270977016E-18
 32.434185   2.270955923E-18
 32.5612183   2.27092966E-18
 32.6882515   2.270899054E-18
 32.8152847   2.270864312E-18
 32.9423141   2.27082771E-18
 33.0693474   2.270790486E-18
 33.1963806   2.270754711E-18
 33.3234138   2.27072183E-18
 33.4504471   2.270693293E-18
 33.5774803   2.270669718E-18
 33.7045135   2.270650693E-18
 33.831543   2.270637044E-18
 33.9585762   2.270626705E-18
 34.0856094   2.270618846E-18
 34.2126427   2.270612849E-18
 34.3396759   2.270606852E-18
 34.4667091   2.270600028E-18
 34.5937386   2.270591756E-18
 34.7207718   2.270581623E-18
 34.847805   2.27057025E-18
 34.9748383   2.270557428E-18
 35.1018715   2.270543573E-18
 35.2289047   2.270528891E-18
 35.355938   2.270514622E-18
 35.4829674   2.270500146E-18
 35.6100006   2.270486498E-18
 35.7370338   2.27047409E-18
 35.8640671   2.270463957E-18
 35.9911003   2.270456305E-18
 36.1181335   2.270451136E-18
 36.245163   2.270449068E-18
 36.3721962   2.270450102E-18
 36.4992294   2.270454238E-18
 36.6262627   2.270461062E-18
 36.7532959   2.270470368E-18
 36.8803291   2.270480914E-18
 37.0073624   2.270492288E-18
 37.1343918   2.270503248E-18
 37.261425   2.270512967E-18
 37.3884583   2.270521032E-18
 37.5154915   2.270526409E-18
 37.6425247   2.27052827E-18
 37.769558   2.270526202E-18
 37.8965874   2.270520205E-18
 38.0236206   2.270510486E-18
 38.1506538   2.270497871E-18
 38.2776871   2.270482362E-18
 38.4047203   2.270465404E-18
 38.5317535   2.270448861E-18
 38.6587868   2.270434178E-18
 38.7858162   2.270422598E-18
 38.9128494   2.270414326E-18
 39.0398827   2.270410811E-18
 39.1669159   2.270410604E-18
 39.2939491   2.270413706E-18
 39.4209824   2.270418462E-18
 39.5480118   2.270423011E-18
 39.675045   2.27042632E-18
 39.8020782   2.270426941E-18
 39.9291115   2.270424459E-18
 40.0561447   2.270418669E-18
 40.1831779   2.270409363E-18
 40.3102074   2.270396955E-18
 40.4372406   2.2703831E-18
 40.5642738   2.270368004E-18
 40.6913071   2.270353115E-18
 40.8183403   2.270339466E-18
 40.9453735   2.270326645E-18
 41.0724068   2.270315685E-18
 41.1994362   2.270307206E-18
 41.3264694   2.270301209E-18
 41.4535027   2.27029728E-18
 41.5805359   2.270294798E-18
 41.7075691   2.270293971E-18
 41.8346024   2.270293971E-18
 41.9616318   2.270293971E-18
 42.088665   2.270293351E-18
 42.2156982   2.27029211E-18
 42.3427315   2.270289215E-18
 42.4697647   2.270285493E-18
 42.5967979   2.270279909E-18
 42.7238312   2.270273292E-18
 42.8508606   2.270265847E-18
 42.9778938   2.270257369E-18
 43.1049271   2.270249097E-18
 43.2319603   2.270240825E-18
 43.3589935   2.270231519E-18
 43.4860268   2.270222213E-18
 43.6130562   2.27021208E-18
 43.7400894   2.270201327E-18
 43.8671227   2.270191194E-18
 43.9941559   2.270180234E-18
 44.1211891   2.270169274E-18
 44.2482224   2.270159554E-18
 44.3752556   2.270150455E-18
 44.502285   2.270143011E-18
 44.6293182   2.270136807E-18
 44.7563515   2.270131844E-18
 44.8833847   2.270127915E-18
 45.0104179   2.270123986E-18
 45.1374512   2.27011985E-18
 45.2644806   2.270115093E-18
 45.3915138   2.270108683E-18
 45.5185471   2.270100204E-18
 45.6455803   2.270089658E-18
 45.7726135   2.270077043E-18
 45.8996468   2.270063601E-18
 46.02668   2.270049539E-18
 46.1537094   2.270035684E-18
 46.2807426   2.270022656E-18
 46.4077759   2.270011696E-18
 46.5348091   2.27000239E-18
 46.6618423   2.269994945E-18
 46.7888756   2.269989362E-18
 46.915905   2.269984813E-18
 47.0429382   2.269980883E-18
 47.1699715   2.269976541E-18
 47.2970047   2.269970544E-18
 47.4240379   2.269961858E-18
 47.5510712   2.269949244E-18
 47.6781044   2.269933321E-18
 47.8051338   2.269913468E-18
 47.9321671   2.2698901E-18
 48.0592003   2.269864251E-18
 48.1862335   2.269836127E-18
 48.3132668   2.269806762E-18
 48.4403   2.269777811E-18
 48.5673294   2.269750927E-18
 48.6943626   2.269726319E-18
 48.8213959   2.269704192E-18
 48.9484291   2.269684753E-18
 49.0754623   2.269667175E-18
 49.2024956   2.269651459E-18
 49.3295288   2.269636156E-18
 49.4565582   2.269621267E-18
 49.5835915   2.26960493E-18
 49.7106247   2.269587145E-18
 49.8376579   2.269567707E-18
 49.9646912   2.2695462E-18
 50.0917244   2.269523039E-18
 50.2187538   2.269498637E-18
 50.345787   2.269472581E-18
 50.4728203   2.269445077E-18
 50.5998535   2.269416539E-18
 50.7268867   2.269386761E-18
 50.85392   2.269355742E-18
 50.9809532   2.269323482E-18
 51.1079826   2.269291015E-18
 51.2350159   2.269258134E-18
 51.3620491   2.26922484E-18
 51.4890823   2.269192374E-18
 51.6161156   2.269161354E-18
 51.7431488   2.269131989E-18
 51.8701782   2.269104692E-18
 51.9972115   2.26907967E-18
 52.1242447   2.269057129E-18
 52.2512779   2.269036036E-18
 52.3783112   2.269015564E-18
 52.5053444   2.268994677E-18
 52.6323776   2.268973171E-18
 52.759407   2.268950216E-18
 52.8864403   2.268926228E-18
 53.0134735   2.268900999E-18
 53.1405067   2.26887515E-18
 53.26754   2.2688493E-18
 53.3945732   2.268824485E-18
 53.5216026   2.268800703E-18
 53.6486359   2.268779404E-18
 53.7756691   2.268760378E-18
 53.9027023   2.268743421E-18
 54.0297356   2.268727912E-18
 54.1567688   2.268712816E-18
 54.283802   2.268697306E-18
 54.4108315   2.268679935E-18
 54.5378647   2.268660703E-18
 54.6648979   2.268638576E-18
 54.7919312   2.268613347E-18
 54.9189644   2.26858605E-18
 55.0459976   2.268556892E-18
 55.173027   2.268526907E-18
 55.3000603   2.268497749E-18
 55.4270935   2.268469211E-18
 55.5541267   2.268442741E-18
 55.68116   2.268418339E-18
 55.8081932   2.268395592E-18
 55.9352264   2.268374705E-18
 56.0622559   2.268353612E-18
 56.1892891   2.268331692E-18
 56.3163223   2.268307083E-18
 56.4433556   2.268278959E-18
 56.5703888   2.268246699E-18
 56.697422   2.26820989E-18
 56.8244514   2.268168944E-18
 56.9514847   2.268124897E-18
 57.0785179   2.268078988E-18
 57.2055511   2.26803308E-18
 57.3325844   2.267988205E-18
 57.4596176   2.26794664E-18
 57.5866508   2.267908796E-18
 57.7136803   2.267875502E-18
 57.8407135   2.267846137E-18
 57.9677467   2.267819874E-18
 58.09478   2.267795059E-18
 58.2218132   2.267770036E-18
 58.3488464   2.267743567E-18
 58.4758759   2.267713168E-18
 58.6029091   2.26767946E-18
 58.7299423   2.267640789E-18
 58.8569756   2.26759881E-18
 58.9840088   2.267553315E-18
 59.111042   2.267505752E-18
 59.2380753   2.267458396E-18
 59.3651047   2.267412074E-18
 59.4921379   2.267368233E-18
 59.6191711   2.267328115E-18
 59.7462044   2.26729234E-18
 59.8732376   2.267261734E-18
 60.0002708   2.267235264E-18
 60.1273003   2.26721293E-18
 60.2543335   2.267193492E-18
 60.3813667   2.267176121E-18
 60.5084   2.26715875E-18
 60.6354332   2.267140345E-18
 60.7624664   2.267120079E-18
 60.8894997   2.267096298E-18
 61.0165291   2.26706838E-18
 61.1435623   2.267037568E-18
 61.2705956   2.26700262E-18
 61.3976288   2.266964569E-18
 61.524662   2.266924037E-18
 61.6516953   2.266882678E-18
 61.7787247   2.266840079E-18
 61.9057579   2.266798513E-18
 62.0327911   2.266757361E-18
 62.1598244   2.266717656E-18
 62.2868576   2.266678985E-18
 62.4138908   2.266641348E-18
 62.5409203   2.266604539E-18
 62.6679535   2.266567936E-18
 62.7949867   2.266531127E-18
 62.92202   2.266494317E-18
 63.0490532   2.266456474E-18
 63.1760864   2.26641801E-18
 63.3031197   2.266378098E-18
 63.4301491   2.26633736E-18
 63.5571823   2.266295587E-18
 63.6842155   2.266253194E-18
 63.8112488   2.266210181E-18
 63.938282   2.266167994E-18
 64.0653152   2.266127669E-18
 64.1923447   2.266089619E-18
 64.3193817   2.266054257E-18
 64.4464111   2.266022411E-18
 64.5734482   2.265993666E-18
 64.7004776   2.265968644E-18
 64.827507   2.26594693E-18
 64.9545441   2.265927285E-18
 65.0815735   2.265909087E-18
 65.2086105   2.265891302E-18
 65.33564   2.265872484E-18
 65.4626694   2.265852632E-18
 65.5897064   2.265830711E-18
 65.7167358   2.26580631E-18
 65.8437729   2.26577922E-18
 65.9708023   2.265749027E-18
 66.0978394   2.265716147E-18
 66.2248688   2.265680578E-18
 66.3518982   2.265642735E-18
 66.4789352   2.265603237E-18
 66.6059647   2.265562085E-18
 66.7330017   2.265519485E-18
 66.8600311   2.265476058E-18
 66.9870682   2.265432217E-18
 67.1140976   2.26538879E-18
 67.241127   2.265345363E-18
 67.3681641   2.265303384E-18
 67.4951935   2.265263059E-18
 67.6222305   2.265225629E-18
 67.7492599   2.265190474E-18
 67.876297   2.265159661E-18
 68.0033264   2.265132985E-18
 68.1303558   2.265111271E-18
 68.2573929   2.265095762E-18
 68.3844223   2.265086249E-18
 68.5114594   2.265082733E-18
 68.6384888   2.265085422E-18
 68.7655182   2.265092453E-18
 68.8925552   2.265102586E-18
 69.0195847   2.265113339E-18
 69.1466217   2.265122231E-18
 69.2736511   2.265125126E-18
 69.4006882   2.265118509E-18
 69.5277176   2.265099484E-18
 69.654747   2.265063088E-18
 69.7817841   2.265006633E-18
 69.9088135   2.264928464E-18
 70.0358505   2.264826721E-18
 70.1628799   2.264702024E-18
 70.289917   2.264555819E-18
 70.4169464   2.264391417E-18
 70.5439758   2.264214607E-18
 70.6710129   2.2640318E-18
 70.7980423   2.263851475E-18
 70.9250793   2.263683144E-18
 71.0521088   2.263537767E-18
 71.1791458   2.263426097E-18
 71.3061752   2.263358682E-18
 71.4332047   2.263344413E-18
 71.5602417   2.263390735E-18
 71.6872711   2.263503232E-18
 71.8143082   2.263683351E-18
 71.9413376   2.263930264E-18
 72.068367   2.264238182E-18
 72.1954041   2.264597799E-18
 72.3224335   2.2649965E-18
 72.4494705   2.265416914E-18
 72.5764999   2.265838777E-18
 72.703537   2.266240166E-18
 72.8305664   2.266595026E-18
 72.9575958   2.266877715E-18
 73.0846329   2.267063211E-18
 73.2116623   2.267126283E-18
 73.3386993   2.267045633E-18
 73.4657288   2.266803889E-18
 73.5927658   2.266388645E-18
 73.7197952   2.265794316E-18
 73.8468246   2.265023797E-18
 73.9738617   2.264087842E-18
 74.1008911   2.263007544E-18
 74.2279282   2.261812061E-18
 74.3549576   2.260541512E-18
 74.481987   2.259243252E-18
 74.609024   2.257973943E-18
 74.7360535   2.256796038E-18
 74.8630905   2.255776331E-18
 74.9901199   2.254981824E-18
 75.117157   2.254480139E-18
 75.2441864   2.254333521E-18
 75.3712158   2.254596978E-18
 75.4982529   2.255312903E-18
 75.6252823   2.256510247E-18
 75.7523193   2.258199557E-18
 75.8793488   2.260369458E-18
 76.0063858   2.262986037E-18
 76.1334152   2.265989323E-18
 76.2604446   2.26929391E-18
 76.3874817   2.272788334E-18
 76.5145111   2.276335078E-18
 76.6415482   2.279775529E-18
 76.7685776   2.282932877E-18
 76.8956146   2.285617285E-18
 77.022644   2.287634365E-18
 77.1496735   2.288792005E-18
 77.2767105   2.288911119E-18
 77.4037399   2.287834957E-18
 77.530777   2.285441716E-18
 77.6578064   2.281653849E-18
 77.7848358   2.276448815E-18
 77.9118729   2.269870248E-18
 78.0389023   2.262033332E-18
 78.1659393   2.253132869E-18
 78.2929688   2.243442034E-18
 78.4200058   2.233313828E-18
 78.5470352   2.223173628E-18
 78.6740646   2.21351009E-18
 78.8011017   2.204857367E-18
 78.9281311   2.197777529E-18
 79.0551682   2.192834504E-18
 79.1821976   2.190566375E-18
 79.3092346   2.191453733E-18
 79.436264   2.195885766E-18
 79.5632935   2.20412676E-18
 79.6903305   2.216284454E-18
 79.8173599   2.232282541E-18
 79.944397   2.251838538E-18
 80.0714264   2.274447866E-18
 80.1984634   2.299381364E-18
 80.3254929   2.325692738E-18
 80.4525223   2.352237378E-18
 80.5795593   2.377707923E-18
 80.7065887   2.400679763E-18
 80.8336258   2.419674311E-18
 80.9606552   2.433228079E-18
 81.0876846   2.43997291E-18
 81.2147217   2.438722006E-18
 81.3417511   2.428555129E-18
 81.4687881   2.408901938E-18
 81.5958176   2.379616022E-18
 81.7228546   2.341034664E-18
 81.849884   2.294019786E-18
 81.9769135   2.239974493E-18
 82.1039505   2.180834388E-18
 82.2309799   2.119026625E-18
 82.358017   2.057397948E-18
 82.4850464   1.999112527E-18
 82.6120834   1.947517757E-18
 82.7391129   1.905988947E-18
 82.8661423   1.877751689E-18
 82.9931793   1.865693257E-18
 83.1202087   1.872173183E-18
 83.2472458   1.898838591E-18
 83.3742752   1.94646124E-18
 83.5013123   2.014802902E-18
 83.6283417   2.10252065E-18
 83.7553711   2.207124256E-18
 83.8824081   2.324987153E-18
 84.0094376   2.451423985E-18
 84.1364746   2.580831429E-18
 84.263504   2.706891272E-18
 84.3905334   2.82283325E-18
 84.5175705   2.921748748E-18
 84.6445999   2.996939259E-18
 84.771637   3.042289643E-18
 84.8986664   3.052645117E-18
 85.0257034   3.024169631E-18
 85.1527328   2.95467095E-18
 85.2797623   2.843865558E-18
 85.4067993   2.69356684E-18
 85.5338287   2.507780213E-18
 85.6608658   2.292690507E-18
 85.7878952   2.056531683E-18
 85.9149323   1.809342198E-18
 86.0419617   1.562601976E-18
 86.1689911   1.328764531E-18
 86.2960281   1.120697381E-18
 86.4230576   9.510610422E-19
 86.5500946   8.316419078E-19
 86.677124   7.726826968E-19
 86.8041611   7.822366328E-19
 86.9311905   8.655849023E-19
 87.0582199   1.024752805E-18
 87.185257   1.258154223E-18
 87.3122864   1.560395575E-18
 87.4393234   1.922257315E-18
 87.5663528   2.330867374E-18
 87.6933823   2.770074843E-18
 87.8204193   3.221008632E-18
 87.9474487   3.662814482E-18
 88.0744858   4.073540262E-18
 88.2015152   4.431132095E-18
 88.3285522   4.714497703E-18
 88.4555817   4.904593321E-18
 88.5826111   4.985472146E-18
 88.7096481   4.945245112E-18
 88.8366776   4.776898141E-18
 88.9637146   4.478922041E-18
 89.090744   4.055707075E-18
 89.2177811   3.517680267E-18
 89.3448105   2.881158375E-18
 89.4718399   2.16791879E-18
 89.598877   1.404492606E-18
 89.7259064   6.21206643E-19
 89.8529434   -1.489896523E-19
 89.9799728   -8.718611869E-19
 90.1070099   -1.513330756E-18
 90.2340393   -2.040962282E-18
 90.3610687   -2.425413704E-18
 90.4881058   -2.641791951E-18
 90.6151352   -2.670847911E-18
 90.7421722   -2.499950329E-18
 90.8692017   -2.12379801E-18
 90.9962311   -1.544839824E-18
 91.1232681   -7.733790795E-19
 91.2502975   1.726242574E-19
 91.3773346   1.268046683E-18
 91.504364   2.481357997E-18
 91.6314011   3.775593114E-18
 91.7584305   5.10949423E-18
 91.8854599   6.438758999E-18
 92.0124969   7.717347788E-18
 92.1395264   8.898787523E-18
 92.2665634   9.937432723E-18
 92.3935928   1.078964878E-17
 92.5206299   1.141489393E-17
 92.6476593   1.177670025E-17
 92.7746887   1.184355795E-17
 92.9017258   1.158973013E-17
 93.0287552   1.099602042E-17
 93.1557922   1.005053726E-17
 93.2828217   8.749485558E-18
 93.4098587   7.098014502E-18
 93.5368881   5.111131221E-18
 93.6639175   2.814673733E-18
 93.7909546   2.463062364E-19
 93.917984   -2.543517518E-18
 94.0450211   -5.490731021E-18
 94.1720505   -8.517086684E-18
 94.2990799   -1.152999363E-17
 94.4261169   -1.442292796E-17
 94.5531464   -1.707657961E-17
 94.6801834   -1.93609249E-17
 94.8072128   -2.113832758E-17
 94.9342499   -2.22677997E-17
 95.0612793   -2.261044438E-17
 95.1883087   -2.203605512E-17
 95.3153458   -2.043073744E-17
 95.4423752   -1.770533117E-17
 95.5694122   -1.380429116E-17
 95.6964417   -8.714616587E-18
 95.8234787   -2.474253549E-18
 95.9505081   4.820581135E-18
 96.0775375   1.300985366E-17
 96.2045746   2.18665807E-17
 96.331604   3.109676656E-17
 96.4586411   4.034297821E-17
 96.5856705   4.919197773E-17
 96.7126999   5.718668166E-17
 96.8397369   6.384249451E-17
 96.9667664   6.866779636E-17
 97.0938034   7.118802378E-17
 97.2208328   7.097263919E-17
 97.3478699   6.766374468E-17
 97.4748993   6.100506648E-17
 97.6019287   5.08696092E-17
 97.7289658   3.728431908E-17
 97.8559952   2.044975928E-17
 97.9830322   7.531444839E-19
 98.1100616   -2.122703278E-17
 98.2370987   -4.472613218E-17
 98.3641281   -6.880927072E-17
 98.4911575   -9.239848979E-17
 98.6181946   -1.143110799E-16
 98.745224   -1.333082687E-16
 98.872261   -1.481528652E-16
 98.9992905   -1.576735552E-16
 99.1263275   -1.608331867E-16
 99.2533569   -1.567974849E-16
 99.3803864   -1.45000513E-16
 99.5074234   -1.252028384E-16
 99.6344528   -9.753832542E-17
 99.7614899   -6.254574662E-17
 99.8885193   -2.118190842E-17
 100.015549   2.518635263E-17
 100.142586   7.481286819E-17
 100.269615   1.256261034E-16
 100.396652   1.753055784E-16
 100.523682   2.2137844E-16
 100.650719   2.613328782E-16
 100.777748   2.927432422E-16
 100.904778   3.134015287E-16
 101.031815   3.2144768E-16
 101.158844   3.154922178E-16
 101.285881   2.947234993E-16
 101.41291   2.589924997E-16
 101.539948   2.088690074E-16
 101.666977   1.456641236E-16
 101.794006   7.141533302E-17
 101.921043   -1.116715913E-17
 102.048073   -9.879269519E-17
 102.17511   -1.877180786E-16
 102.302139   -2.739064471E-16
 102.429176   -3.532102244E-16
 102.556206   -4.215694096E-16
 102.683235   -4.752155531E-16
 102.810272   -5.108706638E-16
 102.937302   -5.259299038E-16
 103.064339   -5.186184213E-16
 103.191368   -4.881124767E-16
 103.318398   -4.346172639E-16
 103.445435   -3.59396503E-16
 103.572464   -2.64750365E-16
 103.699501   -1.539421633E-16
 103.82653   -3.107647086E-17
 103.953568   9.906591625E-17
 104.080597   2.312279773E-16
 104.207626   3.599017317E-16
 104.334663   4.795673437E-16
 104.461693   5.849338483E-16
 104.58873   6.711700609E-16
 104.715759   7.341140851E-16
 104.842796   7.704518515E-16
 104.969826   7.778573017E-16
 105.096855   7.550879973E-16
 105.223892   7.02034618E-16
 105.350922   6.197240326E-16
 105.477959   5.102777408E-16
 105.604988   3.768321204E-16
 105.732025   2.23424951E-16
 105.859055   5.485691423E-17
 105.986084   -1.234641709E-16
 106.113121   -3.05689532E-16
 106.24015   -4.856988564E-16
 106.367188   -6.572679739E-16
 106.494217   -8.142314376E-16
 106.621246   -9.506374646E-16
 106.748283   -1.060896802E-15
 106.875313   -1.139925082E-15
 107.00235   -1.183282581E-15
 107.129379   -1.187312446E-15
 107.256416   -1.149279502E-15
 107.383446   -1.067511494E-15
 107.510475   -9.415392719E-16
 107.637512   -7.722339029E-16
 107.764542   -5.619318216E-16
 107.891579   -3.145413174E-16
 108.018608   -3.56158627E-17
 108.145645   2.676182862E-16
 108.272675   5.862945538E-16
 108.399704   9.100131291E-16
 108.526741   1.227034268E-15
 108.65377   1.524566873E-15
 108.780807   1.789155295E-15
 108.907837   2.007163153E-15
 109.034874   2.165341686E-15
 109.161903   2.251469901E-15
 109.288933   2.255035063E-15
 109.41597   2.167926618E-15
 109.542999   1.985102604E-15
 109.670036   1.705187543E-15
 109.797066   1.330956952E-15
 109.924095   8.696678911E-16
 110.051132   3.331942006E-16
 110.178162   -2.620606383E-16
 110.305199   -8.954965726E-16
 110.432228   -1.542902277E-15
 110.559265   -2.177287603E-15
 110.686295   -2.769940039E-15
 110.813324   -3.291668289E-15
 110.940361   -3.714179334E-15
 111.06739   -4.011526862E-15
 111.194427   -4.161551644E-15
 111.321457   -4.147244834E-15
 111.448494   -3.957935088E-15
 111.575523   -3.590246132E-15
 111.702553   -3.048733734E-15
 111.82959   -2.346166067E-15
 111.956619   -1.503399202E-15
 112.083656   -5.488374863E-16
 112.210686   4.825152301E-16
 112.337723   1.550382743E-15
 112.464752   2.610868099E-15
 112.591782   3.618357462E-15
 112.718819   4.527578721E-15
 112.845848   5.29572749E-15
 112.972885   5.884530161E-15
 113.099915   6.262156931E-15
 113.226944   6.404867583E-15
 113.353981   6.298309144E-15
 113.48101   5.938392986E-15
 113.608047   5.331700979E-15
 113.735077   4.495399516E-15
 113.862114   3.456666072E-15
 113.989143   2.251652649E-15
 114.116173   9.240442299E-16
 114.24321   -4.767073899E-16
 114.370239   -1.897404836E-15
 114.497276   -3.28325344E-15
 114.624306   -4.580061306E-15
 114.751343   -5.736372664E-15
 114.878372   -6.705450353E-15
 115.005402   -7.447032357E-15
 115.132439   -7.928794204E-15
 115.259468   -8.127491193E-15
 115.386505   -8.02974105E-15
 115.513535   -7.632468198E-15
 115.640572   -6.943006249E-15
 115.767601   -5.978900219E-15
 115.89463   -4.767435582E-15
 116.021667   -3.344944755E-15
 116.148697   -1.755901947E-15
 116.275734   -5.187398183E-17
 116.402763   1.709692382E-15
 116.529793   3.466804633E-15
 116.65683   5.154410207E-15
 116.783859   6.706024641E-15
 116.910896   8.055532356E-15
 117.037926   9.139164475E-15
 117.164963   9.897666386E-15
 117.291992   1.027865164E-14
 117.419022   1.023910876E-14
 117.546059   9.74800837E-15
 117.673088   8.788918893E-15
 117.800125   7.362512021E-15
 117.927155   5.488810344E-15
 118.054192   3.208997661E-15
 118.181221   5.865863037E-16
 118.30825   -2.292249032E-15
 118.435287   -5.319349968E-15
 118.562317   -8.366490009E-15
 118.689354   -1.128856394E-14
 118.816383   -1.392818457E-14
 118.943413   -1.612164754E-14
 119.07045   -1.770614464E-14
 119.197479   -1.852802749E-14
 119.324516   -1.845185551E-14
 119.451546   -1.736977431E-14
 119.578583   -1.521079236E-14
 119.705612   -1.194935891E-14
 119.832642   -7.61272386E-15