 -7.19999981   1.069544946E-17
 -7.07315636   1.069544863E-17
 -6.9463129   1.069544615E-17
 -6.81946898   1.069544284E-17
 -6.69262552   1.069543788E-17
 -6.56578159   1.069543291E-17
 -6.43893814   1.069542795E-17
 -6.31209469   1.069542299E-17
 -6.18525076   1.069541802E-17
 -6.05840731   1.069541389E-17
 -5.93156338   1.069541223E-17
 -5.80471992   1.069541058E-17
 -5.67787647   1.069541058E-17
 -5.55103254   1.069541058E-17
 -5.42418909   1.069541141E-17
 -5.29734564   1.069541141E-17
 -5.17050171   1.069541141E-17
 -5.04365826   1.069541141E-17
 -4.91681433   1.069541058E-17
 -4.78997087   1.069540975E-17
 -4.66312742   1.06954081E-17
 -4.53628349   1.069540644E-17
 -4.40944004   1.069540479E-17
 -4.28259611   1.069540396E-17
 -4.15575266   1.069540313E-17
 -4.02890921   1.069540479E-17
 -3.90206528   1.069540644E-17
 -3.77522182   1.069540975E-17
 -3.64837813   1.069541389E-17
 -3.52153444   1.069541968E-17
 -3.39469075   1.069542547E-17
 -3.2678473   1.069543209E-17
 -3.14100361   1.069543953E-17
 -3.01415992   1.069544615E-17
 -2.88731623   1.069545194E-17
 -2.76047254   1.06954569E-17
 -2.63362908   1.069546104E-17
 -2.50678539   1.069546435E-17
 -2.3799417   1.069546765E-17
 -2.25309801   1.069547179E-17
 -2.12625432   1.06954751E-17
 -1.99941075   1.069547923E-17
 -1.87256718   1.069548337E-17
 -1.74572349   1.069548999E-17
 -1.61887991   1.069549826E-17
 -1.49203622   1.069550901E-17
 -1.36519253   1.069552142E-17
 -1.23834896   1.069553631E-17
 -1.11150527   1.069555285E-17
 -0.984661698   1.069557188E-17
 -0.857818007   1.069559173E-17
 -0.730974376   1.069561324E-17
 -0.604130745   1.069563557E-17
 -0.477287114   1.069565791E-17
 -0.350443482   1.069567941E-17
 -0.223599836   1.069570009E-17
 -9.675619751E-2   1.069571912E-17
 3.008744121E-2   1.069573566E-17
 0.156931072   1.069574972E-17
 0.283774734   1.06957613E-17
 0.410618365   1.069576958E-17
 0.537461996   1.069577454E-17
 0.664305627   1.069577702E-17
 0.791149259   1.069577619E-17
 0.91799289   1.069577206E-17
 1.04483652   1.069576627E-17
 1.17168021   1.069575799E-17
 1.29852378   1.06957489E-17
 1.42536747   1.069573814E-17
 1.55221117   1.069572739E-17
 1.67905474   1.069571664E-17
 1.80589843   1.069570506E-17
 1.932742   1.06956943E-17
 2.05958557   1.069568355E-17
 2.18642926   1.069567279E-17
 2.31327295   1.069566121E-17
 2.44011664   1.069564963E-17
 2.56696033   1.069563723E-17
 2.69380379   1.069562234E-17
 2.82064748   1.069560579E-17
 2.94749117   1.06955876E-17
 3.07433486   1.069556774E-17
 3.20117831   1.069554706E-17
 3.328022   1.069552556E-17
 3.45486569   1.069550405E-17
 3.58170938   1.069548337E-17
 3.70855308   1.069546352E-17
 3.83539653   1.069544615E-17
 3.96224022   1.069543126E-17
 4.08908367   1.06954172E-17
 4.2159276   1.069540479E-17
 4.34277105   1.069539155E-17
 4.46961498   1.069537666E-17
 4.59645844   1.069535847E-17
 4.72330189   1.069533531E-17
 4.85014582   1.069530635E-17
 4.97698927   1.069527327E-17
 5.1038332   1.069523853E-17
 5.23067665   1.069520544E-17
 5.3575201   1.069517814E-17
 5.48436403   1.069516408E-17
 5.61120749   1.069516821E-17
 5.73805141   1.069519468E-17
 5.86489487   1.069524349E-17
 5.99173832   1.069531132E-17
 6.11858225   1.069538659E-17
 6.2454257   1.069545442E-17
 6.37226963   1.06954933E-17
 6.49911308   1.069548089E-17
 6.62595654   1.069539652E-17
 6.75280046   1.069522694E-17
 6.87964392   1.0694973E-17
 7.00648737   1.069465454E-17
 7.1333313   1.069431374E-17
 7.26017475   1.069401347E-17
 7.38701868   1.069383563E-17
 7.51386213   1.069386954E-17
 7.64070559   1.06941938E-17
 7.76754951   1.069486133E-17
 7.89439297   1.069587463E-17
 8.02123642   1.069717247E-17
 8.14808083   1.069861673E-17
 8.27492428   1.069998902E-17
 8.40176773   1.070101307E-17
 8.52861118   1.0701382E-17
 8.65545464   1.070080876E-17
 8.78229809   1.069908326E-17
 8.90914249   1.069613519E-17
 9.03598595   1.069208779E-17
 9.1628294   1.068729511E-17
 9.28967285   1.068234774E-17
 9.4165163   1.06780373E-17
 9.54336071   1.067528197E-17
 9.67020416   1.067500651E-17
 9.79704762   1.067799595E-17
 9.92389107   1.068473416E-17
 10.0507345   1.069525093E-17
 10.1775789   1.07089995E-17
 10.3044224   1.072479865E-17
 10.4312658   1.07408443E-17
 10.5581093   1.075482448E-17
 10.6849527   1.076411703E-17
 10.8117971   1.076608324E-17
 10.9386406   1.075842685E-17
 11.065484   1.073959691E-17
 11.1923275   1.070918893E-17
 11.319171   1.066830056E-17
 11.4460154   1.061978973E-17
 11.5728588   1.056837218E-17
 11.6997023   1.052048918E-17
 11.8265457   1.048391952E-17
 11.9533892   1.046705744E-17
 12.0802336   1.047788193E-17
 12.207077   1.052264067E-17
 12.3339205   1.060436281E-17
 12.4607639   1.072137578E-17
 12.5876074   1.086609185E-17
 12.7144518   1.102438196E-17
 12.8412952   1.117585445E-17
 12.9681387   1.129533821E-17
 13.0949821   1.135572074E-17
 13.2218256   1.133206668E-17
 13.34867   1.120668347E-17
 13.4755135   1.097444507E-17
 13.6023569   1.064741756E-17
 13.7292004   1.025760787E-17
 13.8560438   9.856667636E-18
 13.9828882   9.511641503E-18
 14.1097317   9.296333007E-18
 14.2365751   9.27873474E-18
 14.3634186   9.505881844E-18
 14.490262   9.988531806E-18
 14.6171055   1.068883118E-17
 14.7439499   1.151452535E-17
 14.8707933   1.232292318E-17
 14.9976368   1.293676812E-17
 15.1244802   1.31722226E-17
 15.2513237   1.287664698E-17
 15.3781681   1.197104716E-17
 15.5050116   1.048948148E-17
 15.631855   8.606074774E-18
 15.7586985   6.640122471E-18
 15.8855419   5.031558927E-18
 16.0123863   4.283110193E-18
 16.1392288   4.871317085E-18
 16.2660732   7.135848916E-18
 16.3929176   1.116374618E-17
 16.5197601   1.669112172E-17
 16.6466045   2.304771356E-17
 16.773447   2.91681321E-17
 16.9002914   3.368683118E-17
 17.0271358   3.51217447E-17
 17.1539783   3.213507675E-17
 17.2808228   2.38413338E-17
 17.4076653   1.011523768E-17
 17.5345097   -8.160495739E-18
 17.6613541   -2.897174287E-17
 17.7881966   -4.923093794E-17
 17.915041   -6.505342075E-17
 18.0418835   -7.225721097E-17
 18.1687279   -6.705018843E-17
 18.2955723   -4.682486144E-17
 18.4224148   -1.094105758E-17
 18.5492592   3.864942517E-17
 18.6761017   9.708827299E-17
 18.8029461   1.567371471E-16
 18.9297905   2.078266937E-16
 19.056633   2.396339588E-16
 19.1834774   2.421010216E-16
 19.3103199   2.077099223E-16
 19.4371643   1.333432485E-16
 19.5640087   2.180483333E-17
 19.6908512   -1.173349081E-16
 19.8176956   -2.678561966E-16
 19.9445381   -4.081493901E-16
 20.0713825   -5.136365441E-16
 20.1982269   -5.601793104E-16
 20.3250694   -5.280974082E-16
 20.4519138   -4.062443072E-16
 20.5787563   -1.954769136E-16
 20.7056007   8.916752232E-17
 20.8324451   4.18180669E-16
 20.9592876   7.495652366E-16
 21.086132   1.033169073E-15
 21.2129745   1.217077184E-15
 21.339819   1.25538319E-15
 21.4666634   1.116327379E-15
 21.5935059   7.895636676E-16
 21.7203503   2.912718136E-16
 21.8471928   -3.340278398E-16
 21.9740372   -1.015737876E-15
 22.1008816   -1.663775573E-15
 22.2277241   -2.179094536E-15
 22.3545685   -2.467064139E-15
 22.481411   -2.452044762E-15
 22.6082554   -2.091097765E-15
 22.7350998   -1.384637136E-15
 22.8619423   -3.82044867E-16
 22.9887867   8.1919468E-16
 23.1156292   2.081454507E-15
 23.2424736   3.241621347E-15
 23.369318   4.130996624E-15
 23.4961605   4.598057791E-15
 23.6230049   4.531045203E-15
 23.7498474   3.877098922E-15
 23.8766918   2.654911483E-15
 24.0035343   9.58596292E-16
 24.1303787   -1.048412913E-15
 24.2572231   -3.1492145E-15
 24.3840656   -5.097405313E-15
 24.51091   -6.646263926E-15
 24.6377525   -7.579366856E-15
 24.7645969   -7.738547216E-15
 24.8914413   -7.045369334E-15
 25.0182838   -5.513185835E-15
 25.1451283   -3.248176323E-15
 25.2719707   -4.393678482E-16
 25.3988152   2.66079942E-15
 25.5256596   5.76248796E-15
 25.6525021   8.567405378E-15
 25.7793465   1.079687995E-14
 25.906189   1.221578973E-14
 26.0330334   1.265013976E-14
 26.1598778   1.19974941E-14
 26.2867203   1.023087051E-14
 26.4135647   7.397873953E-15
 26.5404072   3.617412173E-15
 26.6672516   -9.238123546E-16
 26.794096   -5.973695625E-15
 26.9209385   -1.121612314E-14
 27.0477829   -1.627312753E-14
 27.1746254   -2.071110922E-14
 27.3014698   -2.40552224E-14
 27.4283142   -2.581592268E-14
 27.5551567   -2.553024049E-14
 27.6820011   -2.281773776E-14
 27.8088436   -1.744761155E-14
 27.935688   -9.409460312E-15
 28.0625324   1.023176837E-15
 28.1893749   1.324971034E-14
 28.3162193   2.633332937E-14
 28.4430618   3.903700076E-14
 28.5699062   4.991112843E-14
 28.6967506   5.743217452E-14
 28.8235931   6.018294451E-14
 28.9504375   5.705639683E-14
 29.07728   4.745728075E-14
 29.2041245   3.147100432E-14
 29.3309689   9.968541868E-15
 29.4578114   -1.537954504E-14
 29.5846558   -4.219771776E-14
 29.7114983   -6.761259575E-14
 29.8383427   -8.85601881E-14
 29.9651871   -1.021636253E-13
 30.0920296   -1.061367181E-13
 30.218874   -9.915848118E-14
 30.3457165   -8.116018301E-14
 30.4725609   -5.347171612E-14
 30.5994053   -1.878800392E-14
 30.7262478   1.906239516E-14
 30.8530922   5.553702639E-14
 30.9799347   8.59492192E-14
 31.1067791   1.061223456E-13
 31.2336235   1.130428962E-13
 31.360466   1.054163741E-13
 31.4873104   8.403304772E-14
 31.6141529   5.186700543E-14
 31.7409973   1.386212786E-14
 31.8678417   -2.360150581E-14
 31.9946842   -5.352201972E-14
 32.1215286   -6.928707824E-14
 32.2483711   -6.576048706E-14
 32.3752136   -4.02973553E-14
 32.5020599   6.465987786E-15
 32.6289024   7.018801637E-14
 32.7557449   1.428704838E-13
 32.8825912   2.134342372E-13
 33.0094337   2.688123704E-13
 33.1362762   2.954810875E-13
 33.2631226   2.812815898E-13
 33.3899651   2.173324997E-13
 33.5168076   9.979772678E-14
 33.6436501   -6.87331458E-14
 33.7704964   -2.784740483E-13
 33.8973389   -5.124525478E-13
 34.0241814   -7.473973697E-13
 34.1510277   -9.555047725E-13
 34.2778702   -1.106985272E-12
 34.4047127   -1.173188283E-12
 34.531559   -1.130018063E-12
 34.6584015   -9.612935448E-13
 34.785244   -6.616705881E-13
 34.9120865   -2.387605088E-13
 35.0389328   2.85876032E-13
 35.1657753   8.770902841E-13
 35.2926178   1.487972614E-12
 35.4194641   2.063115304E-12
 35.5463066   2.54312695E-12
 35.6731491   2.870067248E-12
 35.7999954   2.993344721E-12
 35.9268379   2.875525772E-12
 36.0536804   2.497457319E-12
 36.1805229   1.862115063E-12
 36.3073692   9.966593523E-13
 36.4342117   -4.769128208E-14
 36.5610542   -1.198172421E-12
 36.6879005   -2.365359427E-12
 36.814743   -3.450163332E-12
 36.9415855   -4.352437247E-12
 37.0684319   -4.98047133E-12
 37.1952744   -5.260497767E-12
 37.3221169   -5.145232764E-12
 37.4489594   -4.620494092E-12
 37.5758057   -3.709036984E-12
 37.7026482   -2.470967007E-12
 37.8294907   -1.000395079E-12
 37.956337   5.816381448E-13
 38.0831795   2.137528002E-12
 38.210022   3.525935186E-12
 38.3368683   4.61591312E-12
 38.4637108   5.300923762E-12
 38.5905533   5.511241637E-12
 38.7173958   5.223286213E-12
 38.8442421   4.464672989E-12
 38.9710846   3.314133256E-12
 39.0979271   1.895965373E-12
 39.2247734   3.692679571E-13
 39.3516159   -1.08721723E-12
 39.4784584   -2.293283835E-12
 39.6053047   -3.086681952E-12
 39.7321472   -3.341769136E-12
 39.8589897   -2.985366511E-12
 39.9858322   -2.007994682E-12
 40.1126785   -4.691001277E-13
 40.239521   1.504539223E-12
 40.3663635   3.727324005E-12
 40.4932098   5.969633642E-12
 40.6200523   7.977618566E-12
 40.7468948   9.496139118E-12
 40.8737411   1.029267817E-11
 41.0005836   1.017994022E-11
 41.1274261   9.035003648E-12
 41.2542686   6.813266097E-12
 41.381115   3.555957178E-12
 41.5079575   -6.093356071E-13
 41.6348   -5.475018008E-12
 41.7616463   -1.076597318E-11
 41.8884888   -1.615694037E-11
 42.0153313   -2.129323974E-11
 42.1421776   -2.581313982E-11
 42.2690201   -2.937025276E-11
 42.3958626   -3.165454704E-11
 42.5227051   -3.241088994E-11
 42.6495514   -3.145437383E-11
 42.7763939   -2.868202897E-11
 42.9032364   -2.408075475E-11
 43.0300827   -1.773152458E-11
 43.1569252   -9.809875134E-12
 43.2837677   -5.826830988E-13
 43.4106102   9.598800053E-12
 43.5374565   2.030986143E-11
 43.664299   3.106734661E-11
 43.7911415   4.134887918E-11
 43.9179878   5.06161571E-11
 44.0448303   5.834178973E-11
 44.1716728   6.403878816E-11
 44.2985191   6.729115876E-11
 44.4253616   6.778365369E-11
 44.5522041   6.532838853E-11
 44.6790466   5.988572138E-11
 44.8058929   5.157700309E-11
 44.9327354   4.068705442E-11
 45.0595779   2.765497206E-11
 45.1864243   1.305270215E-11
 45.3132668   -2.44806302E-12
 45.4401093   -1.811893864E-11
 45.5669556   -3.322503037E-11
 45.6937981   -4.70784349E-11
 45.8206406   -5.909055883E-11
 45.9474831   -6.881849951E-11
 46.0743294   -7.600074736E-11
 46.2011719   -8.057800954E-11
 46.3280144   -8.269612772E-11
 46.4548607   -8.268917495E-11
 46.5817032   -8.104269339E-11
 46.7085457   -7.833875909E-11
 46.835392   -7.518651673E-11
 46.9622345   -7.214363135E-11
 47.089077   -6.963558896E-11
 47.2159195   -6.788077045E-11
 47.3427658   -6.682990272E-11
 47.4696083   -6.612796422E-11
 47.5964508   -6.510591372E-11
 47.7232971   -6.280730797E-11
 47.8501396   -5.805248296E-11
 47.9769821   -4.953934832E-11
 48.1038284   -3.597618384E-11
 48.2306709   -1.623752348E-11
 48.3575134   1.046914899E-11
 48.4843559   4.444155113E-11
 48.6112022   8.534301738E-11
 48.7380447   1.321029397E-10
 48.8648872   1.82873619E-10
 48.9917336   2.350565298E-10
 49.118576   2.85405366E-10
 49.2454185   3.302067508E-10
 49.3722649   3.655316327E-10
 49.4991074   3.875413601E-10
 49.6259499   3.928262993E-10
 49.7527924   3.787475333E-10
 49.8796387   3.437490848E-10
 50.0064812   2.876077432E-10
 50.1333237   2.11590051E-10
 50.26017   1.184927295E-10
 50.3870125   1.25521234E-11
 50.513855   -1.007796763E-10
 50.6407013   -2.151813866E-10
 50.7675438   -3.239082891E-10
 50.8943863   -4.203024317E-10
 51.0212288   -4.98323327E-10
 51.1480751   -5.530523817E-10
 51.2749176   -5.811220949E-10
 51.4017601   -5.810293358E-10
 51.5286064   -5.532987957E-10
 51.6554489   -5.004775483E-10
 51.7822914   -4.269571918E-10
 51.9091377   -3.386358693E-10
 52.0359802   -2.424478673E-10
 52.1628227   -1.458010657E-10
 52.2896652   -5.597105071E-11
 52.4165115   2.049553582E-11
 52.543354   7.831717913E-11
 52.6701965   1.139085284E-10
 52.7970428   1.256715149E-10
 52.9238853   1.141253828E-10
 53.0507278   8.186876177E-11
 53.1775742   3.33812665E-11
 53.3044167   -2.531564368E-11
 53.4312592   -8.710746013E-11
 53.5581017   -1.443097308E-10
 53.684948   -1.892252188E-10
 53.8117905   -2.146968298E-10
 53.938633   -2.146211125E-10
 54.0654793   -1.843931258E-10
 54.1923218   -1.212596967E-10
 54.3191643   -2.456600375E-11
 54.4460106   1.041139119E-10
 54.5728531   2.609656102E-10
 54.6996956   4.400400599E-10
 54.8265381   6.33471664E-10
 54.9533844   8.317994071E-10
 55.0802269   1.024380025E-9
 55.2070694   1.199876976E-9
 55.3339157   1.346808221E-9
 55.4607582   1.45412915E-9
 55.5876007   1.511823555E-9
 55.7144432   1.5114755E-9
 55.8412895   1.446786579E-9
 55.968132   1.314008902E-9
 56.0949745   1.112262393E-9
 56.2218208   8.437118781E-10
 56.3486633   5.135866177E-10
 56.4755058   1.300364677E-10
 56.6023521   -2.961696444E-10
 56.7291946   -7.520853385E-10
 56.8560371   -1.223136148E-9
 56.9828796   -1.693738483E-9
 57.109726   -2.147940936E-9
 57.2365685   -2.570039515E-9
 57.3634109   -2.945124145E-9
 57.4902573   -3.259520875E-9
 57.6170998   -3.501104295E-9
 57.7439423   -3.659476056E-9
 57.8707886   -3.726016828E-9
 57.9976311   -3.693841455E-9
 58.1244736   -3.557693473E-9
 58.2513161   -3.313831654E-9
 58.3781624   -2.959960055E-9
 58.5050049   -2.495251561E-9
 58.6318474   -1.920502424E-9
 58.7586937   -1.238439462E-9
 58.8855362   -4.541766963E-10
 59.0123787   4.242050322E-10
 59.139225   1.385013548E-9
 59.2660675   2.412314348E-9
 59.39291   3.485419064E-9
 59.5197525   4.578603274E-9
 59.6465988   5.661179969E-9
 59.7734413   6.698032795E-9
 59.9002838   7.650708511E-9
 60.0271301   8.479122293E-9
 60.1539726   9.143896307E-9
 60.2808151   9.60929647E-9
 60.4076614   9.846684357E-9
 60.5345039   9.838331039E-9
 60.6613464   9.581397897E-9
 60.7881889   9.091846387E-9
 60.9150352   8.407996077E-9
 61.0418777   7.593452089E-9
 61.1687202   6.739108382E-9
 61.2955666   5.963982641E-9
 61.4224091   5.414668269E-9
 61.5492516   5.2632525E-9
 61.6760979   5.70363623E-9
 61.8029404   6.946286213E-9
 61.9297829   9.211521323E-9
 62.0566254   1.272155092E-8
 62.1834717   1.76915318E-8
 62.3103142   2.432003576E-8
 62.4371567   3.277928684E-8
 62.564003   4.320565594E-8
 62.6908455   5.569081907E-8
 62.817688   7.027409765E-8
 62.9445343   8.693626796E-8
 63.0713768   1.055953973E-7
 63.1982193   1.261048936E-7
 63.3250618   1.482541165E-7
 63.4519081   1.717718163E-7
 63.5787506   1.963324934E-7
 63.7055931   2.215657418E-7
 63.8324394   2.470688116E-7
 63.9592819   2.724220565E-7
 64.0861282   2.972074071E-7
 64.2129669   3.210293755E-7
 64.3398132   3.435384883E-7
 64.4666595   3.644564117E-7
 64.5934982   3.836022984E-7
 64.7203445   4.009193617E-7
 64.8471909   4.16500967E-7
 64.9740295   4.306145058E-7
 65.1008759   4.43722314E-7
 65.2277145   4.564977019E-7
 65.3545609   4.698345322E-7
 65.4814072   4.848489539E-7
 65.6082458   5.028708188E-7
 65.7350922   5.254245821E-7
 65.8619385   5.541962764E-7
 65.9887772   5.909872698E-7
 66.1156235   6.376519082E-7
 66.2424698   6.96020436E-7
 66.3693085   7.67805318E-7
 66.4961548   8.544924412E-7
 66.6230011   9.57217253E-7
 66.7498398   1.07662845E-6
 66.8766861   1.212740585E-6
 67.0035324   1.364777404E-6
 67.1303711   1.531011321E-6
 67.2572174   1.708600735E-6
 67.3840637   1.893430181E-6
 67.5109024   2.07995754E-6
 67.6377487   2.261073178E-6
 67.7645874   2.427976824E-6
 67.8914337   2.57007423E-6
 68.01828   2.67490168E-6
 68.1451187   2.728081199E-6
 68.271965   2.713309641E-6
 68.3988113   2.612388016E-6
 68.52565   2.405292662E-6
 68.6524963   2.070288247E-6
 68.7793427   1.584089091E-6
 68.9061813   9.220646575E-7
 69.0330276   5.849193485E-8
 69.159874   -1.033147214E-6
 69.2867126   -2.379828402E-6
 69.413559   -4.008608812E-6
 69.5404053   -5.946217243E-6
 69.667244   -8.218614312E-6
 69.7940903   -1.085053555E-5
 69.920929   -1.386501935E-5
 70.0477753   -1.728292773E-5
 70.1746216   -2.11224833E-5
 70.3014603   -2.539880188E-5
 70.4283066   -3.012345223E-5
 70.5551529   -3.530408139E-5
 70.6819916   -4.094402539E-5
 70.8088379   -4.704202729E-5
 70.9356842   -5.359198985E-5
 71.0625229   -6.058276995E-5
 71.1893692   -6.799810944E-5
 71.3162155   -7.581659884E-5
 71.4430542   -8.401172818E-5
 71.5699005   -9.255200712E-5
 71.6967468   -1.014012159E-4
 71.8235855   -1.10518682E-4
 71.9504318   -1.198596728E-4
 72.0772781   -1.293758105E-4
 72.2041168   -1.390156249E-4
 72.3309631   -1.487250993E-4
 72.4578018   -1.58448267E-4
 72.5846481   -1.681278954E-4
 72.7114944   -1.777061261E-4
 72.8383331   -1.871251879E-4
 72.9651794   -1.963280956E-4
 73.0920258   -2.052592608E-4
 73.2188644   -2.13865249E-4
 73.3457108   -2.220952447E-4
 73.4725571   -2.299017942E-4
 73.5993958   -2.372412418E-4
 73.7262421   -2.440740791E-4
 73.8530884   -2.503654978E-4
 73.9799271   -2.560855937E-4
 74.1067734   -2.612094977E-4
 74.2336197   -2.657177101E-4
 74.3604584   -2.69595912E-4
 74.4873047   -2.728351392E-4
 74.614151   -2.754315501E-4
 74.7409897   -2.773861925E-4
 74.867836   -2.787048288E-4
 74.9946747   -2.793976455E-4
 75.121521   -2.79478787E-4
 75.2483673   -2.789660066E-4
 75.375206   -2.7788023E-4
 75.5020523   -2.762450895E-4
 75.6288986   -2.740864002E-4
 75.7557373   -2.714318398E-4
 75.8825836   -2.683102502E-4
 76.0094299   -2.647515503E-4
 76.1362686   -2.607859788E-4
 76.2631149   -2.564440365E-4
 76.3899612   -2.517559624E-4
 76.5167999   -2.467515878E-4
 76.6436462   -2.414600749E-4
 76.7704926   -2.359097125E-4
 76.8973312   -2.301278728E-4
 77.0241776   -2.241409675E-4
 77.1510239   -2.17974346E-4
 77.2778625   -2.116523538E-4
 77.4047089   -2.051984629E-4
 77.5315475   -1.986351999E-4
 77.6583939   -1.91984378E-4
 77.7852402   -1.852671703E-4
 77.9120789   -1.785041968E-4
 78.0389252   -1.717156556E-4
 78.1657715   -1.649213955E-4
 78.2926102   -1.581409888E-4
 78.4194565   -1.513938769E-4
 78.5463028   -1.446992828E-4
 78.6731415   -1.380762551E-4
 78.7999878   -1.315436966E-4
 78.9268341   -1.25120132E-4
 79.0536728   -1.188237657E-4
 79.1805191   -1.126722491E-4
 79.3073654   -1.066825789E-4
 79.4342041   -1.008707768E-4
 79.5610504   -9.525182395E-5
 79.6878967   -8.983934094E-5
 79.8147354   -8.464531857E-5
 79.9415817   -7.967990678E-5
 80.0684204   -7.495117461E-5
 80.1952667   -7.046484097E-5
 80.322113   -6.622409273E-5
 80.4489517   -6.222937373E-5
 80.575798   -5.847826469E-5
 80.7026443   -5.496536687E-5
 80.829483   -5.168224016E-5
 80.9563293   -4.861738489E-5
 81.0831757   -4.575633284E-5
 81.2100143   -4.308170901E-5
 81.3368607   -4.057342449E-5
 81.463707   -3.820889106E-5
 81.5905457   -3.596326133E-5
 81.717392   -3.380976705E-5
 81.8442383   -3.172003562E-5
 81.971077   -2.96644339E-5
 82.0979233   -2.761251744E-5
 82.224762   -2.553340164E-5
 82.3516083   -2.339614912E-5
 82.4784546   -2.117018812E-5
 82.6052933   -1.882563629E-5
 82.7321396   -1.633373358E-5
 82.8589859   -1.366706147E-5
 82.9858246   -1.079995673E-5
 83.1126709   -7.708673365E-6
 83.2395172   -4.371620435E-6
 83.3663559   -7.695594491E-7
 83.4932022   3.114255605E-6
 83.6200485   7.294001534E-6
 83.7468872   1.178123057E-5
 83.8737335   1.65848196E-5
 84.0005798   2.171095002E-5
 84.1274185   2.716317067E-5
 84.2542648   3.29424438E-5
 84.3811111   3.904722325E-5
 84.5079498   4.547344724E-5
 84.6347961   5.221472384E-5
 84.7616348   5.926241283E-5
 84.8884811   6.660568761E-5
 85.0153275   7.423164789E-5
 85.1421661   8.212541434E-5
 85.2690125   9.027022315E-5
 85.3958588   9.864755702E-5
 85.5226974   1.07237167E-4
 85.6495438   1.16017145E-4
 85.7763901   1.249640191E-4
 85.9032288   1.340528252E-4
 86.0300751   1.432571153E-4
 86.1569214   1.52549037E-4
 86.2837601   1.618993847E-4
 86.4106064   1.712776429E-4
 86.5374527   1.806521032E-4
 86.6642914   1.899898925E-4
 86.7911377   1.992571051E-4
 86.917984   2.084188454E-4
 87.0448227   2.174394758E-4
 87.171669   2.26282631E-4
 87.2985077   2.349114802E-4
 87.425354   2.432888723E-4
 87.5522003   2.513775544E-4
 87.679039   2.591404482E-4
 87.8058853   2.665407956E-4
 87.9327316   2.735425369E-4
 88.0595703   2.801105438E-4
 88.1864166   2.862108813E-4
 88.3132629   2.918111568E-4
 88.4401016   2.968808403E-4
 88.5669479   3.013915266E-4
 88.6937943   3.053172259E-4
 88.8206329   3.086348006E-4
 88.9474792   3.113241401E-4
 89.0743256   3.133684513E-4
 89.2011642   3.147545503E-4
 89.3280106   3.15473153E-4
 89.4548569   3.155189042E-4
 89.5816956   3.148908145E-4
 89.7085419   3.135921143E-4
 89.8353806   3.116305452E-4
 89.9622269   3.090183309E-4
 90.0890732   3.057721478E-4
 90.2159119   3.019130963E-4
 90.3427582   2.97466584E-4
 90.4696045   2.924621513E-4
 90.5964432   2.869333839E-4
 90.7232895   2.809174766E-4
 90.8501358   2.744550293E-4
 90.9769745   2.675896685E-4
 91.1038208   2.603676985E-4
 91.2306671   2.528376353E-4
 91.3575058   2.450496831E-4
 91.4843521   2.370553266E-4
 91.6111984   2.289067197E-4
 91.7380371   2.20656133E-4
 91.8648834   2.123554004E-4
 91.9917297   2.040553227E-4
 92.1185684   1.958049979E-4
 92.2454147   1.876513415E-4
 92.3722534   1.796384022E-4
 92.4990997   1.718068961E-4
 92.625946   1.64193596E-4
 92.7527847   1.568309963E-4
 92.879631   1.497467456E-4
 93.0064774   1.429634867E-4
 93.133316   1.364984928E-4
 93.2601624   1.303634926E-4
 93.3870087   1.245646999E-4
 93.5138474   1.191027623E-4
 93.6406937   1.139729793E-4
 93.76754   1.091654558E-4
 93.8943787   1.046654797E-4
 94.021225   1.004539881E-4
 94.1480713   9.650802531E-5
 94.27491   9.280137601E-5
 94.4017563   8.930523472E-5
 94.528595   8.598890417E-5
 94.6554413   8.282055205E-5
 94.7822876   7.976801135E-5
 94.9091263   7.679956616E-5
 95.0359726   7.388474478E-5
 95.1628189   7.099504728E-5
 95.2896576   6.810471677E-5
 95.4165039   6.519137241E-5
 95.5433502   6.22366133E-5
 95.6701889   5.922654236E-5
 95.7970352   5.615215559E-5
 95.9238815   5.300961493E-5
 96.0507202   4.980044832E-5
 96.1775665   4.653156793E-5
 96.3044128   4.321512824E-5
 96.4312515   3.986831507E-5
 96.5580978   3.651291991E-5
 96.6849442   3.317483788E-5
 96.8117828   2.988341839E-5
 96.9386292   2.667070476E-5
 97.0654678   2.357062476E-5
 97.1923141   2.061807936E-5
 97.3191605   1.784802225E-5
 97.4459991   1.529453584E-5
 97.5728455   1.298990992E-5
 97.6996918   1.096379037E-5
 97.8265305   9.242381566E-6
 97.9533768   7.84776239E-6
 98.0802231   6.79730465E-6
 98.2070618   6.103227861E-6
 98.3339081   5.77229639E-6
 98.4607544   5.805653927E-6
 98.5875931   6.198800747E-6
 98.7144394   6.94172968E-6
 98.8412857   8.019183042E-6
 98.9681244   9.411041901E-6
 99.0949707   1.109283221E-5
 99.221817   1.303632143E-5
 99.3486557   1.52102084E-5
 99.475502   1.758086546E-5
 99.6023407   2.011313518E-5
 99.729187   2.277112799E-5
 99.8560333   2.551904072E-5
 99.982872   2.832194514E-5
 100.109718   3.11465119E-5
 100.236565   3.396169268E-5
 100.363403   3.673927858E-5
 100.49025   3.94543822E-5
 100.617096   4.208577957E-5
 100.743935   4.461610297E-5
 100.870781   4.703191735E-5
 100.997627   4.93236621E-5
 101.124466   5.148540731E-5
 101.251312   5.351456275E-5
 101.378159   5.541138307E-5
 101.504997   5.717845488E-5
 101.631844   5.882009282E-5
 101.75869   6.034168837E-5
 101.885529   6.174904411E-5
 102.012375   6.304770068E-5
 102.139214   6.424235471E-5
 102.26606   6.533629494E-5
 102.392906   6.633087469E-5
 102.519745   6.722521357E-5
 102.646591   6.801587733E-5
 102.773438   6.869673962E-5
 102.900276   6.925898197E-5
 103.027122   6.969117385E-5
 103.153969   6.997952732E-5
 103.280807   7.010823902E-5
 103.407654   7.005997031E-5
 103.5345   6.981640763E-5
 103.661339   6.935890269E-5
 103.788185   6.866917829E-5
 103.915031   6.773013592E-5
 104.04187   6.652656157E-5
 104.168716   6.504595513E-5
 104.295563   6.327924348E-5
 104.422401   6.12215008E-5
 104.549248   5.887250518E-5
 104.676086   5.62372843E-5
 104.802933   5.332647197E-5
 104.929779   5.015653369E-5
 105.056618   4.674984666E-5
 105.183464   4.31346125E-5
 105.31031   3.9344588E-5
 105.437149   3.541866681E-5
 105.563995   3.140030458E-5
 105.690842   2.733678957E-5
 105.81768   2.327839138E-5
 105.944527   1.927743142E-5
 106.071373   1.538725337E-5
 106.198212   1.166114635E-5
 106.325058   8.151258044E-6
 106.451904   4.907517905E-6
 106.578743   1.976586873E-6
 106.705589   -5.991196304E-7
 106.832428   -2.782328693E-6
 106.959274   -4.541683666E-6
 107.086121   -5.852406503E-6
 107.212959   -6.696799574E-6
 107.339806   -7.064592864E-6
 107.466652   -6.953138382E-6
 107.593491   -6.367426067E-6
 107.720337   -5.319921456E-6
 107.847183   -3.83026827E-6
 107.974022   -1.924785693E-6
 108.100868   3.641201829E-7
 108.227715   2.998731361E-6
 108.354553   5.936859907E-6
 108.4814   9.132802006E-6
 108.608246   1.253834762E-5
 108.735085   1.610382787E-5
 108.861931   1.9779176E-5
 108.988777   2.351496914E-5
 109.115616   2.726344064E-5
 109.242462   3.097940862E-5
 109.369301   3.46211491E-5
 109.496147   3.815111631E-5
 109.622993   4.153661575E-5
 109.749832   4.475028618E-5
 109.876678   4.777049253E-5
 110.003525   5.058153693E-5
 110.130363   5.317381147E-5
 110.25721   5.554374002E-5
 110.384056   5.769369091E-5
 110.510895   5.963168951E-5
 110.637741   6.137111632E-5
 110.764587   6.293025945E-5
 110.891426   6.433188537E-5
 111.018272   6.560263137E-5
 111.145119   6.677251076E-5
 111.271957   6.787425082E-5
 111.398804   6.894273247E-5
 111.52565   7.001435733E-5
 111.652489   7.112642925E-5
 111.779335   7.231662312E-5
 111.906174   7.36223592E-5
 112.03302   7.508033741E-5
 112.159866   7.67260135E-5
 112.286705   7.859316247E-5
 112.413551   8.071351476E-5
 112.540398   8.311642887E-5
 112.667236   8.582857117E-5
 112.794083   8.887374133E-5
 112.920929   9.227274131E-5
 113.047768   9.604320076E-5
 113.174614   1.001996425E-4
 113.30146   1.047534024E-4
 113.428299   1.097127461E-4
 113.555145   1.150829485E-4
 113.681992   1.208663962E-4
 113.80883   1.270627399E-4
 113.935677   1.336690038E-4
 114.062523   1.406797819E-4
 114.189362   1.48087347E-4
 114.316208   1.558817457E-4
 114.443047   1.640509145E-4
 114.569893   1.725808252E-4
 114.696739   1.814554853E-4
 114.823578   1.906570105E-4
 114.950424   2.001656976E-4
 115.077271   2.099600533E-4
 115.204109   2.200168092E-4
 115.330956   2.303110086E-4
 115.457802   2.408160653E-4
 115.584641   2.515037486E-4
 115.711487   2.623443434E-4
 115.838333   2.733065921E-4
 115.965172   2.843580151E-4
 116.092018   2.954647643E-4
 116.218864   3.065918572E-4
 116.345703   3.177032631E-4
 116.472549   3.287620493E-4
 116.599396   3.397305554E-4
 116.726234   3.50570539E-4
 116.853081   3.612433502E-4
 116.979919   3.717101936E-4
 117.106766   3.819324193E-4
 117.233612   3.918717557E-4
 117.360451   4.014906008E-4
 117.487297   4.107524583E-4
 117.614143   4.196222289E-4
 117.740982   4.280665307E-4
 117.867828   4.360541934E-4
 117.994675   4.435565497E-4
 118.121513   4.50547639E-4
 118.24836   4.570046731E-4
 118.375206   4.629081814E-4
 118.502045   4.682421277E-4
 118.628891   4.729942011E-4
 118.755737   4.771556414E-4
 118.882576   4.807214427E-4
 119.009422   4.836901207E-4
 119.136261   4.860636545E-4
 119.263107   4.878473701E-4
 119.389954   4.890494747E-4
 119.516792   4.896811442E-4
 119.643639   4.897558829E-4
 119.770485   4.892893485E-4
 119.897324   4.882991198E-4
 120.02417   4.868041433E-4
 120.151016   4.848246463E-4
 120.277855   4.823814961E-4
 120.404701   4.794960259E-4
 120.531548   4.761896853E-4
 120.658386   4.724836617E-4
 120.785233   4.683987354E-4
 120.912079   4.639549297E-4
 121.038918   4.591712786E-4