 -7.19999981   -1.750690543E-18
 -7.07315636   -1.750684546E-18
 -6.9463129   -1.750671725E-18
 -6.81946898   -1.750652907E-18
 -6.69262552   -1.750628712E-18
 -6.56578159   -1.750599967E-18
 -6.43893814   -1.750566673E-18
 -6.31209469   -1.75052945E-18
 -6.18525076   -1.750489952E-18
 -6.05840731   -1.750449007E-18
 -5.93156338   -1.750407234E-18
 -5.80471992   -1.750365875E-18
 -5.67787647   -1.75032493E-18
 -5.55103254   -1.750286052E-18
 -5.42418909   -1.75025007E-18
 -5.29734564   -1.750216982E-18
 -5.17050171   -1.750187411E-18
 -5.04365826   -1.750161561E-18
 -4.91681433   -1.750139021E-18
 -4.78997087   -1.750120409E-18
 -4.66312742   -1.750105313E-18
 -4.53628349   -1.750093733E-18
 -4.40944004   -1.750085461E-18
 -4.28259611   -1.750078843E-18
 -4.15575266   -1.750074087E-18
 -4.02890921   -1.750070365E-18
 -3.90206528   -1.75006747E-18
 -3.77522182   -1.750063747E-18
 -3.64837813   -1.750059818E-18
 -3.52153444   -1.750054441E-18
 -3.39469075   -1.750046997E-18
 -3.2678473   -1.750037277E-18
 -3.14100361   -1.750024663E-18
 -3.01415992   -1.750009567E-18
 -2.88731623   -1.749991576E-18
 -2.76047254   -1.749970689E-18
 -2.63362908   -1.749946701E-18
 -2.50678539   -1.749920645E-18
 -2.3799417   -1.749892521E-18
 -2.25309801   -1.749862536E-18
 -2.12625432   -1.74983193E-18
 -1.99941075   -1.74980029E-18
 -1.87256718   -1.749768857E-18
 -1.74572349   -1.749738045E-18
 -1.61887991   -1.7497093E-18
 -1.49203622   -1.749682624E-18
 -1.36519253   -1.749659256E-18
 -1.23834896   -1.749639197E-18
 -1.11150527   -1.74962286E-18
 -0.984661698   -1.749611073E-18
 -0.857818007   -1.749603628E-18
 -0.730974376   -1.749600319E-18
 -0.604130745   -1.749601353E-18
 -0.477287114   -1.74960673E-18
 -0.350443482   -1.749615829E-18
 -0.223599836   -1.74962803E-18
 -9.675619751E-2   -1.749643126E-18
 3.008744121E-2   -1.749660497E-18
 0.156931072   -1.749678695E-18
 0.283774734   -1.749696893E-18
 0.410618365   -1.749715297E-18
 0.537461996   -1.749731634E-18
 0.664305627   -1.749746523E-18
 0.791149259   -1.749758311E-18
 0.91799289   -1.749766789E-18
 1.04483652   -1.749771339E-18
 1.17168021   -1.749771546E-18
 1.29852378   -1.749766376E-18
 1.42536747   -1.74975645E-18
 1.55221117   -1.749741354E-18
 1.67905474   -1.749721915E-18
 1.80589843   -1.749697927E-18
 1.932742   -1.749669596E-18
 2.05958557   -1.749637336E-18
 2.18642926   -1.74960156E-18
 2.31327295   -1.749562476E-18
 2.44011664   -1.749521737E-18
 2.56696033   -1.749479965E-18
 2.69380379   -1.749437985E-18
 2.82064748   -1.749396626E-18
 2.94749117   -1.749356508E-18
 3.07433486   -1.74931763E-18
 3.20117831   -1.749281648E-18
 3.328022   -1.749249388E-18
 3.45486569   -1.749221057E-18
 3.58170938   -1.749196655E-18
 3.70855308   -1.74917701E-18
 3.83539653   -1.749161707E-18
 3.96224022   -1.749151367E-18
 4.08908367   -1.74914475E-18
 4.2159276   -1.749142475E-18
 4.34277105   -1.74914475E-18
 4.46961498   -1.749150333E-18
 4.59645844   -1.749159225E-18
 4.72330189   -1.749169772E-18
 4.85014582   -1.749181146E-18
 4.97698927   -1.749193346E-18
 5.1038332   -1.749202445E-18
 5.23067665   -1.749206788E-18
 5.3575201   -1.749203893E-18
 5.48436403   -1.749191692E-18
 5.61120749   -1.749168945E-18
 5.73805141   -1.749135237E-18
 5.86489487   -1.749090983E-18
 5.99173832   -1.749039284E-18
 6.11858225   -1.748985311E-18
 6.2454257   -1.748934646E-18
 6.37226963   -1.748896182E-18
 6.49911308   -1.748876123E-18
 6.62595654   -1.748881086E-18
 6.75280046   -1.748911691E-18
 6.87964392   -1.748965872E-18
 7.00648737   -1.749032667E-18
 7.1333313   -1.749094912E-18
 7.26017475   -1.749130067E-18
 7.38701868   -1.749111249E-18
 7.51386213   -1.749014055E-18
 7.64070559   -1.748821736E-18
 7.76754951   -1.748529741E-18
 7.89439297   -1.748155028E-18
 8.02123642   -1.747737095E-18
 8.14808083   -1.747341909E-18
 8.27492428   -1.747054051E-18
 8.40176773   -1.746968644E-18
 8.52861118   -1.747174612E-18
 8.65545464   -1.747735234E-18
 8.78229809   -1.748664778E-18
 8.90914249   -1.749912166E-18
 9.03598595   -1.751346084E-18
 9.1628294   -1.752756634E-18
 9.28967285   -1.753868778E-18
 9.4165163   -1.754377287E-18
 9.54336071   -1.75399513E-18
 9.67020416   -1.752512822E-18
 9.79704762   -1.749863983E-18
 9.92389107   -1.746178687E-18
 10.0507345   -1.741819238E-18
 10.1775789   -1.737375624E-18
 10.3044224   -1.733619707E-18
 10.4312658   -1.731413926E-18
 10.5581093   -1.731572538E-18
 10.6849527   -1.734699695E-18
 10.8117971   -1.741020388E-18
 10.9386406   -1.750245313E-18
 11.065484   -1.761491454E-18
 11.1923275   -1.773300078E-18
 11.319171   -1.783762258E-18
 11.4460154   -1.790769098E-18
 11.5728588   -1.792349427E-18
 11.6997023   -1.787066018E-18
 11.8265457   -1.774402916E-18
 11.9533892   -1.755066536E-18
 12.0802336   -1.731118519E-18
 12.207077   -1.705887029E-18
 12.3339205   -1.683608264E-18
 12.4607639   -1.668816517E-18
 12.5876074   -1.665543053E-18
 12.7144518   -1.676435884E-18
 12.8412952   -1.701956267E-18
 12.9681387   -1.739825526E-18
 13.0949821   -1.784888465E-18
 13.2218256   -1.829503485E-18
 13.34867   -1.864510596E-18
 13.4755135   -1.880696866E-18
 13.6023569   -1.8705912E-18
 13.7292004   -1.830303782E-18
 13.8560438   -1.761058632E-18
 13.9828882   -1.670072073E-18
 14.1097317   -1.570464328E-18
 14.2365751   -1.480040459E-18
 14.3634186   -1.418952447E-18
 14.490262   -1.406483423E-18
 14.6171055   -1.457398148E-18
 14.7439499   -1.578473608E-18
 14.8707933   -1.765881095E-18
 14.9976368   -2.004040869E-18
 15.1244802   -2.266365277E-18
 15.2513237   -2.518002305E-18
 15.3781681   -2.720305454E-18
 15.5050116   -2.836366752E-18
 15.631855   -2.836669293E-18
 15.7586985   -2.703762875E-18
 15.8855419   -2.434983977E-18
 16.0123863   -2.042565979E-18
 16.1392288   -1.551042954E-18
 16.2660732   -9.925223331E-19
 16.3929176   -4.010396758E-19
 16.5197601   1.923365659E-19
 16.6466045   7.618567637E-19
 16.773447   1.285506708E-18
 16.9002914   1.738905908E-18
 17.0271358   2.085408558E-18
 17.1539783   2.264579808E-18
 17.2808228   2.182597317E-18
 17.4076653   1.709018528E-18
 17.5345097   6.84399933E-19
 17.6613541   -1.057819971E-18
 17.7881966   -3.654049263E-18
 17.915041   -7.160122532E-18
 18.0418835   -1.149394179E-17
 18.1687279   -1.638138228E-17
 18.2955723   -2.131870093E-17
 18.4224148   -2.556582339E-17
 18.5492592   -2.818360188E-17
 18.6761017   -2.812350224E-17
 18.8029461   -2.437072442E-17
 18.9297905   -1.613176233E-17
 19.056633   -3.046269829E-18
 19.1834774   1.460728997E-17
 19.3103199   3.575038873E-17
 19.4371643   5.842854446E-17
 19.5640087   7.985770378E-17
 19.6908512   9.661870572E-17
 19.8176956   1.050066414E-16
 19.9445381   1.015177855E-16
 20.0713825   8.343034317E-17
 20.1982269   4.940832186E-17
 20.3250694   3.998961697E-20
 20.4519138   -6.178818815E-17
 20.5787563   -1.307756005E-16
 20.7056007   -1.99422221E-16
 20.8324451   -2.586097732E-16
 20.9592876   -2.985364711E-16
 21.086132   -3.099360787E-16
 21.2129745   -2.854565883E-16
 21.339819   -2.210288007E-16
 21.4666634   -1.170261911E-16
 21.5935059   2.098207317E-17
 21.7203503   1.820587603E-16
 21.8471928   3.50421739E-16
 21.9740372   5.066971208E-16
 22.1008816   6.298387706E-16
 22.2277241   6.995494763E-16
 22.3545685   6.989492476E-16
 22.481411   6.171720811E-16
 22.6082554   4.515433115E-16
 22.7350998   2.090085032E-16
 22.8619423   -9.345108043E-17
 22.9887867   -4.295796943E-16
 23.1156292   -7.658089462E-16
 23.2424736   -1.064300392E-15
 23.369318   -1.286802713E-15
 23.4961605   -1.398943099E-15
 23.6230049   -1.374493493E-15
 23.7498474   -1.199125697E-15
 23.8766918   -8.732070065E-16
 24.0035343   -4.132604399E-16
 24.1303787   1.481523888E-16
 24.2572231   7.642204948E-16
 24.3840656   1.377275255E-15
 24.51091   1.923564178E-15
 24.6377525   2.339045908E-15
 24.7645969   2.565745383E-15
 24.8914413   2.558132674E-15
 25.0182838   2.28896678E-15
 25.1451283   1.754023333E-15
 25.2719707   9.751823618E-16
 25.3988152   1.39940772E-18
 25.5256596   -1.092797333E-15
 25.6525021   -2.211503499E-15
 25.7793465   -3.244333547E-15
 25.906189   -4.075783205E-15
 26.0330334   -4.596518732E-15
 26.1598778   -4.715743702E-15
 26.2867203   -4.373480558E-15
 26.4135647   -3.551346779E-15
 26.5404072   -2.280298244E-15
 26.6672516   -6.438348254E-16
 26.794096   1.224550132E-15
 26.9209385   3.150402675E-15
 27.0477829   4.933786076E-15
 27.1746254   6.370270522E-15
 27.3014698   7.275551384E-15
 27.4283142   7.510875771E-15
 27.5551567   7.005862023E-15
 27.6820011   5.775031671E-15
 27.8088436   3.924666598E-15
 27.935688   1.647466059E-15
 28.0625324   -7.960346817E-16
 28.1893749   -3.108508637E-15
 28.3162193   -4.996431362E-15
 28.4430618   -6.215346925E-15
 28.5699062   -6.61338973E-15
 28.6967506   -6.165837426E-15
 28.8235931   -4.993786502E-15
 28.9504375   -3.361375077E-15
 29.07728   -1.648661329E-15
 29.2041245   -3.005507949E-16
 29.3309689   2.437712912E-16
 29.4578114   -3.673302636E-16
 29.5846558   -2.316227476E-15
 29.7114983   -5.547615183E-15
 29.8383427   -9.726736831E-15
 29.9651871   -1.423531364E-14
 30.0920296   -1.821248908E-14
 30.218874   -2.064210822E-14
 30.3457165   -2.048104829E-14
 30.4725609   -1.681633823E-14
 30.5994053   -9.032811019E-15
 30.7262478   3.031019734E-15
 30.8530922   1.896277731E-14
 30.9799347   3.771364392E-14
 31.1067791   5.76104919E-14
 31.2336235   7.645168949E-14
 31.360466   9.168578711E-14
 31.4873104   1.006612328E-13
 31.6141529   1.009254461E-13
 31.7409973   9.054283473E-14
 31.8678417   6.83965959E-14
 31.9946842   3.443799811E-14
 32.1215286   -1.015001021E-14
 32.2483711   -6.290073443E-14
 32.3752136   -1.201383692E-13
 32.5020599   -1.771822028E-13
 32.6289024   -2.286698391E-13
 32.7557449   -2.689769794E-13
 32.8825912   -2.92701166E-13
 33.0094337   -2.951704094E-13
 33.1362762   -2.729343444E-13
 33.2631226   -2.241963668E-13
 33.3899651   -1.491489495E-13
 33.5168076   -5.018115575E-14
 33.6436501   6.806581937E-14
 33.7704964   1.988088649E-13
 33.8973389   3.334053411E-13
 34.0241814   4.618025797E-13
 34.1510277   5.731422823E-13
 34.2778702   6.564961248E-13
 34.4047127   7.016977602E-13
 34.531559   7.002263895E-13
 34.6584015   6.460846398E-13
 34.785244   5.366022839E-13
 34.9120865   3.730899595E-13
 35.0389328   1.612631198E-13
 35.1657753   -8.863899605E-14
 35.2926178   -3.621037118E-13
 35.4194641   -6.410022253E-13
 35.5463066   -9.046627922E-13
 35.6731491   -1.131321924E-12
 35.7999954   -1.29987156E-12
 35.9268379   -1.391775367E-12
 36.0536804   -1.392982192E-12
 36.1805229   -1.295641112E-12
 36.3073692   -1.099415264E-12
 36.4342117   -8.122058798E-13
 36.5610542   -4.501385159E-13
 36.6879005   -3.673166507E-14
 36.814743   3.987516697E-13
 36.9415855   8.236714804E-13
 37.0684319   1.204909545E-12
 37.1952744   1.512026723E-12
 37.3221169   1.720353569E-12
 37.4489594   1.813666405E-12
 37.5758057   1.786120622E-12
 37.7026482   1.643174746E-12
 37.8294907   1.401337163E-12
 37.956337   1.08669497E-12
 38.0831795   7.323237069E-13
 38.210022   3.748124044E-13
 38.3368683   5.025760556E-14
 38.4637108   -2.0984668E-13
 38.5905533   -3.82359346E-13
 38.7173958   -4.554466613E-13
 38.8442421   -4.303803678E-13
 38.9710846   -3.219354579E-13
 39.0979271   -1.573018517E-13
 39.2247734   2.642038572E-14
 39.3516159   1.859129035E-13
 39.4784584   2.761581111E-13
 39.6053047   2.553458204E-13
 39.7321472   8.96812667E-14
 39.8589897   -2.423682457E-13
 39.9858322   -7.467883733E-13
 40.1126785   -1.411995846E-12
 40.239521   -2.208251594E-12
 40.3663635   -3.088557188E-12
 40.4932098   -3.990959473E-12
 40.6200523   -4.842085066E-12
 40.7468948   -5.561666145E-12
 40.8737411   -6.067769117E-12
 41.0005836   -6.282422933E-12
 41.1274261   -6.137346274E-12
 41.2542686   -5.579478286E-12
 41.381115   -4.576038767E-12
 41.5079575   -3.118820089E-12
 41.6348   -1.227446421E-12
 41.7616463   1.04869737E-12
 41.8884888   3.630131785E-12
 42.0153313   6.408801441E-12
 42.1421776   9.251599487E-12
 42.2690201   1.200600036E-11
 42.3958626   1.450767458E-11
 42.5227051   1.658985969E-11
 42.6495514   1.809394821E-11
 42.7763939   1.888065052E-11
 42.9032364   1.88408282E-11
 43.0300827   1.79050906E-11
 43.1569252   1.605113958E-11
 43.2837677   1.330801008E-11
 43.4106102   9.756583562E-12
 43.5374565   5.526037961E-12
 43.664299   7.863072715E-13
 43.7911415   -4.262936792E-12
 43.9179878   -9.405868445E-12
 44.0448303   -1.442543567E-11
 44.1716728   -1.911817232E-11
 44.2985191   -2.33074237E-11
 44.4253616   -2.685359747E-11
 44.5522041   -2.966041648E-11
 44.6790466   -3.167651905E-11
 44.8058929   -3.28923104E-11
 44.9327354   -3.333248261E-11
 45.0595779   -3.304517424E-11
 45.1864243   -3.208907445E-11
 45.3132668   -3.052005523E-11
 45.4401093   -2.837895023E-11
 45.5669556   -2.568197564E-11
 45.6937981   -2.241499347E-11
 45.8206406   -1.853237529E-11
 45.9474831   -1.396079693E-11
 46.0743294   -8.607699623E-12
 46.2011719   -2.373839406E-12
 46.3280144   4.831040082E-12
 46.4548607   1.307070164E-11
 46.5817032   2.236422679E-11
 46.7085457   3.266858312E-11
 46.835392   4.386304167E-11
 46.9622345   5.573658896E-11
 47.089077   6.797932356E-11
 47.2159195   8.017871089E-11
 47.3427658   9.182159894E-11
 47.4696083   1.0230259E-10
 47.5964508   1.109397088E-10
 47.7232971   1.169976754E-10
 47.8501396   1.197191929E-10
 47.9769821   1.18363902E-10
 48.1038284   1.122544488E-10
 48.2306709   1.008277489E-10
 48.3575134   8.368940263E-11
 48.4843559   6.066758207E-11
 48.6112022   3.18626861E-11
 48.7380447   -2.31211209E-12
 48.8648872   -4.110397439E-11
 48.9917336   -8.34116734E-11
 49.118576   -1.27798605E-10
 49.2454185   -1.725298515E-10
 49.3722649   -2.1563408E-10
 49.4991074   -2.549883082E-10
 49.6259499   -2.884225636E-10
 49.7527924   -3.138384275E-10
 49.8796387   -3.293342266E-10
 50.0064812   -3.333284482E-10
 50.1333237   -3.246727331E-10
 50.26017   -3.027452178E-10
 50.3870125   -2.675171473E-10
 50.513855   -2.195869458E-10
 50.6407013   -1.601780236E-10
 50.7675438   -9.109973192E-11
 50.8943863   -1.467301974E-11
 51.0212288   6.63744823E-11
 51.1480751   1.490376017E-10
 51.2749176   2.301787511E-10
 51.4017601   3.066797927E-10
 51.5286064   3.755916134E-10
 51.6554489   4.34272146E-10
 51.7822914   4.805050802E-10
 51.9091377   5.125933011E-10
 52.0359802   5.294221173E-10
 52.1628227   5.304901518E-10
 52.2896652   5.159073724E-10
 52.4165115   4.863615621E-10
 52.543354   4.430573131E-10
 52.6701965   3.876311216E-10
 52.7970428   3.220497202E-10
 52.9238853   2.484974171E-10
 53.0507278   1.692604112E-10
 53.1775742   8.661485418E-11
 53.3044167   2.725659975E-12
 53.4312592   -8.043730265E-11
 53.5581017   -1.611615702E-10
 53.684948   -2.380288189E-10
 53.8117905   -3.09924808E-10
 53.938633   -3.760227962E-10
 54.0654793   -4.357432193E-10
 54.1923218   -4.886943628E-10
 54.3191643   -5.345995313E-10
 54.4460106   -5.732191388E-10
 54.5728531   -6.04275352E-10
 54.6996956   -6.273868092E-10
 54.8265381   -6.420214915E-10
 54.9533844   -6.47472076E-10
 55.0802269   -6.428588772E-10
 55.2070694   -6.271597686E-10
 55.3339157   -5.992669139E-10
 55.4607582   -5.580659823E-10
 55.5876007   -5.025319605E-10
 55.7144432   -4.318346514E-10
 55.8412895   -3.454451725E-10
 55.968132   -2.432361534E-10
 56.0949745   -1.255675702E-10
 56.2218208   6.647624725E-12
 56.3486633   1.519028237E-10
 56.4755058   3.080842248E-10
 56.6023521   4.724858282E-10
 56.7291946   6.418510168E-10
 56.8560371   8.124395046E-10
 56.9828796   9.801146561E-10
 57.109726   1.140447625E-9
 57.2365685   1.288834373E-9
 57.3634109   1.420618734E-9
 57.4902573   1.531220373E-9
 57.6170998   1.616260348E-9
 57.7439423   1.671682681E-9
 57.8707886   1.693869933E-9
 57.9976311   1.67974934E-9
 58.1244736   1.626888846E-9
 58.2513161   1.533583371E-9
 58.3781624   1.398930638E-9
 58.5050049   1.222901003E-9
 58.6318474   1.006399519E-9
 58.7586937   7.513229483E-10
 58.8855362   4.60616767E-10
 59.0123787   1.383294174E-10
 59.139225   -2.103348468E-10
 59.2660675   -5.78967152E-10
 59.39291   -9.599159245E-10
 59.5197525   -1.344268141E-9
 59.6465988   -1.721859988E-9
 59.7734413   -2.081335992E-9
 59.9002838   -2.410270206E-9
 60.0271301   -2.695370815E-9
 60.1539726   -2.92278779E-9
 60.2808151   -3.078535871E-9
 60.4076614   -3.149051908E-9
 60.5345039   -3.12189119E-9
 60.6613464   -2.986561443E-9
 60.7881889   -2.735486726E-9
 60.9150352   -2.36508213E-9
 61.0418777   -1.876907518E-9
 61.1687202   -1.278860018E-9
 61.2955666   -5.863597385E-10
 61.4224091   1.765398244E-10
 61.5492516   9.761720321E-10
 61.6760979   1.768487912E-9
 61.8029404   2.498557805E-9
 61.9297829   3.100417256E-9
 62.0566254   3.49732332E-9
 62.1834717   3.602463217E-9
 62.3103142   3.320150155E-9
 62.4371567   2.547550393E-9
 62.564003   1.176902242E-9
 62.6908455   -9.017737113E-10
 62.817688   -3.797540504E-9
 62.9445343   -7.615112096E-9
 63.0713768   -1.245112902E-8
 63.1982193   -1.839043051E-8
 63.3250618   -2.550242328E-8
 63.4519081   -3.383769709E-8
 63.5787506   -4.342528115E-8
 63.7055931   -5.427057559E-8
 63.8324394   -6.635422523E-8
 63.9592819   -7.963241444E-8
 64.0861282   -9.403849077E-8
 64.2129669   -1.094862512E-7
 64.3398132   -1.258751183E-7
 64.4666595   -1.430972532E-7
 64.5934982   -1.610467137E-7
 64.7203445   -1.796306464E-7
 64.8471909   -1.987823453E-7
 64.9740295   -2.184763304E-7
 65.1008759   -2.387447182E-7
 65.2277145   -2.596950139E-7
 65.3545609   -2.815282585E-7
 65.4814072   -3.045577159E-7
 65.6082458   -3.29226566E-7
 65.7350922   -3.561243318E-7
 65.8619385   -3.860012612E-7
 65.9887772   -4.197790702E-7
 66.1156235   -4.585576221E-7
 66.2424698   -5.036162634E-7
 66.3693085   -5.564094749E-7
 66.4961548   -6.185539974E-7
 66.6230011   -6.91808907E-7
 66.7498398   -7.780475357E-7
 66.8766861   -8.792188169E-7
 67.0035324   -9.973000488E-7
 67.1303711   -1.134240506E-6
 67.2572174   -1.29189516E-6
 67.3840637   -1.471950554E-6
 67.5109024   -1.675842441E-6
 67.6377487   -1.904668352E-6
 67.7645874   -2.159094265E-6
 67.8914337   -2.439258196E-6
 68.01828   -2.744674703E-6
 68.1451187   -3.074138931E-6
 68.271965   -3.425635668E-6
 68.3988113   -3.796255214E-6
 68.52565   -4.182118118E-6
 68.6524963   -4.5783122E-6
 68.7793427   -4.978844572E-6
 68.9061813   -5.376610716E-6
 69.0330276   -5.763381068E-6
 69.159874   -6.129813301E-6
 69.2867126   -6.465484603E-6
 69.413559   -6.758946711E-6
 69.5404053   -6.997808669E-6
 69.667244   -7.16884324E-6
 69.7940903   -7.258115602E-6
 69.920929   -7.251138413E-6
 70.0477753   -7.133045983E-6
 70.1746216   -6.888787993E-6
 70.3014603   -6.503337318E-6
 70.4283066   -5.961912393E-6
 70.5551529   -5.250205959E-6
 70.6819916   -4.354615612E-6
 70.8088379   -3.262482096E-6
 70.9356842   -1.962311671E-6
 71.0625229   -4.439900465E-7
 71.1893692   1.301013413E-6
 71.3162155   3.279463499E-6
 71.4430542   5.496201993E-6
 71.5699005   7.954035937E-6
 71.6967468   1.06536163E-5
 71.8235855   1.359338239E-5
 71.9504318   1.676953798E-5
 72.0772781   2.017604493E-5
 72.2041168   2.380467049E-5
 72.3309631   2.764509554E-5
 72.4578018   3.168494732E-5
 72.5846481   3.591004133E-5
 72.7114944   4.030447963E-5
 72.8383331   4.485084719E-5
 72.9651794   4.953048483E-5
 73.0920258   5.432366379E-5
 73.2188644   5.920985132E-5
 73.3457108   6.416792166E-5
 73.4725571   6.917647261E-5
 73.5993958   7.421399641E-5
 73.7262421   7.92591527E-5
 73.8530884   8.42909285E-5
 73.9799271   8.928891475E-5
 74.1067734   9.423343727E-5
 74.2336197   9.910573135E-5
 74.3604584   1.038880728E-4
 74.4873047   1.085638069E-4
 74.614151   1.131175595E-4
 74.7409897   1.175351426E-4
 74.867836   1.218036487E-4
 74.9946747   1.259114797E-4
 75.121521   1.298482384E-4
 75.2483673   1.336047426E-4
 75.375206   1.371729304E-4
 75.5020523   1.40545817E-4
 75.6288986   1.437174506E-4
 75.7557373   1.466827089E-4
 75.8825836   1.494373573E-4
 76.0094299   1.51977918E-4
 76.1362686   1.54301626E-4
 76.2631149   1.564062841E-4
 76.3899612   1.582904079E-4
 76.5167999   1.599529642E-4
 76.6436462   1.613936183E-4
 76.7704926   1.626125304E-4
 76.8973312   1.636104571E-4
 77.0241776   1.643888536E-4
 77.1510239   1.649498154E-4
 77.2778625   1.652962092E-4
 77.4047089   1.654317311E-4
 77.5315475   1.653609506E-4
 77.6583939   1.650894119E-4
 77.7852402   1.646236342E-4
 77.9120789   1.639712718E-4
 78.0389252   1.631410705E-4
 78.1657715   1.621429255E-4
 78.2926102   1.609878382E-4
 78.4194565   1.59688032E-4
 78.5463028   1.582567638E-4
 78.6731415   1.567083236E-4
 78.7999878   1.550579473E-4
 78.9268341   1.53321671E-4
 79.0536728   1.515162003E-4
 79.1805191   1.496587938E-4
 79.3073654   1.47766943E-4
 79.4342041   1.458582847E-4
 79.5610504   1.439502666E-4
 79.6878967   1.420600747E-4
 79.8147354   1.40204138E-4
 79.9415817   1.383980853E-4
 80.0684204   1.366564538E-4
 80.1952667   1.34992355E-4
 80.322113   1.33417343E-4
 80.4489517   1.319411531E-4
 80.575798   1.305715414E-4
 80.7026443   1.293140958E-4
 80.829483   1.281721779E-4
 80.9563293   1.271466754E-4
 81.0831757   1.262361911E-4
 81.2100143   1.254367526E-4
 81.3368607   1.247420441E-4
 81.463707   1.241434074E-4
 81.5905457   1.236299286E-4
 81.717392   1.23188569E-4
 81.8442383   1.228044566E-4
 81.971077   1.224609587E-4
 82.0979233   1.221400016E-4
 82.224762   1.218223551E-4
 82.3516083   1.214877921E-4
 82.4784546   1.211155104E-4
 82.6052933   1.206843735E-4
 82.7321396   1.201731575E-4
 82.8589859   1.195608784E-4
 82.9858246   1.188270398E-4
 83.1126709   1.179518513E-4
 83.2395172   1.169165043E-4
 83.3663559   1.157032893E-4
 83.4932022   1.142958208E-4
 83.6200485   1.12679154E-4
 83.7468872   1.10839821E-4
 83.8737335   1.087659548E-4
 84.0005798   1.064473399E-4
 84.1274185   1.038753617E-4
 84.2542648   1.010429551E-4
 84.3811111   9.794465586E-5
 84.5079498   9.457641863E-5
 84.6347961   9.093562403E-5
 84.7616348   8.702093328E-5
 84.8884811   8.283217903E-5
 85.0153275   7.837028534E-5
 85.1421661   7.363716577E-5
 85.2690125   6.863562885E-5
 85.3958588   6.3369298E-5
 85.5226974   5.784253153E-5
 85.6495438   5.20604226E-5
 85.7763901   4.602874833E-5
 85.9032288   3.975398795E-5
 86.0300751   3.324336649E-5
 86.1569214   2.650488204E-5
 86.2837601   1.95474131E-5
 86.4106064   1.238080222E-5
 86.5374527   5.015977422E-6
 86.6642914   -2.534914984E-6
 86.7911377   -1.025838628E-5
 86.917984   -1.813945164E-5
 87.0448227   -2.616152415E-5
 87.171669   -3.430628203E-5
 87.2985077   -4.255357999E-5
 87.425354   -5.088137914E-5
 87.5522003   -5.926572703E-5
 87.679039   -6.768077583E-5
 87.8058853   -7.609882596E-5
 87.9327316   -8.449044253E-5
 88.0595703   -9.28246227E-5
 88.1864166   -1.010690394E-4
 88.3132629   -1.091902523E-4
 88.4401016   -1.171541007E-4
 88.5669479   -1.249260531E-4
 88.6937943   -1.324716577E-4
 88.8206329   -1.397568994E-4
 88.9474792   -1.467488037E-4
 89.0743256   -1.534158509E-4
 89.2011642   -1.597285009E-4
 89.3280106   -1.656596723E-4
 89.4548569   -1.711852237E-4
 89.5816956   -1.76284404E-4
 89.7085419   -1.809401292E-4
 89.8353806   -1.851394773E-4
 89.9622269   -1.888737897E-4
 90.0890732   -1.92138963E-4
 90.2159119   -1.949354337E-4
 90.3427582   -1.972682803E-4
 90.4696045   -1.991470053E-4
 90.5964432   -2.005854622E-4
 90.7232895   -2.016014914E-4
 90.8501358   -2.022165718E-4
 90.9769745   -2.024553251E-4
 91.1038208   -2.023450506E-4
 91.2306671   -2.019150706E-4
 91.3575058   -2.011961478E-4
 91.4843521   -2.00219758E-4
 91.6111984   -1.990174642E-4
 91.7380371   -1.976202184E-4
 91.8648834   -1.960576192E-4
 91.9917297   -1.943574025E-4
 92.1185684   -1.925447432E-4
 92.2454147   -1.906418183E-4
 92.3722534   -1.886672981E-4
 92.4990997   -1.866360253E-4
 92.625946   -1.845587831E-4
 92.7527847   -1.824420906E-4
 92.879631   -1.802882616E-4
 93.0064774   -1.780953899E-4
 93.133316   -1.758575527E-4
 93.2601624   -1.735651458E-4
 93.3870087   -1.712052617E-4
 93.5138474   -1.687621698E-4
 93.6406937   -1.662179275E-4
 93.76754   -1.635529334E-4
 93.8943787   -1.607466838E-4
 94.021225   -1.577785006E-4
 94.1480713   -1.54628171E-4
 94.27491   -1.512768213E-4
 94.4017563   -1.47707513E-4
 94.528595   -1.439059706E-4
 94.6554413   -1.398612076E-4
 94.7822876   -1.355660206E-4
 94.9091263   -1.310175867E-4
 95.0359726   -1.26217652E-4
 95.1628189   -1.211729614E-4
 95.2896576   -1.158953091E-4
 95.4165039   -1.104016119E-4
 95.5433502   -1.047138576E-4
 95.6701889   -9.885887266E-5
 95.7970352   -9.286804561E-5
 95.9238815   -8.677690494E-5
 96.0507202   -8.062462439E-5
 96.1775665   -7.445342635E-5
 96.3044128   -6.830793427E-5
 96.4312515   -6.223441596E-5
 96.5580978   -5.628008148E-5
 96.6849442   -5.049223546E-5
 96.8117828   -4.491753498E-5
 96.9386292   -3.960116373E-5
 97.0654678   -3.458610445E-5
 97.1923141   -2.991238944E-5
 97.3191605   -2.561646943E-5
 97.4459991   -2.173059511E-5
 97.5728455   -1.828232962E-5
 97.6996918   -1.529412111E-5
 97.8265305   -1.278296622E-5
 97.9533768   -1.076020544E-5
 98.0802231   -9.231395779E-6
 98.2070618   -8.196294402E-6
 98.3339081   -7.64894321E-6
 98.4607544   -7.57783755E-6
 98.5875931   -7.966195881E-6
 98.7144394   -8.792298104E-6
 98.8412857   -1.002988938E-5
 98.9681244   -1.164865535E-5
 99.0949707   -1.36147255E-5
 99.221817   -1.58912153E-5
 99.3486557   -1.843881E-5
 99.475502   -2.121632315E-5
 99.6023407   -2.418128679E-5
 99.729187   -2.729051266E-5
 99.8560333   -3.050064697E-5
 99.982872   -3.376867971E-5
 100.109718   -3.705243944E-5
 100.236565   -4.031102799E-5
 100.363403   -4.350523523E-5
 100.49025   -4.65978701E-5
 100.617096   -4.955408076E-5
 100.743935   -5.234159835E-5
 100.870781   -5.493095887E-5
 100.997627   -5.729564145E-5
 101.124466   -5.941220297E-5
 101.251312   -6.126034714E-5
 101.378159   -6.282298273E-5
 101.504997   -6.408622721E-5
 101.631844   -6.503937038E-5
 101.75869   -6.56748889E-5
 101.885529   -6.598832988E-5
 102.012375   -6.597828906E-5
 102.139214   -6.564630166E-5
 102.26606   -6.499676965E-5
 102.392906   -6.403685984E-5
 102.519745   -6.277639477E-5
 102.646591   -6.122778723E-5
 102.773438   -5.940591291E-5
 102.900276   -5.732803766E-5
 103.027122   -5.501371561E-5
 103.153969   -5.248469097E-5
 103.280807   -4.976482523E-5
 103.407654   -4.687998444E-5
 103.5345   -4.385795182E-5
 103.661339   -4.072831143E-5
 103.788185   -3.752230623E-5
 103.915031   -3.427274714E-5
 104.04187   -3.101378752E-5
 104.168716   -2.778079033E-5
 104.295563   -2.461006625E-5
 104.422401   -2.153865171E-5
 104.549248   -1.860400153E-5
 104.676086   -1.584365418E-5
 104.802933   -1.329489896E-5
 104.929779   -1.099434758E-5
 105.056618   -8.977508514E-6
 105.183464   -7.278329576E-6
 105.31031   -5.92869219E-6
 105.437149   -4.957914825E-6
 105.563995   -4.392238679E-6
 105.690842   -4.254294254E-6
 105.81768   -4.562613867E-6
 105.944527   -5.331132797E-6
 106.071373   -6.568744993E-6
 106.198212   -8.278891073E-6
 106.325058   -1.045921454E-5
 106.451904   -1.3101283E-5
 106.578743   -1.619038812E-5
 106.705589   -1.970543963E-5
 106.832428   -2.361895531E-5
 106.959274   -2.789715109E-5
 107.086121   -3.250015652E-5
 107.212959   -3.738230225E-5
 107.339806   -4.249256017E-5
 107.466652   -4.777505819E-5
 107.593491   -5.316970055E-5
 107.720337   -5.861287354E-5
 107.847183   -6.403825682E-5
 107.974022   -6.937763828E-5
 108.100868   -7.45618745E-5
 108.227715   -7.952178566E-5
 108.354553   -8.41891524E-5
 108.4814   -8.849764708E-5
 108.608246   -9.238381608E-5
 108.735085   -9.578796016E-5
 108.861931   -9.865500033E-5
 108.988777   -1.009352782E-4
 109.115616   -1.025852325E-4
 109.242462   -1.035680471E-4
 109.369301   -1.038540868E-4
 109.496147   -1.034213492E-4
 109.622993   -1.022556535E-4
 109.749832   -1.003508078E-4
 109.876678   -9.770863107E-5
 110.003525   -9.433881496E-5
 110.130363   -9.025871987E-5
 110.25721   -8.549306949E-5
 110.384056   -8.007352881E-5
 110.510895   -7.403823838E-5
 110.637741   -6.743128324E-5
 110.764587   -6.030212171E-5
 110.891426   -5.270499241E-5
 111.018272   -4.469830674E-5
 111.145119   -3.634407039E-5
 111.271957   -2.770731044E-5
 111.398804   -1.885552774E-5
 111.52565   -9.8581977E-6
 111.652489   -7.863218343E-7
 111.779335   8.287998753E-6
 111.906174   1.729191717E-5
 112.03302   2.615216545E-5
 112.159866   3.479535371E-5
 112.286705   4.31482149E-5
 112.413551   5.113786028E-5
 112.540398   5.869201414E-5
 112.667236   6.57392593E-5
 112.794083   7.220930274E-5
 112.920929   7.803328481E-5
 113.047768   8.314408478E-5
 113.174614   8.747675747E-5
 113.30146   9.096897702E-5
 113.428299   9.356153168E-5
 113.555145   9.519894229E-5
 113.681992   9.583009523E-5
 113.80883   9.540899191E-5
 113.935677   9.389549086E-5
 114.062523   9.125614451E-5
 114.189362   8.746505046E-5
 114.316208   8.250469546E-5
 114.443047   7.636683586E-5
 114.569893   6.905331975E-5
 114.696739   6.057689461E-5
 114.823578   5.09618767E-5
 114.950424   4.024483496E-5
 115.077271   2.847505129E-5
 115.204109   1.571489702E-5
 115.330956   2.04006119E-6
 115.457802   -1.246043666E-5
 115.584641   -2.7684413E-5
 115.711487   -4.351684765E-5
 115.838333   -5.98304905E-5
 115.965172   -7.648661267E-5
 116.092018   -9.333604976E-5
 116.218864   -1.102203678E-4
 116.345703   -1.269732747E-4
 116.472549   -1.434222795E-4
 116.599396   -1.593903435E-4
 116.726234   -1.74697896E-4
 116.853081   -1.891647553E-4
 116.979919   -2.026123257E-4
 117.106766   -2.148656495E-4
 117.233612   -2.257557207E-4
 117.360451   -2.351216681E-4
 117.487297   -2.428127045E-4
 117.614143   -2.486903977E-4
 117.740982   -2.526305034E-4
 117.867828   -2.545246098E-4
 117.994675   -2.542819711E-4
 118.121513   -2.51830701E-4
 118.24836   -2.471189073E-4
 118.375206   -2.401154052E-4
 118.502045   -2.308105468E-4
 118.628891   -2.192162356E-4
 118.755737   -2.053658391E-4
 118.882576   -1.893139415E-4
 119.009422   -1.711354416E-4
 119.136261   -1.509246649E-4
 119.263107   -1.287939085E-4
 119.389954   -1.048719278E-4