 -7.19999981   -7.194725978E-19
 -7.07315636   -7.194680483E-19
 -6.9463129   -7.19459518E-19
 -6.81946898   -7.194475756E-19
 -6.69262552   -7.194324279E-19
 -6.56578159   -7.194144367E-19
 -6.43893814   -7.193947394E-19
 -6.31209469   -7.193742667E-19
 -6.18525076   -7.193536389E-19
 -6.05840731   -7.193337866E-19
 -5.93156338   -7.19315692E-19
 -5.80471992   -7.192998205E-19
 -5.67787647   -7.19286689E-19
 -5.55103254   -7.192767111E-19
 -5.42418909   -7.192700937E-19
 -5.29734564   -7.192667849E-19
 -5.17050171   -7.192665781E-19
 -5.04365826   -7.192692148E-19
 -4.91681433   -7.192739194E-19
 -4.78997087   -7.192802266E-19
 -4.66312742   -7.192867924E-19
 -4.53628349   -7.192936166E-19
 -4.40944004   -7.192992518E-19
 -4.28259611   -7.193034911E-19
 -4.15575266   -7.193049386E-19
 -4.02890921   -7.19303853E-19
 -3.90206528   -7.192988899E-19
 -3.77522182   -7.192904113E-19
 -3.64837813   -7.192788308E-19
 -3.52153444   -7.192637347E-19
 -3.39469075   -7.192463639E-19
 -3.2678473   -7.192265116E-19
 -3.14100361   -7.192045396E-19
 -3.01415992   -7.191814302E-19
 -2.88731623   -7.191580624E-19
 -2.76047254   -7.191345394E-19
 -2.63362908   -7.191118954E-19
 -2.50678539   -7.190915777E-19
 -2.3799417   -7.190733798E-19
 -2.25309801   -7.190573014E-19
 -2.12625432   -7.190446869E-19
 -1.99941075   -7.190348125E-19
 -1.87256718   -7.19028195E-19
 -1.74572349   -7.190248863E-19
 -1.61887991   -7.190241625E-19
 -1.49203622   -7.190257135E-19
 -1.36519253   -7.190288671E-19
 -1.23834896   -7.190340887E-19
 -1.11150527   -7.190407061E-19
 -0.984661698   -7.190483059E-19
 -0.857818007   -7.190564226E-19
 -0.730974376   -7.190639189E-19
 -0.604130745   -7.190715186E-19
 -0.477287114   -7.190785496E-19
 -0.350443482   -7.190842882E-19
 -0.223599836   -7.190890445E-19
 -9.675619751E-2   -7.190927151E-19
 3.008744121E-2   -7.190954552E-19
 0.156931072   -7.190966442E-19
 0.283774734   -7.190973163E-19
 0.410618365   -7.190976265E-19
 0.537461996   -7.190981435E-19
 0.664305627   -7.190992809E-19
 0.791149259   -7.191016073E-19
 0.91799289   -7.191064153E-19
 1.04483652   -7.191132912E-19
 1.17168021   -7.191228555E-19
 1.29852378   -7.191361938E-19
 1.42536747   -7.191526857E-19
 1.55221117   -7.191724863E-19
 1.67905474   -7.191959576E-19
 1.80589843   -7.192223757E-19
 1.932742   -7.19251327E-19
 2.05958557   -7.19282398E-19
 2.18642926   -7.193146063E-19
 2.31327295   -7.193481071E-19
 2.44011664   -7.19381091E-19
 2.56696033   -7.19413351E-19
 2.69380379   -7.194441635E-19
 2.82064748   -7.194730631E-19
 2.94749117   -7.194992744E-19
 3.07433486   -7.195226422E-19
 3.20117831   -7.195435285E-19
 3.328022   -7.195616748E-19
 3.45486569   -7.195770294E-19
 3.58170938   -7.195898507E-19
 3.70855308   -7.196012761E-19
 3.83539653   -7.196117709E-19
 3.96224022   -7.196213869E-19
 4.08908367   -7.19630124E-19
 4.2159276   -7.196395332E-19
 4.34277105   -7.196495628E-19
 4.46961498   -7.196607297E-19
 4.59645844   -7.196730857E-19
 4.72330189   -7.196864757E-19
 4.85014582   -7.197007963E-19
 4.97698927   -7.197158406E-19
 5.1038332   -7.197310918E-19
 5.23067665   -7.197466014E-19
 5.3575201   -7.197608186E-19
 5.48436403   -7.197733814E-19
 5.61120749   -7.197837211E-19
 5.73805141   -7.197914759E-19
 5.86489487   -7.197961805E-19
 5.99173832   -7.197956635E-19
 6.11858225   -7.197910623E-19
 6.2454257   -7.197814981E-19
 6.37226963   -7.197668156E-19
 6.49911308   -7.197476354E-19
 6.62595654   -7.197231818E-19
 6.75280046   -7.196942822E-19
 6.87964392   -7.19661195E-19
 7.00648737   -7.196250575E-19
 7.1333313   -7.195864902E-19
 7.26017475   -7.195464237E-19
 7.38701868   -7.195059435E-19
 7.51386213   -7.194660838E-19
 7.64070559   -7.194269478E-19
 7.76754951   -7.193906552E-19
 7.89439297   -7.193572061E-19
 8.02123642   -7.19327531E-19
 8.14808083   -7.193021986E-19
 8.27492428   -7.19281881E-19
 8.40176773   -7.192670951E-19
 8.52861118   -7.192576859E-19
 8.65545464   -7.192538085E-19
 8.78229809   -7.192555663E-19
 8.90914249   -7.192628558E-19
 9.03598595   -7.19274333E-19
 9.1628294   -7.192897392E-19
 9.28967285   -7.193083508E-19
 9.4165163   -7.193289269E-19
 9.54336071   -7.193512091E-19
 9.67020416   -7.193741633E-19
 9.79704762   -7.193975312E-19
 9.92389107   -7.194205888E-19
 10.0507345   -7.194430778E-19
 10.1775789   -7.194644294E-19
 10.3044224   -7.194841266E-19
 10.4312658   -7.195022212E-19
 10.5581093   -7.195190233E-19
 10.6849527   -7.195347398E-19
 10.8117971   -7.195490086E-19
 10.9386406   -7.195628639E-19
 11.065484   -7.195759954E-19
 11.1923275   -7.195885582E-19
 11.319171   -7.196005006E-19
 11.4460154   -7.196115642E-19
 11.5728588   -7.196227311E-19
 11.6997023   -7.196332259E-19
 11.8265457   -7.19641963E-19
 11.9533892   -7.19649356E-19
 12.0802336   -7.196546292E-19
 12.207077   -7.196570074E-19
 12.3339205   -7.196552496E-19
 12.4607639   -7.196496662E-19
 12.5876074   -7.196391196E-19
 12.7144518   -7.196234549E-19
 12.8412952   -7.196029822E-19
 12.9681387   -7.195778565E-19
 13.0949821   -7.195488018E-19
 13.2218256   -7.195156629E-19
 13.34867   -7.194798356E-19
 13.4755135   -7.194419921E-19
 13.6023569   -7.194038384E-19
 13.7292004   -7.193662534E-19
 13.8560438   -7.193310465E-19
 13.9828882   -7.192988382E-19
 14.1097317   -7.192706623E-19
 14.2365751   -7.192472945E-19
 14.3634186   -7.192300788E-19
 14.490262   -7.192193254E-19
 14.6171055   -7.192145175E-19
 14.7439499   -7.192159133E-19
 14.8707933   -7.19223358E-19
 14.9976368   -7.192360242E-19
 15.1244802   -7.192531882E-19
 15.2513237   -7.192734024E-19
 15.3781681   -7.192971321E-19
 15.5050116   -7.193231366E-19
 15.631855   -7.193502268E-19
 15.7586985   -7.193773686E-19
 15.8855419   -7.194042003E-19
 16.0123863   -7.194292225E-19
 16.1392288   -7.194529523E-19
 16.2660732   -7.19473942E-19
 16.3929176   -7.194922434E-19
 16.5197601   -7.195070292E-19
 16.6466045   -7.195175758E-19
 16.773447   -7.195242966E-19
 16.9002914   -7.195262612E-19
 17.0271358   -7.195236762E-19
 17.1539783   -7.195169554E-19
 17.2808228   -7.195057367E-19
 17.4076653   -7.194906407E-19
 17.5345097   -7.194719257E-19
 17.6613541   -7.194505741E-19
 17.7881966   -7.194275165E-19
 17.915041   -7.194037867E-19
 18.0418835   -7.19380057E-19
 18.1687279   -7.193575163E-19
 18.2955723   -7.19336113E-19
 18.4224148   -7.193164158E-19
 18.5492592   -7.192995103E-19
 18.6761017   -7.192843108E-19
 18.8029461   -7.192713861E-19
 18.9297905   -7.192597539E-19
 19.056633   -7.192487938E-19
 19.1834774   -7.192379887E-19
 19.3103199   -7.192263565E-19
 19.4371643   -7.192132767E-19
 19.5640087   -7.191977671E-19
 19.6908512   -7.191795174E-19
 19.8176956   -7.191576488E-19
 19.9445381   -7.191320062E-19
 20.0713825   -7.191034685E-19
 20.1982269   -7.190714669E-19
 20.3250694   -7.190368804E-19
 20.4519138   -7.190008464E-19
 20.5787563   -7.189637266E-19
 20.7056007   -7.189265552E-19
 20.8324451   -7.188909347E-19
 20.9592876   -7.188573305E-19
 21.086132   -7.188269833E-19
 21.2129745   -7.188003585E-19
 21.339819   -7.187779212E-19
 21.4666634   -7.187594647E-19
 21.5935059   -7.187452476E-19
 21.7203503   -7.187349595E-19
 21.8471928   -7.187275666E-19
 21.9740372   -7.187221899E-19
 22.1008816   -7.187181057E-19
 22.2277241   -7.187145385E-19
 22.3545685   -7.187104026E-19
 22.481411   -7.187055429E-19
 22.6082554   -7.186982017E-19
 22.7350998   -7.186886374E-19
 22.8619423   -7.186774704E-19
 22.9887867   -7.186641322E-19
 23.1156292   -7.186488293E-19
 23.2424736   -7.186315619E-19
 23.369318   -7.1861233E-19
 23.4961605   -7.185917539E-19
 23.6230049   -7.185691615E-19
 23.7498474   -7.185449665E-19
 23.8766918   -7.185188069E-19
 24.0035343   -7.184911997E-19
 24.1303787   -7.184613695E-19
 24.2572231   -7.184290061E-19
 24.3840656   -7.183935407E-19
 24.51091   -7.183545081E-19
 24.6377525   -7.183126838E-19
 24.7645969   -7.182667753E-19
 24.8914413   -7.182178682E-19
 25.0182838   -7.181658075E-19
 25.1451283   -7.181103864E-19
 25.2719707   -7.180527423E-19
 25.3988152   -7.179934438E-19
 25.5256596   -7.179338868E-19
 25.6525021   -7.178741747E-19
 25.7793465   -7.17815755E-19
 25.906189   -7.177595068E-19
 26.0330334   -7.177059985E-19
 26.1598778   -7.176554888E-19
 26.2867203   -7.176082361E-19
 26.4135647   -7.175642921E-19
 26.5404072   -7.175235018E-19
 26.6672516   -7.174850379E-19
 26.794096   -7.174474529E-19
 26.9209385   -7.17410023E-19
 27.0477829   -7.173722828E-19
 27.1746254   -7.173331469E-19
 27.3014698   -7.17291064E-19
 27.4283142   -7.172456725E-19
 27.5551567   -7.171972307E-19
 27.6820011   -7.171449633E-19
 27.8088436   -7.170893354E-19
 27.935688   -7.170317429E-19
 28.0625324   -7.169721342E-19
 28.1893749   -7.169118017E-19
 28.3162193   -7.168523481E-19
 28.4430618   -7.167947557E-19
 28.5699062   -7.167389727E-19
 28.6967506   -7.166871705E-19
 28.8235931   -7.166390389E-19
 28.9504375   -7.165944746E-19
 29.07728   -7.165536325E-19
 29.2041245   -7.165159441E-19
 29.3309689   -7.164803753E-19
 29.4578114   -7.164460473E-19
 29.5846558   -7.164122363E-19
 29.7114983   -7.16377288E-19
 29.8383427   -7.16340375E-19
 29.9651871   -7.163022213E-19
 30.0920296   -7.162613793E-19
 30.218874   -7.162183142E-19
 30.3457165   -7.161731294E-19
 30.4725609   -7.161269624E-19
 30.5994053   -7.160798648E-19
 30.7262478   -7.160332842E-19
 30.8530922   -7.159873757E-19
 30.9799347   -7.1594338E-19
 31.1067791   -7.159009353E-19
 31.2336235   -7.158608171E-19
 31.360466   -7.158236973E-19
 31.4873104   -7.157893176E-19
 31.6141529   -7.157575229E-19
 31.7409973   -7.157275376E-19
 31.8678417   -7.156993101E-19
 31.9946842   -7.156721165E-19
 32.1215286   -7.156452848E-19
 32.2483711   -7.156179362E-19
 32.3752136   -7.155898637E-19
 32.5020599   -7.155607573E-19
 32.6289024   -7.155301516E-19
 32.7557449   -7.154982535E-19
 32.8825912   -7.154650111E-19
 33.0094337   -7.15430373E-19
 33.1362762   -7.15394494E-19
 33.2631226   -7.153576845E-19
 33.3899651   -7.153205647E-19
 33.5168076   -7.152839103E-19
 33.6436501   -7.152470491E-19
 33.7704964   -7.152106531E-19
 33.8973389   -7.151750843E-19
 34.0241814   -7.151401877E-19
 34.1510277   -7.151057563E-19
 34.2778702   -7.150724622E-19
 34.4047127   -7.150399437E-19
 34.531559   -7.150087176E-19
 34.6584015   -7.14978112E-19
 34.785244   -7.149478165E-19
 34.9120865   -7.14919227E-19
 35.0389328   -7.14891258E-19
 35.1657753   -7.148643229E-19
 35.2926178   -7.148380082E-19
 35.4194641   -7.148128826E-19
 35.5463066   -7.147884291E-19
 35.6731491   -7.147645443E-19
 35.7999954   -7.147404526E-19
 35.9268379   -7.147167746E-19
 36.0536804   -7.146932516E-19
 36.1805229   -7.146693668E-19
 36.3073692   -7.14644965E-19
 36.4342117   -7.146205631E-19
 36.5610542   -7.145944035E-19
 36.6879005   -7.145679338E-19
 36.814743   -7.145402232E-19
 36.9415855   -7.145118923E-19
 37.0684319   -7.14482941E-19
 37.1952744   -7.144532142E-19
 37.3221169   -7.144229187E-19
 37.4489594   -7.143917443E-19
 37.5758057   -7.143606216E-19
 37.7026482   -7.14328982E-19
 37.8294907   -7.142969804E-19
 37.956337   -7.142649789E-19
 38.0831795   -7.142327188E-19
 38.210022   -7.142003554E-19
 38.3368683   -7.141683021E-19
 38.4637108   -7.141360938E-19
 38.5905533   -7.141040405E-19
 38.7173958   -7.140719356E-19
 38.8442421   -7.140405027E-19
 38.9710846   -7.140093284E-19
 39.0979271   -7.139790846E-19
 39.2247734   -7.139490993E-19
 39.3516159   -7.139193208E-19
 39.4784584   -7.138899559E-19
 39.6053047   -7.138614698E-19
 39.7321472   -7.138331389E-19
 39.8589897   -7.138050147E-19
 39.9858322   -7.137767355E-19
 40.1126785   -7.137479393E-19
 40.239521   -7.137186778E-19
 40.3663635   -7.136892612E-19
 40.4932098   -7.136587589E-19
 40.6200523   -7.136276879E-19
 40.7468948   -7.135968237E-19
 40.8737411   -7.135658045E-19
 41.0005836   -7.135347852E-19
 41.1274261   -7.135039727E-19
 41.2542686   -7.134741942E-19
 41.381115   -7.134459667E-19
 41.5079575   -7.134186697E-19
 41.6348   -7.133934924E-19
 41.7616463   -7.133694525E-19
 41.8884888   -7.133462914E-19
 42.0153313   -7.133246813E-19
 42.1421776   -7.133040535E-19
 42.2690201   -7.132841495E-19
 42.3958626   -7.132647107E-19
 42.5227051   -7.132460991E-19
 42.6495514   -7.132273842E-19
 42.7763939   -7.132094964E-19
 42.9032364   -7.131920739E-19
 43.0300827   -7.131756854E-19
 43.1569252   -7.131606411E-19
 43.2837677   -7.131468375E-19
 43.4106102   -7.131344815E-19
 43.5374565   -7.131236247E-19
 43.664299   -7.131142672E-19
 43.7911415   -7.131059954E-19
 43.9179878   -7.130986025E-19
 44.0448303   -7.130921402E-19
 44.1716728   -7.130860914E-19
 44.2985191   -7.130800426E-19
 44.4253616   -7.130729599E-19
 44.5522041   -7.130639643E-19
 44.6790466   -7.130526423E-19
 44.8058929   -7.130385285E-19
 44.9327354   -7.130206924E-19
 45.0595779   -7.129997544E-19
 45.1864243   -7.129758179E-19
 45.3132668   -7.129482107E-19
 45.4401093   -7.129182254E-19
 45.5669556   -7.128862239E-19
 45.6937981   -7.128527231E-19
 45.8206406   -7.128196358E-19
 45.9474831   -7.12787169E-19
 46.0743294   -7.127579592E-19
 46.2011719   -7.127317996E-19
 46.3280144   -7.127093623E-19
 46.4548607   -7.126921983E-19
 46.5817032   -7.12679377E-19
 46.7085457   -7.126714671E-19
 46.835392   -7.126683135E-19
 46.9622345   -7.126684686E-19
 47.089077   -7.126717773E-19
 47.2159195   -7.126768438E-19
 47.3427658   -7.126826858E-19
 47.4696083   -7.126880624E-19
 47.5964508   -7.126916813E-19
 47.7232971   -7.126934908E-19
 47.8501396   -7.126925085E-19
 47.9769821   -7.126881141E-19
 48.1038284   -7.126805661E-19
 48.2306709   -7.126698128E-19
 48.3575134   -7.126554922E-19
 48.4843559   -7.12638018E-19
 48.6112022   -7.126179072E-19
 48.7380447   -7.125961937E-19
 48.8648872   -7.125728775E-19
 48.9917336   -7.125484757E-19
 49.118576   -7.125244358E-19
 49.2454185   -7.125004992E-19
 49.3722649   -7.124783721E-19
 49.4991074   -7.124586749E-19
 49.6259499   -7.124417177E-19
 49.7527924   -7.124281726E-19
 49.8796387   -7.124181948E-19
 50.0064812   -7.124130766E-19
 50.1333237   -7.124124562E-19
 50.26017   -7.124157132E-19
 50.3870125   -7.124230027E-19
 50.513855   -7.124332391E-19
 50.6407013   -7.1244544E-19
 50.7675438   -7.124578994E-19
 50.8943863   -7.124704622E-19
 51.0212288   -7.12480802E-19
 51.1480751   -7.124881432E-19
 51.2749176   -7.12492641E-19
 51.4017601   -7.124927961E-19
 51.5286064   -7.124886602E-19
 51.6554489   -7.124804918E-19
 51.7822914   -7.124680324E-19
 51.9091377   -7.12452316E-19
 52.0359802   -7.124338595E-19
 52.1628227   -7.124144724E-19
 52.2896652   -7.123952405E-19
 52.4165115   -7.123759051E-19
 52.543354   -7.123581208E-19
 52.6701965   -7.123423526E-19
 52.7970428   -7.123282389E-19
 52.9238853   -7.123169168E-19
 53.0507278   -7.123070941E-19
 53.1775742   -7.122981502E-19
 53.3044167   -7.122896716E-19
 53.4312592   -7.122812964E-19
 53.5581017   -7.122723525E-19
 53.684948   -7.122617542E-19
 53.8117905   -7.122497084E-19
 53.938633   -7.122354912E-19
 54.0654793   -7.122192578E-19
 54.1923218   -7.122008013E-19
 54.3191643   -7.12180432E-19
 54.4460106   -7.121590287E-19
 54.5728531   -7.12137005E-19
 54.6996956   -7.121142576E-19
 54.8265381   -7.120925958E-19
 54.9533844   -7.120716578E-19
 55.0802269   -7.120514435E-19
 55.2070694   -7.120332973E-19
 55.3339157   -7.12016702E-19
 55.4607582   -7.12001244E-19
 55.5876007   -7.119875438E-19
 55.7144432   -7.119748776E-19
 55.8412895   -7.119629352E-19
 55.968132   -7.119513547E-19
 56.0949745   -7.119400327E-19
 56.2218208   -7.119286589E-19
 56.3486633   -7.119169233E-19
 56.4755058   -7.119053428E-19
 56.6023521   -7.118928317E-19
 56.7291946   -7.118808892E-19
 56.8560371   -7.118690502E-19
 56.9828796   -7.11858452E-19
 57.109726   -7.118484741E-19
 57.2365685   -7.118386513E-19
 57.3634109   -7.118303795E-19
 57.4902573   -7.11822573E-19
 57.6170998   -7.118148182E-19
 57.7439423   -7.118063396E-19
 57.8707886   -7.117975508E-19
 57.9976311   -7.117869008E-19
 58.1244736   -7.117748033E-19
 58.2513161   -7.117598624E-19
 58.3781624   -7.117428018E-19
 58.5050049   -7.117228977E-19
 58.6318474   -7.117009258E-19
 58.7586937   -7.116768858E-19
 58.8855362   -7.116511398E-19
 59.0123787   -7.116243082E-19
 59.139225   -7.11596701E-19
 59.2660675   -7.11569404E-19
 59.39291   -7.11542469E-19
 59.5197525   -7.115163611E-19
 59.6465988   -7.114919076E-19
 59.7734413   -7.114694703E-19
 59.9002838   -7.114493078E-19
 60.0271301   -7.1143142E-19
 60.1539726   -7.114166858E-19
 60.2808151   -7.114043815E-19
 60.4076614   -7.113944036E-19
 60.5345039   -7.113871141E-19
 60.6613464   -7.11382151E-19
 60.7881889   -7.113791525E-19
 60.9150352   -7.113781702E-19
 61.0418777   -7.113785321E-19
 61.1687202   -7.113800831E-19
 61.2955666   -7.113824612E-19
 61.4224091   -7.113854598E-19
 61.5492516   -7.11387993E-19
 61.6760979   -7.113908364E-19
 61.8029404   -7.113926459E-19
 61.9297829   -7.113937316E-19
 62.0566254   -7.113930595E-19
 62.1834717   -7.113910432E-19
 62.3103142   -7.113870107E-19
 62.4371567   -7.113800314E-19
 62.564003   -7.113702603E-19
 62.6908455   -7.11357956E-19
 62.817688   -7.11341826E-19
 62.9445343   -7.113228008E-19
 63.0713768   -7.113002602E-19
 63.1982193   -7.112739972E-19
 63.3250618   -7.112450458E-19
 63.4519081   -7.112135613E-19
 63.5787506   -7.111799054E-19
 63.7055931   -7.111452155E-19
 63.8324394   -7.111103705E-19
 63.9592819   -7.11075267E-19
 64.0861282   -7.110410941E-19
 64.2129669   -7.110090409E-19
 64.3398132   -7.10980193E-19
 64.4666595   -7.109543953E-19
 64.5934982   -7.109330437E-19
 64.7203445   -7.109161899E-19
 64.8471909   -7.109037821E-19
 64.9740295   -7.108952001E-19
 65.1008759   -7.108898752E-19
 65.2277145   -7.108885827E-19
 65.3545609   -7.108892548E-19
 65.4814072   -7.108922016E-19
 65.6082458   -7.108958722E-19
 65.7350922   -7.109000598E-19
 65.8619385   -7.109055399E-19
 65.9887772   -7.109116921E-19
 66.1156235   -7.109190333E-19
 66.2424698   -7.109276153E-19
 66.3693085   -7.109379033E-19
 66.4961548   -7.109514484E-19
 66.6230011   -7.109690777E-19
 66.7498398   -7.109910497E-19
 66.8766861   -7.110183467E-19
 67.0035324   -7.110516407E-19
 67.1303711   -7.110909318E-19
 67.2572174   -7.111364267E-19
 67.3840637   -7.111871949E-19
 67.5109024   -7.112424609E-19
 67.6377487   -7.113009322E-19
 67.7645874   -7.113619885E-19
 67.8914337   -7.114241822E-19
 68.01828   -7.114875132E-19
 68.1451187   -7.115508959E-19
 68.271965   -7.116141752E-19
 68.3988113   -7.116771443E-19
 68.52565   -7.117396999E-19
 68.6524963   -7.118029792E-19
 68.7793427   -7.118674993E-19
 68.9061813   -7.119340873E-19
 69.0330276   -7.120033637E-19
 69.159874   -7.120760005E-19
 69.2867126   -7.1215298E-19
 69.413559   -7.12234509E-19
 69.5404053   -7.123219316E-19
 69.667244   -7.124139555E-19
 69.7940903   -7.125111492E-19
 69.920929   -7.126124271E-19
 70.0477753   -7.127181511E-19
 70.1746216   -7.128273907E-19
 70.3014603   -7.129406627E-19
 70.4283066   -7.130560544E-19
 70.5551529   -7.131744963E-19
 70.6819916   -7.132953164E-19
 70.8088379   -7.134175323E-19
 70.9356842   -7.135417128E-19
 71.0625229   -7.136679613E-19
 71.1893692   -7.13795709E-19
 71.3162155   -7.139248008E-19
 71.4430542   -7.140557539E-19
 71.5699005   -7.141872239E-19
 71.6967468   -7.143195728E-19
 71.8235855   -7.144522319E-19
 71.9504318   -7.145846325E-19
 72.0772781   -7.147172916E-19
 72.2041168   -7.148500024E-19
 72.3309631   -7.149827131E-19
 72.4578018   -7.151159409E-19
 72.5846481   -7.152500476E-19
 72.7114944   -7.15385912E-19
 72.8383331   -7.155232757E-19
 72.9651794   -7.156633794E-19
 73.0920258   -7.158069986E-19
 73.2188644   -7.159547538E-19
 73.3457108   -7.161067999E-19
 73.4725571   -7.162637574E-19
 73.5993958   -7.164253161E-19
 73.7262421   -7.165910624E-19
 73.8530884   -7.167606345E-19
 73.9799271   -7.169332567E-19
 74.1067734   -7.171080503E-19
 74.2336197   -7.172848602E-19
 74.3604584   -7.174625489E-19
 74.4873047   -7.176402377E-19
 74.614151   -7.178165822E-19
 74.7409897   -7.179919962E-19
 74.867836   -7.181657041E-19
 74.9946747   -7.183380162E-19
 75.121521   -7.185092426E-19
 75.2483673   -7.186790731E-19
 75.375206   -7.188478697E-19
 75.5020523   -7.190164594E-19
 75.6288986   -7.191852559E-19
 75.7557373   -7.193555001E-19
 75.8825836   -7.195273985E-19
 76.0094299   -7.197007963E-19
 76.1362686   -7.19876262E-19
 76.2631149   -7.200549847E-19
 76.3899612   -7.202354651E-19
 76.5167999   -7.20418272E-19
 76.6436462   -7.206035605E-19
 76.7704926   -7.207905033E-19
 76.8973312   -7.209789971E-19
 77.0241776   -7.211687834E-19
 77.1510239   -7.213599138E-19
 77.2778625   -7.215515612E-19
 77.4047089   -7.217435188E-19
 77.5315475   -7.219360451E-19
 77.6583939   -7.221283129E-19
 77.7852402   -7.223211493E-19
 77.9120789   -7.225141409E-19
 78.0389252   -7.227072876E-19
 78.1657715   -7.229015199E-19
 78.2926102   -7.230967863E-19
 78.4194565   -7.232939137E-19
 78.5463028   -7.23493316E-19
 78.6731415   -7.236948895E-19
 78.7999878   -7.238996168E-19
 78.9268341   -7.24107084E-19
 79.0536728   -7.243174464E-19
 79.1805191   -7.245300318E-19
 79.3073654   -7.247445817E-19
 79.4342041   -7.249598555E-19
 79.5610504   -7.251748191E-19
 79.6878967   -7.253880766E-19
 79.8147354   -7.255990076E-19
 79.9415817   -7.258065783E-19
 80.0684204   -7.260097545E-19
 80.1952667   -7.262074507E-19
 80.322113   -7.264003905E-19
 80.4489517   -7.265880571E-19
 80.575798   -7.267720531E-19
 80.7026443   -7.269525853E-19
 80.829483   -7.271311012E-19
 80.9563293   -7.273086349E-19
 81.0831757   -7.274871508E-19
 81.2100143   -7.276670626E-19
 81.3368607   -7.278498695E-19
 81.463707   -7.280362953E-19
 81.5905457   -7.282273223E-19
 81.717392   -7.284226403E-19
 81.8442383   -7.286225079E-19
 81.971077   -7.288267698E-19
 82.0979233   -7.290345472E-19
 82.224762   -7.292454783E-19
 82.3516083   -7.294586841E-19
 82.4784546   -7.296738027E-19
 82.6052933   -7.298901104E-19
 82.7321396   -7.301071937E-19
 82.8589859   -7.303246905E-19
 82.9858246   -7.305424458E-19
 83.1126709   -7.307600977E-19
 83.2395172   -7.309779047E-19
 83.3663559   -7.311957116E-19
 83.4932022   -7.314139322E-19
 83.6200485   -7.316322045E-19
 83.7468872   -7.31850787E-19
 83.8737335   -7.320705068E-19
 84.0005798   -7.322911056E-19
 84.1274185   -7.325124798E-19
 84.2542648   -7.327351982E-19
 84.3811111   -7.329591573E-19
 84.5079498   -7.331837369E-19
 84.6347961   -7.334088334E-19
 84.7616348   -7.336344986E-19
 84.8884811   -7.338601121E-19
 85.0153275   -7.34085312E-19
 85.1421661   -7.3431015E-19
 85.2690125   -7.345328684E-19
 85.3958588   -7.347544494E-19
 85.5226974   -7.349741693E-19
 85.6495438   -7.351921831E-19
 85.7763901   -7.354085425E-19
 85.9032288   -7.356223687E-19
 86.0300751   -7.358337133E-19
 86.1569214   -7.36041801E-19
 86.2837601   -7.362460629E-19
 86.4106064   -7.364466025E-19
 86.5374527   -7.366423341E-19
 86.6642914   -7.368316551E-19
 86.7911377   -7.37013945E-19
 86.917984   -7.371870325E-19
 87.0448227   -7.373505558E-19
 87.171669   -7.375020332E-19
 87.2985077   -7.376412581E-19
 87.425354   -7.377668344E-19
 87.5522003   -7.378779868E-19
 87.679039   -7.379741983E-19
 87.8058853   -7.380552103E-19
 87.9327316   -7.381208677E-19
 88.0595703   -7.381706537E-19
 88.1864166   -7.382048266E-19
 88.3132629   -7.382241619E-19
 88.4401016   -7.382280393E-19
 88.5669479   -7.382166656E-19
 88.6937943   -7.381893686E-19
 88.8206329   -7.381462518E-19
 88.9474792   -7.380854024E-19
 89.0743256   -7.380069753E-19
 89.2011642   -7.379090578E-19
 89.3280106   -7.377900989E-19
 89.4548569   -7.376496333E-19
 89.5816956   -7.374858515E-19
 89.7085419   -7.372980298E-19
 89.8353806   -7.370843587E-19
 89.9622269   -7.368459239E-19
 90.0890732   -7.365812778E-19
 90.2159119   -7.362905238E-19
 90.3427582   -7.359742823E-19
 90.4696045   -7.356329152E-19
 90.5964432   -7.352671463E-19
 90.7232895   -7.348771307E-19
 90.8501358   -7.344640056E-19
 90.9769745   -7.340291154E-19
 91.1038208   -7.3357246E-19
 91.2306671   -7.330948149E-19
 91.3575058   -7.32596542E-19
 91.4843521   -7.320774345E-19
 91.6111984   -7.315377508E-19
 91.7380371   -7.309779047E-19
 91.8648834   -7.303979476E-19
 91.9917297   -7.297970009E-19
 92.1185684   -7.291754264E-19
 92.2454147   -7.285334308E-19
 92.3722534   -7.278709109E-19
 92.4990997   -7.271881767E-19
 92.625946   -7.264855901E-19
 92.7527847   -7.257632547E-19
 92.879631   -7.250216356E-19
 93.0064774   -7.24261043E-19
 93.133316   -7.234820456E-19
 93.2601624   -7.226849537E-19
 93.3870087   -7.21869974E-19
 93.5138474   -7.21036693E-19
 93.6406937   -7.201862996E-19
 93.76754   -7.193187422E-19
 93.8943787   -7.184336073E-19
 94.021225   -7.175313083E-19
 94.1480713   -7.166124657E-19
 94.27491   -7.156780618E-19
 94.4017563   -7.147289755E-19
 94.528595   -7.13766189E-19
 94.6554413   -7.127915634E-19
 94.7822876   -7.118073736E-19
 94.9091263   -7.108153772E-19
 95.0359726   -7.098174872E-19
 95.1628189   -7.088157715E-19
 95.2896576   -7.078135905E-19
 95.4165039   -7.068120815E-19
 95.5433502   -7.05812744E-19
 95.6701889   -7.048175423E-19
 95.7970352   -7.038260112E-19
 95.9238815   -7.028388746E-19
 96.0507202   -7.018560289E-19
 96.1775665   -7.008761818E-19
 96.3044128   -6.998991264E-19
 96.4312515   -6.989233117E-19
 96.5580978   -6.979482209E-19
 96.6849442   -6.969725097E-19
 96.8117828   -6.959959713E-19
 96.9386292   -6.95018037E-19
 97.0654678   -6.94039017E-19
 97.1923141   -6.930589631E-19
 97.3191605   -6.920778752E-19
 97.4459991   -6.91096322E-19
 97.5728455   -6.901149756E-19
 97.6996918   -6.89133319E-19
 97.8265305   -6.881512488E-19
 97.9533768   -6.871683515E-19
 98.0802231   -6.861838514E-19
 98.2070618   -6.851960427E-19
 98.3339081   -6.84204615E-19
 98.4607544   -6.83207759E-19
 98.5875931   -6.82204027E-19
 98.7144394   -6.81191041E-19
 98.8412857   -6.801677151E-19
 98.9681244   -6.791321367E-19
 99.0949707   -6.780835302E-19
 99.221817   -6.770211718E-19
 99.3486557   -6.759439758E-19
 99.475502   -6.748523559E-19
 99.6023407   -6.737460535E-19
 99.729187   -6.726249653E-19
 99.8560333   -6.714900218E-19
 99.982872   -6.703419985E-19
 100.109718   -6.691807404E-19
 100.236565   -6.68007333E-19
 100.363403   -6.668221382E-19
 100.49025   -6.656255181E-19
 100.617096   -6.644182997E-19
 100.743935   -6.632007415E-19
 100.870781   -6.619728953E-19
 100.997627   -6.607345542E-19
 101.124466   -6.594862353E-19
 101.251312   -6.582292309E-19
 101.378159   -6.569633344E-19
 101.504997   -6.556893729E-19
 101.631844   -6.544083803E-19
 101.75869   -6.531206669E-19
 101.885529   -6.518277836E-19
 102.012375   -6.505309195E-19
 102.139214   -6.492305398E-19
 102.26606   -6.479285059E-19
 102.392906   -6.466254379E-19
 102.519745   -6.453222665E-19
 102.646591   -6.440200775E-19
 102.773438   -6.427188707E-19
 102.900276   -6.414194733E-19
 103.027122   -6.401215752E-19
 103.153969   -6.388254866E-19
 103.280807   -6.375306905E-19
 103.407654   -6.362366181E-19
 103.5345   -6.34943528E-19
 103.661339   -6.336519372E-19
 103.788185   -6.323611735E-19
 103.915031   -6.31071599E-19
 104.04187   -6.297841957E-19
 104.168716   -6.284994291E-19
 104.295563   -6.272179713E-19
 104.422401   -6.259412697E-19
 104.549248   -6.246704101E-19
 104.676086   -6.23406323E-19
 104.802933   -6.221496289E-19
 104.929779   -6.20901982E-19
 105.056618   -6.196638994E-19
 105.183464   -6.184353811E-19
 105.31031   -6.172177196E-19
 105.437149   -6.160114834E-19
 105.563995   -6.148158973E-19
 105.690842   -6.136306508E-19
 105.81768   -6.124565197E-19
 105.944527   -6.112929867E-19
 106.071373   -6.101403105E-19
 106.198212   -6.089975605E-19
 106.325058   -6.078650469E-19
 106.451904   -6.067430281E-19
 106.578743   -6.056308837E-19
 106.705589   -6.045285622E-19
 106.832428   -6.034357015E-19
 106.959274   -6.023515779E-19
 107.086121   -6.012758295E-19
 107.212959   -6.002075774E-19
 107.339806   -5.991457877E-19
 107.466652   -5.980896332E-19
 107.593491   -5.970379247E-19
 107.720337   -5.95990042E-19
 107.847183   -5.949434E-19
 107.974022   -5.938979988E-19
 108.100868   -5.928527527E-19
 108.227715   -5.918059557E-19
 108.354553   -5.907564186E-19
 108.4814   -5.89704038E-19
 108.608246   -5.886480903E-19
 108.735085   -5.875872311E-19
 108.861931   -5.865214606E-19
 108.988777   -5.854492794E-19
 109.115616   -5.843714631E-19
 109.242462   -5.832866674E-19
 109.369301   -5.821949441E-19
 109.496147   -5.810968619E-19
 109.622993   -5.799919554E-19
 109.749832   -5.788812586E-19
 109.876678   -5.777648233E-19
 110.003525   -5.766431663E-19
 110.130363   -5.755179939E-19
 110.25721   -5.743907018E-19
 110.384056   -5.732619105E-19
 110.510895   -5.72133998E-19
 110.637741   -5.710076882E-19
 110.764587   -5.698849456E-19
 110.891426   -5.687679933E-19
 111.018272   -5.676579169E-19
 111.145119   -5.665567328E-19
 111.271957   -5.654655264E-19
 111.398804   -5.643853836E-19
 111.52565   -5.633176486E-19
 111.652489   -5.622629416E-19
 111.779335   -5.612219865E-19
 111.906174   -5.601941112E-19
 112.03302   -5.591795742E-19
 112.159866   -5.581783237E-19
 112.286705   -5.571897395E-19
 112.413551   -5.562139249E-19
 112.540398   -5.552496908E-19
 112.667236   -5.542975542E-19
 112.794083   -5.533577219E-19
 112.920929   -5.524294702E-19
 113.047768   -5.515139363E-19
 113.174614   -5.506111721E-19
 113.30146   -5.49721074E-19
 113.428299   -5.488439007E-19
 113.555145   -5.479802724E-19
 113.681992   -5.471291553E-19
 113.80883   -5.462900323E-19
 113.935677   -5.454626449E-19
 114.062523   -5.446459591E-19
 114.189362   -5.438387342E-19
 114.316208   -5.430397294E-19
 114.443047   -5.422471353E-19
 114.569893   -5.414603315E-19
 114.696739   -5.406783356E-19
 114.823578   -5.399003205E-19
 114.950424   -5.39125821E-19
 115.077271   -5.383550437E-19
 115.204109   -5.37588299E-19
 115.330956   -5.368257419E-19
 115.457802   -5.360678893E-19
 115.584641   -5.353155169E-19
 115.711487   -5.345694517E-19
 115.838333   -5.338303658E-19
 115.965172   -5.330979491E-19