 -7.19999981   9.784470278E-19
 -7.07296753   9.78446304E-19
 -6.94593477   9.784441326E-19
 -6.81890202   9.784410307E-19
 -6.69186926   9.784378254E-19
 -6.56483698   9.784350337E-19
 -6.43780422   9.784330691E-19
 -6.31077147   9.784314147E-19
 -6.18373871   9.78430691E-19
 -6.05670643   9.784310011E-19
 -5.92967367   9.784314147E-19
 -5.80264091   9.784319317E-19
 -5.67560816   9.784325521E-19
 -5.5485754   9.784328623E-19
 -5.42154312   9.784320351E-19
 -5.29451036   9.784313113E-19
 -5.16747761   9.784303808E-19
 -5.04044485   9.784297604E-19
 -4.91341257   9.78429657E-19
 -4.78637981   9.784297604E-19
 -4.65934706   9.784305876E-19
 -4.5323143   9.784317249E-19
 -4.40528202   9.784326555E-19
 -4.27824926   9.784339997E-19
 -4.15121651   9.784346201E-19
 -4.02418375   9.784343099E-19
 -3.89715123   9.784331725E-19
 -3.77011847   9.784313113E-19
 -3.64308596   9.784280026E-19
 -3.5160532   9.784242803E-19
 -3.38902068   9.784207648E-19
 -3.26198792   9.784176629E-19
 -3.13495541   9.784152847E-19
 -3.00792265   9.784141473E-19
 -2.88089013   9.784146643E-19
 -2.75385737   9.784166289E-19
 -2.62682486   9.784203512E-19
 -2.4997921   9.784251075E-19
 -2.37275958   9.784314147E-19
 -2.24572682   9.784384458E-19
 -2.11869431   9.784467176E-19
 -1.99166155   9.784562302E-19
 -1.86462891   9.784671903E-19
 -1.73759627   9.78480115E-19
 -1.61056364   9.784946941E-19
 -1.483531   9.785116513E-19
 -1.35649836   9.7853109E-19
 -1.22946572   9.785540443E-19
 -1.10243309   9.785806174E-19
 -0.975400388   9.786109129E-19
 -0.848367751   9.786455511E-19
 -0.721335113   9.78683498E-19
 -0.594302475   9.787239265E-19
 -0.467269808   9.787662161E-19
 -0.34023717   9.788101601E-19
 -0.213204518   9.788552414E-19
 -8.617187291E-2   9.78900116E-19
 4.086076841E-2   9.789445769E-19
 0.16789341   9.789880039E-19
 0.294926047   9.790309139E-19
 0.421958715   9.790726865E-19
 0.548991323   9.791140455E-19
 0.67602402   9.791543706E-19
 0.803056657   9.791949024E-19
 0.930089295   9.792349173E-19
 1.05712187   9.792745186E-19
 1.18415463   9.793134995E-19
 1.31118727   9.793505158E-19
 1.4382199   9.793847404E-19
 1.56525254   9.794156563E-19
 1.69228518   9.794432634E-19
 1.81931782   9.794660109E-19
 1.94635046   9.794844157E-19
 2.07338309   9.794987879E-19
 2.20041585   9.795097481E-19
 2.32744837   9.795178131E-19
 2.45448112   9.795238101E-19
 2.58151364   9.795280494E-19
 2.7085464   9.795313582E-19
 2.83557892   9.795337363E-19
 2.96261168   9.795357009E-19
 3.08964419   9.795374586E-19
 3.21667695   9.795393198E-19
 3.34370947   9.795409741E-19
 3.47074223   9.795426285E-19
 3.59777474   9.795443863E-19
 3.7248075   9.795464542E-19
 3.85184002   9.795479018E-19
 3.97887278   9.795490391E-19
 4.10590553   9.795496595E-19
 4.23293829   9.795496595E-19
 4.35997057   9.795496595E-19
 4.48700333   9.795495561E-19
 4.61403608   9.795491425E-19
 4.74106884   9.795484188E-19
 4.86810112   9.795475916E-19
 4.99513388   9.795460406E-19
 5.12216663   9.79544593E-19
 5.24919939   9.795429387E-19
 5.37623167   9.795413877E-19
 5.50326443   9.79540147E-19
 5.63029718   9.795386994E-19
 5.75732994   9.795376654E-19
 5.88436222   9.79536528E-19
 6.01139498   9.795348737E-19
 6.13842773   9.795331159E-19
 6.26546049   9.795312548E-19
 6.39249325   9.795303242E-19
 6.51952553   9.795309446E-19
 6.64655828   9.795334261E-19
 6.77359104   9.795389062E-19
 6.9006238   9.795484188E-19
 7.02765608   9.795616536E-19
 7.15468884   9.795786109E-19
 7.28172159   9.795988768E-19
 7.40875435   9.79621831E-19
 7.53578663   9.796464397E-19
 7.66281939   9.796714619E-19
 7.78985214   9.796958637E-19
 7.9168849   9.797187146E-19
 8.04391766   9.797401179E-19
 8.17094994   9.797593498E-19
 8.29798317   9.797766172E-19
 8.42501545   9.79792437E-19
 8.55204773   9.798074297E-19
 8.67908096   9.798228359E-19
 8.80611324   9.79838449E-19
 8.93314552   9.798555096E-19
 9.06017876   9.798744313E-19
 9.18721104   9.798950074E-19
 9.31424427   9.799181685E-19
 9.44127655   9.799427771E-19
 9.56830883   9.799685231E-19
 9.69534206   9.799947861E-19
 9.82237434   9.800210491E-19
 9.94940662   9.800478291E-19
 10.0764399   9.800742988E-19
 10.2034721   9.801004584E-19
 10.3305054   9.801263078E-19
 10.4575377   9.801525708E-19
 10.5845699   9.801784202E-19
 10.7116032   9.802037526E-19
 10.8386354   9.802281544E-19
 10.9656687   9.802519359E-19
 11.092701   9.802747867E-19
 11.2197332   9.802966036E-19
 11.3467665   9.803172831E-19
 11.4737988   9.803367219E-19
 11.600831   9.803561606E-19
 11.7278643   9.803752892E-19
 11.8548965   9.803940041E-19
 11.9819298   9.804123055E-19
 12.1089621   9.804305035E-19
 12.2359943   9.804485981E-19
 12.3630276   9.80466279E-19
 12.4900599   9.804837532E-19
 12.6170931   9.80501641E-19
 12.7441254   9.80520873E-19
 12.8711576   9.805424831E-19
 12.9981909   9.805665747E-19
 13.1252232   9.805927343E-19
 13.2522554   9.806215822E-19
 13.3792887   9.806518777E-19
 13.506321   9.806832072E-19
 13.6333542   9.807133993E-19
 13.7603865   9.807411098E-19
 13.8874187   9.807657184E-19
 14.014452   9.807871217E-19
 14.1414843   9.808057333E-19
 14.2685175   9.808228973E-19
 14.3955498   9.808395443E-19
 14.5225821   9.808576389E-19
 14.6496153   9.80878732E-19
 14.7766476   9.809031338E-19
 14.9036798   9.809320851E-19
 15.0307131   9.809652758E-19
 15.1577454   9.810022921E-19
 15.2847786   9.810426171E-19
 15.4118109   9.810849067E-19
 15.5388432   9.811284371E-19
 15.6658764   9.811725879E-19
 15.7929087   9.812167387E-19
 15.9199409   9.81260786E-19
 16.0469742   9.813053504E-19
 16.1740074   9.813505351E-19
 16.3010387   9.813968572E-19
 16.428072   9.814450405E-19
 16.5551052   9.814945679E-19
 16.6821365   9.815436818E-19
 16.8091698   9.815918651E-19
 16.936203   9.8163736E-19
 17.0632343   9.816783054E-19
 17.1902676   9.81713047E-19
 17.3173008   9.817401372E-19
 17.444334   9.817596793E-19
 17.5713654   9.817713633E-19
 17.6983986   9.817759128E-19
 17.8254318   9.817742584E-19
 17.9524632   9.817685715E-19
 18.0794964   9.817606099E-19
 18.2065296   9.817513041E-19
 18.3335609   9.817436527E-19
 18.4605942   9.817395168E-19
 18.5876274   9.817406542E-19
 18.7146587   9.817491328E-19
 18.841692   9.817657798E-19
 18.9687252   9.817924564E-19
 19.0957584   9.818287489E-19
 19.2227898   9.818736235E-19
 19.349823   9.819250121E-19
 19.4768562   9.819803298E-19
 19.6038876   9.820385426E-19
 19.7309208   9.820956181E-19
 19.857954   9.82149695E-19
 19.9849854   9.82199119E-19
 20.1120186   9.822423392E-19
 20.2390518   9.822792522E-19
 20.3660831   9.82309651E-19
 20.4931164   9.823341563E-19
 20.6201496   9.823538018E-19
 20.7471828   9.823693114E-19
 20.8742142   9.823809954E-19
 21.0012474   9.823893706E-19
 21.1282806   9.823952642E-19
 21.255312   9.823986764E-19
 21.3823452   9.823997103E-19
 21.5093784   9.823991933E-19
 21.6364098   9.823971254E-19
 21.763443   9.823950574E-19
 21.8904762   9.823936099E-19
 22.0175076   9.823946438E-19
 22.1445408   9.824003307E-19
 22.271574   9.824107739E-19
 22.3986073   9.824276277E-19
 22.5256386   9.824510989E-19
 22.6526718   9.824808774E-19
 22.779705   9.825160326E-19
 22.9067364   9.825560475E-19
 23.0337696   9.825989575E-19
 23.1608028   9.826431082E-19
 23.2878342   9.826876726E-19
 23.4148674   9.827305826E-19
 23.5419006   9.827718382E-19
 23.668932   9.828110259E-19
 23.7959652   9.828479388E-19
 23.9229984   9.828824736E-19
 24.0500298   9.829154574E-19
 24.177063   9.829472005E-19
 24.3040962   9.829771858E-19
 24.4311295   9.830059303E-19
 24.5581608   9.830327103E-19
 24.685194   9.830578359E-19
 24.8122272   9.830813072E-19
 24.9392586   9.83103124E-19
 25.0662918   9.83122356E-19
 25.193325   9.831396234E-19
 25.3203564   9.831536855E-19
 25.4473896   9.83165783E-19
 25.5744228   9.831749854E-19
 25.7014542   9.831820164E-19
 25.8284874   9.831873931E-19
 25.9555206   9.83192046E-19
 26.0825539   9.831977328E-19
 26.2095852   9.832056944E-19
 26.3366184   9.832169648E-19
 26.4636517   9.832319574E-19
 26.590683   9.8325212E-19
 26.7177162   9.832760048E-19
 26.8447495   9.833028882E-19
 26.9717808   9.833317361E-19
 27.098814   9.83360584E-19
 27.2258472   9.833876742E-19
 27.3528786   9.834111454E-19
 27.4799118   9.834300672E-19
 27.606945   9.834435089E-19
 27.7339783   9.834517807E-19
 27.8610096   9.834546758E-19
 27.9880428   9.834525045E-19
 28.1150761   9.834463006E-19
 28.2421074   9.834377186E-19
 28.3691406   9.83427689E-19
 28.4961739   9.834176595E-19
 28.6232052   9.834090775E-19
 28.7502384   9.834022532E-19
 28.8772717   9.833987377E-19
 29.004303   9.833992547E-19
 29.1313362   9.834035974E-19
 29.2583694   9.83412593E-19
 29.3854027   9.834256211E-19
 29.512434   9.834424749E-19
 29.6394672   9.834628442E-19
 29.7665005   9.834864189E-19
 29.8935318   9.835123717E-19
 30.020565   9.835395652E-19
 30.1475983   9.835678962E-19
 30.2746296   9.835972611E-19
 30.4016628   9.836277633E-19
 30.5286961   9.836592996E-19
 30.6557274   9.836925936E-19
 30.7827606   9.837273352E-19
 30.9097939   9.837628006E-19
 31.0368271   9.837983693E-19
 31.1638584   9.838323872E-19
 31.2908916   9.838622691E-19
 31.4179249   9.838871879E-19
 31.5449562   9.839061096E-19
 31.6719894   9.839183105E-19
 31.7990227   9.839251348E-19
 31.926054   9.839283401E-19
 32.0530891   9.839313386E-19
 32.1801186   9.839358881E-19
 32.3071518   9.839449871E-19
 32.434185   9.839599798E-19
 32.5612183   9.839826238E-19
 32.6882515   9.840115752E-19
 32.8152847   9.840454896E-19
 32.9423141   9.840807481E-19
 33.0693474   9.841142489E-19
 33.1963806   9.841423731E-19
 33.3234138   9.841611914E-19
 33.4504471   9.8416967E-19
 33.5774803   9.841671885E-19
 33.7045135   9.841548842E-19
 33.831543   9.841356522E-19
 33.9585762   9.841117674E-19
 34.0856094   9.840870554E-19
 34.2126427   9.840652385E-19
 34.3396759   9.840483847E-19
 34.4667091   9.840373211E-19
 34.5937386   9.840330818E-19
 34.7207718   9.840350464E-19
 34.847805   9.840410435E-19
 34.9748383   9.84050556E-19
 35.1018715   9.840620332E-19
 35.2289047   9.840750613E-19
 35.355938   9.840903641E-19
 35.4829674   9.841088723E-19
 35.6100006   9.841316197E-19
 35.7370338   9.841591235E-19
 35.8640671   9.841917971E-19
 35.9911003   9.842303644E-19
 36.1181335   9.842739982E-19
 36.245163   9.843222849E-19
 36.3721962   9.843726395E-19
 36.4992294   9.844239247E-19
 36.6262627   9.844735555E-19
 36.7532959   9.84519464E-19
 36.8803291   9.845592721E-19
 37.0073624   9.845915322E-19
 37.1343918   9.846158306E-19
 37.261425   9.846317538E-19
 37.3884583   9.846399222E-19
 37.5154915   9.846426106E-19
 37.6425247   9.846415766E-19
 37.769558   9.846383713E-19
 37.8965874   9.846344422E-19
 38.0236206   9.84631547E-19
 38.1506538   9.846308232E-19
 38.2776871   9.846337184E-19
 38.4047203   9.846400256E-19
 38.5317535   9.846498484E-19
 38.6587868   9.846623595E-19
 38.7858162   9.846768352E-19
 38.9128494   9.846920346E-19
 39.0398827   9.847068205E-19
 39.1669159   9.847201587E-19
 39.2939491   9.847318427E-19
 39.4209824   9.847418722E-19
 39.5480118   9.847512814E-19
 39.675045   9.847598634E-19
 39.8020782   9.847699964E-19
 39.9291115   9.847818871E-19
 40.0561447   9.847959492E-19
 40.1831779   9.848134234E-19
 40.3102074   9.848337927E-19
 40.4372406   9.848575741E-19
 40.5642738   9.848835269E-19
 40.6913071   9.849107205E-19
 40.8183403   9.849382242E-19
 40.9453735   9.849650042E-19
 41.0724068   9.849893026E-19
 41.1994362   9.850104991E-19
 41.3264694   9.850282835E-19
 41.4535027   9.850422422E-19
 41.5805359   9.850532023E-19
 41.7075691   9.85061164E-19
 41.8346024   9.850684018E-19
 41.9616318   9.850758464E-19
 42.088665   9.850844284E-19
 42.2156982   9.85094975E-19
 42.3427315   9.851070725E-19
 42.4697647   9.851203074E-19
 42.5967979   9.85134266E-19
 42.7238312   9.851470873E-19
 42.8508606   9.851585645E-19
 42.9778938   9.851679736E-19
 43.1049271   9.851755217E-19
 43.2319603   9.851812085E-19
 43.3589935   9.851866886E-19
 43.4860268   9.851929959E-19
 43.6130562   9.852023016E-19
 43.7400894   9.852167773E-19
 43.8671227   9.852381806E-19
 43.9941559   9.852676489E-19
 44.1211891   9.853060094E-19
 44.2482224   9.853531587E-19
 44.3752556   9.85406822E-19
 44.502285   9.854644145E-19
 44.6293182   9.855227307E-19
 44.7563515   9.85578462E-19
 44.8833847   9.856282997E-19
 45.0104179   9.856703825E-19
 45.1374512   9.857031595E-19
 45.2644806   9.857265274E-19
 45.3915138   9.8574152E-19
 45.5185471   9.857488612E-19
 45.6455803   9.85750102E-19
 45.7726135   9.857461729E-19
 45.8996468   9.857385215E-19
 46.02668   9.857291123E-19
 46.1537094   9.857180488E-19
 46.2807426   9.857065716E-19
 46.4077759   9.856950945E-19
 46.5348091   9.856839276E-19
 46.6618423   9.856745184E-19
 46.7888756   9.856667636E-19
 46.915905   9.856614903E-19
 47.0429382   9.856598359E-19
 47.1699715   9.856622141E-19
 47.2970047   9.856701757E-19
 47.4240379   9.856838242E-19
 47.5510712   9.857026425E-19
 47.6781044   9.857269409E-19
 47.8051338   9.857562025E-19
 47.9321671   9.857892897E-19
 48.0592003   9.858262026E-19
 48.1862335   9.858658039E-19
 48.3132668   9.859075765E-19
 48.4403   9.859506933E-19
 48.5673294   9.859931897E-19
 48.6943626   9.860343419E-19
 48.8213959   9.860718753E-19
 48.9484291   9.861041353E-19
 49.0754623   9.861290541E-19
 49.2024956   9.861455977E-19
 49.3295288   9.861535593E-19
 49.4565582   9.861536627E-19
 49.5835915   9.861479759E-19
 49.7106247   9.861393939E-19
 49.8376579   9.861305017E-19
 49.9646912   9.861250216E-19
 50.0917244   9.861260556E-19
 50.2187538   9.861348444E-19
 50.345787   9.86152422E-19
 50.4728203   9.861783748E-19
 50.5998535   9.862107382E-19
 50.7268867   9.862469274E-19
 50.85392   9.862842539E-19
 50.9809532   9.863196159E-19
 51.1079826   9.863508419E-19
 51.2350159   9.863766913E-19
 51.3620491   9.863968538E-19
 51.4890823   9.864110193E-19
 51.6161156   9.864208421E-19
 51.7431488   9.864280799E-19
 51.8701782   9.864338702E-19
 51.9972115   9.86439557E-19
 52.1242447   9.864447269E-19
 52.2512779   9.8644969E-19
 52.3783112   9.864536191E-19
 52.5053444   9.864566176E-19
 52.6323776   9.864574448E-19
 52.759407   9.864573414E-19
 52.8864403   9.864570312E-19
 53.0134735   9.86457755E-19
 53.1405067   9.864606501E-19
 53.26754   9.86467371E-19
 53.3945732   9.864786413E-19
 53.5216026   9.864942544E-19
 53.6486359   9.865151407E-19
 53.7756691   9.865404731E-19
 53.9027023   9.865696312E-19
 54.0297356   9.86601581E-19
 54.1567688   9.866345649E-19
 54.283802   9.866681691E-19
 54.4108315   9.867005325E-19
 54.5378647   9.867312416E-19
 54.6648979   9.867580216E-19
 54.7919312   9.86780769E-19
 54.9189644   9.867980364E-19
 55.0459976   9.868095136E-19
 55.173027   9.868157174E-19
 55.3000603   9.868163378E-19
 55.4270935   9.868128223E-19
 55.5541267   9.868054811E-19
 55.68116   9.867964855E-19
 55.8081932   9.867884205E-19
 55.9352264   9.867826302E-19
 56.0622559   9.867811826E-19
 56.1892891   9.867857321E-19
 56.3163223   9.867957617E-19
 56.4433556   9.868109611E-19
 56.5703888   9.868295727E-19
 56.697422   9.868497352E-19
 56.8244514   9.868697944E-19
 56.9514847   9.868890263E-19
 57.0785179   9.869065005E-19
 57.2055511   9.869215965E-19
 57.3325844   9.869355552E-19
 57.4596176   9.869510649E-19
 57.5866508   9.869699866E-19
 57.7136803   9.869937681E-19
 57.8407135   9.870244771E-19
 57.9677467   9.870619071E-19
 58.09478   9.871056442E-19
 58.2218132   9.871542411E-19
 58.3488464   9.872054229E-19
 58.4758759   9.872563979E-19
 58.6029091   9.873039608E-19
 58.7299423   9.873452164E-19
 58.8569756   9.873785104E-19
 58.9840088   9.874023953E-19
 59.111042   9.874171811E-19
 59.2380753   9.87423902E-19
 59.3651047   9.874237986E-19
 59.4921379   9.874202831E-19
 59.6191711   9.874146996E-19
 59.7462044   9.874093229E-19
 59.8732376   9.874060142E-19
 60.0002708   9.874052904E-19
 60.1273003   9.874068414E-19
 60.2543335   9.874109773E-19
 60.3813667   9.87415837E-19
 60.5084   9.874212136E-19
 60.6354332   9.874256597E-19
 60.7624664   9.874284515E-19
 60.8894997   9.874294854E-19
 61.0165291   9.874286583E-19
 61.1435623   9.874276243E-19
 61.2705956   9.874283481E-19
 61.3976288   9.874311398E-19
 61.524662   9.874376539E-19
 61.6516953   9.874487174E-19
 61.7787247   9.874658814E-19
 61.9057579   9.874872847E-19
 62.0327911   9.875129273E-19
 62.1598244   9.875418786E-19
 62.2868576   9.875725877E-19
 62.4138908   9.876041239E-19
 62.5409203   9.876350398E-19
 62.6679535   9.876639911E-19
 62.7949867   9.876911847E-19
 62.92202   9.877158967E-19
 63.0490532   9.877389544E-19
 63.1760864   9.877606679E-19
 63.3031197   9.877809338E-19
 63.4301491   9.878005793E-19
 63.5571823   9.878198113E-19
 63.6842155   9.878380093E-19
 63.8112488   9.878556903E-19
 63.938282   9.878723373E-19
 64.0653152   9.878865027E-19
 64.1923447   9.878983935E-19
 64.3193817   9.879064585E-19
 64.4464111   9.879108012E-19
 64.5734482   9.879114215E-19
 64.7004776   9.8790894E-19
 64.827507   9.879039769E-19
 64.9545441   9.878980833E-19
 65.0815735   9.878918794E-19
 65.2086105   9.878863993E-19
 65.33564   9.878841246E-19
 65.4626694   9.878866061E-19
 65.5897064   9.878942575E-19
 65.7167358   9.879078026E-19
 65.8437729   9.879268278E-19
 65.9708023   9.8795185E-19
 66.0978394   9.879813183E-19
 66.2248688   9.880131648E-19
 66.3518982   9.880460452E-19
 66.4789352   9.88078512E-19
 66.6059647   9.881090143E-19
 66.7330017   9.881361045E-19
 66.8600311   9.881594723E-19
 66.9870682   9.881780839E-19
 67.1140976   9.881923528E-19
 67.241127   9.882022789E-19
 67.3681641   9.882078624E-19
 67.4951935   9.882084828E-19
 67.6222305   9.882034163E-19
 67.7492599   9.881928698E-19
 67.876297   9.881750854E-19
 68.0033264   9.881500632E-19
 68.1303558   9.881165623E-19
 68.2573929   9.880752033E-19
 68.3844223   9.880260895E-19
 68.5114594   9.879696344E-19
 68.6384888   9.879069755E-19
 68.7655182   9.878399738E-19
 68.8925552   9.877701805E-19
 69.0195847   9.876992497E-19
 69.1466217   9.876286292E-19
 69.2736511   9.875594562E-19
 69.4006882   9.874927648E-19
 69.5277176   9.874279345E-19
 69.654747   9.873647586E-19
 69.7817841   9.87301169E-19
 69.9088135   9.872354082E-19
 70.0358505   9.871650978E-19
 70.1628799   9.870879632E-19
 70.289917   9.870021433E-19
 70.4169464   9.869057767E-19
 70.5439758   9.867971059E-19
 70.6710129   9.866763375E-19
 70.7980423   9.865431614E-19
 70.9250793   9.86399232E-19
 71.0521088   9.8624579E-19
 71.1791458   9.860853169E-19
 71.3061752   9.859193638E-19
 71.4332047   9.857507224E-19
 71.5602417   9.855817707E-19
 71.6872711   9.854138531E-19
 71.8143082   9.852482102E-19
 71.9413376   9.850860828E-19
 72.068367   9.849266437E-19
 72.1954041   9.847695828E-19
 72.3224335   9.846135558E-19
 72.4494705   9.844578391E-19
 72.5764999   9.843003646E-19
 72.703537   9.841403051E-19
 72.8305664   9.839768336E-19
 72.9575958   9.838093295E-19
 73.0846329   9.836375861E-19
 73.2116623   9.834618102E-19
 73.3386993   9.832815883E-19
 73.4657288   9.830969202E-19
 73.5927658   9.829064619E-19
 73.7197952   9.827097997E-19
 73.8468246   9.8250652E-19
 73.9738617   9.822949686E-19
 74.1008911   9.820752487E-19
 74.2279282   9.818464299E-19
 74.3549576   9.816080985E-19
 74.481987   9.813600477E-19
 74.609024   9.811035183E-19
 74.7360535   9.808375797E-19
 74.8630905   9.805642999E-19
 74.9901199   9.802847129E-19
 75.117157   9.800001628E-19
 75.2441864   9.797133379E-19
 75.3712158   9.794256858E-19
 75.4982529   9.791386542E-19
 75.6252823   9.788536904E-19
 75.7523193   9.78572966E-19
 75.8793488   9.782965843E-19
 76.0063858   9.780255793E-19
 76.1334152   9.777585033E-19
 76.2604446   9.774946327E-19
 76.3874817   9.772321062E-19
 76.5145111   9.769685458E-19
 76.6415482   9.767005393E-19
 76.7685776   9.764256052E-19
 76.8956146   9.761428128E-19
 77.022644   9.75850818E-19
 77.1496735   9.755488971E-19
 77.2767105   9.752374636E-19
 77.4037399   9.749181719E-19
 77.530777   9.745927797E-19
 77.6578064   9.742622177E-19
 77.7848358   9.739283469E-19
 77.9118729   9.735924082E-19
 78.0389023   9.732551253E-19
 78.1659393   9.72916705E-19
 78.2929688   9.725768372E-19
 78.4200058   9.722341776E-19
 78.5470352   9.718881059E-19
 78.6740646   9.715380017E-19
 78.8011017   9.711842786E-19
 78.9281311   9.708278672E-19
 79.0551682   9.704699047E-19
 79.1821976   9.701113219E-19
 79.3092346   9.697536697E-19
 79.436264   9.693986024E-19
 79.5632935   9.690462235E-19
 79.6903305   9.686971533E-19
 79.8173599   9.683494272E-19
 79.944397   9.68001391E-19
 80.0714264   9.67649529E-19
 80.1984634   9.672910496E-19
 80.3254929   9.669222305E-19
 80.4525223   9.665409002E-19
 80.5795593   9.661453011E-19
 80.7065887   9.657341923E-19
 80.8336258   9.653085045E-19
 80.9606552   9.648705124E-19
 81.0876846   9.644235247E-19
 81.2147217   9.639714705E-19
 81.3417511   9.635183823E-19
 81.4687881   9.63068396E-19
 81.5958176   9.626239932E-19
 81.7228546   9.621882758E-19
 81.849884   9.617611405E-19
 81.9769135   9.613428973E-19
 82.1039505   9.609328225E-19
 82.2309799   9.605287447E-19
 82.358017   9.601298369E-19
 82.4850464   9.5973248E-19
 82.6120834   9.593349163E-19
 82.7391129   9.589364221E-19
 82.8661423   9.585353429E-19
 82.9931793   9.581325059E-19
 83.1202087   9.57728635E-19
 83.2472458   9.573238335E-19
 83.3742752   9.569193421E-19
 83.5013123   9.565169188E-19
 83.6283417   9.561156328E-19
 83.7553711   9.557157943E-19
 83.8824081   9.553163695E-19
 84.0094376   9.549157039E-19
 84.1364746   9.545116262E-19
 84.263504   9.54100931E-19
 84.3905334   9.536812402E-19
 84.5175705   9.532520369E-19
 84.6445999   9.52812287E-19
 84.771637   9.523635415E-19
 84.8986664   9.519069378E-19
 85.0257034   9.514449574E-19
 85.1527328   9.509810125E-19
 85.2797623   9.50518205E-19
 85.4067993   9.500590163E-19
 85.5338287   9.496052044E-19
 85.6608658   9.491575963E-19
 85.7878952   9.487168124E-19
 85.9149323   9.482811984E-19
 86.0419617   9.478501339E-19
 86.1689911   9.474209306E-19
 86.2960281   9.469922442E-19
 86.4230576   9.465625239E-19
 86.5500946   9.461322866E-19
 86.677124   9.45702256E-19
 86.8041611   9.452748105E-19
 86.9311905   9.448520178E-19
 87.0582199   9.444355323E-19
 87.185257   9.440281459E-19
 87.3122864   9.436309958E-19
 87.4393234   9.432432549E-19
 87.5663528   9.428638892E-19
 87.6933823   9.424893831E-19
 87.8204193   9.421156009E-19
 87.9474487   9.417384065E-19
 88.0744858   9.413526302E-19
 88.2015152   9.409566175E-19
 88.3285522   9.405474733E-19
 88.4555817   9.401250942E-19
 88.5826111   9.396906175E-19
 88.7096481   9.392467317E-19
 88.8366776   9.387971591E-19
 88.9637146   9.383458287E-19
 89.090744   9.37896773E-19
 89.2177811   9.374521634E-19
 89.3448105   9.370144815E-19
 89.4718399   9.365850713E-19
 89.598877   9.361638296E-19
 89.7259064   9.357498257E-19
 89.8529434   9.353419223E-19
 89.9799728   9.349383615E-19
 90.1070099   9.345385231E-19
 90.2340393   9.34141373E-19
 90.3610687   9.337464977E-19
 90.4881058   9.333541039E-19
 90.6151352   9.329651222E-19
 90.7421722   9.32580173E-19
 90.8692017   9.321997733E-19
 90.9962311   9.318233027E-19
 91.1232681   9.314511749E-19
 91.2502975   9.310823557E-19
 91.3773346   9.307155011E-19
 91.504364   9.303492669E-19
 91.6314011   9.299817919E-19
 91.7584305   9.296110082E-19
 91.8854599   9.292365022E-19
 92.0124969   9.288573433E-19
 92.1395264   9.284730145E-19
 92.2665634   9.280845498E-19
 92.3935928   9.276923628E-19
 92.5206299   9.27296867E-19
 92.6476593   9.269002339E-19
 92.7746887   9.265040144E-19
 92.9017258   9.261095527E-19
 93.0287552   9.257180894E-19
 93.1557922   9.253313825E-19
 93.2828217   9.249517066E-19
 93.4098587   9.245803025E-19
 93.5368881   9.242177906E-19
 93.6639175   9.238638607E-19
 93.7909546   9.235179958E-19
 93.917984   9.23178645E-19
 94.0450211   9.228437402E-19
 94.1720505   9.225109034E-19
 94.2990799   9.221777564E-19
 94.4261169   9.218425415E-19
 94.5531464   9.215045348E-19
 94.6801834   9.211630126E-19
 94.8072128   9.208176647E-19
 94.9342499   9.204686979E-19
 95.0612793   9.201164223E-19
 95.1883087   9.197619754E-19
 95.3153458   9.19405564E-19
 95.4423752   9.190469812E-19
 95.5694122   9.18687261E-19
 95.6964417   9.183258865E-19
 95.8234787   9.179621338E-19
 95.9505081   9.175946588E-19
 96.0775375   9.172231513E-19
 96.2045746   9.168463706E-19
 96.331604   9.164643165E-19
 96.4586411   9.160784368E-19
 96.5856705   9.156902823E-19
 96.7126999   9.153037821E-19
 96.8397369   9.149218315E-19
 96.9667664   9.14548256E-19
 97.0938034   9.141868815E-19
 97.2208328   9.13840086E-19
 97.3478699   9.135076628E-19
 97.4748993   9.131889915E-19
 97.6019287   9.128828313E-19
 97.7289658   9.125854598E-19
 97.8559952   9.122932583E-19
 97.9830322   9.120025043E-19
 98.1100616   9.117094756E-19
 98.2370987   9.114129313E-19
 98.3641281   9.111105968E-19
 98.4911575   9.108023686E-19
 98.6181946   9.104893842E-19
 98.745224   9.10173091E-19
 98.872261   9.098552468E-19
 98.9992905   9.095371959E-19
 99.1263275   9.092206959E-19
 99.2533569   9.089060571E-19
 99.3803864   9.085924522E-19
 99.5074234   9.08277193E-19
 99.6344528   9.079586251E-19
 99.7614899   9.076336465E-19
 99.8885193   9.072989485E-19
 100.015549   9.06953704E-19
 100.142586   9.065977062E-19
 100.269615   9.062326093E-19
 100.396652   9.058606883E-19
 100.523682   9.054866992E-19
 100.650719   9.051147781E-19
 100.777748   9.047487507E-19
 100.904778   9.043923393E-19
 101.031815   9.040482321E-19
 101.158844   9.037177735E-19
 101.285881   9.033995157E-19
 101.41291   9.030924249E-19
 101.539948   9.027935025E-19
 101.666977   9.024988194E-19
 101.794006   9.022055839E-19
 101.921043   9.019100736E-19
 102.048073   9.016106343E-19
 102.17511   9.01306542E-19
 102.302139   9.009982104E-19
 102.429176   9.006866735E-19
 102.556206   9.003733789E-19
 102.683235   9.000594638E-19
 102.810272   8.997465828E-19
 102.937302   8.99435873E-19
 103.064339   8.991265075E-19
 103.191368   8.988187963E-19
 103.318398   8.985120157E-19
 103.445435   8.982045113E-19
 103.572464   8.97894939E-19
 103.699501   8.975818511E-19
 103.82653   8.972633866E-19
 103.953568   8.96938925E-19
 104.080597   8.966075357E-19
 104.207626   8.96270046E-19
 104.334663   8.959262491E-19
 104.461693   8.955771789E-19
 104.58873   8.952239728E-19
 104.715759   8.948692157E-19
 104.842796   8.945142518E-19
 104.969826   8.941612525E-19
 105.096855   8.938114585E-19
 105.223892   8.934661106E-19
 105.350922   8.931268631E-19
 105.477959   8.927943365E-19
 105.604988   8.924690477E-19
 105.732025   8.92149756E-19
 105.859055   8.91835324E-19
 105.986084   8.915239939E-19
 106.113121   8.912131808E-19
 106.24015   8.909012303E-19
 106.367188   8.905876254E-19
 106.494217   8.90272573E-19
 106.621246   8.89956073E-19
 106.748283   8.896397798E-19
 106.875313   8.893244172E-19
 107.00235   8.890116396E-19
 107.129379   8.887026876E-19
 107.256416   8.883966308E-19
 107.383446   8.880935725E-19
 107.510475   8.877905142E-19
 107.637512   8.874849743E-19
 107.764542   8.871756088E-19
 107.891579   8.868587986E-19
 108.018608   8.865329929E-19
 108.145645   8.861970541E-19
 108.272675   8.858500519E-19
 108.399704   8.854932268E-19
 108.526741   8.851283368E-19
 108.65377   8.847573463E-19
 108.780807   8.84383564E-19
 108.907837   8.840094716E-19
 109.034874   8.836379641E-19
 109.161903   8.832700755E-19
 109.288933   8.8290715E-19
 109.41597   8.825496012E-19
 109.542999   8.821974291E-19
 109.670036   8.818506336E-19
 109.797066   8.815098352E-19
 109.924095   8.811752406E-19
 110.051132   8.808479873E-19
 110.178162   8.805289024E-19
 110.305199   8.802189164E-19
 110.432228   8.799176159E-19
 110.559265   8.796248974E-19
 110.686295   8.793403472E-19
 110.813324   8.790624145E-19
 110.940361   8.787899619E-19
 111.06739   8.785198875E-19
 111.194427   8.7825033E-19
 111.321457   8.77978291E-19
 111.448494   8.777022194E-19
 111.575523   8.774187033E-19
 111.702553   8.771271221E-19
 111.82959   8.768255114E-19
 111.956619   8.765132507E-19
 112.083656   8.761908571E-19
 112.210686   8.758585372E-19
 112.337723   8.755174286E-19
 112.464752   8.751690822E-19
 112.591782   8.748145319E-19
 112.718819   8.744564661E-19
 112.845848   8.740950916E-19
 112.972885   8.737315457E-19
 113.099915   8.733669658E-19
 113.226944   8.73001869E-19
 113.353981   8.726362552E-19
 113.48101   8.722708481E-19
 113.608047   8.719049241E-19
 113.735077   8.715383797E-19
 113.862114   8.711698707E-19
 113.989143   8.707998108E-19
 114.116173   8.704286135E-19
 114.24321   8.700562788E-19
 114.370239   8.69684151E-19
 114.497276   8.693132638E-19
 114.624306   8.689458923E-19
 114.751343   8.685841041E-19
 114.878372   8.682286233E-19
 115.005402   8.678801734E-19
 115.132439   8.675387546E-19
 115.259468   8.672041601E-19
 115.386505   8.66874632E-19
 115.513535   8.665486194E-19
 115.640572   8.662243129E-19
 115.767601   8.658997997E-19
 115.89463   8.655728048E-19
 116.021667   8.652426564E-19
 116.148697   8.649082686E-19
 116.275734   8.645695898E-19
 116.402763   8.642274989E-19
 116.529793   8.638828231E-19
 116.65683   8.635384058E-19
 116.783859   8.631957979E-19
 116.910896   8.628576879E-19
 117.037926   8.625246443E-19
 117.164963   8.62197546E-19
 117.291992   8.618751524E-19
 117.419022   8.615551886E-19
 117.546059   8.61236569E-19
 117.673088   8.60915261E-19
 117.800125   8.605891967E-19
 117.927155   8.602569286E-19
 118.054192   8.599180948E-19
 118.181221   8.59572385E-19
 118.30825   8.592212985E-19
 118.435287   8.58866955E-19
 118.562317   8.585116809E-19
 118.689354   8.581589918E-19
 118.816383   8.578116793E-19
 118.943413   8.574719149E-19
 119.07045   8.571402672E-19
 119.197479   8.568161675E-19
 119.324516   8.564977029E-19
 119.451546   8.561821852E-19
 119.578583   8.558666158E-19
 119.705612   8.555476343E-19
 119.832642   8.552223972E-19
 119.959679   8.548904393E-19
 120.086708   8.54551502E-19
 120.213745   8.542068779E-19
 120.340775   8.5385879E-19