 -7.19999981   4.896575873E-18
 -7.07296753   4.896573805E-18
 -6.94593477   4.896569255E-18
 -6.81890202   4.896560983E-18
 -6.69186926   4.896549816E-18
 -6.56483698   4.896535754E-18
 -6.43780422   4.896520038E-18
 -6.31077147   4.896503494E-18
 -6.18373871   4.896486951E-18
 -6.05670643   4.896471234E-18
 -5.92967367   4.896457586E-18
 -5.80264091   4.896445592E-18
 -5.67560816   4.896434838E-18
 -5.5485754   4.896424498E-18
 -5.42154312   4.896412918E-18
 -5.29451036   4.896399269E-18
 -5.16747761   4.896383553E-18
 -5.04044485   4.896366596E-18
 -4.91341257   4.896348811E-18
 -4.78637981   4.896333095E-18
 -4.65934706   4.896321928E-18
 -4.5323143   4.896317792E-18
 -4.40528202   4.89632441E-18
 -4.27824926   4.896343848E-18
 -4.15121651   4.896375695E-18
 -4.02418375   4.896420776E-18
 -3.89715123   4.896476197E-18
 -3.77011847   4.896538649E-18
 -3.64308596   4.896603997E-18
 -3.5160532   4.89666769E-18
 -3.38902068   4.896726419E-18
 -3.26198792   4.896776877E-18
 -3.13495541   4.896816582E-18
 -3.00792265   4.896843465E-18
 -2.88089013   4.896856287E-18
 -2.75385737   4.896852151E-18
 -2.62682486   4.896827749E-18
 -2.4997921   4.8967806E-18
 -2.37275958   4.896704913E-18
 -2.24572682   4.896596552E-18
 -2.11869431   4.896449727E-18
 -1.99166155   4.89625989E-18
 -1.86462891   4.896022902E-18
 -1.73759627   4.895732975E-18
 -1.61056364   4.895387214E-18
 -1.483531   4.894982723E-18
 -1.35649836   4.89451702E-18
 -1.22946572   4.893990106E-18
 -1.10243309   4.893401981E-18
 -0.975400388   4.892752644E-18
 -0.848367751   4.892044991E-18
 -0.721335113   4.891281917E-18
 -0.594302475   4.890467144E-18
 -0.467269808   4.889604808E-18
 -0.34023717   4.8887007E-18
 -0.213204518   4.887761436E-18
 -8.617187291E-2   4.886794048E-18
 4.086076841E-2   4.885806808E-18
 0.16789341   4.884809642E-18
 0.294926047   4.883811235E-18
 0.421958715   4.8828211E-18
 0.548991323   4.881849162E-18
 0.67602402   4.880904522E-18
 0.803056657   4.879994624E-18
 0.930089295   4.879127325E-18
 1.05712187   4.878309657E-18
 1.18415463   4.877546996E-18
 1.31118727   4.876845961E-18
 1.4382199   4.876211099E-18
 1.56525254   4.875645721E-18
 1.69228518   4.875151481E-18
 1.81931782   4.874729205E-18
 1.94635046   4.874375586E-18
 2.07338309   4.874087727E-18
 2.20041585   4.873859425E-18
 2.32744837   4.873683235E-18
 2.45448112   4.873549646E-18
 2.58151364   4.873449143E-18
 2.7085464   4.873371802E-18
 2.83557892   4.873308523E-18
 2.96261168   4.873249793E-18
 3.08964419   4.873188995E-18
 3.21667695   4.873120339E-18
 3.34370947   4.873040103E-18
 3.47074223   4.872946631E-18
 3.59777474   4.872839925E-18
 3.7248075   4.872719984E-18
 3.85184002   4.872588048E-18
 3.97887278   4.872444946E-18
 4.10590553   4.872291091E-18
 4.23293829   4.872126068E-18
 4.35997057   4.871949051E-18
 4.48700333   4.871759627E-18
 4.61403608   4.871556968E-18
 4.74106884   4.871341901E-18
 4.86810112   4.871114426E-18
 4.99513388   4.870876612E-18
 5.12216663   4.87063218E-18
 5.24919939   4.870385266E-18
 5.37623167   4.870142075E-18
 5.50326443   4.869907983E-18
 5.63029718   4.869690021E-18
 5.75732994   4.869491498E-18
 5.88436222   4.869316135E-18
 6.01139498   4.869162693E-18
 6.13842773   4.869027863E-18
 6.26546049   4.868904613E-18
 6.39249325   4.868783431E-18
 6.51952553   4.868653977E-18
 6.64655828   4.868506326E-18
 6.77359104   4.868331377E-18
 6.9006238   4.868123341E-18
 7.02765608   4.867878082E-18
 7.15468884   4.867595186E-18
 7.28172159   4.867277962E-18
 7.40875435   4.866930547E-18
 7.53578663   4.866557902E-18
 7.66281939   4.866164991E-18
 7.78985214   4.86575595E-18
 7.9168849   4.865332847E-18
 8.04391766   4.864896096E-18
 8.17094994   4.864445696E-18
 8.29798317   4.863979166E-18
 8.42501545   4.863497333E-18
 8.55204773   4.862999371E-18
 8.67908096   4.862489827E-18
 8.80611324   4.86197408E-18
 8.93314552   4.861459988E-18
 9.06017876   4.860957475E-18
 9.18721104   4.860474815E-18
 9.31424427   4.860018625E-18
 9.44127655   4.859591387E-18
 9.56830883   4.859190618E-18
 9.69534206   4.858810942E-18
 9.82237434   4.858441606E-18
 9.94940662   4.858070201E-18
 10.0764399   4.857683494E-18
 10.2034721   4.857271145E-18
 10.3305054   4.856824467E-18
 10.4575377   4.85634098E-18
 10.5845699   4.855821925E-18
 10.7116032   4.855272263E-18
 10.8386354   4.854701508E-18
 10.9656687   4.854120828E-18
 11.092701   4.853542628E-18
 11.2197332   4.852977664E-18
 11.3467665   4.852435033E-18
 11.4737988   4.851918873E-18
 11.600831   4.85143125E-18
 11.7278643   4.850970097E-18
 11.8548965   4.85053045E-18
 11.9819298   4.850106106E-18
 12.1089621   4.849691689E-18
 12.2359943   4.849282648E-18
 12.3630276   4.848876089E-18
 12.4900599   4.848469116E-18
 12.6170931   4.848063798E-18
 12.7441254   4.847661374E-18
 12.8711576   4.847263087E-18
 12.9981909   4.84687059E-18
 13.1252232   4.846484296E-18
 13.2522554   4.84610338E-18
 13.3792887   4.845724117E-18
 13.506321   4.845342787E-18
 13.6333542   4.844952358E-18
 13.7603865   4.844546212E-18
 13.8874187   4.844117319E-18
 14.014452   4.843658647E-18
 14.1414843   4.843166061E-18
 14.2685175   4.842637079E-18
 14.3955498   4.842073769E-18
 14.5225821   4.84147944E-18
 14.6496153   4.840860709E-18
 14.7766476   4.840226261E-18
 14.9036798   4.83958561E-18
 15.0307131   4.838947026E-18
 15.1577454   4.83831961E-18
 15.2847786   4.837709564E-18
 15.4118109   4.837121852E-18
 15.5388432   4.836558129E-18
 15.6658764   4.836019221E-18
 15.7929087   4.835503887E-18
 15.9199409   4.835009233E-18
 16.0469742   4.834531536E-18
 16.1740074   4.834067488E-18
 16.3010387   4.833614607E-18
 16.428072   4.833170824E-18
 16.5551052   4.832735314E-18
 16.6821365   4.832308075E-18
 16.8091698   4.831889108E-18
 16.936203   4.831479653E-18
 17.0632343   4.831076816E-18
 17.1902676   4.830678529E-18
 17.3173008   4.830280655E-18
 17.444334   4.829879473E-18
 17.5713654   4.829468777E-18
 17.6983986   4.829046088E-18
 17.8254318   4.828607682E-18
 17.9524632   4.828151492E-18
 18.0794964   4.827677104E-18
 18.2065296   4.827185759E-18
 18.3335609   4.826680765E-18
 18.4605942   4.826165845E-18
 18.5876274   4.825644721E-18
 18.7146587   4.825122357E-18
 18.841692   4.824602887E-18
 18.9687252   4.824089622E-18
 19.0957584   4.823584628E-18
 19.2227898   4.82308832E-18
 19.349823   4.822600283E-18
 19.4768562   4.822119278E-18
 19.6038876   4.821643235E-18
 19.7309208   4.821170915E-18
 19.857954   4.820699836E-18
 19.9849854   4.820232065E-18
 20.1120186   4.819765949E-18
 20.2390518   4.819303555E-18
 20.3660831   4.818845297E-18
 20.4931164   4.818393656E-18
 20.6201496   4.81794946E-18
 20.7471828   4.81751395E-18
 20.8742142   4.817087538E-18
 21.0012474   4.816669812E-18
 21.1282806   4.816260771E-18
 21.255312   4.815858761E-18
 21.3823452   4.815460474E-18
 21.5093784   4.8150626E-18
 21.6364098   4.814659349E-18
 21.763443   4.814245345E-18
 21.8904762   4.813816039E-18
 22.0175076   4.813367293E-18
 22.1445408   4.812896627E-18
 22.271574   4.812403628E-18
 22.3986073   4.811890362E-18
 22.5256386   4.811359726E-18
 22.6526718   4.810817095E-18
 22.779705   4.810269088E-18
 22.9067364   4.809720254E-18
 23.0337696   4.809176796E-18
 23.1608028   4.80864037E-18
 23.2878342   4.808113456E-18
 23.4148674   4.807595227E-18
 23.5419006   4.807083202E-18
 23.668932   4.806574072E-18
 23.7959652   4.806063702E-18
 23.9229984   4.805548782E-18
 24.0500298   4.805026417E-18
 24.177063   4.804495368E-18
 24.3040962   4.8039577E-18
 24.4311295   4.803416724E-18
 24.5581608   4.802876575E-18
 24.685194   4.802342216E-18
 24.8122272   4.801817784E-18
 24.9392586   4.801305759E-18
 25.0662918   4.800805728E-18
 25.193325   4.800317692E-18
 25.3203564   4.799837513E-18
 25.4473896   4.799361471E-18
 25.5744228   4.798885429E-18
 25.7014542   4.798406077E-18
 25.8284874   4.797919695E-18
 25.9555206   4.797424214E-18
 26.0825539   4.796918393E-18
 26.2095852   4.796402232E-18
 26.3366184   4.795876559E-18
 26.4636517   4.795344682E-18
 26.590683   4.794808255E-18
 26.7177162   4.794271415E-18
 26.8447495   4.793737056E-18
 26.9717808   4.793207247E-18
 27.098814   4.792683642E-18
 27.2258472   4.792168722E-18
 27.3528786   4.791662487E-18
 27.4799118   4.791164525E-18
 27.606945   4.790676075E-18
 27.7339783   4.790195896E-18
 27.8610096   4.78972399E-18
 27.9880428   4.789259528E-18
 28.1150761   4.788801683E-18
 28.2421074   4.788349629E-18
 28.3691406   4.787901711E-18
 28.4961739   4.787459169E-18
 28.6232052   4.78702035E-18
 28.7502384   4.786585666E-18
 28.8772717   4.78615636E-18
 29.004303   4.785732016E-18
 29.1313362   4.785311395E-18
 29.2583694   4.784891601E-18
 29.3854027   4.784470566E-18
 29.512434   4.784042913E-18
 29.6394672   4.783604508E-18
 29.7665005   4.783150799E-18
 29.8935318   4.782680133E-18
 30.020565   4.782190442E-18
 30.1475983   4.781681313E-18
 30.2746296   4.781154399E-18
 30.4016628   4.780613422E-18
 30.5286961   4.780061279E-18
 30.6557274   4.779503346E-18
 30.7827606   4.778942518E-18
 30.9097939   4.778382103E-18
 31.0368271   4.77782541E-18
 31.1638584   4.777273267E-18
 31.2908916   4.776726087E-18
 31.4179249   4.776181802E-18
 31.5449562   4.775639999E-18
 31.6719894   4.775097782E-18
 31.7990227   4.774553911E-18
 31.926054   4.774008385E-18
 32.0530891   4.773461619E-18
 32.1801186   4.77291568E-18
 32.3071518   4.772373463E-18
 32.434185   4.771837863E-18
 32.5612183   4.771312604E-18
 32.6882515   4.770798924E-18
 32.8152847   4.77029848E-18
 32.9423141   4.769811271E-18
 33.0693474   4.769335642E-18
 33.1963806   4.768869939E-18
 33.3234138   4.768410854E-18
 33.4504471   4.76795425E-18
 33.5774803   4.767496406E-18
 33.7045135   4.767032358E-18
 33.831543   4.766558797E-18
 33.9585762   4.766072001E-18
 34.0856094   4.765571143E-18
 34.2126427   4.765055396E-18
 34.3396759   4.764527241E-18
 34.4667091   4.763989574E-18
 34.5937386   4.76344653E-18
 34.7207718   4.762903072E-18
 34.847805   4.762362096E-18
 34.9748383   4.761826496E-18
 35.1018715   4.761297928E-18
 35.2289047   4.760777218E-18
 35.355938   4.760261884E-18
 35.4829674   4.759750273E-18
 35.6100006   4.759239903E-18
 35.7370338   4.758729119E-18
 35.8640671   4.758216267E-18
 35.9911003   4.757699692E-18
 36.1181335   4.75718105E-18
 36.245163   4.756660753E-18
 36.3721962   4.756142525E-18
 36.4992294   4.755628432E-18
 36.6262627   4.75512137E-18
 36.7532959   4.754623821E-18
 36.8803291   4.75413413E-18
 37.0073624   4.753651884E-18
 37.1343918   4.753173774E-18
 37.261425   4.75269525E-18
 37.3884583   4.752211349E-18
 37.5154915   4.751719176E-18
 37.6425247   4.751215837E-18
 37.769558   4.750700917E-18
 37.8965874   4.750176071E-18
 38.0236206   4.749644194E-18
 38.1506538   4.749109008E-18
 38.2776871   4.748573822E-18
 38.4047203   4.748043599E-18
 38.5317535   4.747519167E-18
 38.6587868   4.747003833E-18
 38.7858162   4.746497599E-18
 38.9128494   4.745999636E-18
 39.0398827   4.745508291E-18
 39.1669159   4.745020668E-18
 39.2939491   4.744533872E-18
 39.4209824   4.744045008E-18
 39.5480118   4.743553249E-18
 39.675045   4.743057768E-18
 39.8020782   4.742560219E-18
 39.9291115   4.74206267E-18
 40.0561447   4.741566362E-18
 40.1831779   4.741073776E-18
 40.3102074   4.74058698E-18
 40.4372406   4.740105974E-18
 40.5642738   4.739629518E-18
 40.6913071   4.739156785E-18
 40.8183403   4.738686119E-18
 40.9453735   4.738215867E-18
 41.0724068   4.737743133E-18
 41.1994362   4.737266677E-18
 41.3264694   4.736783603E-18
 41.4535027   4.736293085E-18
 41.5805359   4.735793055E-18
 41.7075691   4.735283511E-18
 41.8346024   4.734762388E-18
 41.9616318   4.734231338E-18
 42.088665   4.733689534E-18
 42.2156982   4.733138632E-18
 42.3427315   4.732579458E-18
 42.4697647   4.732013253E-18
 42.5967979   4.731442498E-18
 42.7238312   4.730867608E-18
 42.8508606   4.730290236E-18
 42.9778938   4.729712036E-18
 43.1049271   4.729135078E-18
 43.2319603   4.728560601E-18
 43.3589935   4.727989846E-18
 43.4860268   4.727424055E-18
 43.6130562   4.726863226E-18
 43.7400894   4.726309015E-18
 43.8671227   4.725760181E-18
 43.9941559   4.72521631E-18
 44.1211891   4.724679056E-18
 44.2482224   4.724148833E-18
 44.3752556   4.723626469E-18
 44.502285   4.723114444E-18
 44.6293182   4.722613999E-18
 44.7563515   4.722125136E-18
 44.8833847   4.721647852E-18
 45.0104179   4.721180909E-18
 45.1374512   4.720721824E-18
 45.2644806   4.720269356E-18
 45.3915138   4.71981937E-18
 45.5185471   4.719370211E-18
 45.6455803   4.718919397E-18
 45.7726135   4.718462794E-18
 45.8996468   4.717999986E-18
 46.02668   4.717530147E-18
 46.1537094   4.717052037E-18
 46.2807426   4.716566068E-18
 46.4077759   4.716074723E-18
 46.5348091   4.715577588E-18
 46.6618423   4.715075075E-18
 46.7888756   4.714568427E-18
 46.915905   4.714055989E-18
 47.0429382   4.713536933E-18
 47.1699715   4.713009192E-18
 47.2970047   4.712472352E-18
 47.4240379   4.711923931E-18
 47.5510712   4.711364757E-18
 47.6781044   4.71079607E-18
 47.8051338   4.710219939E-18
 47.9321671   4.709638017E-18
 48.0592003   4.709054028E-18
 48.1862335   4.708470865E-18
 48.3132668   4.70789308E-18
 48.4403   4.707322739E-18
 48.5673294   4.706763565E-18
 48.6943626   4.706216385E-18
 48.8213959   4.705683267E-18
 48.9484291   4.70516297E-18
 49.0754623   4.704653427E-18
 49.2024956   4.704154223E-18
 49.3295288   4.70366081E-18
 49.4565582   4.703169465E-18
 49.5835915   4.702676879E-18
 49.7106247   4.70218057E-18
 49.8376579   4.701678472E-18
 49.9646912   4.701168928E-18
 50.0917244   4.700651941E-18
 50.2187538   4.700129162E-18
 50.345787   4.699600594E-18
 50.4728203   4.699069544E-18
 50.5998535   4.698538494E-18
 50.7268867   4.698008685E-18
 50.85392   4.697481771E-18
 50.9809532   4.696958579E-18
 51.1079826   4.696439523E-18
 51.2350159   4.695922949E-18
 51.3620491   4.695407616E-18
 51.4890823   4.694890214E-18
 51.6161156   4.694368677E-18
 51.7431488   4.693841349E-18
 51.8701782   4.693307404E-18
 51.9972115   4.692767669E-18
 52.1242447   4.692225038E-18
 52.2512779   4.691683235E-18
 52.3783112   4.69114474E-18
 52.5053444   4.69061369E-18
 52.6323776   4.690090499E-18
 52.759407   4.689577233E-18
 52.8864403   4.689072653E-18
 53.0134735   4.68857469E-18
 53.1405067   4.688080863E-18
 53.26754   4.68758745E-18
 53.3945732   4.687092796E-18
 53.5216026   4.686594833E-18
 53.6486359   4.686093148E-18
 53.7756691   4.685587327E-18
 53.9027023   4.685079025E-18
 54.0297356   4.684567827E-18
 54.1567688   4.684057043E-18
 54.283802   4.683545846E-18
 54.4108315   4.683035889E-18
 54.5378647   4.682527586E-18
 54.6648979   4.682019697E-18
 54.7919312   4.681511395E-18
 54.9189644   4.681001024E-18
 55.0459976   4.680486932E-18
 55.173027   4.679966221E-18
 55.3000603   4.67943848E-18
 55.4270935   4.678902054E-18
 55.5541267   4.678358596E-18
 55.68116   4.677808934E-18
 55.8081932   4.677254723E-18
 55.9352264   4.676697204E-18
 56.0622559   4.676138857E-18
 56.1892891   4.675580096E-18
 56.3163223   4.675021749E-18
 56.4433556   4.674462989E-18
 56.5703888   4.673904228E-18
 56.697422   4.673344227E-18
 56.8244514   4.672783399E-18
 56.9514847   4.672220089E-18
 57.0785179   4.671654711E-18
 57.2055511   4.671085197E-18
 57.3325844   4.670511961E-18
 57.4596176   4.669934175E-18
 57.5866508   4.669352253E-18
 57.7136803   4.66876785E-18
 57.8407135   4.668183447E-18
 57.9677467   4.667602766E-18
 58.09478   4.667030357E-18
 58.2218132   4.666469115E-18
 58.3488464   4.665922763E-18
 58.4758759   4.665392126E-18
 58.6029091   4.664879274E-18
 58.7299423   4.664383379E-18
 58.8569756   4.663902788E-18
 58.9840088   4.663433776E-18
 59.111042   4.662971796E-18
 59.2380753   4.662513124E-18
 59.3651047   4.662053625E-18
 59.4921379   4.661589163E-18
 59.6191711   4.661116843E-18
 59.7462044   4.660636251E-18
 59.8732376   4.660147388E-18
 60.0002708   4.659649838E-18
 60.1273003   4.659145672E-18
 60.2543335   4.658636542E-18
 60.3813667   4.658122863E-18
 60.5084   4.657607116E-18
 60.6354332   4.657089714E-18
 60.7624664   4.656569418E-18
 60.8894997   4.656045812E-18
 61.0165291   4.655518485E-18
 61.1435623   4.654985367E-18
 61.2705956   4.654445632E-18
 61.3976288   4.653898865E-18
 61.524662   4.653343413E-18
 61.6516953   4.652780517E-18
 61.7787247   4.652210176E-18
 61.9057579   4.651634872E-18
 62.0327911   4.651057913E-18
 62.1598244   4.650482609E-18
 62.2868576   4.649912268E-18
 62.4138908   4.649351026E-18
 62.5409203   4.648800951E-18
 62.6679535   4.648262456E-18
 62.7949867   4.647735956E-18
 62.92202   4.647217314E-18
 63.0490532   4.646703635E-18
 63.1760864   4.646189542E-18
 63.3031197   4.645669245E-18
 63.4301491   4.645138195E-18
 63.5571823   4.644592256E-18
 63.6842155   4.64402936E-18
 63.8112488   4.643448265E-18
 63.938282   4.6428498E-18
 64.0653152   4.642237687E-18
 64.1923447   4.641616474E-18
 64.3193817   4.640991952E-18
 64.4464111   4.640368672E-18
 64.5734482   4.639751182E-18
 64.7004776   4.639140309E-18
 64.827507   4.638536053E-18
 64.9545441   4.637934693E-18
 65.0815735   4.637333746E-18
 65.2086105   4.636728664E-18
 65.33564   4.636117791E-18
 65.4626694   4.635500714E-18
 65.5897064   4.634880742E-18
 65.7167358   4.634262425E-18
 65.8437729   4.633651965E-18
 65.9708023   4.633055982E-18
 66.0978394   4.632480264E-18
 66.2248688   4.631929362E-18
 66.3518982   4.631404929E-18
 66.4789352   4.630908207E-18
 66.6059647   4.630435474E-18
 66.7330017   4.629983833E-18
 66.8600311   4.629546254E-18
 66.9870682   4.629116948E-18
 67.1140976   4.628688054E-18
 67.241127   4.628253785E-18
 67.3681641   4.627809589E-18
 67.4951935   4.627353399E-18
 67.6222305   4.626882733E-18
 67.7492599   4.626399659E-18
 67.876297   4.625905419E-18
 68.0033264   4.625403734E-18
 68.1303558   4.624897086E-18
 68.2573929   4.624387129E-18
 68.3844223   4.623876345E-18
 68.5114594   4.623366388E-18
 68.6384888   4.622857672E-18
 68.7655182   4.622349783E-18
 68.8925552   4.621842721E-18
 69.0195847   4.621336073E-18
 69.1466217   4.620828598E-18
 69.2736511   4.620319882E-18
 69.4006882   4.619808684E-18
 69.5277176   4.619295419E-18
 69.654747   4.618780912E-18
 69.7817841   4.618266406E-18
 69.9088135   4.617754381E-18
 70.0358505   4.617246906E-18
 70.1628799   4.616746875E-18
 70.289917   4.616255116E-18
 70.4169464   4.615772456E-18
 70.5439758   4.615297241E-18
 70.6710129   4.614827816E-18
 70.7980423   4.614359218E-18
 70.9250793   4.613886898E-18
 71.0521088   4.613405893E-18
 71.1791458   4.612912893E-18
 71.3061752   4.612405004E-18
 71.4332047   4.611880158E-18
 71.5602417   4.611340836E-18
 71.6872711   4.61078952E-18
 71.8143082   4.610229933E-18
 71.9413376   4.609666623E-18
 72.068367   4.60910414E-18
 72.1954041   4.608545793E-18
 72.3224335   4.607994891E-18
 72.4494705   4.607451847E-18
 72.5764999   4.606914593E-18
 72.703537   4.606381888E-18
 72.8305664   4.605848771E-18
 72.9575958   4.605314412E-18
 73.0846329   4.604775917E-18
 73.2116623   4.604232873E-18
 73.3386993   4.60368652E-18
 73.4657288   4.603138927E-18
 73.5927658   4.602595056E-18
 73.7197952   4.602059043E-18
 73.8468246   4.601535024E-18
 73.9738617   4.601026308E-18
 74.1008911   4.60053579E-18
 74.2279282   4.600064297E-18
 74.3549576   4.599611415E-18
 74.481987   4.599174664E-18
 74.609024   4.598750734E-18
 74.7360535   4.598333421E-18
 74.8630905   4.59791859E-18
 74.9901199   4.597500864E-18
 75.117157   4.597075693E-18
 75.2441864   4.596640182E-18
 75.3712158   4.596193918E-18
 75.4982529   4.595737728E-18
 75.6252823   4.595273266E-18
 75.7523193   4.594805496E-18
 75.8793488   4.594338139E-18
 76.0063858   4.593874918E-18
 76.1334152   4.593419141E-18
 76.2604446   4.592972464E-18
 76.3874817   4.592534885E-18
 76.5145111   4.592105165E-18
 76.6415482   4.591682062E-18
 76.7685776   4.59126144E-18
 76.8956146   4.590841233E-18
 77.022644   4.590417303E-18
 77.1496735   4.589987996E-18
 77.2767105   4.589551658E-18
 77.4037399   4.589108289E-18
 77.530777   4.588661198E-18
 77.6578064   4.588214107E-18
 77.7848358   4.587770325E-18
 77.9118729   4.587333987E-18
 78.0389023   4.586907989E-18
 78.1659393   4.586494399E-18
 78.2929688   4.586092389E-18
 78.4200058   4.585699064E-18
 78.5470352   4.585309876E-18
 78.6740646   4.584921928E-18
 78.8011017   4.584530258E-18
 78.9281311   4.584132384E-18
 79.0551682   4.583727066E-18
 79.1821976   4.58331513E-18
 79.3092346   4.582899058E-18
 79.436264   4.582481745E-18
 79.5632935   4.582068155E-18
 79.6903305   4.581662837E-18
 79.8173599   4.581269512E-18
 79.944397   4.580891904E-18
 80.0714264   4.580532494E-18
 80.1984634   4.580190869E-18
 80.3254929   4.579864546E-18
 80.4525223   4.579548977E-18
 80.5795593   4.579240025E-18
 80.7065887   4.578931486E-18
 80.8336258   4.578617158E-18
 80.9606552   4.578292489E-18
 81.0876846   4.577954586E-18
 81.2147217   4.577602207E-18
 81.3417511   4.577235352E-18
 81.4687881   4.576854436E-18
 81.5958176   4.576463179E-18
 81.7228546   4.576062824E-18
 81.849884   4.575656678E-18
 81.9769135   4.575244742E-18
 82.1039505   4.574829498E-18
 82.2309799   4.574410117E-18
 82.358017   4.573987014E-18
 82.4850464   4.573560189E-18
 82.6120834   4.573128814E-18
 82.7391129   4.572691236E-18
 82.8661423   4.572249935E-18
 82.9931793   4.571804912E-18
 83.1202087   4.571360302E-18
 83.2472458   4.570919415E-18
 83.3742752   4.570486799E-18
 83.5013123   4.570066592E-18
 83.6283417   4.569662928E-18
 83.7553711   4.569277461E-18
 83.8824081   4.568912675E-18
 84.0094376   4.568566913E-18
 84.1364746   4.568238936E-18
 84.263504   4.567926675E-18
 84.3905334   4.567626822E-18
 84.5175705   4.567336896E-18
 84.6445999   4.567053586E-18
 84.771637   4.566774413E-18
 84.8986664   4.566498134E-18
 85.0257034   4.566222683E-18
 85.1527328   4.565946405E-18
 85.2797623   4.565667645E-18
 85.4067993   4.56538599E-18
 85.5338287   4.565098958E-18
 85.6608658   4.564804896E-18
 85.7878952   4.564502561E-18
 85.9149323   4.564189887E-18
 86.0419617   4.563866046E-18
 86.1689911   4.563530624E-18
 86.2960281   4.563184863E-18
 86.4230576   4.562830829E-18
 86.5500946   4.562469765E-18
 86.677124   4.562103324E-18
 86.8041611   4.561734401E-18
 86.9311905   4.561362997E-18
 87.0582199   4.560989939E-18
 87.185257   4.560614812E-18
 87.3122864   4.560238859E-18
 87.4393234   4.559862078E-18
 87.5663528   4.559486124E-18
 87.6933823   4.55911348E-18
 87.8204193   4.558745798E-18
 87.9474487   4.558385974E-18
 88.0744858   4.55803649E-18
 88.2015152   4.55769776E-18
 88.3285522   4.557369369E-18
 88.4555817   4.557049664E-18
 88.5826111   4.556735749E-18
 88.7096481   4.556424729E-18
 88.8366776   4.556113709E-18
 88.9637146   4.555798553E-18
 89.090744   4.555478434E-18
 89.2177811   4.555150871E-18
 89.3448105   4.554817103E-18
 89.4718399   4.554477546E-18
 89.598877   4.554135507E-18
 89.7259064   4.553793881E-18
 89.8529434   4.55345391E-18
 89.9799728   4.553118488E-18
 90.1070099   4.552788029E-18
 90.2340393   4.552461707E-18
 90.3610687   4.552137865E-18
 90.4881058   4.551813197E-18
 90.6151352   4.551484393E-18
 90.7421722   4.551148144E-18
 90.8692017   4.550802382E-18
 90.9962311   4.550446281E-18
 91.1232681   4.550081908E-18
 91.2502975   4.549709677E-18
 91.3773346   4.54933455E-18
 91.504364   4.548959838E-18
 91.6314011   4.548588847E-18
 91.7584305   4.548225301E-18
 91.8854599   4.547870027E-18
 92.0124969   4.547524679E-18
 92.1395264   4.547188017E-18
 92.2665634   4.546858385E-18
 92.3935928   4.546532062E-18
 92.5206299   4.54620574E-18
 92.6476593   4.545875695E-18
 92.7746887   4.545537791E-18
 92.9017258   4.545190375E-18
 93.0287552   4.54483262E-18
 93.1557922   4.544464111E-18
 93.2828217   4.544088157E-18
 93.4098587   4.543707241E-18
 93.5368881   4.543325083E-18
 93.6639175   4.542945407E-18
 93.7909546   4.542570281E-18
 93.917984   4.542201358E-18
 94.0450211   4.541837812E-18
 94.1720505   4.541478816E-18
 94.2990799   4.541122301E-18
 94.4261169   4.540765786E-18
 94.5531464   4.54040679E-18
 94.6801834   4.540042831E-18
 94.8072128   4.539675149E-18
 94.9342499   4.539302504E-18
 95.0612793   4.538927377E-18
 95.1883087   4.538550597E-18
 95.3153458   4.53817423E-18
 95.4423752   4.537799103E-18
 95.5694122   4.537425631E-18
 95.6964417   4.5370534E-18
 95.8234787   4.536682409E-18
 95.9505081   4.536310178E-18
 96.0775375   4.535936706E-18
 96.2045746   4.535560752E-18
 96.331604   4.535182317E-18
 96.4586411   4.534800987E-18
 96.5856705   4.534418002E-18
 96.7126999   4.534034604E-18
 96.8397369   4.533652033E-18
 96.9667664   4.533271116E-18
 97.0938034   4.532891027E-18
 97.2208328   4.532511765E-18
 97.3478699   4.532131262E-18
 97.4748993   4.531749104E-18
 97.6019287   4.531364879E-18
 97.7289658   4.530979413E-18
 97.8559952   4.530593533E-18
 97.9830322   4.530208894E-18
 98.1100616   4.529828391E-18
 98.2370987   4.529454919E-18
 98.3641281   4.529088478E-18
 98.4911575   4.528731136E-18
 98.6181946   4.528381652E-18
 98.745224   4.528037131E-18
 98.872261   4.527693851E-18
 98.9992905   4.527348503E-18
 99.1263275   4.526996538E-18
 99.2533569   4.526635887E-18
 99.3803864   4.526264897E-18
 99.5074234   4.52588398E-18
 99.6344528   4.525495619E-18
 99.7614899   4.525102294E-18
 99.8885193   4.52470897E-18
 100.015549   4.524318127E-18
 100.142586   4.52393142E-18
 100.269615   4.52355009E-18
 100.396652   4.523171655E-18
 100.523682   4.522794047E-18
 100.650719   4.522414371E-18
 100.777748   4.522029318E-18
 100.904778   4.521636408E-18
 101.031815   4.521235639E-18
 101.158844   4.520827011E-18
 101.285881   4.520413835E-18
 101.41291   4.519999831E-18
 101.539948   4.519589549E-18
 101.666977   4.519185885E-18
 101.794006   4.51879132E-18
 101.921043   4.518407094E-18
 102.048073   4.518032795E-18
 102.17511   4.517665113E-18
 102.302139   4.51730074E-18
 102.429176   4.516936367E-18
 102.556206   4.516567445E-18
 102.683235   4.516191491E-18
 102.810272   4.515805611E-18
 102.937302   4.515410633E-18
 103.064339   4.515005728E-18
 103.191368   4.514594619E-18
 103.318398   4.514179788E-18
 103.445435   4.513763716E-18
 103.572464   4.513349712E-18
 103.699501   4.512939844E-18
 103.82653   4.512535766E-18
 103.953568   4.512137065E-18
 104.080597   4.511743741E-18
 104.207626   4.511354553E-18
 104.334663   4.510969086E-18
 104.461693   4.510585275E-18
 104.58873   4.510201876E-18
 104.715759   4.509817237E-18
 104.842796   4.509431358E-18
 104.969826   4.509042583E-18
 105.096855   4.50865174E-18
 105.223892   4.508258829E-18
 105.350922   4.507864264E-18
 105.477959   4.507468872E-18
 105.604988   4.507072239E-18
 105.732025   4.506675192E-18
 105.859055   4.506276077E-18
 105.986084   4.505874067E-18
 106.113121   4.505467922E-18
 106.24015   4.505055986E-18
 106.367188   4.504636192E-18
 106.494217   4.504208126E-18
 106.621246   4.503770547E-18
 106.748283   4.50332387E-18
 106.875313   4.502870161E-18
 107.00235   4.502411076E-18
 107.129379   4.50195075E-18
 107.256416   4.501492492E-18
 107.383446   4.501040024E-18
 107.510475   4.500596241E-18
 107.637512   4.500163626E-18
 107.764542   4.499743418E-18
 107.891579   4.499335618E-18
 108.018608   4.498938572E-18
 108.145645   4.498550624E-18
 108.272675   4.498170948E-18
 108.399704   4.497796649E-18
 108.526741   4.497426899E-18
 108.65377   4.497060872E-18
 108.780807   4.496697326E-18
 108.907837   4.496335021E-18
 109.034874   4.495972715E-18
 109.161903   4.495609583E-18
 109.288933   4.49524521E-18
 109.41597   4.494877528E-18
 109.542999   4.494505711E-18
 109.670036   4.494128103E-18
 109.797066   4.493743877E-18
 109.924095   4.493353448E-18
 110.051132   4.492955574E-18
 110.178162   4.492550669E-18
 110.305199   4.492138733E-18
 110.432228   4.491719766E-18
 110.559265   4.49129625E-18
 110.686295   4.490868184E-18
 110.813324   4.490436809E-18
 110.940361   4.490003367E-18
 111.06739   4.489568683E-18
 111.194427   4.489134E-18
 111.321457   4.488700144E-18
 111.448494   4.488268355E-18
 111.575523   4.487840289E-18
 111.702553   4.487417186E-18
 111.82959   4.486999047E-18
 111.956619   4.486586697E-18
 112.083656   4.486179311E-18
 112.210686   4.485775233E-18
 112.337723   4.485371155E-18
 112.464752   4.484964182E-18
 112.591782   4.484551833E-18
 112.718819   4.484131211E-18
 112.845848   4.483699423E-18
 112.972885   4.483257295E-18
 113.099915   4.482803587E-18
 113.226944   4.482341606E-18
 113.353981   4.481873008E-18
 113.48101   4.481400275E-18
 113.608047   4.480927954E-18
 113.735077   4.480458116E-18
 113.862114   4.479992E-18
 113.989143   4.479530846E-18
 114.116173   4.479072175E-18
 114.24321   4.478616812E-18
 114.370239   4.478161863E-18
 114.497276   4.477706913E-18
 114.624306   4.477250723E-18
 114.751343   4.476794947E-18
 114.878372   4.476340824E-18
 115.005402   4.475889597E-18
 115.132439   4.475444988E-18
 115.259468   4.475007823E-18
 115.386505   4.474579757E-18
 115.513535   4.47416079E-18
 115.640572   4.473750508E-18
 115.767601   4.473346431E-18
 115.89463   4.472946075E-18
 116.021667   4.472546547E-18
 116.148697   4.472145778E-18
 116.275734   4.471742527E-18
 116.402763   4.471334727E-18
 116.529793   4.470922378E-18
 116.65683   4.470507547E-18
 116.783859   4.470092302E-18
 116.910896   4.469679125E-18
 117.037926   4.469270912E-18
 117.164963   4.468870556E-18
 117.291992   4.468480127E-18
 117.419022   4.468100038E-18
 117.546059   4.467730701E-18
 117.673088   4.467370051E-18
 117.800125   4.467015604E-18
 117.927155   4.466665293E-18
 118.054192   4.466315395E-18
 118.181221   4.465963016E-18
 118.30825   4.465607329E-18
 118.435287   4.465245851E-18
 118.562317   4.464877755E-18
 118.689354   4.464502629E-18
 118.816383   4.464119644E-18
 118.943413   4.463729215E-18
 119.07045   4.463330101E-18
 119.197479   4.4629223E-18
 119.324516   4.462505815E-18
 119.451546   4.46207899E-18
 119.578583   4.461641411E-18
 119.705612   4.461192252E-18
 119.832642   4.460731099E-18
 119.959679   4.460257538E-18
 120.086708   4.459772397E-18
 120.213745   4.459276502E-18