 -7.19999981   1.905041205E-18
 -7.07296753   1.905039137E-18
 -6.94593477   1.905034794E-18
 -6.81890202   1.905029211E-18
 -6.69186926   1.905021973E-18
 -6.56483698   1.905013701E-18
 -6.43780422   1.905004809E-18
 -6.31077147   1.90499509E-18
 -6.18373871   1.904985577E-18
 -6.05670643   1.904976478E-18
 -5.92967367   1.904968413E-18
 -5.80264091   1.904960968E-18
 -5.67560816   1.904955385E-18
 -5.5485754   1.904950629E-18
 -5.42154312   1.904947527E-18
 -5.29451036   1.904946079E-18
 -5.16747761   1.904945872E-18
 -5.04044485   1.904946906E-18
 -4.91341257   1.904948767E-18
 -4.78637981   1.904951042E-18
 -4.65934706   1.904953731E-18
 -4.5323143   1.904955592E-18
 -4.40528202   1.904957039E-18
 -4.27824926   1.904957246E-18
 -4.15121651   1.904956005E-18
 -4.02418375   1.904952283E-18
 -3.89715123   1.904946699E-18
 -3.77011847   1.904939462E-18
 -3.64308596   1.904930363E-18
 -3.5160532   1.904919403E-18
 -3.38902068   1.904906374E-18
 -3.26198792   1.904892106E-18
 -3.13495541   1.904877423E-18
 -3.00792265   1.904861293E-18
 -2.88089013   1.90484537E-18
 -2.75385737   1.904829447E-18
 -2.62682486   1.904814351E-18
 -2.4997921   1.904800289E-18
 -2.37275958   1.904787674E-18
 -2.24572682   1.904776921E-18
 -2.11869431   1.904768442E-18
 -1.99166155   1.904761825E-18
 -1.86462891   1.904757482E-18
 -1.73759627   1.90475438E-18
 -1.61056364   1.904753139E-18
 -1.483531   1.904752726E-18
 -1.35649836   1.904753346E-18
 -1.22946572   1.904754173E-18
 -1.10243309   1.904754173E-18
 -0.975400388   1.90475438E-18
 -0.848367751   1.904753553E-18
 -0.721335113   1.904751692E-18
 -0.594302475   1.904748797E-18
 -0.467269808   1.904744247E-18
 -0.34023717   1.904738457E-18
 -0.213204518   1.904731633E-18
 -8.617187291E-2   1.904723568E-18
 4.086076841E-2   1.904714675E-18
 0.16789341   1.90470537E-18
 0.294926047   1.904696271E-18
 0.421958715   1.904687585E-18
 0.548991323   1.90467952E-18
 0.67602402   1.904672696E-18
 0.803056657   1.90466794E-18
 0.930089295   1.904665044E-18
 1.05712187   1.904664011E-18
 1.18415463   1.904665665E-18
 1.31118727   1.904670008E-18
 1.4382199   1.904676211E-18
 1.56525254   1.904684276E-18
 1.69228518   1.904693996E-18
 1.81931782   1.904704542E-18
 1.94635046   1.904715709E-18
 2.07338309   1.904726669E-18
 2.20041585   1.904737009E-18
 2.32744837   1.904746729E-18
 2.45448112   1.904754587E-18
 2.58151364   1.904761204E-18
 2.7085464   1.904766374E-18
 2.83557892   1.904769476E-18
 2.96261168   1.90477113E-18
 3.08964419   1.90477113E-18
 3.21667695   1.904769476E-18
 3.34370947   1.904766581E-18
 3.47074223   1.904763479E-18
 3.59777474   1.90475955E-18
 3.7248075   1.904755621E-18
 3.85184002   1.904751278E-18
 3.97887278   1.904746935E-18
 4.10590553   1.90474342E-18
 4.23293829   1.904740318E-18
 4.35997057   1.904738043E-18
 4.48700333   1.904736389E-18
 4.61403608   1.904735562E-18
 4.74106884   1.904735768E-18
 4.86810112   1.904736596E-18
 4.99513388   1.904738457E-18
 5.12216663   1.904740318E-18
 5.24919939   1.904742593E-18
 5.37623167   1.904745488E-18
 5.50326443   1.90474859E-18
 5.63029718   1.904751898E-18
 5.75732994   1.904753966E-18
 5.88436222   1.904756241E-18
 6.01139498   1.904757275E-18
 6.13842773   1.904757482E-18
 6.26546049   1.904756448E-18
 6.39249325   1.90475438E-18
 6.51952553   1.904751692E-18
 6.64655828   1.904747763E-18
 6.77359104   1.904743006E-18
 6.9006238   1.904738457E-18
 7.02765608   1.904734114E-18
 7.15468884   1.904729978E-18
 7.28172159   1.904726876E-18
 7.40875435   1.904725635E-18
 7.53578663   1.904725429E-18
 7.66281939   1.904726876E-18
 7.78985214   1.904730805E-18
 7.9168849   1.904736802E-18
 8.04391766   1.904744454E-18
 8.17094994   1.90475376E-18
 8.29798317   1.904763479E-18
 8.42501545   1.904773819E-18
 8.55204773   1.904783952E-18
 8.67908096   1.904792844E-18
 8.80611324   1.904800702E-18
 8.93314552   1.904806079E-18
 9.06017876   1.90480856E-18
 9.18721104   1.90480856E-18
 9.31424427   1.904805045E-18
 9.44127655   1.904798841E-18
 9.56830883   1.904789328E-18
 9.69534206   1.904777334E-18
 9.82237434   1.904763065E-18
 9.94940662   1.904747142E-18
 10.0764399   1.904730599E-18
 10.2034721   1.904713435E-18
 10.3305054   1.904696891E-18
 10.4575377   1.904681381E-18
 10.5845699   1.904667112E-18
 10.7116032   1.904654291E-18
 10.8386354   1.904643331E-18
 10.9656687   1.904633818E-18
 11.092701   1.904626374E-18
 11.2197332   1.904620584E-18
 11.3467665   1.904616448E-18
 11.4737988   1.904613552E-18
 11.600831   1.904612105E-18
 11.7278643   1.904611278E-18
 11.8548965   1.904611485E-18
 11.9819298   1.904611898E-18
 12.1089621   1.904612725E-18
 12.2359943   1.904614173E-18
 12.3630276   1.904616034E-18
 12.4900599   1.904618516E-18
 12.6170931   1.904621411E-18
 12.7441254   1.904624719E-18
 12.8711576   1.904628235E-18
 12.9981909   1.904632164E-18
 13.1252232   1.9046363E-18
 13.2522554   1.904639609E-18
 13.3792887   1.90464209E-18
 13.506321   1.904643745E-18
 13.6333542   1.904643951E-18
 13.7603865   1.904642711E-18
 13.8874187   1.904639402E-18
 14.014452   1.904633612E-18
 14.1414843   1.904625133E-18
 14.2685175   1.904614586E-18
 14.3955498   1.904602179E-18
 14.5225821   1.904587703E-18
 14.6496153   1.904571987E-18
 14.7766476   1.904555443E-18
 14.9036798   1.904538486E-18
 15.0307131   1.904521735E-18
 15.1577454   1.904505399E-18
 15.2847786   1.904490096E-18
 15.4118109   1.904476034E-18
 15.5388432   1.904463419E-18
 15.6658764   1.904452459E-18
 15.7929087   1.90444336E-18
 15.9199409   1.904435502E-18
 16.0469742   1.904428884E-18
 16.1740074   1.904422887E-18
 16.3010387   1.904417511E-18
 16.428072   1.904411927E-18
 16.5551052   1.90440593E-18
 16.6821365   1.90439952E-18
 16.8091698   1.904392075E-18
 16.936203   1.904383596E-18
 17.0632343   1.90437305E-18
 17.1902676   1.904361676E-18
 17.3173008   1.904349268E-18
 17.444334   1.90433624E-18
 17.5713654   1.904321558E-18
 17.6983986   1.904307082E-18
 17.8254318   1.904291366E-18
 17.9524632   1.904275649E-18
 18.0794964   1.904259726E-18
 18.2065296   1.904244216E-18
 18.3335609   1.904229327E-18
 18.4605942   1.904215472E-18
 18.5876274   1.904202651E-18
 18.7146587   1.90419045E-18
 18.841692   1.904179076E-18
 18.9687252   1.904169357E-18
 19.0957584   1.904160051E-18
 19.2227898   1.904150538E-18
 19.349823   1.904141853E-18
 19.4768562   1.904133167E-18
 19.6038876   1.904123448E-18
 19.7309208   1.904113108E-18
 19.857954   1.904101528E-18
 19.9849854   1.90408912E-18
 20.1120186   1.904074438E-18
 20.2390518   1.904057894E-18
 20.3660831   1.904039489E-18
 20.4931164   1.90401943E-18
 20.6201496   1.903997717E-18
 20.7471828   1.903974969E-18
 20.8742142   1.903951394E-18
 21.0012474   1.903927406E-18
 21.1282806   1.903903625E-18
 21.255312   1.903880877E-18
 21.3823452   1.903858957E-18
 21.5093784   1.903838277E-18
 21.6364098   1.903819666E-18
 21.763443   1.903803949E-18
 21.8904762   1.903790094E-18
 22.0175076   1.903778307E-18
 22.1445408   1.903768381E-18
 22.271574   1.903759695E-18
 22.3986073   1.90375163E-18
 22.5256386   1.903744186E-18
 22.6526718   1.903735707E-18
 22.779705   1.903725367E-18
 22.9067364   1.903713166E-18
 23.0337696   1.903698484E-18
 23.1608028   1.903680286E-18
 23.2878342   1.903658779E-18
 23.4148674   1.903634377E-18
 23.5419006   1.90360646E-18
 23.668932   1.903576475E-18
 23.7959652   1.903545042E-18
 23.9229984   1.903512575E-18
 24.0500298   1.903480315E-18
 24.177063   1.903449709E-18
 24.3040962   1.903421172E-18
 24.4311295   1.903395736E-18
 24.5581608   1.903373195E-18
 24.685194   1.90335479E-18
 24.8122272   1.903339901E-18
 24.9392586   1.903328114E-18
 25.0662918   1.903319222E-18
 25.193325   1.903313018E-18
 25.3203564   1.903308675E-18
 25.4473896   1.903305573E-18
 25.5744228   1.903303298E-18
 25.7014542   1.903300817E-18
 25.8284874   1.903298129E-18
 25.9555206   1.903294406E-18
 26.0825539   1.903289236E-18
 26.2095852   1.903282619E-18
 26.3366184   1.903273727E-18
 26.4636517   1.903262767E-18
 26.590683   1.903250359E-18
 26.7177162   1.903235056E-18
 26.8447495   1.903217892E-18
 26.9717808   1.90319866E-18
 27.098814   1.903177981E-18
 27.2258472   1.903155853E-18
 27.3528786   1.903131865E-18
 27.4799118   1.903107257E-18
 27.606945   1.903082234E-18
 27.7339783   1.903058453E-18
 27.8610096   1.903035085E-18
 27.9880428   1.903013165E-18
 28.1150761   1.902992072E-18
 28.2421074   1.902973047E-18
 28.3691406   1.902955676E-18
 28.4961739   1.902940787E-18
 28.6232052   1.902927345E-18
 28.7502384   1.90291473E-18
 28.8772717   1.902902736E-18
 29.004303   1.902890535E-18
 29.1313362   1.902878128E-18
 29.2583694   1.902864272E-18
 29.3854027   1.902848556E-18
 29.512434   1.902830978E-18
 29.6394672   1.902810506E-18
 29.7665005   1.902787965E-18
 29.8935318   1.902762736E-18
 30.020565   1.902735025E-18
 30.1475983   1.902705247E-18
 30.2746296   1.902674434E-18
 30.4016628   1.902643622E-18
 30.5286961   1.902612189E-18
 30.6557274   1.902582204E-18
 30.7827606   1.902554493E-18
 30.9097939   1.902529264E-18
 31.0368271   1.902506517E-18
 31.1638584   1.902487285E-18
 31.2908916   1.902471982E-18
 31.4179249   1.902459988E-18
 31.5449562   1.902451509E-18
 31.6719894   1.902445926E-18
 31.7990227   1.902442824E-18
 31.926054   1.902440756E-18
 32.0530891   1.902440135E-18
 32.1801186   1.902440135E-18
 32.3071518   1.902439722E-18
 32.434185   1.902437447E-18
 32.5612183   1.902433311E-18
 32.6882515   1.902426073E-18
 32.8152847   1.902416147E-18
 32.9423141   1.902403119E-18
 33.0693474   1.902386575E-18
 33.1963806   1.90236631E-18
 33.3234138   1.902342735E-18
 33.4504471   1.902316265E-18
 33.5774803   1.902287107E-18
 33.7045135   1.902256295E-18
 33.831543   1.902223828E-18
 33.9585762   1.902191154E-18
 34.0856094   1.902158894E-18
 34.2126427   1.902128082E-18
 34.3396759   1.902100164E-18
 34.4667091   1.902074935E-18
 34.5937386   1.902053015E-18
 34.7207718   1.902035231E-18
 34.847805   1.902021375E-18
 34.9748383   1.902012069E-18
 35.1018715   1.902006693E-18
 35.2289047   1.902004418E-18
 35.355938   1.902005038E-18
 35.4829674   1.9020069E-18
 35.6100006   1.902009588E-18
 35.7370338   1.902011449E-18
 35.8640671   1.902011242E-18
 35.9911003   1.902007934E-18
 36.1181335   1.902000696E-18
 36.245163   1.901989115E-18
 36.3721962   1.901972778E-18
 36.4992294   1.901950858E-18
 36.6262627   1.901924802E-18
 36.7532959   1.901895644E-18
 36.8803291   1.901864004E-18
 37.0073624   1.901830503E-18
 37.1343918   1.901796796E-18
 37.261425   1.901764949E-18
 37.3884583   1.901735998E-18
 37.5154915   1.901709942E-18
 37.6425247   1.901687815E-18
 37.769558   1.901670651E-18
 37.8965874   1.901658243E-18
 38.0236206   1.901650178E-18
 38.1506538   1.901645422E-18
 38.2776871   1.901643561E-18
 38.4047203   1.901643561E-18
 38.5317535   1.901644181E-18
 38.6587868   1.901644388E-18
 38.7858162   1.901642733E-18
 38.9128494   1.901638184E-18
 39.0398827   1.901629912E-18
 39.1669159   1.901617091E-18
 39.2939491   1.901600134E-18
 39.4209824   1.901578006E-18
 39.5480118   1.90155195E-18
 39.675045   1.901521965E-18
 39.8020782   1.901489085E-18
 39.9291115   1.901453929E-18
 40.0561447   1.901417533E-18
 40.1831779   1.901380517E-18
 40.3102074   1.901344742E-18
 40.4372406   1.901310207E-18
 40.5642738   1.90127774E-18
 40.6913071   1.901248582E-18
 40.8183403   1.90122356E-18
 40.9453735   1.901202466E-18
 41.0724068   1.90118613E-18
 41.1994362   1.901174756E-18
 41.3264694   1.901167932E-18
 41.4535027   1.901165657E-18
 41.5805359   1.901167311E-18
 41.7075691   1.901172895E-18
 41.8346024   1.901181373E-18
 41.9616318   1.901191506E-18
 42.088665   1.901202053E-18
 42.2156982   1.901211359E-18
 42.3427315   1.901218596E-18
 42.4697647   1.901222732E-18
 42.5967979   1.901222112E-18
 42.7238312   1.901215908E-18
 42.8508606   1.901203294E-18
 42.9778938   1.901184268E-18
 43.1049271   1.901159039E-18
 43.2319603   1.901127607E-18
 43.3589935   1.901091004E-18
 43.4860268   1.901050265E-18
 43.6130562   1.901006838E-18
 43.7400894   1.900962791E-18
 43.8671227   1.90091895E-18
 43.9941559   1.900877178E-18
 44.1211891   1.900838921E-18
 44.2482224   1.900805006E-18
 44.3752556   1.900775641E-18
 44.502285   1.900751446E-18
 44.6293182   1.900732628E-18
 44.7563515   1.900717945E-18
 44.8833847   1.900707399E-18
 45.0104179   1.900699747E-18
 45.1374512   1.900693337E-18
 45.2644806   1.900688167E-18
 45.3915138   1.900683204E-18
 45.5185471   1.90067762E-18
 45.6455803   1.900670796E-18
 45.7726135   1.900662524E-18
 45.8996468   1.900652598E-18
 46.02668   1.900641638E-18
 46.1537094   1.900629644E-18
 46.2807426   1.900617236E-18
 46.4077759   1.900604622E-18
 46.5348091   1.900591387E-18
 46.6618423   1.900578565E-18
 46.7888756   1.900566778E-18
 46.915905   1.900555611E-18
 47.0429382   1.900544651E-18
 47.1699715   1.900534105E-18
 47.2970047   1.900524178E-18
 47.4240379   1.900514045E-18
 47.5510712   1.900503706E-18
 47.6781044   1.900492539E-18
 47.8051338   1.900480338E-18
 47.9321671   1.90046731E-18
 48.0592003   1.900453248E-18
 48.1862335   1.900438772E-18
 48.3132668   1.900423676E-18
 48.4403   1.900408373E-18
 48.5673294   1.90039307E-18
 48.6943626   1.900377147E-18
 48.8213959   1.900361844E-18
 48.9484291   1.900347162E-18
 49.0754623   1.900333306E-18
 49.2024956   1.900319451E-18
 49.3295288   1.900305596E-18
 49.4565582   1.900291327E-18
 49.5835915   1.900276851E-18
 49.7106247   1.900261548E-18
 49.8376579   1.900245212E-18
 49.9646912   1.900227427E-18
 50.0917244   1.900209023E-18
 50.2187538   1.90018917E-18
 50.345787   1.90016787E-18
 50.4728203   1.900146364E-18
 50.5998535   1.900125064E-18
 50.7268867   1.900104591E-18
 50.85392   1.900085359E-18
 50.9809532   1.900067161E-18
 51.1079826   1.900050411E-18
 51.2350159   1.900035315E-18
 51.3620491   1.900021873E-18
 51.4890823   1.900009465E-18
 51.6161156   1.899998298E-18
 51.7431488   1.899987131E-18
 51.8701782   1.899976378E-18
 51.9972115   1.899965004E-18
 52.1242447   1.899953631E-18
 52.2512779   1.899941016E-18
 52.3783112   1.899927574E-18
 52.5053444   1.899912685E-18
 52.6323776   1.899897175E-18
 52.759407   1.899880632E-18
 52.8864403   1.899864088E-18
 53.0134735   1.899847131E-18
 53.1405067   1.89982976E-18
 53.26754   1.899812389E-18
 53.3945732   1.899795225E-18
 53.5216026   1.899778268E-18
 53.6486359   1.899760691E-18
 53.7756691   1.899742493E-18
 53.9027023   1.899724088E-18
 54.0297356   1.899705063E-18
 54.1567688   1.899685004E-18
 54.283802   1.899664738E-18
 54.4108315   1.899644265E-18
 54.5378647   1.899623172E-18
 54.6648979   1.899602492E-18
 54.7919312   1.899582226E-18
 54.9189644   1.899562994E-18
 55.0459976   1.899545624E-18
 55.173027   1.899530321E-18
 55.3000603   1.899516672E-18
 55.4270935   1.899505092E-18
 55.5541267   1.899495579E-18
 55.68116   1.899487721E-18
 55.8081932   1.89948131E-18
 55.9352264   1.8994749E-18
 56.0622559   1.899468696E-18
 56.1892891   1.899461044E-18
 56.3163223   1.899451945E-18
 56.4433556   1.899441606E-18
 56.5703888   1.899427337E-18
 56.697422   1.899409552E-18
 56.8244514   1.899388253E-18
 56.9514847   1.89936323E-18
 57.0785179   1.899334486E-18
 57.2055511   1.899302639E-18
 57.3325844   1.899268725E-18
 57.4596176   1.899232743E-18
 57.5866508   1.899195313E-18
 57.7136803   1.899157469E-18
 57.8407135   1.899119212E-18
 57.9677467   1.899081162E-18
 58.09478   1.899044352E-18
 58.2218132   1.89900899E-18
 58.3488464   1.898975489E-18
 58.4758759   1.898943023E-18
 58.6029091   1.89891221E-18
 58.7299423   1.898882638E-18
 58.8569756   1.898853687E-18
 58.9840088   1.898825149E-18
 59.111042   1.898796405E-18
 59.2380753   1.898766833E-18
 59.3651047   1.898735607E-18
 59.4921379   1.898702727E-18
 59.6191711   1.898667778E-18
 59.7462044   1.898630969E-18
 59.8732376   1.898591471E-18
 60.0002708   1.898550732E-18
 60.1273003   1.89850896E-18
 60.2543335   1.898467187E-18
 60.3813667   1.898426242E-18
 60.5084   1.89838695E-18
 60.6354332   1.898350554E-18
 60.7624664   1.898317467E-18
 60.8894997   1.898287896E-18
 61.0165291   1.89826308E-18
 61.1435623   1.898242194E-18
 61.2705956   1.898227305E-18
 61.3976288   1.898216965E-18
 61.524662   1.898210761E-18
 61.6516953   1.898208693E-18
 61.7787247   1.898210761E-18
 61.9057579   1.898215931E-18
 62.0327911   1.898223996E-18
 62.1598244   1.898236197E-18
 62.2868576   1.898251086E-18
 62.4138908   1.898268664E-18
 62.5409203   1.898288723E-18
 62.6679535   1.898311677E-18
 62.7949867   1.898336079E-18
 62.92202   1.898361721E-18
 63.0490532   1.898387778E-18
 63.1760864   1.898413007E-18
 63.3031197   1.898435754E-18
 63.4301491   1.898454779E-18
 63.5571823   1.898468635E-18
 63.6842155   1.898476079E-18
 63.8112488   1.898474632E-18
 63.938282   1.898463878E-18
 64.0653152   1.898442372E-18
 64.1923447   1.898408664E-18
 64.3193817   1.898362135E-18
 64.4464111   1.898301751E-18
 64.5734482   1.898226477E-18
 64.7004776   1.898135694E-18
 64.827507   1.898028161E-18
 64.9545441   1.89790367E-18
 65.0815735   1.897760982E-18
 65.2086105   1.897598854E-18
 65.33564   1.897416874E-18
 65.4626694   1.897213802E-18
 65.5897064   1.896988808E-18
 65.7167358   1.896740241E-18
 65.8437729   1.896467685E-18
 65.9708023   1.896170313E-18
 66.0978394   1.895848126E-18
 66.2248688   1.89550009E-18
 66.3518982   1.895125791E-18
 66.4789352   1.894725849E-18
 66.6059647   1.894300678E-18
 66.7330017   1.893851106E-18
 66.8600311   1.893378165E-18
 66.9870682   1.892882891E-18
 67.1140976   1.892366937E-18
 67.241127   1.891832578E-18
 67.3681641   1.891280642E-18
 67.4951935   1.890712989E-18
 67.6222305   1.890130861E-18
 67.7492599   1.889535911E-18
 67.876297   1.888928347E-18
 68.0033264   1.888308789E-18
 68.1303558   1.887677029E-18
 68.2573929   1.88703369E-18
 68.3844223   1.886376495E-18
 68.5114594   1.885705031E-18
 68.6384888   1.885018885E-18
 68.7655182   1.884316401E-18
 68.8925552   1.88359572E-18
 69.0195847   1.882856634E-18
 69.1466217   1.88209811E-18
 69.2736511   1.881319319E-18
 69.4006882   1.880520056E-18
 69.5277176   1.87970094E-18
 69.654747   1.878862593E-18
 69.7817841   1.878005841E-18
 69.9088135   1.877131511E-18
 70.0358505   1.876241257E-18
 70.1628799   1.875335495E-18
 70.289917   1.874416083E-18
 70.4169464   1.873484678E-18
 70.5439758   1.872542106E-18
 70.6710129   1.871589194E-18
 70.7980423   1.870626355E-18
 70.9250793   1.869654211E-18
 71.0521088   1.868672968E-18
 71.1791458   1.86768242E-18
 71.3061752   1.866682152E-18
 71.4332047   1.865671957E-18
 71.5602417   1.864651423E-18
 71.6872711   1.863620342E-18
 71.8143082   1.862578302E-18
 71.9413376   1.861525301E-18
 72.068367   1.860462167E-18
 72.1954041   1.8593889E-18
 72.3224335   1.858306121E-18
 72.4494705   1.857215276E-18
 72.5764999   1.856117814E-18
 72.703537   1.855014976E-18
 72.8305664   1.853908415E-18
 72.9575958   1.8528002E-18
 73.0846329   1.851691364E-18
 73.2116623   1.850583562E-18
 73.3386993   1.849477415E-18
 73.4657288   1.848373129E-18
 73.5927658   1.847272152E-18
 73.7197952   1.846173863E-18
 73.8468246   1.845078055E-18
 73.9738617   1.843983902E-18
 74.1008911   1.842889749E-18
 74.2279282   1.841795389E-18
 74.3549576   1.840698341E-18
 74.481987   1.839599431E-18
 74.609024   1.838495559E-18
 74.7360535   1.837386309E-18
 74.8630905   1.836270856E-18
 74.9901199   1.835148165E-18
 75.117157   1.834017823E-18
 75.2441864   1.832878795E-18
 75.3712158   1.831731496E-18
 75.4982529   1.830574684E-18
 75.6252823   1.829408566E-18
 75.7523193   1.828233142E-18
 75.8793488   1.82704862E-18
 76.0063858   1.825854791E-18
 76.1334152   1.824651657E-18
 76.2604446   1.823439631E-18
 76.3874817   1.822219539E-18
 76.5145111   1.820991383E-18
 76.6415482   1.819755989E-18
 76.7685776   1.81851377E-18
 76.8956146   1.817265141E-18
 77.022644   1.816010515E-18
 77.1496735   1.814749892E-18
 77.2767105   1.813483892E-18
 77.4037399   1.812212101E-18
 77.530777   1.810934935E-18
 77.6578064   1.809652184E-18
 77.7848358   1.808363644E-18
 77.9118729   1.807070347E-18
 78.0389023   1.805771673E-18
 78.1659393   1.804467623E-18
 78.2929688   1.803158816E-18
 78.4200058   1.801845047E-18
 78.5470352   1.800527141E-18
 78.6740646   1.799205513E-18
 78.8011017   1.79787975E-18
 78.9281311   1.796550884E-18
 79.0551682   1.795219123E-18
 79.1821976   1.793884467E-18
 79.3092346   1.79254733E-18
 79.436264   1.791207918E-18
 79.5632935   1.789866438E-18
 79.6903305   1.788522476E-18
 79.8173599   1.787175619E-18
 79.944397   1.785825247E-18
 80.0714264   1.784471152E-18
 80.1984634   1.783112921E-18
 80.3254929   1.781749935E-18
 80.4525223   1.780381571E-18
 80.5795593   1.779007624E-18
 80.7065887   1.777628094E-18
 80.8336258   1.77624298E-18
 80.9606552   1.774852489E-18
 81.0876846   1.773457035E-18
 81.2147217   1.772056825E-18
 81.3417511   1.7706531E-18
 81.4687881   1.769245652E-18
 81.5958176   1.767836343E-18
 81.7228546   1.766424759E-18
 81.849884   1.765012555E-18
 81.9769135   1.763600144E-18
 82.1039505   1.762187113E-18
 82.2309799   1.760773875E-18
 82.358017   1.759361671E-18
 82.4850464   1.757950501E-18
 82.6120834   1.756539951E-18
 82.7391129   1.755130228E-18
 82.8661423   1.753721333E-18
 82.9931793   1.752314299E-18
 83.1202087   1.750909126E-18
 83.2472458   1.749506641E-18
 83.3742752   1.748107051E-18
 83.5013123   1.746712425E-18
 83.6283417   1.745322968E-18
 83.7553711   1.743940543E-18
 83.8824081   1.742566182E-18
 84.0094376   1.741201127E-18
 84.1364746   1.739847033E-18
 84.263504   1.738504932E-18
 84.3905334   1.73717586E-18
 84.5175705   1.735860436E-18
 84.6445999   1.734559074E-18
 84.771637   1.733272394E-18
 84.8986664   1.731999053E-18
 85.0257034   1.730738844E-18
 85.1527328   1.729490731E-18
 85.2797623   1.728253786E-18
 85.4067993   1.727026664E-18
 85.5338287   1.725808227E-18
 85.6608658   1.7245962E-18
 85.7878952   1.723389344E-18
 85.9149323   1.722186727E-18
 86.0419617   1.720987832E-18
 86.1689911   1.719792452E-18
 86.2960281   1.718599554E-18
 86.4230576   1.717410379E-18
 86.5500946   1.716224719E-18
 86.677124   1.715044332E-18
 86.8041611   1.713869736E-18
 86.9311905   1.71270124E-18
 87.0582199   1.711539982E-18
 87.185257   1.710386788E-18
 87.3122864   1.709241453E-18
 87.4393234   1.708103873E-18
 87.5663528   1.706972807E-18
 87.6933823   1.705847325E-18
 87.8204193   1.704726288E-18
 87.9474487   1.703607526E-18
 88.0744858   1.702488868E-18
 88.2015152   1.701368245E-18
 88.3285522   1.70024421E-18
 88.4555817   1.699114281E-18
 88.5826111   1.697977011E-18
 88.7096481   1.696831469E-18
 88.8366776   1.695676829E-18
 88.9637146   1.694512469E-18
 89.090744   1.693338906E-18
 89.2177811   1.692155417E-18
 89.3448105   1.690963967E-18
 89.4718399   1.689765072E-18
 89.598877   1.688559974E-18
 89.7259064   1.687349498E-18
 89.8529434   1.686134887E-18
 89.9799728   1.684917484E-18
 90.1070099   1.683697082E-18
 90.2340393   1.682475233E-18
 90.3610687   1.681251833E-18
 90.4881058   1.680026778E-18
 90.6151352   1.678799759E-18
 90.7421722   1.677570983E-18
 90.8692017   1.676339414E-18
 90.9962311   1.675104433E-18
 91.1232681   1.673866661E-18
 91.2502975   1.67262527E-18
 91.3773346   1.671380259E-18
 91.504364   1.670132457E-18
 91.6314011   1.66888176E-18
 91.7584305   1.667630236E-18
 91.8854599   1.666377781E-18
 92.0124969   1.665126671E-18
 92.1395264   1.663877938E-18
 92.2665634   1.662632307E-18
 92.3935928   1.661391743E-18
 92.5206299   1.6601579E-18
 92.6476593   1.658932225E-18
 92.7746887   1.657715753E-18
 92.9017258   1.65650931E-18
 93.0287552   1.655314034E-18
 93.1557922   1.654130649E-18
 93.2828217   1.652959981E-18
 93.4098587   1.651802755E-18
 93.5368881   1.650658144E-18
 93.6639175   1.649526561E-18
 93.7909546   1.648407489E-18
 93.917984   1.647300928E-18
 94.0450211   1.646205845E-18
 94.1720505   1.645120997E-18
 94.2990799   1.644046696E-18
 94.4261169   1.642981598E-18
 94.5531464   1.641925185E-18
 94.6801834   1.640875906E-18
 94.8072128   1.639833866E-18
 94.9342499   1.638798442E-18
 95.0612793   1.637768396E-18
 95.1883087   1.636743105E-18
 95.3153458   1.635721951E-18
 95.4423752   1.634704208E-18
 95.5694122   1.633689361E-18
 95.6964417   1.632676582E-18
 95.8234787   1.631664526E-18
 95.9505081   1.630652471E-18
 96.0775375   1.629639278E-18
 96.2045746   1.628624638E-18
 96.331604   1.627606999E-18
 96.4586411   1.626585948E-18
 96.5856705   1.625560037E-18
 96.7126999   1.624528026E-18
 96.8397369   1.623489914E-18
 96.9667664   1.622445082E-18
 97.0938034   1.621393115E-18
 97.2208328   1.620333186E-18
 97.3478699   1.619265709E-18
 97.4748993   1.618190892E-18
 97.6019287   1.617109043E-18
 97.7289658   1.616020577E-18
 97.8559952   1.614926217E-18
 97.9830322   1.61382617E-18
 98.1100616   1.61272116E-18
 98.2370987   1.611611911E-18
 98.3641281   1.610500077E-18
 98.4911575   1.609386381E-18
 98.6181946   1.608272169E-18
 98.745224   1.607158991E-18
 98.872261   1.606047777E-18
 98.9992905   1.604940079E-18
 99.1263275   1.603837343E-18
 99.2533569   1.602740916E-18
 99.3803864   1.601652863E-18
 99.5074234   1.600573909E-18
 99.6344528   1.599506122E-18
 99.7614899   1.598450433E-18
 99.8885193   1.597407979E-18
 100.015549   1.596378966E-18
 100.142586   1.595364739E-18
 100.269615   1.594365402E-18
 100.396652   1.593380643E-18
 100.523682   1.592410774E-18
 100.650719   1.59145476E-18
 100.777748   1.590510533E-18
 100.904778   1.58957675E-18
 101.031815   1.588651858E-18
 101.158844   1.587733378E-18
 101.285881   1.586819136E-18
 101.41291   1.585906343E-18
 101.539948   1.584991894E-18
 101.666977   1.584074034E-18
 101.794006   1.583151107E-18
 101.921043   1.582220322E-18
 102.048073   1.581279715E-18
 102.17511   1.580327836E-18
 102.302139   1.579364068E-18
 102.429176   1.57838665E-18
 102.556206   1.57739393E-18
 102.683235   1.576385907E-18
 102.810272   1.575361961E-18
 102.937302   1.574321781E-18
 103.064339   1.573265058E-18
 103.191368   1.572192929E-18
 103.318398   1.571104876E-18
 103.445435   1.570002658E-18
 103.572464   1.568886274E-18
 103.699501   1.567756863E-18
 103.82653   1.56661618E-18
 103.953568   1.565465365E-18
 104.080597   1.564304831E-18
 104.207626   1.563137059E-18
 104.334663   1.561963496E-18
 104.461693   1.560785178E-18
 104.58873   1.559604377E-18
 104.715759   1.55842399E-18
 104.842796   1.557246602E-18
 104.969826   1.556074694E-18
 105.096855   1.554912816E-18
 105.223892   1.553764069E-18
 105.350922   1.552633002E-18
 105.477959   1.551523029E-18
 105.604988   1.550437768E-18
 105.732025   1.549381355E-18
 105.859055   1.548356582E-18
 105.986084   1.54736655E-18
 106.113121   1.546411984E-18
 106.24015   1.545494744E-18
 106.367188   1.544614831E-18
 106.494217   1.543770796E-18
 106.621246   1.54296171E-18
 106.748283   1.542185091E-18
 106.875313   1.54143856E-18
 107.00235   1.540718293E-18
 107.129379   1.540020463E-18
 107.256416   1.539341968E-18
 107.383446   1.538678569E-18
 107.510475   1.538027474E-18
 107.637512   1.537384135E-18
 107.764542   1.536745138E-18
 107.891579   1.536107692E-18
 108.018608   1.535469108E-18
 108.145645   1.534826079E-18
 108.272675   1.534176225E-18
 108.399704   1.533516548E-18
 108.526741   1.532845498E-18
 108.65377   1.532160903E-18
 108.780807   1.531460901E-18
 108.907837   1.530743735E-18
 109.034874   1.530007855E-18
 109.161903   1.529251502E-18
 109.288933   1.528473952E-18
 109.41597   1.527673241E-18
 109.542999   1.526850093E-18
 109.670036   1.52600337E-18
 109.797066   1.525133797E-18
 109.924095   1.524241682E-18
 110.051132   1.523328371E-18
 110.178162   1.522395312E-18
 110.305199   1.521445088E-18
 110.432228   1.520480595E-18
 110.559265   1.519503798E-18
 110.686295   1.51851873E-18
 110.813324   1.517529422E-18
 110.940361   1.516538046E-18
 111.06739   1.515548738E-18
 111.194427   1.514564806E-18
 111.321457   1.513588423E-18
 111.448494   1.51262269E-18
 111.575523   1.511669881E-18
 111.702553   1.510732272E-18
 111.82959   1.509810896E-18
 111.956619   1.508907615E-18
 112.083656   1.508023566E-18
 112.210686   1.507160403E-18
 112.337723   1.506317712E-18
 112.464752   1.505497563E-18
 112.591782   1.504699644E-18
 112.718819   1.503924369E-18
 112.845848   1.503171738E-18
 112.972885   1.502441958E-18
 113.099915   1.501733994E-18
 113.226944   1.501046814E-18
 113.353981   1.500380107E-18
 113.48101   1.49973139E-18
 113.608047   1.499098597E-18
 113.735077   1.498480486E-18
 113.862114   1.497874473E-18
 113.989143   1.497278179E-18
 114.116173   1.496690054E-18
 114.24321   1.496108649E-18
 114.370239   1.495530864E-18
 114.497276   1.494955663E-18
 114.624306   1.49438191E-18
 114.751343   1.493808053E-18
 114.878372   1.493233576E-18
 115.005402   1.492657238E-18
 115.132439   1.492079349E-18
 115.259468   1.491498668E-18
 115.386505   1.490914782E-18
 115.513535   1.490327794E-18
 115.640572   1.489737497E-18
 115.767601   1.489143375E-18
 115.89463   1.488545427E-18
 116.021667   1.487944377E-18
 116.148697   1.487339914E-18
 116.275734   1.486732247E-18
 116.402763   1.486121064E-18
 116.529793   1.485507502E-18
 116.65683   1.48489146E-18
 116.783859   1.484272935E-18
 116.910896   1.483652136E-18
 117.037926   1.483029269E-18
 117.164963   1.482404955E-18
 117.291992   1.481779503E-18
 117.419022   1.481154154E-18
 117.546059   1.480529736E-18
 117.673088   1.47990718E-18
 117.800125   1.479288138E-18
 117.927155   1.478673646E-18
 118.054192   1.478064738E-18
 118.181221   1.477462861E-18
 118.30825   1.476870186E-18
 118.435287   1.47628723E-18
 118.562317   1.475714615E-18
 118.689354   1.475153579E-18
 118.816383   1.474603814E-18
 118.943413   1.47406594E-18
 119.07045   1.473539336E-18
 119.197479   1.473022969E-18
 119.324516   1.472516528E-18
 119.451546   1.472018255E-18
 119.578583   1.471526806E-18
 119.705612   1.471041665E-18
 119.832642   1.470560659E-18
 119.959679   1.470083066E-18
 120.086708   1.469608161E-18
 120.213745   1.469134496E-18