 -7.19999981   1.084537263E-17
 -7.07315636   1.084537346E-17
 -6.9463129   1.084537512E-17
 -6.81946898   1.08453776E-17
 -6.69262552   1.084538008E-17
 -6.56578159   1.084538256E-17
 -6.43893814   1.084538421E-17
 -6.31209469   1.084538587E-17
 -6.18525076   1.084538752E-17
 -6.05840731   1.084538835E-17
 -5.93156338   1.084539E-17
 -5.80471992   1.084539083E-17
 -5.67787647   1.084539249E-17
 -5.55103254   1.084539497E-17
 -5.42418909   1.084539828E-17
 -5.29734564   1.084540241E-17
 -5.17050171   1.084540655E-17
 -5.04365826   1.084541151E-17
 -4.91681433   1.084541565E-17
 -4.78997087   1.084542144E-17
 -4.66312742   1.08454264E-17
 -4.53628349   1.084543136E-17
 -4.40944004   1.084543467E-17
 -4.28259611   1.084543798E-17
 -4.15575266   1.084544129E-17
 -4.02890921   1.084544377E-17
 -3.90206528   1.084544708E-17
 -3.77522182   1.084545039E-17
 -3.64837813   1.084545535E-17
 -3.52153444   1.084546114E-17
 -3.39469075   1.084546859E-17
 -3.2678473   1.084547603E-17
 -3.14100361   1.084548265E-17
 -3.01415992   1.084549092E-17
 -2.88731623   1.084549836E-17
 -2.76047254   1.084550498E-17
 -2.63362908   1.084550995E-17
 -2.50678539   1.084551408E-17
 -2.3799417   1.084551822E-17
 -2.25309801   1.08455207E-17
 -2.12625432   1.084552401E-17
 -1.99941075   1.084552732E-17
 -1.87256718   1.084553145E-17
 -1.74572349   1.084553642E-17
 -1.61887991   1.084554303E-17
 -1.49203622   1.084555048E-17
 -1.36519253   1.084555792E-17
 -1.23834896   1.084556619E-17
 -1.11150527   1.084557364E-17
 -0.984661698   1.084557943E-17
 -0.857818007   1.084558522E-17
 -0.730974376   1.084558853E-17
 -0.604130745   1.084559018E-17
 -0.477287114   1.084559101E-17
 -0.350443482   1.084559184E-17
 -0.223599836   1.084559184E-17
 -9.675619751E-2   1.084559432E-17
 3.008744121E-2   1.084559763E-17
 0.156931072   1.084560342E-17
 0.283774734   1.084561086E-17
 0.410618365   1.084561996E-17
 0.537461996   1.084563154E-17
 0.664305627   1.084564312E-17
 0.791149259   1.084565553E-17
 0.91799289   1.084566794E-17
 1.04483652   1.084567952E-17
 1.17168021   1.08456911E-17
 1.29852378   1.084570102E-17
 1.42536747   1.084571012E-17
 1.55221117   1.08457184E-17
 1.67905474   1.084572667E-17
 1.80589843   1.084573494E-17
 1.932742   1.084574321E-17
 2.05958557   1.084575231E-17
 2.18642926   1.084576141E-17
 2.31327295   1.084577133E-17
 2.44011664   1.084578209E-17
 2.56696033   1.084579284E-17
 2.69380379   1.084580277E-17
 2.82064748   1.084581187E-17
 2.94749117   1.084582014E-17
 3.07433486   1.084582841E-17
 3.20117831   1.084583585E-17
 3.328022   1.08458433E-17
 3.45486569   1.084584992E-17
 3.58170938   1.084585736E-17
 3.70855308   1.084586481E-17
 3.83539653   1.084587308E-17
 3.96224022   1.084588218E-17
 4.08908367   1.084589293E-17
 4.2159276   1.084590368E-17
 4.34277105   1.084591444E-17
 4.46961498   1.084592602E-17
 4.59645844   1.084593677E-17
 4.72330189   1.084594752E-17
 4.85014582   1.084595745E-17
 4.97698927   1.08459682E-17
 5.1038332   1.084597896E-17
 5.23067665   1.084599054E-17
 5.3575201   1.084600212E-17
 5.48436403   1.084601453E-17
 5.61120749   1.084602859E-17
 5.73805141   1.084604348E-17
 5.86489487   1.084606002E-17
 5.99173832   1.084607822E-17
 6.11858225   1.084609807E-17
 6.2454257   1.084611792E-17
 6.37226963   1.084613778E-17
 6.49911308   1.084615763E-17
 6.62595654   1.084617665E-17
 6.75280046   1.084619568E-17
 6.87964392   1.08462147E-17
 7.00648737   1.08462329E-17
 7.1333313   1.084625193E-17
 7.26017475   1.084627095E-17
 7.38701868   1.084628998E-17
 7.51386213   1.084630983E-17
 7.64070559   1.084633134E-17
 7.76754951   1.084635284E-17
 7.89439297   1.084637352E-17
 8.02123642   1.084639337E-17
 8.14808083   1.084641157E-17
 8.27492428   1.084642646E-17
 8.40176773   1.084643804E-17
 8.52861118   1.084644466E-17
 8.65545464   1.084644714E-17
 8.78229809   1.084644466E-17
 8.90914249   1.084643804E-17
 9.03598595   1.084642977E-17
 9.1628294   1.084641902E-17
 9.28967285   1.084640744E-17
 9.4165163   1.084639586E-17
 9.54336071   1.084638593E-17
 9.67020416   1.084637683E-17
 9.79704762   1.084636856E-17
 9.92389107   1.084636194E-17
 10.0507345   1.084635532E-17
 10.1775789   1.084634871E-17
 10.3044224   1.084634126E-17
 10.4312658   1.084633299E-17
 10.5581093   1.084632306E-17
 10.6849527   1.084631148E-17
 10.8117971   1.084629825E-17
 10.9386406   1.084628419E-17
 11.065484   1.084627012E-17
 11.1923275   1.084625689E-17
 11.319171   1.084624365E-17
 11.4460154   1.084623373E-17
 11.5728588   1.084622546E-17
 11.6997023   1.084621884E-17
 11.8265457   1.084621636E-17
 11.9533892   1.084621553E-17
 12.0802336   1.084621636E-17
 12.207077   1.084622049E-17
 12.3339205   1.084622711E-17
 12.4607639   1.084623538E-17
 12.5876074   1.084624614E-17
 12.7144518   1.084625772E-17
 12.8412952   1.084627178E-17
 12.9681387   1.08462875E-17
 13.0949821   1.084630404E-17
 13.2218256   1.084632141E-17
 13.34867   1.084633961E-17
 13.4755135   1.084635781E-17
 13.6023569   1.084637518E-17
 13.7292004   1.084639172E-17
 13.8560438   1.084640578E-17
 13.9828882   1.084641819E-17
 14.1097317   1.084642894E-17
 14.2365751   1.084643804E-17
 14.3634186   1.084644466E-17
 14.490262   1.084645045E-17
 14.6171055   1.084645541E-17
 14.7439499   1.084646038E-17
 14.8707933   1.084646368E-17
 14.9976368   1.084646865E-17
 15.1244802   1.084647444E-17
 15.2513237   1.084648106E-17
 15.3781681   1.084648767E-17
 15.5050116   1.084649512E-17
 15.631855   1.084650174E-17
 15.7586985   1.084650918E-17
 15.8855419   1.08465158E-17
 16.0123863   1.084652159E-17
 16.1392288   1.084652738E-17
 16.2660732   1.084653234E-17
 16.3929176   1.084653896E-17
 16.5197601   1.08465464E-17
 16.6466045   1.084655716E-17
 16.773447   1.084657039E-17
 16.9002914   1.084658776E-17
 17.0271358   1.084660927E-17
 17.1539783   1.084663408E-17
 17.2808228   1.084666221E-17
 17.4076653   1.084669116E-17
 17.5345097   1.084672177E-17
 17.6613541   1.084675237E-17
 17.7881966   1.08467838E-17
 17.915041   1.084681441E-17
 18.0418835   1.084684419E-17
 18.1687279   1.084687397E-17
 18.2955723   1.084690292E-17
 18.4224148   1.084693187E-17
 18.5492592   1.084696082E-17
 18.6761017   1.084698977E-17
 18.8029461   1.084701955E-17
 18.9297905   1.08470485E-17
 19.056633   1.084707663E-17
 19.1834774   1.084710392E-17
 19.3103199   1.084712957E-17
 19.4371643   1.08471519E-17
 19.5640087   1.084717092E-17
 19.6908512   1.084718664E-17
 19.8176956   1.084719988E-17
 19.9445381   1.084721063E-17
 20.0713825   1.08472189E-17
 20.1982269   1.084722552E-17
 20.3250694   1.084723214E-17
 20.4519138   1.084723793E-17
 20.5787563   1.084724454E-17
 20.7056007   1.084725116E-17
 20.8324451   1.084725778E-17
 20.9592876   1.08472644E-17
 21.086132   1.084727019E-17
 21.2129745   1.084727349E-17
 21.339819   1.084727598E-17
 21.4666634   1.084727763E-17
 21.5935059   1.08472768E-17
 21.7203503   1.084727515E-17
 21.8471928   1.084727267E-17
 21.9740372   1.084727019E-17
 22.1008816   1.084726853E-17
 22.2277241   1.084726853E-17
 22.3545685   1.084727019E-17
 22.481411   1.084727349E-17
 22.6082554   1.084727928E-17
 22.7350998   1.08472859E-17
 22.8619423   1.084729335E-17
 22.9887867   1.084730162E-17
 23.1156292   1.084730824E-17
 23.2424736   1.084731485E-17
 23.369318   1.084731899E-17
 23.4961605   1.08473223E-17
 23.6230049   1.084732395E-17
 23.7498474   1.084732395E-17
 23.8766918   1.08473223E-17
 24.0035343   1.084731899E-17
 24.1303787   1.084731485E-17
 24.2572231   1.084730989E-17
 24.3840656   1.084730493E-17
 24.51091   1.084729996E-17
 24.6377525   1.084729335E-17
 24.7645969   1.08472859E-17
 24.8914413   1.08472768E-17
 25.0182838   1.084726605E-17
 25.1451283   1.084725282E-17
 25.2719707   1.084723627E-17
 25.3988152   1.084721807E-17
 25.5256596   1.084719905E-17
 25.6525021   1.084718002E-17
 25.7793465   1.084716265E-17
 25.906189   1.084714776E-17
 26.0330334   1.084713701E-17
 26.1598778   1.084712957E-17
 26.2867203   1.084712708E-17
 26.4135647   1.084712957E-17
 26.5404072   1.084713536E-17
 26.6672516   1.084714363E-17
 26.794096   1.084715521E-17
 26.9209385   1.084716762E-17
 27.0477829   1.084718085E-17
 27.1746254   1.084719574E-17
 27.3014698   1.084721146E-17
 27.4283142   1.084723048E-17
 27.5551567   1.084725199E-17
 27.6820011   1.08472768E-17
 27.8088436   1.084730658E-17
 27.935688   1.084733884E-17
 28.0625324   1.084737441E-17
 28.1893749   1.084741163E-17
 28.3162193   1.084744803E-17
 28.4430618   1.084748443E-17
 28.5699062   1.084751834E-17
 28.6967506   1.084754812E-17
 28.8235931   1.084757459E-17
 28.9504375   1.084759692E-17
 29.07728   1.084761677E-17
 29.2041245   1.084763497E-17
 29.3309689   1.084765234E-17
 29.4578114   1.084767054E-17
 29.5846558   1.084768957E-17
 29.7114983   1.084771025E-17
 29.8383427   1.084773341E-17
 29.9651871   1.084775905E-17
 30.0920296   1.084778469E-17
 30.218874   1.084781282E-17
 30.3457165   1.084784094E-17
 30.4725609   1.084786824E-17
 30.5994053   1.084789636E-17
 30.7262478   1.084792449E-17
 30.8530922   1.084795261E-17
 30.9799347   1.084798073E-17
 31.1067791   1.084800886E-17
 31.2336235   1.084803946E-17
 31.360466   1.084807007E-17
 31.4873104   1.084810233E-17
 31.6141529   1.084813542E-17
 31.7409973   1.084817099E-17
 31.8678417   1.084820573E-17
 31.9946842   1.08482413E-17
 32.1215286   1.084827521E-17
 32.2483711   1.084830747E-17
 32.3752136   1.08483389E-17
 32.5020599   1.084836703E-17
 32.6289024   1.084839432E-17
 32.7557449   1.084841914E-17
 32.8825912   1.08484423E-17
 33.0094337   1.084846463E-17
 33.1362762   1.084848697E-17
 33.2631226   1.08485093E-17
 33.3899651   1.084853246E-17
 33.5168076   1.084855562E-17
 33.6436501   1.084857879E-17
 33.7704964   1.084860195E-17
 33.8973389   1.084862345E-17
 34.0241814   1.084864248E-17
 34.1510277   1.084865902E-17
 34.2778702   1.084867226E-17
 34.4047127   1.084868218E-17
 34.531559   1.084868797E-17
 34.6584015   1.084869211E-17
 34.785244   1.084869376E-17
 34.9120865   1.084869625E-17
 35.0389328   1.084870038E-17
 35.1657753   1.0848707E-17
 35.2926178   1.084871692E-17
 35.4194641   1.084873099E-17
 35.5463066   1.084874918E-17
 35.6731491   1.084877235E-17
 35.7999954   1.084879799E-17
 35.9268379   1.084882611E-17
 36.0536804   1.084885506E-17
 36.1805229   1.084888484E-17
 36.3073692   1.084891545E-17
 36.4342117   1.084894523E-17
 36.5610542   1.084897583E-17
 36.6879005   1.084900727E-17
 36.814743   1.084903953E-17
 36.9415855   1.084907179E-17
 37.0684319   1.084910487E-17
 37.1952744   1.084913879E-17
 37.3221169   1.08491727E-17
 37.4489594   1.084920579E-17
 37.5758057   1.084923722E-17
 37.7026482   1.084926617E-17
 37.8294907   1.084929264E-17
 37.956337   1.084931746E-17
 38.0831795   1.084934062E-17
 38.210022   1.084936378E-17
 38.3368683   1.084938611E-17
 38.4637108   1.084940927E-17
 38.5905533   1.084943326E-17
 38.7173958   1.084945891E-17
 38.8442421   1.084948538E-17
 38.9710846   1.084951267E-17
 39.0979271   1.084953997E-17
 39.2247734   1.084956561E-17
 39.3516159   1.084958877E-17
 39.4784584   1.084961028E-17
 39.6053047   1.084962765E-17
 39.7321472   1.084964254E-17
 39.8589897   1.084965577E-17
 39.9858322   1.084966736E-17
 40.1126785   1.084967894E-17
 40.239521   1.084969134E-17
 40.3663635   1.084970541E-17
 40.4932098   1.084972195E-17
 40.6200523   1.084974097E-17
 40.7468948   1.084976248E-17
 40.8737411   1.084978647E-17
 41.0005836   1.084981211E-17
 41.1274261   1.084983941E-17
 41.2542686   1.084986753E-17
 41.381115   1.084989731E-17
 41.5079575   1.084992709E-17
 41.6348   1.08499577E-17
 41.7616463   1.084998913E-17
 41.8884888   1.085002139E-17
 42.0153313   1.08500553E-17
 42.1421776   1.085009087E-17
 42.2690201   1.085012727E-17
 42.3958626   1.085016366E-17
 42.5227051   1.085020089E-17
 42.6495514   1.085023811E-17
 42.7763939   1.085027533E-17
 42.9032364   1.08503109E-17
 43.0300827   1.085034482E-17
 43.1569252   1.08503779E-17
 43.2837677   1.085040934E-17
 43.4106102   1.085043911E-17
 43.5374565   1.085046807E-17
 43.664299   1.085049619E-17
 43.7911415   1.085052349E-17
 43.9179878   1.085055078E-17
 44.0448303   1.085057808E-17
 44.1716728   1.085060538E-17
 44.2985191   1.085063268E-17
 44.4253616   1.085065914E-17
 44.5522041   1.085068396E-17
 44.6790466   1.085070712E-17
 44.8058929   1.085072946E-17
 44.9327354   1.085074931E-17
 45.0595779   1.085076751E-17
 45.1864243   1.08507857E-17
 45.3132668   1.085080225E-17
 45.4401093   1.085082045E-17
 45.5669556   1.085083947E-17
 45.6937981   1.085085932E-17
 45.8206406   1.085088166E-17
 45.9474831   1.085090399E-17
 46.0743294   1.085092881E-17
 46.2011719   1.085095362E-17
 46.3280144   1.085098009E-17
 46.4548607   1.085100656E-17
 46.5817032   1.085103386E-17
 46.7085457   1.085106198E-17
 46.835392   1.085109093E-17
 46.9622345   1.085112154E-17
 47.089077   1.085115297E-17
 47.2159195   1.085118689E-17
 47.3427658   1.085122245E-17
 47.4696083   1.085125968E-17
 47.5964508   1.085129856E-17
 47.7232971   1.085133826E-17
 47.8501396   1.085137879E-17
 47.9769821   1.085142015E-17
 48.1038284   1.085145986E-17
 48.2306709   1.085149873E-17
 48.3575134   1.085153513E-17
 48.4843559   1.08515707E-17
 48.6112022   1.085160379E-17
 48.7380447   1.085163439E-17
 48.8648872   1.085166417E-17
 48.9917336   1.085169229E-17
 49.118576   1.085172042E-17
 49.2454185   1.085174937E-17
 49.3722649   1.085177832E-17
 49.4991074   1.085180975E-17
 49.6259499   1.085184284E-17
 49.7527924   1.085187758E-17
 49.8796387   1.08519148E-17
 50.0064812   1.085195286E-17
 50.1333237   1.085199256E-17
 50.26017   1.085203309E-17
 50.3870125   1.085207362E-17
 50.513855   1.085211498E-17
 50.6407013   1.085215551E-17
 50.7675438   1.085219687E-17
 50.8943863   1.085223823E-17
 51.0212288   1.085227959E-17
 51.1480751   1.08523193E-17
 51.2749176   1.085235983E-17
 51.4017601   1.085239953E-17
 51.5286064   1.085243676E-17
 51.6554489   1.085247398E-17
 51.7822914   1.085250872E-17
 51.9091377   1.085254181E-17
 52.0359802   1.08525749E-17
 52.1628227   1.085260716E-17
 52.2896652   1.085263859E-17
 52.4165115   1.085267168E-17
 52.543354   1.085270559E-17
 52.6701965   1.085274199E-17
 52.7970428   1.085278086E-17
 52.9238853   1.085282222E-17
 53.0507278   1.085286606E-17
 53.1775742   1.085291073E-17
 53.3044167   1.085295623E-17
 53.4312592   1.085300089E-17
 53.5581017   1.085304391E-17
 53.684948   1.085308609E-17
 53.8117905   1.085312497E-17
 53.938633   1.085316137E-17
 54.0654793   1.085319528E-17
 54.1923218   1.085322754E-17
 54.3191643   1.085325897E-17
 54.4460106   1.085328958E-17
 54.5728531   1.085332018E-17
 54.6996956   1.085335079E-17
 54.8265381   1.08533814E-17
 54.9533844   1.085341283E-17
 55.0802269   1.085344343E-17
 55.2070694   1.085347487E-17
 55.3339157   1.08535063E-17
 55.4607582   1.085353691E-17
 55.5876007   1.085356834E-17
 55.7144432   1.08536006E-17
 55.8412895   1.085363369E-17
 55.968132   1.085366843E-17
 56.0949745   1.085370482E-17
 56.2218208   1.085374287E-17
 56.3486633   1.085378423E-17
 56.4755058   1.085382642E-17
 56.6023521   1.085387026E-17
 56.7291946   1.085391493E-17
 56.8560371   1.085395877E-17
 56.9828796   1.085400095E-17
 57.109726   1.085403983E-17
 57.2365685   1.08540754E-17
 57.3634109   1.085410683E-17
 57.4902573   1.085413413E-17
 57.6170998   1.085415812E-17
 57.7439423   1.085418045E-17
 57.8707886   1.085419948E-17
 57.9976311   1.085421768E-17
 58.1244736   1.085423587E-17
 58.2513161   1.085425407E-17
 58.3781624   1.085427144E-17
 58.5050049   1.085428881E-17
 58.6318474   1.085430618E-17
 58.7586937   1.085432355E-17
 58.8855362   1.085433927E-17
 59.0123787   1.085435416E-17
 59.139225   1.085436657E-17
 59.2660675   1.085437732E-17
 59.39291   1.085438559E-17
 59.5197525   1.085439221E-17
 59.6465988   1.085439717E-17
 59.7734413   1.085440131E-17
 59.9002838   1.085440545E-17
 60.0271301   1.085440958E-17
 60.1539726   1.085441537E-17
 60.2808151   1.085442199E-17
 60.4076614   1.085443109E-17
 60.5345039   1.085444267E-17
 60.6613464   1.085445756E-17
 60.7881889   1.085447576E-17
 60.9150352   1.085449726E-17
 61.0418777   1.085452291E-17
 61.1687202   1.085455186E-17
 61.2955666   1.085458494E-17
 61.4224091   1.085462217E-17
 61.5492516   1.085466353E-17
 61.6760979   1.085470902E-17
 61.8029404   1.085475948E-17
 61.9297829   1.08548149E-17
 62.0566254   1.085487446E-17
 62.1834717   1.085493898E-17
 62.3103142   1.085500763E-17
 62.4371567   1.08550796E-17
 62.564003   1.085515487E-17
 62.6908455   1.085523345E-17
 62.817688   1.085531369E-17
 62.9445343   1.085539393E-17
 63.0713768   1.085547499E-17
 63.1982193   1.085555523E-17
 63.3250618   1.085563298E-17
 63.4519081   1.085570826E-17
 63.5787506   1.085577857E-17
 63.7055931   1.085584391E-17
 63.8324394   1.085590099E-17
 63.9592819   1.085594896E-17
 64.0861282   1.085598702E-17
 64.2129669   1.085601183E-17
 64.3398132   1.085602341E-17
 64.4666595   1.08560201E-17
 64.5934982   1.085600108E-17
 64.7203445   1.085596551E-17
 64.8471909   1.085591257E-17
 64.9740295   1.085584226E-17
 65.1008759   1.085575375E-17
 65.2277145   1.08556487E-17
 65.3545609   1.085552545E-17
 65.4814072   1.085538483E-17
 65.6082458   1.085522601E-17
 65.7350922   1.085504899E-17
 65.8619385   1.085485212E-17
 65.9887772   1.085463623E-17
 66.1156235   1.085440048E-17
 66.2424698   1.085414571E-17
 66.3693085   1.085387191E-17
 66.4961548   1.085357909E-17
 66.6230011   1.085327055E-17
 66.7498398   1.085294547E-17
 66.8766861   1.08526055E-17
 67.0035324   1.085225229E-17
 67.1303711   1.085188503E-17
 67.2572174   1.085150452E-17
 67.3840637   1.085111244E-17
 67.5109024   1.085070629E-17
 67.6377487   1.085028691E-17
 67.7645874   1.084985347E-17
 67.8914337   1.084940514E-17
 68.01828   1.084894275E-17
 68.1451187   1.084846629E-17
 68.271965   1.084797743E-17
 68.3988113   1.084747615E-17
 68.52565   1.084696247E-17
 68.6524963   1.084643887E-17
 68.7793427   1.084590534E-17
 68.9061813   1.084536188E-17
 69.0330276   1.08448085E-17
 69.159874   1.084424519E-17
 69.2867126   1.08436703E-17
 69.413559   1.084308465E-17
 69.5404053   1.084248577E-17
 69.667244   1.084187531E-17
 69.7940903   1.084125079E-17
 69.920929   1.084061552E-17
 70.0477753   1.083996866E-17
 70.1746216   1.083931188E-17
 70.3014603   1.083864517E-17
 70.4283066   1.083797185E-17
 70.5551529   1.083729191E-17
 70.6819916   1.083660617E-17
 70.8088379   1.083591796E-17
 70.9356842   1.083522478E-17
 71.0625229   1.083452912E-17
 71.1893692   1.083383181E-17
 71.3162155   1.083313119E-17
 71.4430542   1.083242974E-17
 71.5699005   1.083172663E-17
 71.6967468   1.083102436E-17
 71.8235855   1.083032291E-17
 71.9504318   1.082962477E-17
 72.0772781   1.082892994E-17
 72.2041168   1.08282409E-17
 72.3309631   1.082755764E-17
 72.4578018   1.082688101E-17
 72.5846481   1.082621265E-17
 72.7114944   1.082555173E-17
 72.8383331   1.082489743E-17
 72.9651794   1.082424975E-17
 73.0920258   1.082360951E-17
 73.2188644   1.082297341E-17
 73.3457108   1.08223431E-17
 73.4725571   1.08217161E-17
 73.5993958   1.082109488E-17
 73.7262421   1.082047698E-17
 73.8530884   1.081986404E-17
 73.9799271   1.081925523E-17
 74.1067734   1.081865056E-17
 74.2336197   1.081805086E-17
 74.3604584   1.081745446E-17
 74.4873047   1.081686054E-17
 74.614151   1.081626828E-17
 74.7409897   1.08156752E-17
 74.867836   1.081507963E-17
 74.9946747   1.081448075E-17
 75.121521   1.08138769E-17
 75.2483673   1.081326727E-17
 75.375206   1.081265102E-17
 75.5020523   1.081202981E-17
 75.6288986   1.081140446E-17
 75.7557373   1.08107758E-17
 75.8825836   1.081014467E-17
 76.0094299   1.080951518E-17
 76.1362686   1.080888735E-17
 76.2631149   1.080826118E-17
 76.3899612   1.080763996E-17
 76.5167999   1.08070204E-17
 76.6436462   1.080640333E-17
 76.7704926   1.080578542E-17
 76.8973312   1.080516669E-17
 77.0241776   1.080454465E-17
 77.1510239   1.0803916E-17
 77.2778625   1.080328238E-17
 77.4047089   1.080264048E-17
 77.5315475   1.08019928E-17
 77.6583939   1.080133933E-17
 77.7852402   1.080068172E-17
 77.9120789   1.08000208E-17
 78.0389252   1.07993574E-17
 78.1657715   1.0798694E-17
 78.2926102   1.079802895E-17
 78.4194565   1.079736307E-17
 78.5463028   1.079669554E-17
 78.6731415   1.079602387E-17
 78.7999878   1.079534889E-17
 78.9268341   1.079466729E-17
 79.0536728   1.079397907E-17
 79.1805191   1.079328424E-17
 79.3073654   1.079258279E-17
 79.4342041   1.07918739E-17
 79.5610504   1.079116004E-17
 79.6878967   1.079044205E-17
 79.8147354   1.078971909E-17
 79.9415817   1.078899118E-17
 80.0684204   1.078825912E-17
 80.1952667   1.078752045E-17
 80.322113   1.078677516E-17
 80.4489517   1.078602242E-17
 80.575798   1.078526225E-17
 80.7026443   1.078449379E-17
 80.829483   1.078372038E-17
 80.9563293   1.078294283E-17
 81.0831757   1.078216445E-17
 81.2100143   1.078138856E-17
 81.3368607   1.078061763E-17
 81.463707   1.077985331E-17
 81.5905457   1.07790981E-17
 81.717392   1.077835198E-17
 81.8442383   1.077761496E-17
 81.971077   1.077688704E-17
 82.0979233   1.077616491E-17
 82.224762   1.077545023E-17
 82.3516083   1.077473885E-17
 82.4784546   1.077403327E-17
 82.6052933   1.077333099E-17
 82.7321396   1.077263451E-17
 82.8589859   1.077194464E-17
 82.9858246   1.077126304E-17
 83.1126709   1.077059054E-17
 83.2395172   1.076992714E-17
 83.3663559   1.076927367E-17
 83.4932022   1.076863178E-17
 83.6200485   1.076799981E-17
 83.7468872   1.07673786E-17
 83.8737335   1.076676649E-17
 84.0005798   1.076616347E-17
 84.1274185   1.076556873E-17
 84.2542648   1.076498226E-17
 84.3811111   1.076440406E-17
 84.5079498   1.076383248E-17
 84.6347961   1.076326834E-17
 84.7616348   1.076271165E-17
 84.8884811   1.07621624E-17
 85.0153275   1.076161977E-17
 85.1421661   1.076108376E-17
 85.2690125   1.076055353E-17
 85.3958588   1.076002993E-17
 85.5226974   1.075951211E-17
 85.6495438   1.075899926E-17
 85.7763901   1.075849385E-17
 85.9032288   1.075799506E-17
 86.0300751   1.075750206E-17
 86.1569214   1.075701568E-17
 86.2837601   1.075653592E-17
 86.4106064   1.075606112E-17
 86.5374527   1.07555921E-17
 86.6642914   1.075512723E-17
 86.7911377   1.075466401E-17
 86.917984   1.07542041E-17
 87.0448227   1.075374418E-17
 87.171669   1.075328427E-17
 87.2985077   1.075282188E-17
 87.425354   1.0752357E-17
 87.5522003   1.075188716E-17
 87.679039   1.075141071E-17
 87.8058853   1.075092846E-17
 87.9327316   1.075043546E-17
 88.0595703   1.074993253E-17
 88.1864166   1.07494172E-17
 88.3132629   1.074888863E-17
 88.4401016   1.074834683E-17
 88.5669479   1.074778848E-17
 88.6937943   1.074721525E-17
 88.8206329   1.074662464E-17
 88.9474792   1.074601749E-17
 89.0743256   1.074539297E-17
 89.2011642   1.074475025E-17
 89.3280106   1.074408768E-17
 89.4548569   1.074340525E-17
 89.5816956   1.074270215E-17
 89.7085419   1.074197671E-17
 89.8353806   1.074122811E-17
 89.9622269   1.074045718E-17
 90.0890732   1.073966391E-17
 90.2159119   1.073884914E-17
 90.3427582   1.073801286E-17
 90.4696045   1.07371559E-17
 90.5964432   1.073627909E-17
 90.7232895   1.07353816E-17
 90.8501358   1.073446591E-17
 90.9769745   1.073353037E-17
 91.1038208   1.073257663E-17
 91.2306671   1.073160304E-17
 91.3575058   1.073061125E-17
 91.4843521   1.072960126E-17
 91.6111984   1.07285739E-17
 91.7380371   1.072753E-17
 91.8648834   1.072647121E-17
 91.9917297   1.072539836E-17
 92.1185684   1.07243131E-17
 92.2454147   1.072321543E-17
 92.3722534   1.072210535E-17
 92.4990997   1.072098535E-17
 92.625946   1.071985542E-17
 92.7527847   1.071871474E-17
 92.879631   1.071756496E-17
 93.0064774   1.07164069E-17
 93.133316   1.071524058E-17
 93.2601624   1.071406846E-17
 93.3870087   1.071289221E-17
 93.5138474   1.071171265E-17
 93.6406937   1.071053144E-17
 93.76754   1.070935105E-17
 93.8943787   1.070817067E-17
 94.021225   1.070699193E-17
 94.1480713   1.070581403E-17
 94.27491   1.070463695E-17
 94.4017563   1.07034607E-17
 94.528595   1.070228528E-17
 94.6554413   1.070111151E-17
 94.7822876   1.069993939E-17
 94.9091263   1.069877141E-17
 95.0359726   1.069760922E-17
 95.1628189   1.069645365E-17
 95.2896576   1.069530635E-17
 95.4165039   1.069416733E-17
 95.5433502   1.069303822E-17
 95.6701889   1.069191657E-17
 95.7970352   1.069080153E-17
 95.9238815   1.068969062E-17
 96.0507202   1.068858138E-17
 96.1775665   1.068747295E-17
 96.3044128   1.068636288E-17
 96.4312515   1.068525115E-17
 96.5580978   1.068413693E-17
 96.6849442   1.068302024E-17
 96.8117828   1.068190355E-17
 96.9386292   1.068078933E-17
 97.0654678   1.067967678E-17
 97.1923141   1.067856918E-17
 97.3191605   1.067746655E-17
 97.4459991   1.067636888E-17
 97.5728455   1.067527618E-17
 97.6996918   1.067418843E-17
 97.8265305   1.067310317E-17
 97.9533768   1.067202039E-17
 98.0802231   1.067093927E-17
 98.2070618   1.066986062E-17
 98.3339081   1.066878446E-17
 98.4607544   1.066771161E-17
 98.5875931   1.066664455E-17
 98.7144394   1.066558245E-17
 98.8412857   1.066452696E-17
 98.9681244   1.066347975E-17
 99.0949707   1.066243833E-17
 99.221817   1.066140353E-17
 99.3486557   1.066037369E-17
 99.475502   1.065934799E-17
 99.6023407   1.065832311E-17
 99.729187   1.065729823E-17
 99.8560333   1.065627087E-17
 99.982872   1.065524186E-17
 100.109718   1.065420789E-17
 100.236565   1.06531706E-17
 100.363403   1.065212918E-17
 100.49025   1.065108445E-17
 100.617096   1.065003641E-17
 100.743935   1.064898424E-17
 100.870781   1.064792793E-17
 100.997627   1.064686831E-17
 101.124466   1.064580208E-17
 101.251312   1.064472922E-17
 101.378159   1.064364727E-17
 101.504997   1.064255291E-17
 101.631844   1.064144449E-17
 101.75869   1.06403187E-17
 101.885529   1.063917553E-17
 102.012375   1.063801169E-17
 102.139214   1.063682717E-17
 102.26606   1.063562196E-17
 102.392906   1.063439856E-17
 102.519745   1.063315614E-17
 102.646591   1.0631898E-17
 102.773438   1.063062414E-17
 102.900276   1.062933787E-17
 103.027122   1.06280392E-17
 103.153969   1.062672977E-17
 103.280807   1.062541042E-17
 103.407654   1.062408197E-17
 103.5345   1.062274442E-17
 103.661339   1.062139859E-17
 103.788185   1.062004615E-17
 103.915031   1.061868875E-17
 104.04187   1.061732886E-17
 104.168716   1.061596733E-17
 104.295563   1.061460909E-17
 104.422401   1.061325665E-17
 104.549248   1.061191497E-17
 104.676086   1.061058486E-17
 104.802933   1.06092713E-17
 104.929779   1.060797511E-17
 105.056618   1.060669959E-17
 105.183464   1.060544559E-17
 105.31031   1.060421392E-17
 105.437149   1.060300623E-17
 105.563995   1.060182254E-17
 105.690842   1.060066366E-17
 105.81768   1.059953125E-17
 105.944527   1.059842613E-17
 106.071373   1.059734997E-17
 106.198212   1.059630276E-17
 106.325058   1.059528533E-17
 106.451904   1.05942985E-17
 106.578743   1.05933398E-17
 106.705589   1.059240839E-17
 106.832428   1.05915018E-17
 106.959274   1.059061838E-17
 107.086121   1.058975149E-17
 107.212959   1.058890115E-17
 107.339806   1.058806239E-17
 107.466652   1.058723438E-17
 107.593491   1.058641299E-17
 107.720337   1.058559822E-17
 107.847183   1.058478675E-17
 107.974022   1.058397942E-17
 108.100868   1.058317375E-17
 108.227715   1.058237056E-17
 108.354553   1.058156737E-17
 108.4814   1.0580765E-17
 108.608246   1.057995933E-17
 108.735085   1.057915034E-17
 108.861931   1.05783364E-17
 108.988777   1.057751418E-17
 109.115616   1.057668452E-17
 109.242462   1.05758441E-17
 109.369301   1.057499293E-17
 109.496147   1.057413184E-17
 109.622993   1.057326164E-17
 109.749832   1.057238152E-17
 109.876678   1.057149396E-17
 110.003525   1.057060226E-17
 110.130363   1.056970642E-17
 110.25721   1.056880893E-17
 110.384056   1.056791144E-17
 110.510895   1.056701643E-17
 110.637741   1.056612308E-17
 110.764587   1.056523386E-17
 110.891426   1.056434877E-17
 111.018272   1.056346948E-17
 111.145119   1.056259515E-17
 111.271957   1.056172744E-17
 111.398804   1.056086717E-17
 111.52565   1.056001435E-17
 111.652489   1.055917228E-17
 111.779335   1.055833931E-17
 111.906174   1.055751709E-17
 112.03302   1.055670562E-17
 112.159866   1.055590491E-17
 112.286705   1.055511413E-17
 112.413551   1.05543341E-17
 112.540398   1.055356317E-17
 112.667236   1.055279885E-17
 112.794083   1.055204198E-17
 112.920929   1.05512909E-17
 113.047768   1.055054561E-17
 113.174614   1.054980694E-17
 113.30146   1.054907488E-17
 113.428299   1.054835027E-17
 113.555145   1.054763642E-17
 113.681992   1.054693414E-17
 113.80883   1.054624593E-17
 113.935677   1.054557177E-17
 114.062523   1.054491251E-17
 114.189362   1.054426896E-17
 114.316208   1.054363948E-17
 114.443047   1.054302323E-17
 114.569893   1.054241939E-17
 114.696739   1.054182713E-17
 114.823578   1.054124314E-17
 114.950424   1.054066825E-17
 115.077271   1.054009997E-17
 115.204109   1.053953915E-17
 115.330956   1.053898493E-17
 115.457802   1.053843734E-17
 115.584641   1.053789719E-17
 115.711487   1.053736283E-17
 115.838333   1.053683509E-17
 115.965172   1.053631397E-17
 116.092018   1.053579615E-17
 116.218864   1.05352833E-17
 116.345703   1.053477293E-17
 116.472549   1.053426504E-17
 116.599396   1.053375633E-17
 116.726234   1.053324761E-17
 116.853081   1.053273889E-17
 116.979919   1.053222852E-17
 117.106766   1.053171898E-17
 117.233612   1.053120778E-17
 117.360451   1.053069824E-17
 117.487297   1.053018952E-17
 117.614143   1.052968163E-17
 117.740982   1.05291754E-17
 117.867828   1.052866917E-17
 117.994675   1.052816376E-17
 118.121513   1.052766E-17
 118.24836   1.052715625E-17
 118.375206   1.052665333E-17
 118.502045   1.052615288E-17
 118.628891   1.052565492E-17
 118.755737   1.052516027E-17
 118.882576   1.052466975E-17
 119.009422   1.052418419E-17
 119.136261   1.052370443E-17
 119.263107   1.052323293E-17
 119.389954   1.052276806E-17
 119.516792   1.052231063E-17
 119.643639   1.052186064E-17
 119.770485   1.052141562E-17
 119.897324   1.052097639E-17
 120.02417   1.052053963E-17