 -7.19999981   4.896575873E-18
 -7.07315636   4.896573805E-18
 -6.9463129   4.896569255E-18
 -6.81946898   4.896560983E-18
 -6.69262552   4.89655023E-18
 -6.56578159   4.896536168E-18
 -6.43893814   4.896520451E-18
 -6.31209469   4.896503494E-18
 -6.18525076   4.896486951E-18
 -6.05840731   4.896471648E-18
 -5.93156338   4.896457999E-18
 -5.80471992   4.896445592E-18
 -5.67787647   4.896434425E-18
 -5.55103254   4.896423671E-18
 -5.42418909   4.896411677E-18
 -5.29734564   4.896398856E-18
 -5.17050171   4.896383139E-18
 -5.04365826   4.896366182E-18
 -4.91681433   4.896349225E-18
 -4.78997087   4.896333922E-18
 -4.66312742   4.896323169E-18
 -4.53628349   4.896319033E-18
 -4.40944004   4.89632565E-18
 -4.28259611   4.896344262E-18
 -4.15575266   4.896375695E-18
 -4.02890921   4.896419535E-18
 -3.90206528   4.896474129E-18
 -3.77522182   4.896535754E-18
 -3.64837813   4.896600688E-18
 -3.52153444   4.896664381E-18
 -3.39469075   4.896723524E-18
 -3.2678473   4.896774396E-18
 -3.14100361   4.896814514E-18
 -3.01415992   4.896842225E-18
 -2.88731623   4.89685546E-18
 -2.76047254   4.896851737E-18
 -2.63362908   4.896828576E-18
 -2.50678539   4.896782668E-18
 -2.3799417   4.896709462E-18
 -2.25309801   4.896603169E-18
 -2.12625432   4.896460481E-18
 -1.99941075   4.896274365E-18
 -1.87256718   4.896040687E-18
 -1.74572349   4.895754482E-18
 -1.61887991   4.89541327E-18
 -1.49203622   4.895013328E-18
 -1.36519253   4.894552175E-18
 -1.23834896   4.894030224E-18
 -1.11150527   4.893446648E-18
 -0.984661698   4.892802688E-18
 -0.857818007   4.892101239E-18
 -0.730974376   4.891343128E-18
 -0.604130745   4.890532905E-18
 -0.477287114   4.889675532E-18
 -0.350443482   4.888775146E-18
 -0.223599836   4.887838777E-18
 -9.675619751E-2   4.886873871E-18
 3.008744121E-2   4.885888285E-18
 0.156931072   4.884891946E-18
 0.283774734   4.88389478E-18
 0.410618365   4.882905472E-18
 0.537461996   4.881934362E-18
 0.664305627   4.880989308E-18
 0.791149259   4.880078169E-18
 0.91799289   4.879209216E-18
 1.04483652   4.878388239E-18
 1.17168021   4.877621856E-18
 1.29852378   4.876915444E-18
 1.42536747   4.876274379E-18
 1.55221117   4.87570197E-18
 1.67905474   4.875199871E-18
 1.80589843   4.874769737E-18
 1.932742   4.874409086E-18
 2.05958557   4.87411461E-18
 2.18642926   4.873880932E-18
 2.31327295   4.873700193E-18
 2.44011664   4.873564121E-18
 2.56696033   4.873461551E-18
 2.69380379   4.873383796E-18
 2.82064748   4.873320103E-18
 2.94749117   4.873261373E-18
 3.07433486   4.873200989E-18
 3.20117831   4.87313316E-18
 3.328022   4.873052924E-18
 3.45486569   4.872959866E-18
 3.58170938   4.872853573E-18
 3.70855308   4.872733632E-18
 3.83539653   4.872602524E-18
 3.96224022   4.872460249E-18
 4.08908367   4.872308048E-18
 4.2159276   4.872145507E-18
 4.34277105   4.871972212E-18
 4.46961498   4.87178651E-18
 4.59645844   4.871587573E-18
 4.72330189   4.871375402E-18
 4.85014582   4.871149995E-18
 4.97698927   4.870913421E-18
 5.1038332   4.870668989E-18
 5.23067665   4.870420835E-18
 5.3575201   4.870175576E-18
 5.48436403   4.86993983E-18
 5.61120749   4.869718972E-18
 5.73805141   4.869518795E-18
 5.86489487   4.869341778E-18
 5.99173832   4.869187095E-18
 6.11858225   4.869051024E-18
 6.2454257   4.868927774E-18
 6.37226963   4.868807419E-18
 6.49911308   4.86867962E-18
 6.62595654   4.868534863E-18
 6.75280046   4.868364464E-18
 6.87964392   4.868161805E-18
 7.00648737   4.867921923E-18
 7.1333313   4.867644817E-18
 7.26017475   4.86733297E-18
 7.38701868   4.866990517E-18
 7.51386213   4.866622008E-18
 7.64070559   4.86623282E-18
 7.76754951   4.86582626E-18
 7.89439297   4.865405226E-18
 8.02123642   4.864971369E-18
 8.14808083   4.864523865E-18
 8.27492428   4.864061471E-18
 8.40176773   4.86358336E-18
 8.52861118   4.863091188E-18
 8.65545464   4.86258578E-18
 8.78229809   4.862072928E-18
 8.90914249   4.861560904E-18
 9.03598595   4.861058391E-18
 9.1628294   4.86057325E-18
 9.28967285   4.86011251E-18
 9.4165163   4.859680308E-18
 9.54336071   4.859274576E-18
 9.67020416   4.858890351E-18
 9.79704762   4.85851812E-18
 9.92389107   4.858146716E-18
 10.0507345   4.857762904E-18
 10.1775789   4.857355104E-18
 10.3044224   4.856915457E-18
 10.4312658   4.856439415E-18
 10.5581093   4.85592739E-18
 10.6849527   4.855384346E-18
 10.8117971   4.854818141E-18
 10.9386406   4.854239528E-18
 11.065484   4.853661742E-18
 11.1923275   4.853094296E-18
 11.319171   4.852547944E-18
 11.4460154   4.852027647E-18
 11.5728588   4.851536302E-18
 11.6997023   4.85107184E-18
 11.8265457   4.850629298E-18
 11.9533892   4.8502033E-18
 12.0802336   4.849788056E-18
 12.207077   4.849377774E-18
 12.3339205   4.848969974E-18
 12.4607639   4.848562587E-18
 12.5876074   4.848156442E-18
 12.7144518   4.847754018E-18
 12.8412952   4.847356145E-18
 12.9681387   4.846964888E-18
 13.0949821   4.846580249E-18
 13.2218256   4.846200987E-18
 13.34867   4.845823379E-18
 13.4755135   4.845444117E-18
 13.6023569   4.845056582E-18
 13.7292004   4.844654159E-18
 13.8560438   4.844230229E-18
 13.9828882   4.843778588E-18
 14.1097317   4.843294688E-18
 14.2365751   4.842775218E-18
 14.3634186   4.842220594E-18
 14.490262   4.841634123E-18
 14.6171055   4.841021182E-18
 14.7439499   4.840389629E-18
 14.8707933   4.839748564E-18
 14.9976368   4.839107086E-18
 15.1244802   4.838474706E-18
 15.2513237   4.83785887E-18
 15.3781681   4.837264541E-18
 15.5050116   4.836695854E-18
 15.631855   4.836153638E-18
 15.7586985   4.835636236E-18
 15.8855419   4.835141168E-18
 16.0123863   4.834663885E-18
 16.1392288   4.83420025E-18
 16.2660732   4.833746542E-18
 16.3929176   4.833301105E-18
 16.5197601   4.832861872E-18
 16.6466045   4.832430084E-18
 16.773447   4.832004913E-18
 16.9002914   4.831588841E-18
 17.0271358   4.831180628E-18
 17.1539783   4.830779031E-18
 17.2808228   4.830380744E-18
 17.4076653   4.829982457E-18
 17.5345097   4.829578379E-18
 17.6613541   4.829164789E-18
 17.7881966   4.828736309E-18
 17.915041   4.828290045E-18
 18.0418835   4.82782517E-18
 18.1687279   4.827342096E-18
 18.2955723   4.826843306E-18
 18.4224148   4.826330868E-18
 18.5492592   4.825810571E-18
 18.6761017   4.825286552E-18
 18.8029461   4.824763774E-18
 18.9297905   4.824246373E-18
 19.056633   4.82373807E-18
 19.1834774   4.823238867E-18
 19.3103199   4.822750003E-18
 19.4371643   4.822268997E-18
 19.5640087   4.821794609E-18
 19.6908512   4.82132353E-18
 19.8176956   4.820854932E-18
 19.9445381   4.820387161E-18
 20.0713825   4.819920632E-18
 20.1982269   4.819456997E-18
 20.3250694   4.818996671E-18
 20.4519138   4.818542549E-18
 20.5787563   4.818095044E-18
 20.7056007   4.817655397E-18
 20.8324451   4.817224436E-18
 20.9592876   4.816802574E-18
 21.086132   4.816390225E-18
 21.2129745   4.815986561E-18
 21.339819   4.8155891E-18
 21.4666634   4.815194122E-18
 21.5935059   4.814796661E-18
 21.7203503   4.814391756E-18
 21.8471928   4.813973203E-18
 21.9740372   4.813535624E-18
 22.1008816   4.813074471E-18
 22.2277241   4.812588916E-18
 22.3545685   4.812080614E-18
 22.481411   4.811552872E-18
 22.6082554   4.811010656E-18
 22.7350998   4.81046058E-18
 22.8619423   4.809908437E-18
 22.9887867   4.809359603E-18
 23.1156292   4.808819041E-18
 23.2424736   4.808288818E-18
 23.369318   4.807768935E-18
 23.4961605   4.807257737E-18
 23.6230049   4.806751916E-18
 23.7498474   4.806246509E-18
 23.8766918   4.805736966E-18
 24.0035343   4.805219564E-18
 24.1303787   4.804692236E-18
 24.2572231   4.804156223E-18
 24.3840656   4.803614834E-18
 24.51091   4.803071376E-18
 24.6377525   4.802533295E-18
 24.7645969   4.802004313E-18
 24.8914413   4.801488152E-18
 25.0182838   4.80098564E-18
 25.1451283   4.800495122E-18
 25.2719707   4.800014944E-18
 25.3988152   4.799540556E-18
 25.5256596   4.799066995E-18
 25.6525021   4.798590125E-18
 25.7793465   4.798107465E-18
 25.906189   4.797615706E-18
 26.0330334   4.797114435E-18
 26.1598778   4.79660241E-18
 26.2867203   4.7960817E-18
 26.4135647   4.795553131E-18
 26.5404072   4.795020014E-18
 26.6672516   4.794484828E-18
 26.794096   4.793951296E-18
 26.9209385   4.793421073E-18
 27.0477829   4.792897468E-18
 27.1746254   4.792381721E-18
 27.3014698   4.791873005E-18
 27.4283142   4.791372561E-18
 27.5551567   4.790880802E-18
 27.6820011   4.790397315E-18
 27.8088436   4.789922513E-18
 27.935688   4.789455156E-18
 28.0625324   4.78899483E-18
 28.1893749   4.788541121E-18
 28.3162193   4.788092376E-18
 28.4430618   4.787647353E-18
 28.5699062   4.787206879E-18
 28.6967506   4.786770128E-18
 28.8235931   4.786338753E-18
 28.9504375   4.785912341E-18
 29.07728   4.785490479E-18
 29.2041245   4.785071512E-18
 29.3309689   4.784652545E-18
 29.4578114   4.78423027E-18
 29.5846558   4.783799309E-18
 29.7114983   4.783354699E-18
 29.8383427   4.782893546E-18
 29.9651871   4.782413367E-18
 30.0920296   4.781912096E-18
 30.218874   4.781391799E-18
 30.3457165   4.780854959E-18
 30.4725609   4.780305298E-18
 30.5994053   4.779746951E-18
 30.7262478   4.779184882E-18
 30.8530922   4.778622812E-18
 30.9799347   4.778064879E-18
 31.1067791   4.777512322E-18
 31.2336235   4.776965556E-18
 31.360466   4.776424166E-18
 31.4873104   4.775885672E-18
 31.6141529   4.775347177E-18
 31.7409973   4.774806615E-18
 31.8678417   4.774262743E-18
 31.9946842   4.773715977E-18
 32.1215286   4.77316797E-18
 32.2483711   4.772622031E-18
 32.3752136   4.772082295E-18
 32.5020599   4.771552072E-18
 32.6289024   4.77103343E-18
 32.7557449   4.77052885E-18
 32.8825912   4.770037091E-18
 33.0094337   4.769558567E-18
 33.1362762   4.769090383E-18
 33.2631226   4.768630471E-18
 33.3899651   4.76817428E-18
 33.5168076   4.767719331E-18
 33.6436501   4.767260659E-18
 33.7704964   4.766793716E-18
 33.8973389   4.766315192E-18
 34.0241814   4.765822192E-18
 34.1510277   4.765313063E-18
 34.2778702   4.764790285E-18
 34.4047127   4.764255099E-18
 34.531559   4.763712055E-18
 34.6584015   4.763166115E-18
 34.785244   4.762621417E-18
 34.9120865   4.762081682E-18
 35.0389328   4.761549391E-18
 35.1657753   4.761025372E-18
 35.2926178   4.760508798E-18
 35.4194641   4.759998014E-18
 35.5463066   4.759490125E-18
 35.6731491   4.758983477E-18
 35.7999954   4.758475174E-18
 35.9268379   4.757963149E-18
 36.0536804   4.757447402E-18
 36.1805229   4.756928346E-18
 36.3073692   4.756408877E-18
 36.4342117   4.755891062E-18
 36.5610542   4.755379451E-18
 36.6879005   4.754876525E-18
 36.814743   4.754383939E-18
 36.9415855   4.753900452E-18
 37.0684319   4.753423996E-18
 37.1952744   4.752950435E-18
 37.3221169   4.752473979E-18
 37.4489594   4.751990078E-18
 37.5758057   4.751494597E-18
 37.7026482   4.750985881E-18
 37.8294907   4.750464757E-18
 37.956337   4.74993288E-18
 38.0831795   4.749395213E-18
 38.210022   4.748855891E-18
 38.3368683   4.748320291E-18
 38.4637108   4.747791723E-18
 38.5905533   4.74727184E-18
 38.7173958   4.746762297E-18
 38.8442421   4.746263093E-18
 38.9710846   4.745771334E-18
 39.0979271   4.745285366E-18
 39.2247734   4.744801879E-18
 39.3516159   4.744318392E-18
 39.4784584   4.743831596E-18
 39.6053047   4.743341078E-18
 39.7321472   4.74284601E-18
 39.8589897   4.742348047E-18
 39.9858322   4.741848844E-18
 40.1126785   4.741351295E-18
 40.239521   4.740857468E-18
 40.3663635   4.740369018E-18
 40.4932098   4.739888012E-18
 40.6200523   4.739413624E-18
 40.7468948   4.738943372E-18
 40.8737411   4.738476428E-18
 41.0005836   4.738009071E-18
 41.1274261   4.737539646E-18
 41.2542686   4.737064845E-18
 41.381115   4.736582598E-18
 41.5079575   4.736091253E-18
 41.6348   4.735587914E-18
 41.7616463   4.735072994E-18
 41.8884888   4.734545253E-18
 42.0153313   4.734005517E-18
 42.1421776   4.733455029E-18
 42.2690201   4.732896682E-18
 42.3958626   4.732331717E-18
 42.5227051   4.731762617E-18
 42.6495514   4.731190622E-18
 42.7763939   4.730617385E-18
 42.9032364   4.730043322E-18
 43.0300827   4.729470086E-18
 43.1569252   4.728898504E-18
 43.2837677   4.728329404E-18
 43.4106102   4.727763612E-18
 43.5374565   4.727200716E-18
 43.664299   4.726641128E-18
 43.7911415   4.726086504E-18
 43.9179878   4.725536842E-18
 44.0448303   4.724992557E-18
 44.1716728   4.724455303E-18
 44.2985191   4.723927149E-18
 44.4253616   4.72340892E-18
 44.5522041   4.722903513E-18
 44.6790466   4.722410513E-18
 44.8058929   4.721931575E-18
 44.9327354   4.721464632E-18
 45.0595779   4.721006788E-18
 45.1864243   4.72055556E-18
 45.3132668   4.720108469E-18
 45.4401093   4.719661378E-18
 45.5669556   4.719212219E-18
 45.6937981   4.718758097E-18
 45.8206406   4.718297357E-18
 45.9474831   4.717829587E-18
 46.0743294   4.717355199E-18
 46.2011719   4.71687378E-18
 46.3280144   4.716385743E-18
 46.4548607   4.71589233E-18
 46.5817032   4.715393953E-18
 46.7085457   4.714891441E-18
 46.835392   4.714383552E-18
 46.9622345   4.713869873E-18
 47.089077   4.713348749E-18
 47.2159195   4.712818527E-18
 47.3427658   4.71227631E-18
 47.4696083   4.711722926E-18
 47.5964508   4.711157134E-18
 47.7232971   4.710582244E-18
 47.8501396   4.710000322E-18
 47.9769821   4.709416333E-18
 48.1038284   4.70883317E-18
 48.2306709   4.708254971E-18
 48.3575134   4.70768463E-18
 48.4843559   4.707123388E-18
 48.6112022   4.70657414E-18
 48.7380447   4.706035646E-18
 48.8648872   4.705507904E-18
 48.9917336   4.70499133E-18
 49.118576   4.704483441E-18
 49.2454185   4.703982997E-18
 49.3722649   4.703486689E-18
 49.4991074   4.702992862E-18
 49.6259499   4.702498621E-18
 49.7527924   4.702001486E-18
 49.8796387   4.701500628E-18
 50.0064812   4.70099398E-18
 50.1333237   4.700482369E-18
 50.26017   4.699965381E-18
 50.3870125   4.69944467E-18
 50.513855   4.698920238E-18
 50.6407013   4.698394565E-18
 50.7675438   4.697868064E-18
 50.8943863   4.697342805E-18
 51.0212288   4.696818372E-18
 51.1480751   4.696296007E-18
 51.2749176   4.695774884E-18
 51.4017601   4.695253346E-18
 51.5286064   4.694730155E-18
 51.6554489   4.694202413E-18
 51.7822914   4.693670536E-18
 51.9091377   4.693131628E-18
 52.0359802   4.69258817E-18
 52.1628227   4.692042645E-18
 52.2896652   4.691498774E-18
 52.4165115   4.690959865E-18
 52.543354   4.690430056E-18
 52.6701965   4.689910587E-18
 52.7970428   4.689401871E-18
 52.9238853   4.688903081E-18
 53.0507278   4.688410495E-18
 53.1775742   4.687921631E-18
 53.3044167   4.687433181E-18
 53.4312592   4.686942663E-18
 53.5581017   4.686447595E-18
 53.684948   4.685948392E-18
 53.8117905   4.685444639E-18
 53.938633   4.684937577E-18
 54.0654793   4.684428447E-18
 54.1923218   4.683919318E-18
 54.3191643   4.683410601E-18
 54.4460106   4.682903953E-18
 54.5728531   4.682399787E-18
 54.6996956   4.681896861E-18
 54.8265381   4.681392694E-18
 54.9533844   4.680885633E-18
 55.0802269   4.680372781E-18
 55.2070694   4.679852484E-18
 55.3339157   4.679322261E-18
 55.4607582   4.678783353E-18
 55.5876007   4.678236173E-18
 55.7144432   4.677682789E-18
 55.8412895   4.67712527E-18
 55.968132   4.676564855E-18
 56.0949745   4.676003613E-18
 56.2218208   4.675441543E-18
 56.3486633   4.674879474E-18
 56.4755058   4.674318646E-18
 56.6023521   4.673758231E-18
 56.7291946   4.67319823E-18
 56.8560371   4.672638228E-18
 56.9828796   4.6720774E-18
 57.109726   4.671514917E-18
 57.2365685   4.670949539E-18
 57.3634109   4.670380025E-18
 57.4902573   4.669805135E-18
 57.6170998   4.669224454E-18
 57.7439423   4.668640051E-18
 57.8707886   4.668055234E-18
 57.9976311   4.667472899E-18
 58.1244736   4.666898422E-18
 58.2513161   4.666335112E-18
 58.3781624   4.665787932E-18
 58.5050049   4.665259364E-18
 58.6318474   4.66474982E-18
 58.7586937   4.664259302E-18
 58.8855362   4.663785328E-18
 59.0123787   4.66332252E-18
 59.139225   4.662866744E-18
 59.2660675   4.662412622E-18
 59.39291   4.661954777E-18
 59.5197525   4.661488247E-18
 59.6465988   4.661012205E-18
 59.7734413   4.660524582E-18
 59.9002838   4.660027446E-18
 60.0271301   4.65952328E-18
 60.1539726   4.659014977E-18
 60.2808151   4.65850502E-18
 60.4076614   4.65799465E-18
 60.5345039   4.657485107E-18
 60.6613464   4.656974323E-18
 60.7881889   4.656461057E-18
 60.9150352   4.655942828E-18
 61.0418777   4.655418396E-18
 61.1687202   4.654886519E-18
 61.2955666   4.654346783E-18
 61.4224091   4.653797949E-18
 61.5492516   4.653240843E-18
 61.6760979   4.652676292E-18
 61.8029404   4.652105124E-18
 61.9297829   4.65152982E-18
 62.0566254   4.650953689E-18
 62.1834717   4.650380039E-18
 62.3103142   4.649812593E-18
 62.4371567   4.649253832E-18
 62.564003   4.648706239E-18
 62.6908455   4.648169812E-18
 62.817688   4.647644139E-18
 62.9445343   4.64712591E-18
 63.0713768   4.64661099E-18
 63.1982193   4.64609483E-18
 63.3250618   4.645572465E-18
 63.4519081   4.645038934E-18
 63.5787506   4.644490926E-18
 63.7055931   4.643926376E-18
 63.8324394   4.643344041E-18
 63.9592819   4.642746816E-18
 64.0861282   4.642136357E-18
 64.2129669   4.641517626E-18
 64.3398132   4.640896413E-18
 64.4666595   4.640277682E-18
 64.5934982   4.639664741E-18
 64.7203445   4.639058418E-18
 64.8471909   4.638457471E-18
 64.9740295   4.637859006E-18
 65.1008759   4.637257232E-18
 65.2277145   4.636649668E-18
 65.3545609   4.636034245E-18
 65.4814072   4.635410551E-18
 65.6082458   4.634784376E-18
 65.7350922   4.634160681E-18
 65.8619385   4.633547327E-18
 65.9887772   4.632952171E-18
 66.1156235   4.632381416E-18
 66.2424698   4.631838785E-18
 66.3693085   4.631326761E-18
 66.4961548   4.630842033E-18
 66.6230011   4.630381707E-18
 66.7498398   4.629939579E-18
 66.8766861   4.62950779E-18
 67.0035324   4.629079724E-18
 67.1303711   4.62864835E-18
 67.2572174   4.628207876E-18
 67.3840637   4.627755822E-18
 67.5109024   4.627290533E-18
 67.6377487   4.62681325E-18
 67.7645874   4.62632604E-18
 67.8914337   4.625832213E-18
 68.01828   4.625334664E-18
 68.1451187   4.624834634E-18
 68.271965   4.624333362E-18
 68.3988113   4.623830436E-18
 68.52565   4.623325856E-18
 68.6524963   4.622818794E-18
 68.7793427   4.622308838E-18
 68.9061813   4.621796813E-18
 69.0330276   4.62128272E-18
 69.159874   4.620768214E-18
 69.2867126   4.62025288E-18
 69.413559   4.619737133E-18
 69.5404053   4.619222627E-18
 69.667244   4.618708948E-18
 69.7940903   4.61819775E-18
 69.920929   4.617690275E-18
 70.0477753   4.61718859E-18
 70.1746216   4.616693522E-18
 70.3014603   4.616206726E-18
 70.4283066   4.615728616E-18
 70.5551529   4.615256709E-18
 70.6819916   4.614788111E-18
 70.8088379   4.614319927E-18
 70.9356842   4.613846366E-18
 71.0625229   4.613364534E-18
 71.1893692   4.612870707E-18
 71.3162155   4.612363231E-18
 71.4430542   4.61184004E-18
 71.5699005   4.611302372E-18
 71.6967468   4.610752711E-18
 71.8235855   4.610195191E-18
 71.9504318   4.609633122E-18
 72.0772781   4.609072707E-18
 72.2041168   4.608517255E-18
 72.3309631   4.607970075E-18
 72.4578018   4.607430754E-18
 72.5846481   4.606898463E-18
 72.7114944   4.606369481E-18
 72.8383331   4.605839672E-18
 72.9651794   4.605305727E-18
 73.0920258   4.60476475E-18
 73.2188644   4.604216743E-18
 73.3457108   4.603663773E-18
 73.4725571   4.603110803E-18
 73.5993958   4.602561968E-18
 73.7262421   4.602022233E-18
 73.8530884   4.601498214E-18
 73.9799271   4.600991566E-18
 74.1067734   4.600505597E-18
 74.2336197   4.600039895E-18
 74.3604584   4.599591563E-18
 74.4873047   4.59915812E-18
 74.614151   4.598736258E-18
 74.7409897   4.598319773E-18
 74.867836   4.597903701E-18
 74.9946747   4.597483907E-18
 75.121521   4.597056254E-18
 75.2483673   4.596618262E-18
 75.375206   4.59616993E-18
 75.5020523   4.595714154E-18
 75.6288986   4.595252173E-18
 75.7557373   4.594787298E-18
 75.8825836   4.594324077E-18
 76.0094299   4.593864991E-18
 76.1362686   4.593412524E-18
 76.2631149   4.592967914E-18
 76.3899612   4.592530749E-18
 76.5167999   4.592100202E-18
 76.6436462   4.591674617E-18
 76.7704926   4.591251928E-18
 76.8973312   4.590828411E-18
 77.0241776   4.590402827E-18
 77.1510239   4.589971866E-18
 77.2778625   4.589535942E-18
 77.4047089   4.589094227E-18
 77.5315475   4.588649204E-18
 77.6583939   4.588203767E-18
 77.7852402   4.587762466E-18
 77.9120789   4.58732861E-18
 78.0389252   4.586905094E-18
 78.1657715   4.586493571E-18
 78.2926102   4.586093216E-18
 78.4194565   4.585701132E-18
 78.5463028   4.585313185E-18
 78.6731415   4.584924823E-18
 78.7999878   4.584533153E-18
 78.9268341   4.584134039E-18
 79.0536728   4.583727479E-18
 79.1805191   4.583312648E-18
 79.3073654   4.582894095E-18
 79.4342041   4.582475128E-18
 79.5610504   4.582061124E-18
 79.6878967   4.581657046E-18
 79.8147354   4.581267858E-18
 79.9415817   4.580895627E-18
 80.0684204   4.580542421E-18
 80.1952667   4.580205344E-18
 80.322113   4.57988233E-18
 80.4489517   4.579567588E-18
 80.575798   4.579255741E-18
 80.7026443   4.578941826E-18
 80.829483   4.57862088E-18
 80.9563293   4.578290835E-18
 81.0831757   4.577949209E-18
 81.2100143   4.57759683E-18
 81.3368607   4.577234112E-18
 81.463707   4.57686188E-18
 81.5905457   4.576480964E-18
 81.717392   4.576091775E-18
 81.8442383   4.575694315E-18
 81.971077   4.575288583E-18
 82.0979233   4.574874579E-18
 82.224762   4.574453544E-18
 82.3516083   4.574025892E-18
 82.4784546   4.573591622E-18
 82.6052933   4.57315363E-18
 82.7321396   4.572711502E-18
 82.8589859   4.572267719E-18
 82.9858246   4.571824764E-18
 83.1126709   4.57138429E-18
 83.2395172   4.570949193E-18
 83.3663559   4.570521955E-18
 83.4932022   4.570106296E-18
 83.6200485   4.569703459E-18
 83.7468872   4.569315512E-18
 83.8737335   4.56894328E-18
 84.0005798   4.568587593E-18
 84.1274185   4.568249276E-18
 84.2542648   4.567927089E-18
 84.3811111   4.567621032E-18
 84.5079498   4.567329451E-18
 84.6347961   4.567049864E-18
 84.7616348   4.566779789E-18
 84.8884811   4.566514678E-18
 85.0153275   4.566251221E-18
 85.1421661   4.565985283E-18
 85.2690125   4.56571314E-18
 85.3958588   4.565432312E-18
 85.5226974   4.565141558E-18
 85.6495438   4.564840878E-18
 85.7763901   4.564529445E-18
 85.9032288   4.564208912E-18
 86.0300751   4.563879694E-18
 86.1569214   4.563543859E-18
 86.2837601   4.563200993E-18
 86.4106064   4.562852336E-18
 86.5374527   4.562498716E-18
 86.6642914   4.56213972E-18
 86.7911377   4.56177576E-18
 86.917984   4.561407665E-18
 87.0448227   4.561034607E-18
 87.171669   4.560657826E-18
 87.2985077   4.560277736E-18
 87.425354   4.559896406E-18
 87.5522003   4.55951673E-18
 87.679039   4.55914119E-18
 87.8058853   4.558773095E-18
 87.9327316   4.558414926E-18
 88.0595703   4.55806875E-18
 88.1864166   4.557734156E-18
 88.3132629   4.557409901E-18
 88.4401016   4.557094332E-18
 88.5669479   4.556783725E-18
 88.6937943   4.556473946E-18
 88.8206329   4.556162099E-18
 88.9474792   4.555845703E-18
 89.0743256   4.555523102E-18
 89.2011642   4.555193471E-18
 89.3280106   4.554858049E-18
 89.4548569   4.554518905E-18
 89.5816956   4.554178934E-18
 89.7085419   4.553840203E-18
 89.8353806   4.553503954E-18
 89.9622269   4.553172255E-18
 90.0890732   4.552845518E-18
 90.2159119   4.552521677E-18
 90.3427582   4.552199077E-18
 90.4696045   4.551873995E-18
 90.5964432   4.55154395E-18
 90.7232895   4.551206046E-18
 90.8501358   4.550859044E-18
 90.9769745   4.550503357E-18
 91.1038208   4.550139397E-18
 91.2306671   4.549770061E-18
 91.3575058   4.549398657E-18
 91.4843521   4.549026839E-18
 91.6111984   4.548658744E-18
 91.7380371   4.548296025E-18
 91.8648834   4.547941165E-18
 91.9917297   4.547594576E-18
 92.1185684   4.547256259E-18
 92.2454147   4.546924146E-18
 92.3722534   4.546596169E-18
 92.4990997   4.546268192E-18
 92.625946   4.545936492E-18
 92.7527847   4.545598589E-18
 92.879631   4.545252E-18
 93.0064774   4.544895072E-18
 93.133316   4.544529045E-18
 93.2601624   4.544155159E-18
 93.3870087   4.54377631E-18
 93.5138474   4.543395807E-18
 93.6406937   4.543016131E-18
 93.76754   4.54263935E-18
 93.8943787   4.542266706E-18
 94.021225   4.541899437E-18
 94.1480713   4.541536719E-18
 94.27491   4.541177722E-18
 94.4017563   4.540819967E-18
 94.528595   4.540462211E-18
 94.6554413   4.540101974E-18
 94.7822876   4.539738428E-18
 94.9091263   4.539369919E-18
 95.0359726   4.538997274E-18
 95.1628189   4.538621734E-18
 95.2896576   4.53824454E-18
 95.4165039   4.537867759E-18
 95.5433502   4.537491392E-18
 95.6701889   4.537116679E-18
 95.7970352   4.536743621E-18
 95.9238815   4.536372217E-18
 96.0507202   4.536000812E-18
 96.1775665   4.535628581E-18
 96.3044128   4.535253868E-18
 96.4312515   4.534878328E-18
 96.5580978   4.53450072E-18
 96.6849442   4.534122699E-18
 96.8117828   4.533744264E-18
 96.9386292   4.533365829E-18
 97.0654678   4.532986153E-18
 97.1923141   4.53260565E-18
 97.3191605   4.532223079E-18
 97.4459991   4.531837612E-18
 97.5728455   4.531450492E-18
 97.6996918   4.53106089E-18
 97.8265305   4.530671701E-18
 97.9533768   4.530285408E-18
 98.0802231   4.529904491E-18
 98.2070618   4.529531019E-18
 98.3339081   4.529167887E-18
 98.4607544   4.528813854E-18
 98.5875931   4.528467265E-18
 98.7144394   4.528126467E-18
 98.8412857   4.527786082E-18
 98.9681244   4.527441975E-18
 99.0949707   4.527089596E-18
 99.221817   4.526727291E-18
 99.3486557   4.526352991E-18
 99.475502   4.525967939E-18
 99.6023407   4.525576269E-18
 99.729187   4.525182531E-18
 99.8560333   4.524790034E-18
 99.982872   4.524404154E-18
 100.109718   4.524025719E-18
 100.236565   4.523654728E-18
 100.363403   4.52328746E-18
 100.49025   4.522921019E-18
 100.617096   4.522549615E-18
 100.743935   4.522169525E-18
 100.870781   4.521777028E-18
 100.997627   4.52137171E-18
 101.124466   4.520955224E-18
 101.251312   4.520532121E-18
 101.378159   4.520107364E-18
 101.504997   4.519687156E-18
 101.631844   4.519276875E-18
 101.75869   4.518879828E-18
 101.885529   4.518497671E-18
 102.012375   4.518128335E-18
 102.139214   4.517768511E-18
 102.26606   4.51741241E-18
 102.392906   4.517055068E-18
 102.519745   4.516690695E-18
 102.646591   4.516315155E-18
 102.773438   4.515927621E-18
 102.900276   4.515527265E-18
 103.027122   4.515117397E-18
 103.153969   4.514700912E-18
 103.280807   4.514282358E-18
 103.407654   4.513865046E-18
 103.5345   4.513452696E-18
 103.661339   4.513046964E-18
 103.788185   4.512648263E-18
 103.915031   4.512254939E-18
 104.04187   4.511866991E-18
 104.168716   4.511481938E-18
 104.295563   4.511099367E-18
 104.422401   4.510716383E-18
 104.549248   4.510331744E-18
 104.676086   4.509945864E-18
 104.802933   4.509557916E-18
 104.929779   4.509167901E-18
 105.056618   4.508775403E-18
 105.183464   4.508382079E-18
 105.31031   4.507987927E-18
 105.437149   4.507594189E-18
 105.563995   4.507200038E-18
 105.690842   4.506805886E-18
 105.81768   4.506410908E-18
 105.944527   4.506013861E-18
 106.071373   4.505611851E-18
 106.198212   4.505204465E-18
 106.325058   4.504787979E-18
 106.451904   4.504361568E-18
 106.578743   4.503924403E-18
 106.705589   4.503476898E-18
 106.832428   4.503021121E-18
 106.959274   4.502560382E-18
 107.086121   4.502097988E-18
 107.212959   4.501638489E-18
 107.339806   4.501186435E-18
 107.466652   4.500743893E-18
 107.593491   4.500313759E-18
 107.720337   4.499896447E-18
 107.847183   4.499491128E-18
 107.974022   4.499095322E-18
 108.100868   4.498706961E-18
 108.227715   4.498324804E-18
 108.354553   4.497946782E-18
 108.4814   4.497572069E-18
 108.608246   4.497200251E-18
 108.735085   4.496830915E-18
 108.861931   4.496465302E-18
 108.988777   4.496102169E-18
 109.115616   4.495740691E-18
 109.242462   4.495380868E-18
 109.369301   4.49501939E-18
 109.496147   4.494654603E-18
 109.622993   4.494284026E-18
 109.749832   4.493906005E-18
 109.876678   4.493519298E-18
 110.003525   4.493123492E-18
 110.130363   4.492718587E-18
 110.25721   4.49230541E-18
 110.384056   4.491885202E-18
 110.510895   4.491459618E-18
 110.637741   4.491029898E-18
 110.764587   4.490596455E-18
 110.891426   4.490160117E-18
 111.018272   4.489722539E-18
 111.145119   4.489284133E-18
 111.271957   4.488845314E-18
 111.398804   4.488408976E-18
 111.52565   4.487976774E-18
 111.652489   4.487550362E-18
 111.779335   4.487130568E-18
 111.906174   4.486718219E-18
 112.03302   4.4863129E-18
 112.159866   4.485912545E-18
 112.286705   4.485513844E-18
 112.413551   4.485113902E-18
 112.540398   4.484708583E-18
 112.667236   4.48429458E-18
 112.794083   4.483868995E-18
 112.920929   4.483431003E-18
 113.047768   4.482981017E-18
 113.174614   4.482521104E-18
 113.30146   4.482055402E-18
 113.428299   4.481587217E-18
 113.555145   4.48111986E-18
 113.681992   4.480656226E-18
 113.80883   4.480196727E-18
 113.935677   4.479741777E-18
 114.062523   4.479289723E-18
 114.189362   4.478838496E-18
 114.316208   4.478386028E-18
 114.443047   4.477930666E-18
 114.569893   4.477472407E-18
 114.696739   4.477012081E-18
 114.823578   4.476550928E-18
 114.950424   4.476091843E-18
 115.077271   4.475638134E-18
 115.204109   4.475192698E-18
 115.330956   4.474757187E-18
 115.457802   4.474332843E-18
 115.584641   4.473919667E-18
 115.711487   4.473516003E-18
 115.838333   4.473118129E-18
 115.965172   4.472722736E-18
 116.092018   4.472326103E-18
 116.218864   4.471925334E-18
 116.345703   4.471519189E-18
 116.472549   4.471107666E-18
 116.599396   4.470691594E-18
 116.726234   4.470273868E-18
 116.853081   4.46985821E-18
 116.979919   4.469447928E-18
 117.106766   4.469046332E-18
 117.233612   4.468655076E-18
 117.360451   4.468274573E-18
 117.487297   4.467904409E-18
 117.614143   4.467543345E-18
 117.740982   4.467188898E-18
 117.867828   4.466838587E-18
 117.994675   4.466489517E-18
 118.121513   4.466139619E-18
 118.24836   4.465786827E-18
 118.375206   4.465429485E-18
 118.502045   4.465066353E-18
 118.628891   4.464697016E-18
 118.755737   4.464321063E-18
 118.882576   4.463936838E-18
 119.009422   4.463545167E-18
 119.136261   4.463144812E-18
 119.263107   4.46273453E-18
 119.389954   4.462312255E-18
 119.516792   4.461877158E-18
 119.643639   4.461428826E-18
 119.770485   4.460967259E-18
 119.897324   4.460493285E-18
 120.02417   4.46000773E-18
 120.151016   4.459513076E-18