 -7.19999981   1.905041205E-18
 -7.07315636   1.905039137E-18
 -6.9463129   1.905034794E-18
 -6.81946898   1.905029211E-18
 -6.69262552   1.905021973E-18
 -6.56578159   1.905013701E-18
 -6.43893814   1.905004809E-18
 -6.31209469   1.90499509E-18
 -6.18525076   1.904985784E-18
 -6.05840731   1.904976892E-18
 -5.93156338   1.904968827E-18
 -5.80471992   1.904961175E-18
 -5.67787647   1.904955798E-18
 -5.55103254   1.904951249E-18
 -5.42418909   1.904948147E-18
 -5.29734564   1.904946493E-18
 -5.17050171   1.904946493E-18
 -5.04365826   1.904947733E-18
 -4.91681433   1.904949388E-18
 -4.78997087   1.904951869E-18
 -4.66312742   1.904954144E-18
 -4.53628349   1.904955798E-18
 -4.40944004   1.904956832E-18
 -4.28259611   1.904956832E-18
 -4.15575266   1.904955178E-18
 -4.02890921   1.904951663E-18
 -3.90206528   1.904946286E-18
 -3.77522182   1.904939048E-18
 -3.64837813   1.904929742E-18
 -3.52153444   1.904918782E-18
 -3.39469075   1.904906374E-18
 -3.2678473   1.904892519E-18
 -3.14100361   1.90487825E-18
 -3.01415992   1.904862327E-18
 -2.88731623   1.904847024E-18
 -2.76047254   1.904831308E-18
 -2.63362908   1.904816005E-18
 -2.50678539   1.90480215E-18
 -2.3799417   1.904789328E-18
 -2.25309801   1.904778368E-18
 -2.12625432   1.904769476E-18
 -1.99941075   1.904762652E-18
 -1.87256718   1.904757689E-18
 -1.74572349   1.90475438E-18
 -1.61887991   1.904752932E-18
 -1.49203622   1.904752519E-18
 -1.36519253   1.904752726E-18
 -1.23834896   1.904753346E-18
 -1.11150527   1.90475376E-18
 -0.984661698   1.90475376E-18
 -0.857818007   1.904753139E-18
 -0.730974376   1.904751692E-18
 -0.604130745   1.904748797E-18
 -0.477287114   1.904744454E-18
 -0.350443482   1.90473887E-18
 -0.223599836   1.904732253E-18
 -9.675619751E-2   1.904724601E-18
 3.008744121E-2   1.904716123E-18
 0.156931072   1.904707437E-18
 0.283774734   1.904698752E-18
 0.410618365   1.904689653E-18
 0.537461996   1.904682208E-18
 0.664305627   1.904675384E-18
 0.791149259   1.904670421E-18
 0.91799289   1.904667319E-18
 1.04483652   1.904666492E-18
 1.17168021   1.904667526E-18
 1.29852378   1.904670214E-18
 1.42536747   1.904674971E-18
 1.55221117   1.904681795E-18
 1.67905474   1.90469048E-18
 1.80589843   1.904700406E-18
 1.932742   1.904710746E-18
 2.05958557   1.904721293E-18
 2.18642926   1.904731633E-18
 2.31327295   1.904740938E-18
 2.44011664   1.904749417E-18
 2.56696033   1.904756655E-18
 2.69380379   1.904762031E-18
 2.82064748   1.904765961E-18
 2.94749117   1.904768235E-18
 3.07433486   1.904769062E-18
 3.20117831   1.904768235E-18
 3.328022   1.904765961E-18
 3.45486569   1.904762652E-18
 3.58170938   1.904758723E-18
 3.70855308   1.904754794E-18
 3.83539653   1.904750451E-18
 3.96224022   1.904746935E-18
 4.08908367   1.904743627E-18
 4.2159276   1.904740938E-18
 4.34277105   1.904739491E-18
 4.46961498   1.904738664E-18
 4.59645844   1.90473825E-18
 4.72330189   1.904739284E-18
 4.85014582   1.904740938E-18
 4.97698927   1.904742799E-18
 5.1038332   1.904745281E-18
 5.23067665   1.904748383E-18
 5.3575201   1.904751898E-18
 5.48436403   1.904754794E-18
 5.61120749   1.904756862E-18
 5.73805141   1.904758723E-18
 5.86489487   1.90475955E-18
 5.99173832   1.904759343E-18
 6.11858225   1.904758516E-18
 6.2454257   1.904756034E-18
 6.37226963   1.904752726E-18
 6.49911308   1.904748383E-18
 6.62595654   1.904743213E-18
 6.75280046   1.904737836E-18
 6.87964392   1.904732873E-18
 7.00648737   1.904728531E-18
 7.1333313   1.904725429E-18
 7.26017475   1.904723361E-18
 7.38701868   1.904722947E-18
 7.51386213   1.904723774E-18
 7.64070559   1.904726876E-18
 7.76754951   1.904731633E-18
 7.89439297   1.90473825E-18
 8.02123642   1.904745901E-18
 8.14808083   1.904755E-18
 8.27492428   1.904764927E-18
 8.40176773   1.904774853E-18
 8.52861118   1.904784158E-18
 8.65545464   1.904792224E-18
 8.78229809   1.904798841E-18
 8.90914249   1.904803804E-18
 9.03598595   1.904806492E-18
 9.1628294   1.904806286E-18
 9.28967285   1.904803184E-18
 9.4165163   1.904797807E-18
 9.54336071   1.904789742E-18
 9.67020416   1.904778782E-18
 9.79704762   1.904765547E-18
 9.92389107   1.904750658E-18
 10.0507345   1.904734941E-18
 10.1775789   1.904718398E-18
 10.3044224   1.904701647E-18
 10.4312658   1.90468531E-18
 10.5581093   1.904670421E-18
 10.6849527   1.904656773E-18
 10.8117971   1.904644158E-18
 10.9386406   1.904633612E-18
 11.065484   1.904624719E-18
 11.1923275   1.904617895E-18
 11.319171   1.904612725E-18
 11.4460154   1.904609417E-18
 11.5728588   1.904607555E-18
 11.6997023   1.904606935E-18
 11.8265457   1.904608176E-18
 11.9533892   1.904609623E-18
 12.0802336   1.904611898E-18
 12.207077   1.904615E-18
 12.3339205   1.904618309E-18
 12.4607639   1.904621824E-18
 12.5876074   1.904625547E-18
 12.7144518   1.904629889E-18
 12.8412952   1.904633818E-18
 12.9681387   1.904637541E-18
 13.0949821   1.904641056E-18
 13.2218256   1.904643745E-18
 13.34867   1.904645813E-18
 13.4755135   1.90464664E-18
 13.6023569   1.904645606E-18
 13.7292004   1.904643538E-18
 13.8560438   1.904639402E-18
 13.9828882   1.904633198E-18
 14.1097317   1.904624719E-18
 14.2365751   1.904614793E-18
 14.3634186   1.904602386E-18
 14.490262   1.904588944E-18
 14.6171055   1.904574055E-18
 14.7439499   1.904558338E-18
 14.8707933   1.904542001E-18
 14.9976368   1.904526492E-18
 15.1244802   1.904510982E-18
 15.2513237   1.90449692E-18
 15.3781681   1.904483478E-18
 15.5050116   1.904471484E-18
 15.631855   1.904460938E-18
 15.7586985   1.904451839E-18
 15.8855419   1.904443774E-18
 16.0123863   1.904436743E-18
 16.1392288   1.904430332E-18
 16.2660732   1.904423921E-18
 16.3929176   1.904417511E-18
 16.5197601   1.90441048E-18
 16.6466045   1.904402828E-18
 16.773447   1.904393936E-18
 16.9002914   1.904384217E-18
 17.0271358   1.90437305E-18
 17.1539783   1.904360849E-18
 17.2808228   1.904348028E-18
 17.4076653   1.904333965E-18
 17.5345097   1.904319076E-18
 17.6613541   1.904303567E-18
 17.7881966   1.90428785E-18
 17.915041   1.904271927E-18
 18.0418835   1.904256417E-18
 18.1687279   1.904241114E-18
 18.2955723   1.904226225E-18
 18.4224148   1.90421237E-18
 18.5492592   1.904200169E-18
 18.6761017   1.904188588E-18
 18.8029461   1.904178249E-18
 18.9297905   1.904169357E-18
 19.056633   1.904161912E-18
 19.1834774   1.904154881E-18
 19.3103199   1.904148057E-18
 19.4371643   1.904140819E-18
 19.5640087   1.904132754E-18
 19.6908512   1.904123655E-18
 19.8176956   1.904113315E-18
 19.9445381   1.904100701E-18
 20.0713825   1.904086018E-18
 20.1982269   1.904069061E-18
 20.3250694   1.904049415E-18
 20.4519138   1.904027702E-18
 20.5787563   1.904004541E-18
 20.7056007   1.903980139E-18
 20.8324451   1.90395491E-18
 20.9592876   1.903929474E-18
 21.086132   1.903905072E-18
 21.2129745   1.903881498E-18
 21.339819   1.903860198E-18
 21.4666634   1.903840552E-18
 21.5935059   1.903822975E-18
 21.7203503   1.903808499E-18
 21.8471928   1.903796091E-18
 21.9740372   1.903785751E-18
 22.1008816   1.903777066E-18
 22.2277241   1.903769415E-18
 22.3545685   1.90376259E-18
 22.481411   1.903755146E-18
 22.6082554   1.903746254E-18
 22.7350998   1.903735914E-18
 22.8619423   1.903722886E-18
 22.9887867   1.903706963E-18
 23.1156292   1.903687731E-18
 23.2424736   1.903664983E-18
 23.369318   1.903639134E-18
 23.4961605   1.903610596E-18
 23.6230049   1.903580404E-18
 23.7498474   1.903548144E-18
 23.8766918   1.903516091E-18
 24.0035343   1.903483831E-18
 24.1303787   1.903452811E-18
 24.2572231   1.90342448E-18
 24.3840656   1.903398838E-18
 24.51091   1.903376917E-18
 24.6377525   1.903358306E-18
 24.7645969   1.90334383E-18
 24.8914413   1.903332663E-18
 25.0182838   1.903325012E-18
 25.1451283   1.903319842E-18
 25.2719707   1.90331674E-18
 25.3988152   1.903314879E-18
 25.5256596   1.903313431E-18
 25.6525021   1.903311777E-18
 25.7793465   1.903308882E-18
 25.906189   1.903304746E-18
 26.0330334   1.903299163E-18
 26.1598778   1.903291511E-18
 26.2867203   1.903281999E-18
 26.4135647   1.903270211E-18
 26.5404072   1.903256976E-18
 26.6672516   1.903241053E-18
 26.794096   1.903223269E-18
 26.9209385   1.903203623E-18
 27.0477829   1.90318253E-18
 27.1746254   1.903159989E-18
 27.3014698   1.903137035E-18
 27.4283142   1.903113047E-18
 27.5551567   1.903089059E-18
 27.6820011   1.903065484E-18
 27.8088436   1.903041909E-18
 27.935688   1.903019575E-18
 28.0625324   1.902998689E-18
 28.1893749   1.902979664E-18
 28.3162193   1.902962086E-18
 28.4430618   1.90294637E-18
 28.5699062   1.902931894E-18
 28.6967506   1.902918866E-18
 28.8235931   1.902906459E-18
 28.9504375   1.902894464E-18
 29.07728   1.90288247E-18
 29.2041245   1.902869235E-18
 29.3309689   1.90285476E-18
 29.4578114   1.902838423E-18
 29.5846558   1.902819605E-18
 29.7114983   1.902798511E-18
 29.8383427   1.902774316E-18
 29.9651871   1.902747847E-18
 30.0920296   1.902719516E-18
 30.218874   1.902689737E-18
 30.3457165   1.902658718E-18
 30.4725609   1.902626871E-18
 30.5994053   1.902596473E-18
 30.7262478   1.902566074E-18
 30.8530922   1.90253857E-18
 30.9799347   1.902513341E-18
 31.1067791   1.902491834E-18
 31.2336235   1.902473429E-18
 31.360466   1.902458954E-18
 31.4873104   1.902447787E-18
 31.6141529   1.902440135E-18
 31.7409973   1.902436206E-18
 31.8678417   1.902434345E-18
 31.9946842   1.902433932E-18
 32.1215286   1.902434966E-18
 32.2483711   1.902436E-18
 32.3752136   1.902436E-18
 32.5020599   1.902434552E-18
 32.6289024   1.902430002E-18
 32.7557449   1.902422558E-18
 32.8825912   1.902412011E-18
 33.0094337   1.902397742E-18
 33.1362762   1.902379751E-18
 33.2631226   1.902358658E-18
 33.3899651   1.90233405E-18
 33.5168076   1.902306753E-18
 33.6436501   1.902276974E-18
 33.7704964   1.902246162E-18
 33.8973389   1.902213902E-18
 34.0241814   1.902182055E-18
 34.1510277   1.902150415E-18
 34.2778702   1.90212043E-18
 34.4047127   1.902093133E-18
 34.531559   1.902068938E-18
 34.6584015   1.902048672E-18
 34.785244   1.902032542E-18
 34.9120865   1.902020962E-18
 35.0389328   1.90201331E-18
 35.1657753   1.902009381E-18
 35.2926178   1.902008761E-18
 35.4194641   1.902010622E-18
 35.5463066   1.902013103E-18
 35.6731491   1.902016205E-18
 35.7999954   1.902017446E-18
 35.9268379   1.902016619E-18
 36.0536804   1.902011863E-18
 36.1805229   1.90200297E-18
 36.3073692   1.901988288E-18
 36.4342117   1.901968642E-18
 36.5610542   1.901944034E-18
 36.6879005   1.901915496E-18
 36.814743   1.901883236E-18
 36.9415855   1.901849115E-18
 37.0684319   1.901813339E-18
 37.1952744   1.901778184E-18
 37.3221169   1.901744683E-18
 37.4489594   1.901714284E-18
 37.5758057   1.901688435E-18
 37.7026482   1.901666308E-18
 37.8294907   1.901649558E-18
 37.956337   1.901637357E-18
 38.0831795   1.901630119E-18
 38.210022   1.901627017E-18
 38.3368683   1.90162681E-18
 38.4637108   1.901628878E-18
 38.5905533   1.901631773E-18
 38.7173958   1.901633841E-18
 38.8442421   1.901633841E-18
 38.9710846   1.901630532E-18
 39.0979271   1.901624122E-18
 39.2247734   1.901612748E-18
 39.3516159   1.901596825E-18
 39.4784584   1.901576145E-18
 39.6053047   1.901550709E-18
 39.7321472   1.901520724E-18
 39.8589897   1.901487017E-18
 39.9858322   1.901450621E-18
 40.1126785   1.901413191E-18
 40.239521   1.901374934E-18
 40.3663635   1.901337504E-18
 40.4932098   1.901301521E-18
 40.6200523   1.901268227E-18
 40.7468948   1.901238035E-18
 40.8737411   1.901211979E-18
 41.0005836   1.901190472E-18
 41.1274261   1.901174342E-18
 41.2542686   1.901162762E-18
 41.381115   1.901155938E-18
 41.5079575   1.901154697E-18
 41.6348   1.901157799E-18
 41.7616463   1.901165037E-18
 41.8884888   1.901174756E-18
 42.0153313   1.901186336E-18
 42.1421776   1.901198331E-18
 42.2690201   1.901209291E-18
 42.3958626   1.901217562E-18
 42.5227051   1.901222319E-18
 42.6495514   1.901222112E-18
 42.7763939   1.901215701E-18
 42.9032364   1.90120288E-18
 43.0300827   1.901182407E-18
 43.1569252   1.901154904E-18
 43.2837677   1.901121403E-18
 43.4106102   1.901082318E-18
 43.5374565   1.901039305E-18
 43.664299   1.900993603E-18
 43.7911415   1.900947488E-18
 43.9179878   1.900901993E-18
 44.0448303   1.900859393E-18
 44.1716728   1.900821136E-18
 44.2985191   1.900788049E-18
 44.4253616   1.900760338E-18
 44.5522041   1.900738005E-18
 44.6790466   1.900721047E-18
 44.8058929   1.90070926E-18
 44.9327354   1.900700781E-18
 45.0595779   1.900694578E-18
 45.1864243   1.900690028E-18
 45.3132668   1.900685892E-18
 45.4401093   1.900681343E-18
 45.5669556   1.900675759E-18
 45.6937981   1.900669142E-18
 45.8206406   1.900661284E-18
 45.9474831   1.900651978E-18
 46.0743294   1.900641845E-18
 46.2011719   1.900630471E-18
 46.3280144   1.900618477E-18
 46.4548607   1.90060669E-18
 46.5817032   1.900594902E-18
 46.7085457   1.900582701E-18
 46.835392   1.900570914E-18
 46.9622345   1.900558713E-18
 47.089077   1.900546719E-18
 47.2159195   1.900534311E-18
 47.3427658   1.900521697E-18
 47.4696083   1.900508669E-18
 47.5964508   1.900495227E-18
 47.7232971   1.900481579E-18
 47.8501396   1.90046793E-18
 47.9769821   1.900454282E-18
 48.1038284   1.900440633E-18
 48.2306709   1.900427191E-18
 48.3575134   1.900413957E-18
 48.4843559   1.900401756E-18
 48.6112022   1.900390175E-18
 48.7380447   1.900379215E-18
 48.8648872   1.900368462E-18
 48.9917336   1.900357708E-18
 49.118576   1.900346335E-18
 49.2454185   1.90033434E-18
 49.3722649   1.900321106E-18
 49.4991074   1.90030663E-18
 49.6259499   1.900290293E-18
 49.7527924   1.900272095E-18
 49.8796387   1.900251209E-18
 50.0064812   1.900228668E-18
 50.1333237   1.900204266E-18
 50.26017   1.90017883E-18
 50.3870125   1.900152774E-18
 50.513855   1.900126925E-18
 50.6407013   1.900101903E-18
 50.7675438   1.900079362E-18
 50.8943863   1.900058889E-18
 51.0212288   1.900040691E-18
 51.1480751   1.900025388E-18
 51.2749176   1.90001236E-18
 51.4017601   1.900001607E-18
 51.5286064   1.899992715E-18
 51.6554489   1.899984857E-18
 51.7822914   1.899978032E-18
 51.9091377   1.899971001E-18
 52.0359802   1.899962936E-18
 52.1628227   1.89995301E-18
 52.2896652   1.89994205E-18
 52.4165115   1.899929022E-18
 52.543354   1.899914339E-18
 52.6701965   1.899898416E-18
 52.7970428   1.899881252E-18
 52.9238853   1.899863261E-18
 53.0507278   1.899844856E-18
 53.1775742   1.899826245E-18
 53.3044167   1.899807013E-18
 53.4312592   1.899788608E-18
 53.5581017   1.899770203E-18
 53.684948   1.899751798E-18
 53.8117905   1.8997336E-18
 53.938633   1.899714575E-18
 54.0654793   1.89969555E-18
 54.1923218   1.899676111E-18
 54.3191643   1.899655639E-18
 54.4460106   1.899634752E-18
 54.5728531   1.899614693E-18
 54.6996956   1.899594841E-18
 54.8265381   1.899575195E-18
 54.9533844   1.899557204E-18
 55.0802269   1.899540247E-18
 55.2070694   1.899525565E-18
 55.3339157   1.899512536E-18
 55.4607582   1.89950137E-18
 55.5876007   1.89949165E-18
 55.7144432   1.899482758E-18
 55.8412895   1.899475313E-18
 55.968132   1.899468075E-18
 56.0949745   1.899460424E-18
 56.2218208   1.899451945E-18
 56.3486633   1.899441813E-18
 56.4755058   1.899428991E-18
 56.6023521   1.899413482E-18
 56.7291946   1.89939487E-18
 56.8560371   1.899373363E-18
 56.9828796   1.899348341E-18
 57.109726   1.899320424E-18
 57.2365685   1.899290025E-18
 57.3634109   1.899256938E-18
 57.4902573   1.899222196E-18
 57.6170998   1.899186834E-18
 57.7439423   1.899151059E-18
 57.8707886   1.899115283E-18
 57.9976311   1.899080541E-18
 58.1244736   1.899047661E-18
 58.2513161   1.899016021E-18
 58.3781624   1.898986036E-18
 58.5050049   1.898957705E-18
 58.6318474   1.898930408E-18
 58.7586937   1.898903732E-18
 58.8855362   1.898876641E-18
 59.0123787   1.898848931E-18
 59.139225   1.898819773E-18
 59.2660675   1.89878834E-18
 59.39291   1.898754012E-18
 59.5197525   1.898717409E-18
 59.6465988   1.898677704E-18
 59.7734413   1.898635725E-18
 59.9002838   1.898592091E-18
 60.0271301   1.898546803E-18
 60.1539726   1.898501308E-18
 60.2808151   1.898456434E-18
 60.4076614   1.898413627E-18
 60.5345039   1.898373095E-18
 60.6613464   1.898335872E-18
 60.7881889   1.898302578E-18
 60.9150352   1.898274454E-18
 61.0418777   1.8982515E-18
 61.1687202   1.898233922E-18
 61.2955666   1.898220894E-18
 61.4224091   1.898212622E-18
 61.5492516   1.89820952E-18
 61.6760979   1.898210347E-18
 61.8029404   1.898214897E-18
 61.9297829   1.898222962E-18
 62.0566254   1.898234336E-18
 62.1834717   1.898248398E-18
 62.3103142   1.898264941E-18
 62.4371567   1.898282932E-18
 62.564003   1.898301958E-18
 62.6908455   1.898322637E-18
 62.817688   1.898343937E-18
 62.9445343   1.898365651E-18
 63.0713768   1.89838695E-18
 63.1982193   1.898406803E-18
 63.3250618   1.898424587E-18
 63.4519081   1.898439063E-18
 63.5787506   1.898449196E-18
 63.7055931   1.898454159E-18
 63.8324394   1.898452091E-18
 63.9592819   1.898441544E-18
 64.0861282   1.898421278E-18
 64.2129669   1.898390259E-18
 64.3398132   1.898346625E-18
 64.4666595   1.898289757E-18
 64.5934982   1.898218206E-18
 64.7203445   1.898130524E-18
 64.8471909   1.898025473E-18
 64.9740295   1.897901809E-18
 65.1008759   1.897758707E-18
 65.2277145   1.897594718E-18
 65.3545609   1.897409223E-18
 65.4814072   1.897200773E-18
 65.6082458   1.896968749E-18
 65.7350922   1.896712323E-18
 65.8619385   1.896430461E-18
 65.9887772   1.896122957E-18
 66.1156235   1.895789603E-18
 66.2424698   1.895430193E-18
 66.3693085   1.895045554E-18
 66.4961548   1.8946361E-18
 66.6230011   1.894202657E-18
 66.7498398   1.89374626E-18
 66.8766861   1.893268357E-18
 67.0035324   1.892771221E-18
 67.1303711   1.892255267E-18
 67.2572174   1.891723183E-18
 67.3840637   1.891176003E-18
 67.5109024   1.890614761E-18
 67.6377487   1.890040698E-18
 67.7645874   1.889454847E-18
 67.8914337   1.888856382E-18
 68.01828   1.888245923E-18
 68.1451187   1.887622229E-18
 68.271965   1.886984679E-18
 68.3988113   1.886332861E-18
 68.52565   1.885664292E-18
 68.6524963   1.884978146E-18
 68.7793427   1.884272974E-18
 68.9061813   1.883547951E-18
 69.0330276   1.882802454E-18
 69.159874   1.882036485E-18
 69.2867126   1.881249216E-18
 69.413559   1.880441267E-18
 69.5404053   1.879613673E-18
 69.667244   1.878767467E-18
 69.7940903   1.877904718E-18
 69.920929   1.877026872E-18
 70.0477753   1.876135172E-18
 70.1746216   1.87523065E-18
 70.3014603   1.874315374E-18
 70.4283066   1.873390173E-18
 70.5551529   1.872455045E-18
 70.6819916   1.871511025E-18
 70.8088379   1.870557699E-18
 70.9356842   1.869594448E-18
 71.0625229   1.868621476E-18
 71.1893692   1.867636718E-18
 71.3162155   1.866640172E-18
 71.4430542   1.865631219E-18
 71.5699005   1.864609857E-18
 71.6967468   1.863574641E-18
 71.8235855   1.862527017E-18
 71.9504318   1.861466778E-18
 72.0772781   1.860395786E-18
 72.2041168   1.859314454E-18
 72.3309631   1.85822423E-18
 72.4578018   1.857127595E-18
 72.5846481   1.856026411E-18
 72.7114944   1.854922125E-18
 72.8383331   1.853816184E-18
 72.9651794   1.852710657E-18
 73.0920258   1.851606164E-18
 73.2188644   1.850503946E-18
 73.3457108   1.849404416E-18
 73.4725571   1.848307368E-18
 73.5993958   1.847212595E-18
 73.7262421   1.846120096E-18
 73.8530884   1.845028631E-18
 73.9799271   1.84393758E-18
 74.1067734   1.842846115E-18
 74.2336197   1.841752996E-18
 74.3604584   1.840656775E-18
 74.4873047   1.839556624E-18
 74.614151   1.838452132E-18
 74.7409897   1.837341435E-18
 74.867836   1.836224534E-18
 74.9946747   1.835100396E-18
 75.121521   1.833968192E-18
 75.2483673   1.832828131E-18
 75.375206   1.83167959E-18
 75.5020523   1.830522571E-18
 75.6288986   1.82935604E-18
 75.7557373   1.82818103E-18
 75.8825836   1.826996921E-18
 76.0094299   1.825804126E-18
 76.1362686   1.824602233E-18
 76.2631149   1.823392275E-18
 76.3899612   1.822174458E-18
 76.5167999   1.820949197E-18
 76.6436462   1.819716904E-18
 76.7704926   1.818478408E-18
 76.8973312   1.817234535E-18
 77.0241776   1.815985286E-18
 77.1510239   1.814730453E-18
 77.2778625   1.813470863E-18
 77.4047089   1.812206518E-18
 77.5315475   1.810936796E-18
 77.6583939   1.80966149E-18
 77.7852402   1.808381014E-18
 77.9120789   1.807093921E-18
 78.0389252   1.805800624E-18
 78.1657715   1.804500503E-18
 78.2926102   1.803193765E-18
 78.4194565   1.801880616E-18
 78.5463028   1.800561883E-18
 78.6731415   1.799237773E-18
 78.7999878   1.797909528E-18
 78.9268341   1.796577974E-18
 79.0536728   1.795243318E-18
 79.1805191   1.793907215E-18
 79.3073654   1.79256925E-18
 79.4342041   1.791229838E-18
 79.5610504   1.789889392E-18
 79.6878967   1.788546878E-18
 79.8147354   1.787203123E-18
 79.9415817   1.785856886E-18
 80.0684204   1.784507134E-18
 80.1952667   1.78315304E-18
 80.322113   1.781793982E-18
 80.4489517   1.780429548E-18
 80.575798   1.779059116E-18
 80.7026443   1.777682274E-18
 80.829483   1.776299848E-18
 80.9563293   1.774911839E-18
 81.0831757   1.773517833E-18
 81.2100143   1.772118864E-18
 81.3368607   1.770715759E-18
 81.463707   1.769309345E-18
 81.5905457   1.767900036E-18
 81.717392   1.766489279E-18
 81.8442383   1.765077075E-18
 81.971077   1.763663837E-18
 82.0979233   1.762250186E-18
 82.224762   1.760836327E-18
 82.3516083   1.759423089E-18
 82.4784546   1.758010885E-18
 82.6052933   1.756599922E-18
 82.7321396   1.755190819E-18
 82.8589859   1.753783578E-18
 82.9858246   1.752379026E-18
 83.1126709   1.750977161E-18
 83.2395172   1.749578813E-18
 83.3663559   1.748184186E-18
 83.4932022   1.746795143E-18
 83.6200485   1.74541127E-18
 83.7468872   1.744034428E-18
 83.8737335   1.742664823E-18
 84.0005798   1.741304732E-18
 84.1274185   1.739954566E-18
 84.2542648   1.738615568E-18
 84.3811111   1.73728877E-18
 84.5079498   1.735975414E-18
 84.6347961   1.734674569E-18
 84.7616348   1.733387579E-18
 84.8884811   1.732114135E-18
 85.0153275   1.730852788E-18
 85.1421661   1.729603021E-18
 85.2690125   1.728364215E-18
 85.3958588   1.727135128E-18
 85.5226974   1.725914106E-18
 85.6495438   1.724699701E-18
 85.7763901   1.723491397E-18
 85.9032288   1.72228847E-18
 86.0300751   1.721089782E-18
 86.1569214   1.719895436E-18
 86.2837601   1.718705227E-18
 86.4106064   1.717519463E-18
 86.5374527   1.716337836E-18
 86.6642914   1.715161275E-18
 86.7911377   1.713990194E-18
 86.917984   1.712825213E-18
 87.0448227   1.711667678E-18
 87.171669   1.710516656E-18
 87.2985077   1.709373182E-18
 87.425354   1.708236843E-18
 87.5522003   1.707106397E-18
 87.679039   1.705981224E-18
 87.8058853   1.704860395E-18
 87.9327316   1.703741633E-18
 88.0595703   1.702623492E-18
 88.1864166   1.701504109E-18
 88.3132629   1.700381005E-18
 88.4401016   1.699253041E-18
 88.5669479   1.698117632E-18
 88.6937943   1.696974262E-18
 88.8206329   1.695821379E-18
 88.9474792   1.694659603E-18
 89.0743256   1.693488005E-18
 89.2011642   1.692306792E-18
 89.3280106   1.691117823E-18
 89.4548569   1.689920789E-18
 89.5816956   1.688717551E-18
 89.7085419   1.687508834E-18
 89.8353806   1.686295773E-18
 89.9622269   1.685079404E-18
 90.0890732   1.683860864E-18
 90.2159119   1.682640256E-18
 90.3427582   1.6814182E-18
 90.4696045   1.680194386E-18
 90.5964432   1.678969125E-18
 90.7232895   1.677741692E-18
 90.8501358   1.676512295E-18
 90.9769745   1.675280726E-18
 91.1038208   1.674046573E-18
 91.2306671   1.672809317E-18
 91.3575058   1.671569063E-18
 91.4843521   1.670326018E-18
 91.6111984   1.669080697E-18
 91.7380371   1.667833723E-18
 91.8648834   1.666585404E-18
 91.9917297   1.665337291E-18
 92.1185684   1.664090523E-18
 92.2454147   1.662846651E-18
 92.3722534   1.661606603E-18
 92.4990997   1.66037245E-18
 92.625946   1.659145431E-18
 92.7527847   1.657926891E-18
 92.879631   1.656717656E-18
 93.0064774   1.655519898E-18
 93.133316   1.654334549E-18
 93.2601624   1.653161296E-18
 93.3870087   1.652002003E-18
 93.5138474   1.650856461E-18
 93.6406937   1.649724981E-18
 93.76754   1.648606633E-18
 93.8943787   1.647501416E-18
 94.021225   1.646408297E-18
 94.1480713   1.645326035E-18
 94.27491   1.644254526E-18
 94.4017563   1.643192839E-18
 94.528595   1.642138908E-18
 94.6554413   1.641092421E-18
 94.7822876   1.640052655E-18
 94.9091263   1.639018472E-18
 95.0359726   1.637988839E-18
 95.1628189   1.636963859E-18
 95.2896576   1.635942705E-18
 95.4165039   1.634924549E-18
 95.5433502   1.633908874E-18
 95.6701889   1.632895164E-18
 95.7970352   1.631882178E-18
 95.9238815   1.630868882E-18
 96.0507202   1.629854552E-18
 96.1775665   1.628838774E-18
 96.3044128   1.627819998E-18
 96.4312515   1.626797086E-18
 96.5580978   1.625769107E-18
 96.6849442   1.624736579E-18
 96.8117828   1.623698053E-18
 96.9386292   1.622653221E-18
 97.0654678   1.621602391E-18
 97.1923141   1.620545358E-18
 97.3191605   1.619482431E-18
 97.4459991   1.61841392E-18
 97.5728455   1.61733993E-18
 97.6996918   1.616260769E-18
 97.8265305   1.615177163E-18
 97.9533768   1.614088696E-18
 98.0802231   1.612996714E-18
 98.2070618   1.611900907E-18
 98.3339081   1.610801791E-18
 98.4607544   1.609699676E-18
 98.5875931   1.608594666E-18
 98.7144394   1.607487898E-18
 98.8412857   1.606380097E-18
 98.9681244   1.605272398E-18
 99.0949707   1.604166458E-18
 99.221817   1.603063723E-18
 99.3486557   1.601966261E-18
 99.475502   1.60087583E-18
 99.6023407   1.599794602E-18
 99.729187   1.598725264E-18
 99.8560333   1.597668954E-18
 99.982872   1.596628258E-18
 100.109718   1.595602967E-18
 100.236565   1.594595668E-18
 100.363403   1.593605326E-18
 100.49025   1.592631941E-18
 100.617096   1.59167479E-18
 100.743935   1.590731907E-18
 100.870781   1.589801846E-18
 100.997627   1.588881918E-18
 101.124466   1.587969124E-18
 101.251312   1.587061604E-18
 101.378159   1.586156048E-18
 101.504997   1.585249665E-18
 101.631844   1.584339869E-18
 101.75869   1.583423353E-18
 101.885529   1.582498669E-18
 102.012375   1.581562921E-18
 102.139214   1.580614661E-18
 102.26606   1.57965203E-18
 102.392906   1.578674096E-18
 102.519745   1.577680755E-18
 102.646591   1.576671285E-18
 102.773438   1.575645374E-18
 102.900276   1.57460385E-18
 103.027122   1.573546713E-18
 103.153969   1.572475204E-18
 103.280807   1.571389736E-18
 103.407654   1.57029093E-18
 103.5345   1.569179717E-18
 103.661339   1.568057129E-18
 103.788185   1.566924719E-18
 103.915031   1.565782486E-18
 104.04187   1.564631981E-18
 104.168716   1.563474549E-18
 104.295563   1.562311636E-18
 104.422401   1.561144794E-18
 104.549248   1.559974851E-18
 104.676086   1.558805011E-18
 104.802933   1.557637135E-18
 104.929779   1.556473705E-18
 105.056618   1.555318858E-18
 105.183464   1.554174557E-18
 105.31031   1.553044421E-18
 105.437149   1.551933001E-18
 105.563995   1.550843914E-18
 105.690842   1.54977985E-18
 105.81768   1.54874453E-18
 105.944527   1.547740229E-18
 106.071373   1.546769636E-18
 106.198212   1.545834819E-18
 106.325058   1.544935777E-18
 106.451904   1.544073027E-18
 106.578743   1.54324533E-18
 106.705589   1.54245196E-18
 106.832428   1.54169023E-18
 106.959274   1.540957348E-18
 107.086121   1.540250419E-18
 107.212959   1.539566237E-18
 107.339806   1.538900253E-18
 107.466652   1.538248849E-18
 107.593491   1.537607163E-18
 107.720337   1.536971888E-18
 107.847183   1.536338889E-18
 107.974022   1.535704648E-18
 108.100868   1.535065754E-18
 108.227715   1.534419416E-18
 108.354553   1.533762738E-18
 108.4814   1.533094169E-18
 108.608246   1.532410918E-18
 108.735085   1.531710813E-18
 108.861931   1.530993027E-18
 108.988777   1.530255492E-18
 109.115616   1.529497691E-18
 109.242462   1.528719521E-18
 109.369301   1.527919948E-18
 109.496147   1.527098661E-18
 109.622993   1.52625566E-18
 109.749832   1.525392601E-18
 109.876678   1.524508345E-18
 110.003525   1.523605477E-18
 110.130363   1.522684825E-18
 110.25721   1.521748456E-18
 110.384056   1.520799267E-18
 110.510895   1.519839324E-18
 110.637741   1.518870902E-18
 110.764587   1.517896276E-18
 110.891426   1.516919479E-18
 111.018272   1.515942993E-18
 111.145119   1.514968574E-18
 111.271957   1.513999429E-18
 111.398804   1.513037728E-18
 111.52565   1.51208616E-18
 111.652489   1.511146172E-18
 111.779335   1.510219833E-18
 111.906174   1.509308694E-18
 112.03302   1.508414512E-18
 112.159866   1.507538528E-18
 112.286705   1.506682706E-18
 112.413551   1.505847667E-18
 112.540398   1.505034548E-18
 112.667236   1.504244384E-18
 112.794083   1.503476864E-18
 112.920929   1.502732815E-18
 113.047768   1.502012444E-18
 113.174614   1.5013142E-18
 113.30146   1.500638187E-18
 113.428299   1.499982129E-18
 113.555145   1.499344993E-18
 113.681992   1.498724194E-18
 113.80883   1.498117768E-18
 113.935677   1.497522611E-18
 114.062523   1.496936967E-18
 114.189362   1.496358044E-18
 114.316208   1.495783671E-18
 114.443047   1.495212399E-18
 114.569893   1.494642782E-18
 114.696739   1.494072648E-18
 114.823578   1.493501273E-18
 114.950424   1.492927313E-18
 115.077271   1.492350974E-18
 115.204109   1.491771534E-18
 115.330956   1.491188889E-18
 115.457802   1.490602625E-18
 115.584641   1.490013259E-18
 115.711487   1.489419963E-18
 115.838333   1.488822842E-18
 115.965172   1.488222723E-18
 116.092018   1.487619398E-18
 116.218864   1.487013178E-18
 116.345703   1.486403753E-18
 116.472549   1.485791019E-18
 116.599396   1.48517632E-18
 116.726234   1.484558726E-18
 116.853081   1.483938444E-18
 116.979919   1.483315784E-18
 117.106766   1.482691469E-18
 117.233612   1.482065707E-18
 117.360451   1.481438601E-18
 117.487297   1.480812529E-18
 117.614143   1.480187594E-18
 117.740982   1.479565037E-18
 117.867828   1.478946306E-18
 117.994675   1.478333365E-18
 118.121513   1.477727455E-18
 118.24836   1.477130334E-18
 118.375206   1.476542622E-18
 118.502045   1.475965664E-18
 118.628891   1.475400596E-18
 118.755737   1.474847212E-18
 118.882576   1.474304995E-18
 119.009422   1.473774773E-18
 119.136261   1.473254683E-18
 119.263107   1.472744312E-18
 119.389954   1.472242421E-18
 119.516792   1.47174818E-18
 119.643639   1.47126004E-18
 119.770485   1.470777277E-18
 119.897324   1.47029927E-18
 120.02417   1.469825192E-18