 -7.19999981   9.84048302E-18
 -7.07296753   9.840485501E-18
 -6.94593477   9.84048881E-18
 -6.81890202   9.8404946E-18
 -6.69186926   9.840502872E-18
 -6.56483698   9.840511144E-18
 -6.43780422   9.840520243E-18
 -6.31077147   9.840527687E-18
 -6.18373871   9.840532651E-18
 -6.05670643   9.840535132E-18
 -5.92967367   9.840535132E-18
 -5.80264091   9.840534305E-18
 -5.67560816   9.840530169E-18
 -5.5485754   9.840523552E-18
 -5.42154312   9.840512798E-18
 -5.29451036   9.840497082E-18
 -5.16747761   9.840477229E-18
 -5.04044485   9.840454068E-18
 -4.91341257   9.84043008E-18
 -4.78637981   9.840408573E-18
 -4.65934706   9.840390375E-18
 -4.5323143   9.840376313E-18
 -4.40528202   9.840367214E-18
 -4.27824926   9.840363079E-18
 -4.15121651   9.840363079E-18
 -4.02418375   9.840367214E-18
 -3.89715123   9.840377141E-18
 -3.77011847   9.840395339E-18
 -3.64308596   9.840422636E-18
 -3.5160532   9.840459859E-18
 -3.38902068   9.840507008E-18
 -3.26198792   9.840561602E-18
 -3.13495541   9.840619505E-18
 -3.00792265   9.840679889E-18
 -2.88089013   9.840739446E-18
 -2.75385737   9.840796521E-18
 -2.62682486   9.840850288E-18
 -2.4997921   9.840898264E-18
 -2.37275958   9.840936315E-18
 -2.24572682   9.840960303E-18
 -2.11869431   9.840965266E-18
 -1.99166155   9.840946241E-18
 -1.86462891   9.840901573E-18
 -1.73759627   9.840829608E-18
 -1.61056364   9.840732828E-18
 -1.483531   9.840611233E-18
 -1.35649836   9.840465649E-18
 -1.22946572   9.84029525E-18
 -1.10243309   9.840096726E-18
 -0.975400388   9.839867597E-18
 -0.848367751   9.839605381E-18
 -0.721335113   9.839310905E-18
 -0.594302475   9.838987477E-18
 -0.467269808   9.838640061E-18
 -0.34023717   9.838271139E-18
 -0.213204518   9.837883191E-18
 -8.617187291E-2   9.837476218E-18
 4.086076841E-2   9.837049393E-18
 0.16789341   9.836599407E-18
 0.294926047   9.836129568E-18
 0.421958715   9.835639877E-18
 0.548991323   9.835136124E-18
 0.67602402   9.834624099E-18
 0.803056657   9.834107939E-18
 0.930089295   9.833590124E-18
 1.05712187   9.833072309E-18
 1.18415463   9.832553666E-18
 1.31118727   9.832034197E-18
 1.4382199   9.831518863E-18
 1.56525254   9.831010975E-18
 1.69228518   9.830516321E-18
 1.81931782   9.830042346E-18
 1.94635046   9.829589051E-18
 2.07338309   9.829158917E-18
 2.20041585   9.828747808E-18
 2.32744837   9.828351589E-18
 2.45448112   9.827967777E-18
 2.58151364   9.8275972E-18
 2.7085464   9.82724234E-18
 2.83557892   9.826911467E-18
 2.96261168   9.826609546E-18
 3.08964419   9.826343194E-18
 3.21667695   9.826114892E-18
 3.34370947   9.825926295E-18
 3.47074223   9.825779884E-18
 3.59777474   9.825678968E-18
 3.7248075   9.825626029E-18
 3.85184002   9.82562851E-18
 3.97887278   9.825690549E-18
 4.10590553   9.825815453E-18
 4.23293829   9.826004877E-18
 4.35997057   9.826254686E-18
 4.48700333   9.826556607E-18
 4.61403608   9.826905677E-18
 4.74106884   9.827296106E-18
 4.86810112   9.827727067E-18
 4.99513388   9.828193597E-18
 5.12216663   9.82869735E-18
 5.24919939   9.829235018E-18
 5.37623167   9.829800809E-18
 5.50326443   9.83038728E-18
 5.63029718   9.830986159E-18
 5.75732994   9.831591655E-18
 5.88436222   9.832201287E-18
 6.01139498   9.832815883E-18
 6.13842773   9.833439577E-18
 6.26546049   9.834077333E-18
 6.39249325   9.834733287E-18
 6.51952553   9.835405785E-18
 6.64655828   9.836097308E-18
 6.77359104   9.83680372E-18
 6.9006238   9.837527503E-18
 7.02765608   9.838268657E-18
 7.15468884   9.839032145E-18
 7.28172159   9.83982293E-18
 7.40875435   9.840640184E-18
 7.53578663   9.841482254E-18
 7.66281939   9.842340867E-18
 7.78985214   9.843206925E-18
 7.9168849   9.844072984E-18
 8.04391766   9.844932424E-18
 8.17094994   9.845781112E-18
 8.29798317   9.846617391E-18
 8.42501545   9.84744209E-18
 8.55204773   9.848249418E-18
 8.67908096   9.84903524E-18
 8.80611324   9.849793765E-18
 8.93314552   9.850517548E-18
 9.06017876   9.85120328E-18
 9.18721104   9.85185179E-18
 9.31424427   9.852465558E-18
 9.44127655   9.853051202E-18
 9.56830883   9.853612858E-18
 9.69534206   9.854155488E-18
 9.82237434   9.854679093E-18
 9.94940662   9.855186155E-18
 10.0764399   9.855676673E-18
 10.2034721   9.856151475E-18
 10.3305054   9.856615523E-18
 10.4575377   9.857075436E-18
 10.5845699   9.857537002E-18
 10.7116032   9.858005187E-18
 10.8386354   9.85848247E-18
 10.9656687   9.858970506E-18
 11.092701   9.859466815E-18
 11.2197332   9.859969741E-18
 11.3467665   9.860480111E-18
 11.4737988   9.861001235E-18
 11.600831   9.861537248E-18
 11.7278643   9.862092286E-18
 11.8548965   9.862669658E-18
 11.9819298   9.86326771E-18
 12.1089621   9.863883959E-18
 12.2359943   9.864511789E-18
 12.3630276   9.865147064E-18
 12.4900599   9.865785647E-18
 12.6170931   9.866424231E-18
 12.7441254   9.867061987E-18
 12.8711576   9.867698089E-18
 12.9981909   9.868331709E-18
 13.1252232   9.868961194E-18
 13.2522554   9.869583234E-18
 13.3792887   9.870196174E-18
 13.506321   9.870800844E-18
 13.6333542   9.871398895E-18
 13.7603865   9.871995292E-18
 13.8874187   9.872595825E-18
 14.014452   9.873206285E-18
 14.1414843   9.873829152E-18
 14.2685175   9.874466081E-18
 14.3955498   9.875115418E-18
 14.5225821   9.875774681E-18
 14.6496153   9.876443042E-18
 14.7766476   9.877117195E-18
 14.9036798   9.877798791E-18
 15.0307131   9.878487833E-18
 15.1577454   9.879183492E-18
 15.2847786   9.879882459E-18
 15.4118109   9.880579773E-18
 15.5388432   9.881268814E-18
 15.6658764   9.881943794E-18
 15.7929087   9.882602229E-18
 15.9199409   9.883243294E-18
 16.0469742   9.883868643E-18
 16.1740074   9.884480756E-18
 16.3010387   9.885082117E-18
 16.428072   9.885672724E-18
 16.5551052   9.886254232E-18
 16.6821365   9.886823332E-18
 16.8091698   9.887381679E-18
 16.936203   9.887930927E-18
 17.0632343   9.888473557E-18
 17.1902676   9.889015361E-18
 17.3173008   9.889557991E-18
 17.444334   9.89010393E-18
 17.5713654   9.890650697E-18
 17.6983986   9.891197463E-18
 17.8254318   9.891739266E-18
 17.9524632   9.892275279E-18
 18.0794964   9.892806329E-18
 18.2065296   9.893332416E-18
 18.3335609   9.893857676E-18
 18.4605942   9.894386244E-18
 18.5876274   9.894917294E-18
 18.7146587   9.89545248E-18
 18.841692   9.895990148E-18
 18.9687252   9.896527815E-18
 19.0957584   9.89706631E-18
 19.2227898   9.897606458E-18
 19.349823   9.898152398E-18
 19.4768562   9.898707436E-18
 19.6038876   9.899274055E-18
 19.7309208   9.899854735E-18
 19.857954   9.900447824E-18
 19.9849854   9.901050839E-18
 20.1120186   9.901662125E-18
 20.2390518   9.902280029E-18
 20.3660831   9.90290455E-18
 20.4931164   9.903537343E-18
 20.6201496   9.904175927E-18
 20.7471828   9.904819473E-18
 20.8742142   9.905465501E-18
 21.0012474   9.906107394E-18
 21.1282806   9.906742668E-18
 21.255312   9.907365535E-18
 21.3823452   9.907972686E-18
 21.5093784   9.908561638E-18
 21.6364098   9.909134047E-18
 21.763443   9.909692394E-18
 21.8904762   9.910238334E-18
 22.0175076   9.910775174E-18
 22.1445408   9.911303742E-18
 22.271574   9.91182652E-18
 22.3986073   9.91234599E-18
 22.5256386   9.912864632E-18
 22.6526718   9.913389065E-18
 22.779705   9.913920942E-18
 22.9067364   9.914466881E-18
 23.0337696   9.915027709E-18
 23.1608028   9.915605081E-18
 23.2878342   9.916198997E-18
 23.4148674   9.916806148E-18
 23.5419006   9.917426533E-18
 23.668932   9.918057672E-18
 23.7959652   9.918697083E-18
 23.9229984   9.919344765E-18
 24.0500298   9.919999892E-18
 24.177063   9.920658328E-18
 24.3040962   9.921317591E-18
 24.4311295   9.921976026E-18
 24.5581608   9.922628672E-18
 24.685194   9.923273046E-18
 24.8122272   9.92390832E-18
 24.9392586   9.924533669E-18
 25.0662918   9.925149918E-18
 25.193325   9.925758723E-18
 25.3203564   9.926360911E-18
 25.4473896   9.926957308E-18
 25.5744228   9.927549569E-18
 25.7014542   9.928137695E-18
 25.8284874   9.928723339E-18
 25.9555206   9.929307328E-18
 26.0825539   9.929892145E-18
 26.2095852   9.93048027E-18
 26.3366184   9.931075013E-18
 26.4636517   9.931674719E-18
 26.590683   9.932281043E-18
 26.7177162   9.932892329E-18
 26.8447495   9.933508579E-18
 26.9717808   9.934128964E-18
 27.098814   9.934753485E-18
 27.2258472   9.935380488E-18
 27.3528786   9.9360108E-18
 27.4799118   9.93664442E-18
 27.606945   9.937279695E-18
 27.7339783   9.937916624E-18
 27.8610096   9.938552726E-18
 27.9880428   9.939188001E-18
 28.1150761   9.939819139E-18
 28.2421074   9.940445315E-18
 28.3691406   9.941064873E-18
 28.4961739   9.941678641E-18
 28.6232052   9.942286619E-18
 28.7502384   9.942886325E-18
 28.8772717   9.943478586E-18
 29.004303   9.944062576E-18
 29.1313362   9.944638294E-18
 29.2583694   9.94520574E-18
 29.3854027   9.945766568E-18
 29.512434   9.946322433E-18
 29.6394672   9.946876644E-18
 29.7665005   9.947431683E-18
 29.8935318   9.94799003E-18
 30.020565   9.948554994E-18
 30.1475983   9.949126576E-18
 30.2746296   9.949705602E-18
 30.4016628   9.9502929E-18
 30.5286961   9.95088847E-18
 30.6557274   9.951493139E-18
 30.7827606   9.952104426E-18
 30.9097939   9.952724811E-18
 31.0368271   9.953353469E-18
 31.1638584   9.953987916E-18
 31.2908916   9.954625672E-18
 31.4179249   9.955263429E-18
 31.5449562   9.955897876E-18
 31.6719894   9.956528188E-18
 31.7990227   9.957151055E-18
 31.926054   9.957766477E-18
 32.0530891   9.958373628E-18
 32.1801186   9.958971679E-18
 32.3071518   9.959559805E-18
 32.434185   9.960137177E-18
 32.5612183   9.960702968E-18
 32.6882515   9.961258007E-18
 32.8152847   9.9618056E-18
 32.9423141   9.962349058E-18
 33.0693474   9.962890034E-18
 33.1963806   9.963435146E-18
 33.3234138   9.963984394E-18
 33.4504471   9.964541086E-18
 33.5774803   9.965103569E-18
 33.7045135   9.965674324E-18
 33.831543   9.96625335E-18
 33.9585762   9.966841476E-18
 34.0856094   9.967439527E-18
 34.2126427   9.968049159E-18
 34.3396759   9.968668718E-18
 34.4667091   9.969299029E-18
 34.5937386   9.969936786E-18
 34.7207718   9.970581159E-18
 34.847805   9.971228015E-18
 34.9748383   9.971878178E-18
 35.1018715   9.972532478E-18
 35.2289047   9.973190914E-18
 35.355938   9.973854313E-18
 35.4829674   9.974520193E-18
 35.6100006   9.975186901E-18
 35.7370338   9.975848645E-18
 35.8640671   9.976503772E-18
 35.9911003   9.977148146E-18
 36.1181335   9.977783421E-18
 36.245163   9.978410424E-18
 36.3721962   9.979027501E-18
 36.4992294   9.979636305E-18
 36.6262627   9.980235184E-18
 36.7532959   9.980822482E-18
 36.8803291   9.981397373E-18
 37.0073624   9.981959856E-18
 37.1343918   9.982509931E-18
 37.261425   9.983053389E-18
 37.3884583   9.983593537E-18
 37.5154915   9.984133686E-18
 37.6425247   9.984677144E-18
 37.769558   9.985226392E-18
 37.8965874   9.985780603E-18
 38.0236206   9.986342259E-18
 38.1506538   9.986912186E-18
 38.2776871   9.987493694E-18
 38.4047203   9.988089264E-18
 38.5317535   9.988703032E-18
 38.6587868   9.989334998E-18
 38.7858162   9.989984335E-18
 38.9128494   9.990647734E-18
 39.0398827   9.991321886E-18
 39.1669159   9.992001001E-18
 39.2939491   9.992681771E-18
 39.4209824   9.993360886E-18
 39.5480118   9.994036693E-18
 39.675045   9.994706709E-18
 39.8020782   9.995370935E-18
 39.9291115   9.996023581E-18
 40.0561447   9.996664646E-18
 40.1831779   9.997289994E-18
 40.3102074   9.997898799E-18
 40.4372406   9.998491887E-18
 40.5642738   9.999072568E-18
 40.6913071   9.999642496E-18
 40.8183403   1.000020498E-17
 40.9453735   1.000076002E-17
 41.0724068   1.000131009E-17
 41.1994362   1.000185272E-17
 41.3264694   1.000239204E-17
 41.4535027   1.000293054E-17
 41.5805359   1.0003474E-17
 41.7075691   1.00040249E-17
 41.8346024   1.000458821E-17
 41.9616318   1.000516641E-17
 42.088665   1.000575867E-17
 42.2156982   1.000636665E-17
 42.3427315   1.000698538E-17
 42.4697647   1.000761404E-17
 42.5967979   1.000825179E-17
 42.7238312   1.000889782E-17
 42.8508606   1.000955212E-17
 42.9778938   1.001021138E-17
 43.1049271   1.001087478E-17
 43.2319603   1.00115357E-17
 43.3589935   1.001219083E-17
 43.4860268   1.001283437E-17
 43.6130562   1.001346386E-17
 43.7400894   1.001407928E-17
 43.8671227   1.001468312E-17
 43.9941559   1.001527621E-17
 44.1211891   1.00158602E-17
 44.2482224   1.001643261E-17
 44.3752556   1.001699013E-17
 44.502285   1.001753276E-17
 44.6293182   1.001805802E-17
 44.7563515   1.00185717E-17
 44.8833847   1.001907876E-17
 45.0104179   1.001958747E-17
 45.1374512   1.002010198E-17
 45.2644806   1.002062641E-17
 45.3915138   1.002115995E-17
 45.5185471   1.002170009E-17
 45.6455803   1.002224603E-17
 45.7726135   1.002279611E-17
 45.8996468   1.002335446E-17
 46.02668   1.002392438E-17
 46.1537094   1.002451168E-17
 46.2807426   1.002511966E-17
 46.4077759   1.002574666E-17
 46.5348091   1.002639021E-17
 46.6618423   1.002704285E-17
 46.7888756   1.002770212E-17
 46.915905   1.002836634E-17
 47.0429382   1.002903553E-17
 47.1699715   1.002971382E-17
 47.2970047   1.003040617E-17
 47.4240379   1.003111175E-17
 47.5510712   1.003182478E-17
 47.6781044   1.00325403E-17
 47.8051338   1.003325002E-17
 47.9321671   1.003394733E-17
 48.0592003   1.003463224E-17
 48.1862335   1.003530639E-17
 48.3132668   1.003597392E-17
 48.4403   1.003663732E-17
 48.5673294   1.003729658E-17
 48.6943626   1.003794675E-17
 48.8213959   1.00385845E-17
 48.9484291   1.00392082E-17
 49.0754623   1.0039817E-17
 49.2024956   1.004041671E-17
 49.3295288   1.004101393E-17
 49.4565582   1.004161612E-17
 49.5835915   1.004222824E-17
 49.7106247   1.004284945E-17
 49.8376579   1.004347728E-17
 49.9646912   1.004410594E-17
 50.0917244   1.004473294E-17
 50.2187538   1.004535829E-17
 50.345787   1.004598198E-17
 50.4728203   1.004660898E-17
 50.5998535   1.00472393E-17
 50.7268867   1.004787292E-17
 50.85392   1.004850323E-17
 50.9809532   1.004912444E-17
 51.1079826   1.004972994E-17
 51.2350159   1.005031475E-17
 51.3620491   1.005087806E-17
 51.4890823   1.005142235E-17
 51.6161156   1.005195257E-17
 51.7431488   1.005247121E-17
 51.8701782   1.005297993E-17
 51.9972115   1.005347789E-17
 52.1242447   1.005396179E-17
 52.2512779   1.005442998E-17
 52.3783112   1.005488658E-17
 52.5053444   1.005533822E-17
 52.6323776   1.005579317E-17
 52.759407   1.005626053E-17
 52.8864403   1.005674774E-17
 53.0134735   1.005725314E-17
 53.1405067   1.005777427E-17
 53.26754   1.005830614E-17
 53.3945732   1.005884629E-17
 53.5216026   1.005939306E-17
 53.6486359   1.005995223E-17
 53.7756691   1.006052878E-17
 53.9027023   1.006112766E-17
 54.0297356   1.006174804E-17
 54.1567688   1.006238663E-17
 54.283802   1.006303596E-17
 54.4108315   1.006368861E-17
 54.5378647   1.006434043E-17
 54.6648979   1.006499307E-17
 54.7919312   1.006565234E-17
 54.9189644   1.006632235E-17
 55.0459976   1.006700974E-17
 55.173027   1.006771202E-17
 55.3000603   1.00684267E-17
 55.4270935   1.006914635E-17
 55.5541267   1.006986351E-17
 55.68116   1.007057489E-17
 55.8081932   1.007128213E-17
 55.9352264   1.007198937E-17
 56.0622559   1.007270074E-17
 56.1892891   1.007341708E-17
 56.3163223   1.00741359E-17
 56.4433556   1.007484893E-17
 56.5703888   1.007554872E-17
 56.697422   1.007622949E-17
 56.8244514   1.007688958E-17
 56.9514847   1.007753396E-17
 57.0785179   1.007816923E-17
 57.2055511   1.00788012E-17
 57.3325844   1.007943399E-17
 57.4596176   1.008006265E-17
 57.5866508   1.008068386E-17
 57.7136803   1.008129267E-17
 57.8407135   1.008188493E-17
 57.9677467   1.008246313E-17
 58.09478   1.008303388E-17
 58.2218132   1.008360298E-17
 58.3488464   1.008417539E-17
 58.4758759   1.008475276E-17
 58.6029091   1.008532931E-17
 58.7299423   1.008590089E-17
 58.8569756   1.008646255E-17
 58.9840088   1.008701179E-17
 59.111042   1.008755277E-17
 59.2380753   1.008808878E-17
 59.3651047   1.008862562E-17
 59.4921379   1.008916577E-17
 59.6191711   1.008970923E-17
 59.7462044   1.009025186E-17
 59.8732376   1.009079118E-17
 60.0002708   1.009132306E-17
 60.1273003   1.009184915E-17
 60.2543335   1.009237358E-17
 60.3813667   1.009289967E-17
 60.5084   1.009343237E-17
 60.6354332   1.009397335E-17
 60.7624664   1.009452177E-17
 60.8894997   1.009507184E-17
 61.0165291   1.009562109E-17
 61.1435623   1.00961662E-17
 61.2705956   1.009670883E-17
 61.3976288   1.009725312E-17
 61.524662   1.009780402E-17
 61.6516953   1.009836567E-17
 61.7787247   1.009894057E-17
 61.9057579   1.00995229E-17
 62.0327911   1.010011103E-17
 62.1598244   1.010069915E-17
 62.2868576   1.010128728E-17
 62.4138908   1.01018754E-17
 62.5409203   1.010246932E-17
 62.6679535   1.010307399E-17
 62.7949867   1.010369189E-17
 62.92202   1.010432386E-17
 63.0490532   1.010496409E-17
 63.1760864   1.010560764E-17
 63.3031197   1.010624788E-17
 63.4301491   1.01068815E-17
 63.5571823   1.010750685E-17
 63.6842155   1.010812723E-17
 63.8112488   1.010874679E-17
 63.938282   1.010936718E-17
 64.0653152   1.010998674E-17
 64.1923447   1.011060298E-17
 64.3193817   1.011120848E-17
 64.4464111   1.01118024E-17
 64.5734482   1.011238142E-17
 64.7004776   1.01129497E-17
 64.827507   1.011351383E-17
 64.9545441   1.011408045E-17
 65.0815735   1.011465203E-17
 65.2086105   1.011522941E-17
 65.33564   1.011581009E-17
 65.4626694   1.011638746E-17
 65.5897064   1.011695739E-17
 65.7167358   1.01175207E-17
 65.8437729   1.011807987E-17
 65.9708023   1.011864318E-17
 66.0978394   1.011921642E-17
 66.2248688   1.011980537E-17
 66.3518982   1.012040838E-17
 66.4789352   1.012101967E-17
 66.6059647   1.012163344E-17
 66.7330017   1.012224307E-17
 66.8600311   1.012284691E-17
 66.9870682   1.012344496E-17
 67.1140976   1.012404302E-17
 67.241127   1.012464438E-17
 67.3681641   1.012524987E-17
 67.4951935   1.012585785E-17
 67.6222305   1.012646169E-17
 67.7492599   1.012705313E-17
 67.876297   1.012762884E-17
 68.0033264   1.012818719E-17
 68.1303558   1.012873478E-17
 68.2573929   1.012927741E-17
 68.3844223   1.012982418E-17
 68.5114594   1.013037839E-17
 68.6384888   1.013093839E-17
 68.7655182   1.013149922E-17
 68.8925552   1.013205591E-17
 69.0195847   1.013260185E-17
 69.1466217   1.013313869E-17
 69.2736511   1.01336714E-17
 69.4006882   1.013420658E-17
 69.5277176   1.013474756E-17
 69.654747   1.013529515E-17
 69.7817841   1.013584275E-17
 69.9088135   1.013638372E-17
 70.0358505   1.013690898E-17
 70.1628799   1.013741356E-17
 70.289917   1.013790077E-17
 70.4169464   1.01383764E-17
 70.5439758   1.013884789E-17
 70.6710129   1.013932352E-17
 70.7980423   1.013980411E-17
 70.9250793   1.014028305E-17
 71.0521088   1.014075289E-17
 71.1791458   1.014120619E-17
 71.3061752   1.014164128E-17
 71.4332047   1.014206232E-17
 71.5602417   1.014247756E-17
 71.6872711   1.014289529E-17
 71.8143082   1.014332294E-17
 71.9413376   1.014375969E-17
 72.068367   1.014420141E-17
 72.1954041   1.014464064E-17
 72.3224335   1.014506995E-17
 72.4494705   1.014548767E-17
 72.5764999   1.014589878E-17
 72.703537   1.014631154E-17
 72.8305664   1.014673258E-17
 72.9575958   1.014716519E-17
 73.0846329   1.014760608E-17
 73.2116623   1.014804862E-17
 73.3386993   1.014848124E-17
 73.4657288   1.014889814E-17
 73.5927658   1.014930015E-17
 73.7197952   1.014969223E-17
 73.8468246   1.015008597E-17
 73.9738617   1.015048963E-17
 74.1008911   1.015090571E-17
 74.2279282   1.015133005E-17
 74.3549576   1.015175274E-17
 74.481987   1.015216633E-17
 74.609024   1.01525642E-17
 74.7360535   1.01529505E-17
 74.8630905   1.015333183E-17
 74.9901199   1.01537206E-17
 75.117157   1.015412261E-17
 75.2441864   1.015454116E-17
 75.3712158   1.015496964E-17
 75.4982529   1.015539895E-17
 75.6252823   1.015581999E-17
 75.7523193   1.015622779E-17
 75.8793488   1.015662483E-17
 76.0063858   1.015701857E-17
 76.1334152   1.01574181E-17
 76.2604446   1.015782921E-17
 76.3874817   1.015825107E-17
 76.5145111   1.015867789E-17
 76.6415482   1.01590981E-17
 76.7685776   1.015950342E-17
 76.8956146   1.015989137E-17
 77.022644   1.016026691E-17
 77.1496735   1.016063831E-17
 77.2767105   1.016101385E-17
 77.4037399   1.016139766E-17
 77.530777   1.016178727E-17
 77.6578064   1.016217273E-17
 77.7848358   1.016254496E-17
 77.9118729   1.016289652E-17
 78.0389023   1.016322739E-17
 78.1659393   1.016354585E-17
 78.2929688   1.016386184E-17
 78.4200058   1.016418526E-17
 78.5470352   1.016452027E-17
 78.6740646   1.016486603E-17
 78.8011017   1.016521345E-17
 78.9281311   1.016555425E-17
 79.0551682   1.016588346E-17
 79.1821976   1.016620358E-17
 79.3092346   1.016652039E-17
 79.436264   1.016684548E-17
 79.5632935   1.016718545E-17
 79.6903305   1.016754196E-17
 79.8173599   1.016791006E-17
 79.944397   1.016828229E-17
 80.0714264   1.016864956E-17
 80.1984634   1.016900773E-17
 80.3254929   1.016935928E-17
 80.4525223   1.016971E-17
 80.5795593   1.017006734E-17
 80.7065887   1.017043544E-17
 80.8336258   1.017081263E-17
 80.9606552   1.017119148E-17
 81.0876846   1.017156123E-17
 81.2147217   1.017191527E-17
 81.3417511   1.017224945E-17
 81.4687881   1.017256708E-17
 81.5958176   1.017287397E-17
 81.7228546   1.017317837E-17
 81.849884   1.017348443E-17
 81.9769135   1.017379131E-17
 82.1039505   1.017409323E-17
 82.2309799   1.017438109E-17
 82.358017   1.017465158E-17
 82.4850464   1.017490635E-17
 82.6120834   1.017515037E-17
 82.7391129   1.017539521E-17
 82.8661423   1.017564916E-17
 82.9931793   1.017591717E-17
 83.1202087   1.017619841E-17
 83.2472458   1.017648792E-17
 83.3742752   1.017677909E-17
 83.5013123   1.017706695E-17
 83.6283417   1.017735315E-17
 83.7553711   1.017764432E-17
 83.8824081   1.017794789E-17
 84.0094376   1.017827132E-17
 84.1364746   1.017861626E-17
 84.263504   1.017897773E-17
 84.3905334   1.017934831E-17
 84.5175705   1.017972054E-17
 84.6445999   1.018008946E-17
 84.771637   1.018045591E-17
 84.8986664   1.018082317E-17
 85.0257034   1.018119623E-17
 85.1527328   1.018157839E-17
 85.2797623   1.018196882E-17
 85.4067993   1.01823609E-17
 85.5338287   1.018274637E-17
 85.6608658   1.018311777E-17
 85.7878952   1.018347015E-17
 85.9149323   1.018380599E-17
 86.0419617   1.018413438E-17
 86.1689911   1.018445946E-17
 86.2960281   1.018478868E-17
 86.4230576   1.018512286E-17
 86.5500946   1.018545704E-17
 86.677124   1.01857846E-17
 86.8041611   1.018610141E-17
 86.9311905   1.018640582E-17
 87.0582199   1.018670277E-17
 87.185257   1.018699973E-17
 87.3122864   1.018730579E-17
 87.4393234   1.018762343E-17
 87.5663528   1.01879543E-17
 87.6933823   1.018829344E-17
 87.8204193   1.018863176E-17
 87.9474487   1.018896594E-17
 88.0744858   1.018929102E-17
 88.2015152   1.018960783E-17
 88.3285522   1.018992216E-17
 88.4555817   1.019023814E-17
 88.5826111   1.019055744E-17
 88.7096481   1.019087673E-17
 88.8366776   1.019119023E-17
 88.9637146   1.019149215E-17
 89.090744   1.019178084E-17
 89.2177811   1.019205463E-17
 89.3448105   1.019232181E-17
 89.4718399   1.019258982E-17
 89.598877   1.019286527E-17
 89.7259064   1.01931523E-17
 89.8529434   1.019345091E-17
 89.9799728   1.019375532E-17
 90.1070099   1.019406137E-17
 90.2340393   1.019436412E-17
 90.3610687   1.019466439E-17
 90.4881058   1.019496548E-17
 90.6151352   1.019527319E-17
 90.7421722   1.019559166E-17
 90.8692017   1.019591922E-17
 90.9962311   1.019625506E-17
 91.1232681   1.019659255E-17
 91.2502975   1.019692342E-17
 91.3773346   1.019724354E-17
 91.504364   1.01975529E-17
 91.6314011   1.019785648E-17
 91.7584305   1.019815923E-17
 91.8854599   1.019846776E-17
 92.0124969   1.019878375E-17
 92.1395264   1.019910552E-17
 92.2665634   1.019942729E-17
 92.3935928   1.019974658E-17
 92.5206299   1.020006091E-17
 92.6476593   1.020037193E-17
 92.7746887   1.020068709E-17
 92.9017258   1.020101383E-17
 93.0287552   1.020135628E-17
 93.1557922   1.020171362E-17
 93.2828217   1.020208337E-17
 93.4098587   1.020245891E-17
 93.5368881   1.020283445E-17
 93.6639175   1.020320751E-17
 93.7909546   1.020358057E-17
 93.917984   1.020396024E-17
 94.0450211   1.020434984E-17
 94.1720505   1.020475351E-17
 94.2990799   1.020516627E-17
 94.4261169   1.020558317E-17
 94.5531464   1.020599676E-17
 94.6801834   1.020640043E-17
 94.8072128   1.020679334E-17
 94.9342499   1.020717715E-17
 95.0612793   1.020755682E-17
 95.1883087   1.020793733E-17
 95.3153458   1.020832279E-17
 95.4423752   1.020871074E-17
 95.5694122   1.020909786E-17
 95.6964417   1.020947754E-17
 95.8234787   1.020984894E-17
 95.9505081   1.021021042E-17
 96.0775375   1.021056693E-17
 96.2045746   1.021092676E-17
 96.331604   1.02112932E-17
 96.4586411   1.021166957E-17
 96.5856705   1.021205255E-17
 96.7126999   1.021243719E-17
 96.8397369   1.021281687E-17
 96.9667664   1.021318744E-17
 97.0938034   1.021354892E-17
 97.2208328   1.021390461E-17
 97.3478699   1.02142603E-17
 97.4748993   1.021461847E-17
 97.6019287   1.021498077E-17
 97.7289658   1.021534473E-17
 97.8559952   1.021570455E-17
 97.9830322   1.021605611E-17
 98.1100616   1.021639856E-17
 98.2370987   1.021673357E-17
 98.3641281   1.021706527E-17
 98.4911575   1.02174011E-17
 98.6181946   1.021774438E-17
 98.745224   1.021809511E-17
 98.872261   1.021845245E-17
 98.9992905   1.02188131E-17
 99.1263275   1.021917209E-17
 99.2533569   1.021952861E-17
 99.3803864   1.021988512E-17
 99.5074234   1.022024247E-17
 99.6344528   1.022060643E-17
 99.7614899   1.0220977E-17
 99.8885193   1.022135337E-17
 100.015549   1.022173056E-17
 100.142586   1.022210528E-17
 100.269615   1.022247172E-17
 100.396652   1.022282823E-17
 100.523682   1.022317565E-17
 100.650719   1.022351727E-17
 100.777748   1.022385642E-17
 100.904778   1.022419722E-17
 101.031815   1.022453967E-17
 101.158844   1.022488212E-17
 101.285881   1.02252254E-17
 101.41291   1.022556703E-17
 101.539948   1.0225907E-17
 101.666977   1.02262478E-17
 101.794006   1.02265919E-17
 101.921043   1.022694015E-17
 102.048073   1.022729253E-17
 102.17511   1.022764821E-17
 102.302139   1.022800307E-17
 102.429176   1.022835463E-17
 102.556206   1.022870039E-17
 102.683235   1.022903953E-17
 102.810272   1.022937206E-17
 102.937302   1.02297021E-17
 103.064339   1.023002967E-17
 103.191368   1.023035723E-17
 103.318398   1.023068479E-17
 103.445435   1.023100988E-17
 103.572464   1.023133165E-17
 103.699501   1.023164929E-17
 103.82653   1.023196527E-17
 103.953568   1.023228208E-17
 104.080597   1.023260303E-17
 104.207626   1.023293224E-17
 104.334663   1.023326973E-17
 104.461693   1.023361632E-17
 104.58873   1.023396953E-17
 104.715759   1.023432687E-17
 104.842796   1.023468587E-17
 104.969826   1.023504734E-17
 105.096855   1.023541296E-17
 105.223892   1.023578354E-17
 105.350922   1.023616156E-17
 105.477959   1.023654537E-17
 105.604988   1.023693249E-17
 105.732025   1.023732044E-17
 105.859055   1.023770508E-17
 105.986084   1.023808392E-17
 106.113121   1.023845864E-17
 106.24015   1.023882921E-17
 106.367188   1.023919814E-17
 106.494217   1.023956706E-17
 106.621246   1.023993515E-17
 106.748283   1.024029994E-17
 106.875313   1.024065977E-17
 107.00235   1.024100966E-17
 107.129379   1.024135212E-17
 107.256416   1.02416863E-17
 107.383446   1.024201717E-17
 107.510475   1.024234804E-17
 107.637512   1.024268139E-17
 107.764542   1.024301806E-17
 107.891579   1.024335555E-17
 108.018608   1.024369304E-17
 108.145645   1.024402722E-17
 108.272675   1.024435892E-17
 108.399704   1.024468896E-17
 108.526741   1.024501983E-17
 108.65377   1.024535319E-17
 108.780807   1.024569068E-17
 108.907837   1.024603148E-17
 109.034874   1.024637062E-17
 109.161903   1.024670646E-17
 109.288933   1.02470365E-17
 109.41597   1.024735993E-17
 109.542999   1.024767674E-17
 109.670036   1.024799107E-17
 109.797066   1.024830622E-17
 109.924095   1.024862386E-17
 110.051132   1.024894563E-17
 110.178162   1.024926989E-17
 110.305199   1.024959414E-17
 110.432228   1.024991757E-17
 110.559265   1.0250241E-17
 110.686295   1.02505636E-17
 110.813324   1.025089116E-17
 110.940361   1.025122452E-17
 111.06739   1.025156697E-17
 111.194427   1.025191935E-17
 111.321457   1.025227752E-17
 111.448494   1.025263982E-17
 111.575523   1.025300295E-17
 111.702553   1.025336526E-17
 111.82959   1.025372674E-17
 111.956619   1.025408739E-17
 112.083656   1.025444887E-17
 112.210686   1.025481034E-17
 112.337723   1.025517182E-17
 112.464752   1.025553247E-17
 112.591782   1.02558923E-17
 112.718819   1.025625047E-17
 112.845848   1.025660533E-17
 112.972885   1.025695936E-17
 113.099915   1.025731505E-17
 113.226944   1.025767404E-17
 113.353981   1.025803883E-17
 113.48101   1.025840941E-17
 113.608047   1.025878577E-17
 113.735077   1.025916545E-17
 113.862114   1.025954843E-17
 113.989143   1.025993225E-17
 114.116173   1.026031689E-17
 114.24321   1.026070318E-17
 114.370239   1.026109113E-17
 114.497276   1.026148156E-17
 114.624306   1.026187281E-17
 114.751343   1.026226407E-17
 114.878372   1.026265284E-17
 115.005402   1.0263035E-17
 115.132439   1.026341054E-17
 115.259468   1.026377615E-17
 115.386505   1.026413184E-17
 115.513535   1.026447843E-17
 115.640572   1.026481592E-17
 115.767601   1.026514348E-17
 115.89463   1.026546278E-17
 116.021667   1.026577214E-17
 116.148697   1.026607241E-17
 116.275734   1.026636523E-17
 116.402763   1.026664978E-17
 116.529793   1.026692854E-17
 116.65683   1.026720151E-17
 116.783859   1.0267472E-17
 116.910896   1.026774166E-17
 117.037926   1.02680138E-17
 117.164963   1.026828925E-17
 117.291992   1.026856801E-17
 117.419022   1.026885091E-17
 117.546059   1.026913794E-17
 117.673088   1.026942745E-17
 117.800125   1.026972027E-17
 117.927155   1.027001806E-17
 118.054192   1.027032081E-17
 118.181221   1.0270631E-17
 118.30825   1.027094698E-17
 118.435287   1.027127041E-17
 118.562317   1.027159797E-17
 118.689354   1.027192885E-17
 118.816383   1.027226055E-17
 118.943413   1.027259307E-17
 119.07045   1.02729256E-17
 119.197479   1.027325895E-17
 119.324516   1.027359479E-17
 119.451546   1.027393145E-17
 119.578583   1.027426894E-17
 119.705612   1.027460478E-17
 119.832642   1.02749373E-17
 119.959679   1.027526569E-17
 120.086708   1.02755916E-17
 120.213745   1.027591668E-17