 -7.19999981   9.84048302E-18
 -7.07315636   9.840485501E-18
 -6.9463129   9.84048881E-18
 -6.81946898   9.8404946E-18
 -6.69262552   9.840502872E-18
 -6.56578159   9.840511144E-18
 -6.43893814   9.840520243E-18
 -6.31209469   9.840527687E-18
 -6.18525076   9.840532651E-18
 -6.05840731   9.840535132E-18
 -5.93156338   9.840535132E-18
 -5.80471992   9.840533478E-18
 -5.67787647   9.840529342E-18
 -5.55103254   9.840523552E-18
 -5.42418909   9.840513625E-18
 -5.29734564   9.840497909E-18
 -5.17050171   9.840477229E-18
 -5.04365826   9.840454068E-18
 -4.91681433   9.84043008E-18
 -4.78997087   9.840408573E-18
 -4.66312742   9.840391203E-18
 -4.53628349   9.840377968E-18
 -4.40944004   9.840368869E-18
 -4.28259611   9.840363906E-18
 -4.15575266   9.840362251E-18
 -4.02890921   9.84036556E-18
 -3.90206528   9.840374659E-18
 -3.77522182   9.84039203E-18
 -3.64837813   9.840419327E-18
 -3.52153444   9.840457377E-18
 -3.39469075   9.840504526E-18
 -3.2678473   9.84055912E-18
 -3.14100361   9.840617023E-18
 -3.01415992   9.84067658E-18
 -2.88731623   9.84073531E-18
 -2.76047254   9.840792385E-18
 -2.63362908   9.840846979E-18
 -2.50678539   9.84089661E-18
 -2.3799417   9.840936315E-18
 -2.25309801   9.840961957E-18
 -2.12625432   9.840967748E-18
 -1.99941075   9.84094955E-18
 -1.87256718   9.840905709E-18
 -1.74572349   9.840834571E-18
 -1.61887991   9.840739446E-18
 -1.49203622   9.840621159E-18
 -1.36519253   9.840478057E-18
 -1.23834896   9.840310966E-18
 -1.11150527   9.840114097E-18
 -0.984661698   9.839884968E-18
 -0.857818007   9.839623579E-18
 -0.730974376   9.839330757E-18
 -0.604130745   9.839009811E-18
 -0.477287114   9.838666531E-18
 -0.350443482   9.838301744E-18
 -0.223599836   9.837917933E-18
 -9.675619751E-2   9.837514268E-18
 3.008744121E-2   9.837089098E-18
 0.156931072   9.836640766E-18
 0.283774734   9.836170927E-18
 0.410618365   9.835682063E-18
 0.537461996   9.835180792E-18
 0.664305627   9.834672076E-18
 0.791149259   9.834160051E-18
 0.91799289   9.833645545E-18
 1.04483652   9.833128557E-18
 1.17168021   9.832609915E-18
 1.29852378   9.832089618E-18
 1.42536747   9.831570976E-18
 1.55221117   9.831060605E-18
 1.67905474   9.830565124E-18
 1.80589843   9.830090322E-18
 1.932742   9.829637855E-18
 2.05958557   9.829207721E-18
 2.18642926   9.82879413E-18
 2.31327295   9.828396257E-18
 2.44011664   9.828009963E-18
 2.56696033   9.82763525E-18
 2.69380379   9.827278736E-18
 2.82064748   9.826945382E-18
 2.94749117   9.826642634E-18
 3.07433486   9.8263738E-18
 3.20117831   9.826143017E-18
 3.328022   9.825950284E-18
 3.45486569   9.825797255E-18
 3.58170938   9.825686413E-18
 3.70855308   9.825624374E-18
 3.83539653   9.825617757E-18
 3.96224022   9.825673178E-18
 4.08908367   9.825793119E-18
 4.2159276   9.82597758E-18
 4.34277105   9.826220772E-18
 4.46961498   9.826515248E-18
 4.59645844   9.826854392E-18
 4.72330189   9.827235722E-18
 4.85014582   9.827657584E-18
 4.97698927   9.828119151E-18
 5.1038332   9.828619595E-18
 5.23067665   9.829155608E-18
 5.3575201   9.829720573E-18
 5.48436403   9.830305389E-18
 5.61120749   9.830901787E-18
 5.73805141   9.831503974E-18
 5.86489487   9.832107816E-18
 5.99173832   9.832719102E-18
 6.11858225   9.833340315E-18
 6.2454257   9.833976417E-18
 6.37226963   9.834630717E-18
 6.49911308   9.83530156E-18
 6.62595654   9.83598812E-18
 6.75280046   9.836688742E-18
 6.87964392   9.837405081E-18
 7.00648737   9.83813879E-18
 7.1333313   9.83889566E-18
 7.26017475   9.839680655E-18
 7.38701868   9.840493773E-18
 7.51386213   9.841332534E-18
 7.64070559   9.842189493E-18
 7.76754951   9.843053897E-18
 7.89439297   9.843918301E-18
 8.02123642   9.844776914E-18
 8.14808083   9.845626429E-18
 8.27492428   9.846464363E-18
 8.40176773   9.847291543E-18
 8.52861118   9.848103008E-18
 8.65545464   9.848893792E-18
 8.78229809   9.849658107E-18
 8.90914249   9.85038768E-18
 9.03598595   9.851079203E-18
 9.1628294   9.851731849E-18
 9.28967285   9.852348926E-18
 9.4165163   9.852936224E-18
 9.54336071   9.853501188E-18
 9.67020416   9.854047127E-18
 9.79704762   9.854574869E-18
 9.92389107   9.855086066E-18
 10.0507345   9.855579066E-18
 10.1775789   9.856055522E-18
 10.3044224   9.85651957E-18
 10.4312658   9.856977828E-18
 10.5581093   9.857437741E-18
 10.6849527   9.857905098E-18
 10.8117971   9.858381554E-18
 10.9386406   9.858867936E-18
 11.065484   9.85936259E-18
 11.1923275   9.859863034E-18
 11.319171   9.860369269E-18
 11.4460154   9.86088543E-18
 11.5728588   9.861416479E-18
 11.6997023   9.861965727E-18
 11.8265457   9.862537309E-18
 11.9533892   9.863131225E-18
 12.0802336   9.863743339E-18
 12.207077   9.86436786E-18
 12.3339205   9.864998172E-18
 12.4607639   9.865632619E-18
 12.5876074   9.866267894E-18
 12.7144518   9.866904823E-18
 12.8412952   9.867541752E-18
 12.9681387   9.868177854E-18
 13.0949821   9.868811474E-18
 13.2218256   9.869436823E-18
 13.34867   9.870052245E-18
 13.4755135   9.870656914E-18
 13.6023569   9.871253311E-18
 13.7292004   9.8718464E-18
 13.8560438   9.872443624E-18
 13.9828882   9.873051602E-18
 14.1097317   9.873672815E-18
 14.2365751   9.874307262E-18
 14.3634186   9.874954117E-18
 14.490262   9.875610072E-18
 14.6171055   9.876272643E-18
 14.7439499   9.876941832E-18
 14.8707933   9.877618466E-18
 14.9976368   9.878303372E-18
 15.1244802   9.878997376E-18
 15.2513237   9.879696344E-18
 15.3781681   9.880394484E-18
 15.5050116   9.881086007E-18
 15.631855   9.881763468E-18
 15.7586985   9.882424385E-18
 15.8855419   9.883068759E-18
 16.0123863   9.883697416E-18
 16.1392288   9.884312839E-18
 16.2660732   9.884918335E-18
 16.3929176   9.885514732E-18
 16.5197601   9.886099549E-18
 16.6466045   9.886671958E-18
 16.773447   9.887231959E-18
 16.9002914   9.887781207E-18
 17.0271358   9.888323838E-18
 17.1539783   9.888863987E-18
 17.2808228   9.889404963E-18
 17.4076653   9.889950075E-18
 17.5345097   9.890496014E-18
 17.6613541   9.891041126E-18
 17.7881966   9.891582102E-18
 17.915041   9.892117288E-18
 18.0418835   9.892645856E-18
 18.1687279   9.893170289E-18
 18.2955723   9.893693894E-18
 18.4224148   9.894219154E-18
 18.5492592   9.894749377E-18
 18.6761017   9.895283735E-18
 18.8029461   9.895820576E-18
 18.9297905   9.89635907E-18
 19.056633   9.896896737E-18
 19.1834774   9.897435232E-18
 19.3103199   9.89797869E-18
 19.4371643   9.898530419E-18
 19.5640087   9.899093729E-18
 19.6908512   9.899669447E-18
 19.8176956   9.900259227E-18
 19.9445381   9.900858933E-18
 20.0713825   9.90146691E-18
 20.1982269   9.902082333E-18
 20.3250694   9.902703545E-18
 20.4519138   9.903331375E-18
 20.5787563   9.90396665E-18
 20.7056007   9.904608542E-18
 20.8324451   9.90525457E-18
 20.9592876   9.905898944E-18
 21.086132   9.906537528E-18
 21.2129745   9.90716453E-18
 21.339819   9.907774163E-18
 21.4666634   9.908366424E-18
 21.5935059   9.908942142E-18
 21.7203503   9.90950297E-18
 21.8471928   9.910053045E-18
 21.9740372   9.910593194E-18
 22.1008816   9.911125071E-18
 22.2277241   9.911649504E-18
 22.3545685   9.912168146E-18
 22.481411   9.912684307E-18
 22.6082554   9.913202949E-18
 22.7350998   9.91373069E-18
 22.8619423   9.914270839E-18
 22.9887867   9.914827532E-18
 23.1156292   9.915400768E-18
 23.2424736   9.915990548E-18
 23.369318   9.916593562E-18
 23.4961605   9.917208985E-18
 23.6230049   9.917833506E-18
 23.7498474   9.918467953E-18
 23.8766918   9.919110673E-18
 24.0035343   9.919761664E-18
 24.1303787   9.920419273E-18
 24.2572231   9.921079363E-18
 24.3840656   9.921736144E-18
 24.51091   9.922387135E-18
 24.6377525   9.923029027E-18
 24.7645969   9.923660993E-18
 24.8914413   9.924285515E-18
 25.0182838   9.924903419E-18
 25.1451283   9.925515532E-18
 25.2719707   9.926121856E-18
 25.3988152   9.926722389E-18
 25.5256596   9.927316305E-18
 25.6525021   9.927903603E-18
 25.7793465   9.928486765E-18
 25.906189   9.929068273E-18
 26.0330334   9.929652263E-18
 26.1598778   9.930242042E-18
 26.2867203   9.930840094E-18
 26.4135647   9.931443936E-18
 26.5404072   9.932052741E-18
 26.6672516   9.9326632E-18
 26.794096   9.933275314E-18
 26.9209385   9.933888254E-18
 27.0477829   9.934505331E-18
 27.1746254   9.935127371E-18
 27.3014698   9.935755201E-18
 27.4283142   9.936387994E-18
 27.5551567   9.937024096E-18
 27.6820011   9.937660198E-18
 27.8088436   9.938292991E-18
 27.935688   9.938921649E-18
 28.0625324   9.93954617E-18
 28.1893749   9.94016821E-18
 28.3162193   9.940789422E-18
 28.4430618   9.941408153E-18
 28.5699062   9.942022749E-18
 28.6967506   9.942629899E-18
 28.8235931   9.943228778E-18
 28.9504375   9.943815249E-18
 29.07728   9.944392621E-18
 29.2041245   9.944960894E-18
 29.3309689   9.94552255E-18
 29.4578114   9.946082551E-18
 29.5846558   9.946640898E-18
 29.7114983   9.947200072E-18
 29.8383427   9.947759246E-18
 29.9651871   9.948320075E-18
 30.0920296   9.948885039E-18
 30.218874   9.949454966E-18
 30.3457165   9.950032338E-18
 30.4725609   9.950622118E-18
 30.5994053   9.951221824E-18
 30.7262478   9.951832284E-18
 30.8530922   9.952451015E-18
 30.9799347   9.953076363E-18
 31.1067791   9.953705848E-18
 31.2336235   9.954337814E-18
 31.360466   9.954972261E-18
 31.4873104   9.955605881E-18
 31.6141529   9.956238675E-18
 31.7409973   9.956867332E-18
 31.8678417   9.957490199E-18
 31.9946842   9.95810314E-18
 32.1215286   9.958705327E-18
 32.2483711   9.959295107E-18
 32.3752136   9.959873306E-18
 32.5020599   9.960441579E-18
 32.6289024   9.961000753E-18
 32.7557449   9.961551656E-18
 32.8825912   9.962098422E-18
 33.0094337   9.962640225E-18
 33.1362762   9.963181202E-18
 33.2631226   9.963722178E-18
 33.3899651   9.96426729E-18
 33.5168076   9.964819846E-18
 33.6436501   9.965382329E-18
 33.7704964   9.965956392E-18
 33.8973389   9.966542036E-18
 34.0241814   9.967139261E-18
 34.1510277   9.967745584E-18
 34.2778702   9.968361007E-18
 34.4047127   9.968984701E-18
 34.531559   9.969615839E-18
 34.6584015   9.970253596E-18
 34.785244   9.970898797E-18
 34.9120865   9.971551442E-18
 35.0389328   9.972210705E-18
 35.1657753   9.972874104E-18
 35.2926178   9.973539157E-18
 35.4194641   9.974202556E-18
 35.5463066   9.974863473E-18
 35.6731491   9.975520255E-18
 35.7999954   9.976172073E-18
 35.9268379   9.976818928E-18
 36.0536804   9.977459993E-18
 36.1805229   9.978094441E-18
 36.3073692   9.978719789E-18
 36.4342117   9.979334385E-18
 36.5610542   9.979934918E-18
 36.6879005   9.980521389E-18
 36.814743   9.981094625E-18
 36.9415855   9.98165628E-18
 37.0684319   9.982209664E-18
 37.1952744   9.982758912E-18
 37.3221169   9.983304024E-18
 37.4489594   9.983848309E-18
 37.5758057   9.984392594E-18
 37.7026482   9.984936879E-18
 37.8294907   9.985484472E-18
 37.956337   9.986037856E-18
 38.0831795   9.986600339E-18
 38.210022   9.987176884E-18
 38.3368683   9.987768318E-18
 38.4637108   9.98837795E-18
 38.5905533   9.989004126E-18
 38.7173958   9.989646845E-18
 38.8442421   9.990301972E-18
 38.9710846   9.990967025E-18
 39.0979271   9.991637869E-18
 39.2247734   9.992312848E-18
 39.3516159   9.992989482E-18
 39.4784584   9.993666116E-18
 39.6053047   9.994339441E-18
 39.7321472   9.995007803E-18
 39.8589897   9.995667066E-18
 39.9858322   9.996313094E-18
 40.1126785   9.996944233E-18
 40.239521   9.997558828E-18
 40.3663635   9.998158534E-18
 40.4932098   9.99874335E-18
 40.6200523   9.999317414E-18
 40.7468948   9.999883205E-18
 40.8737411   1.000044155E-17
 41.0005836   1.000099576E-17
 41.1274261   1.000154418E-17
 41.2542686   1.000208599E-17
 41.381115   1.000262365E-17
 41.5079575   1.000316132E-17
 41.6348   1.000370313E-17
 41.7616463   1.000425485E-17
 41.8884888   1.000482147E-17
 42.0153313   1.000540546E-17
 42.1421776   1.0006006E-17
 42.2690201   1.000661976E-17
 42.3958626   1.000724429E-17
 42.5227051   1.000787791E-17
 42.6495514   1.000851732E-17
 42.7763939   1.0009165E-17
 42.9032364   1.000982013E-17
 43.0300827   1.00104827E-17
 43.1569252   1.001114692E-17
 43.2837677   1.00118095E-17
 43.4106102   1.001246297E-17
 43.5374565   1.001310321E-17
 43.664299   1.00137269E-17
 43.7911415   1.001433322E-17
 43.9179878   1.001492631E-17
 44.0448303   1.001550782E-17
 44.1716728   1.001608023E-17
 44.2985191   1.001664271E-17
 44.4253616   1.001719361E-17
 44.5522041   1.001773045E-17
 44.6790466   1.001825323E-17
 44.8058929   1.001876526E-17
 44.9327354   1.001927232E-17
 45.0595779   1.001978103E-17
 45.1864243   1.002029802E-17
 45.3132668   1.002082494E-17
 45.4401093   1.002136095E-17
 45.5669556   1.002190441E-17
 45.6937981   1.0022452E-17
 45.8206406   1.002300456E-17
 45.9474831   1.002356539E-17
 46.0743294   1.002413862E-17
 46.2011719   1.002473088E-17
 46.3280144   1.002534465E-17
 46.4548607   1.002597744E-17
 46.5817032   1.002662678E-17
 46.7085457   1.002728522E-17
 46.835392   1.002794862E-17
 46.9622345   1.002861532E-17
 47.089077   1.002928699E-17
 47.2159195   1.002996942E-17
 47.3427658   1.003066342E-17
 47.4696083   1.003137066E-17
 47.5964508   1.003208535E-17
 47.7232971   1.00327992E-17
 47.8501396   1.003350479E-17
 47.9769821   1.003419548E-17
 48.1038284   1.003487212E-17
 48.2306709   1.003553634E-17
 48.3575134   1.003619561E-17
 48.4843559   1.003685322E-17
 48.6112022   1.003751082E-17
 48.7380447   1.003816182E-17
 48.8648872   1.003880205E-17
 48.9917336   1.003942492E-17
 49.118576   1.004002959E-17
 49.2454185   1.00406235E-17
 49.3722649   1.004121411E-17
 49.4991074   1.004181382E-17
 49.6259499   1.004242841E-17
 49.7527924   1.004305955E-17
 49.8796387   1.004369979E-17
 50.0064812   1.00443392E-17
 50.1333237   1.004497117E-17
 50.26017   1.004559238E-17
 50.3870125   1.004620532E-17
 50.513855   1.004681743E-17
 50.6407013   1.004743616E-17
 50.7675438   1.004806317E-17
 50.8943863   1.004869348E-17
 51.0212288   1.0049318E-17
 51.1480751   1.004992432E-17
 51.2749176   1.0050505E-17
 51.4017601   1.005105756E-17
 51.5286064   1.00515853E-17
 51.6554489   1.005209898E-17
 51.7822914   1.005260687E-17
 51.9091377   1.005311228E-17
 52.0359802   1.005361438E-17
 52.1628227   1.005410572E-17
 52.2896652   1.005458135E-17
 52.4165115   1.005503795E-17
 52.543354   1.005548215E-17
 52.6701965   1.005592552E-17
 52.7970428   1.005638212E-17
 52.9238853   1.005686354E-17
 53.0507278   1.005737391E-17
 53.1775742   1.005790744E-17
 53.3044167   1.005845669E-17
 53.4312592   1.005901173E-17
 53.5581017   1.005956677E-17
 53.684948   1.006012511E-17
 53.8117905   1.006069587E-17
 53.938633   1.00612873E-17
 54.0654793   1.006190603E-17
 54.1923218   1.006254958E-17
 54.3191643   1.00632105E-17
 54.4460106   1.006387638E-17
 54.5728531   1.006453812E-17
 54.6996956   1.00651916E-17
 54.8265381   1.006584424E-17
 54.9533844   1.006650433E-17
 55.0802269   1.006718262E-17
 55.2070694   1.006788324E-17
 55.3339157   1.006860454E-17
 55.4607582   1.006933577E-17
 55.5876007   1.007006534E-17
 55.7144432   1.007078334E-17
 55.8412895   1.007148727E-17
 55.968132   1.007218375E-17
 56.0949745   1.007288024E-17
 56.2218208   1.007358417E-17
 56.3486633   1.00742972E-17
 56.4755058   1.007501271E-17
 56.6023521   1.007571912E-17
 56.7291946   1.007640651E-17
 56.8560371   1.00770666E-17
 56.9828796   1.007770353E-17
 57.109726   1.007832474E-17
 57.2365685   1.007894347E-17
 57.3634109   1.007956717E-17
 57.4902573   1.008019913E-17
 57.6170998   1.008083027E-17
 57.7439423   1.008145066E-17
 57.8707886   1.008205036E-17
 57.9976311   1.008262608E-17
 58.1244736   1.00831836E-17
 58.2513161   1.008373368E-17
 58.3781624   1.008428954E-17
 58.5050049   1.008485864E-17
 58.6318474   1.008544015E-17
 58.7586937   1.008602414E-17
 58.8855362   1.008659903E-17
 59.0123787   1.00871549E-17
 59.139225   1.008769008E-17
 59.2660675   1.008821203E-17
 59.39291   1.00887315E-17
 59.5197525   1.008926007E-17
 59.6465988   1.008980436E-17
 59.7734413   1.009036022E-17
 59.9002838   1.009091774E-17
 60.0271301   1.009146533E-17
 60.1539726   1.009199556E-17
 60.2808151   1.009250924E-17
 60.4076614   1.009301464E-17
 60.5345039   1.009352584E-17
 60.6613464   1.009405524E-17
 60.7881889   1.009460448E-17
 60.9150352   1.009517028E-17
 61.0418777   1.009573855E-17
 61.1687202   1.009629855E-17
 61.2955666   1.009684366E-17
 61.4224091   1.009737471E-17
 61.5492516   1.009790494E-17
 61.6760979   1.009844591E-17
 61.8029404   1.00990117E-17
 61.9297829   1.009960148E-17
 62.0566254   1.010020946E-17
 62.1834717   1.010082157E-17
 62.3103142   1.010142624E-17
 62.4371567   1.010201685E-17
 62.564003   1.010259836E-17
 62.6908455   1.010318069E-17
 62.817688   1.010377957E-17
 62.9445343   1.010440161E-17
 63.0713768   1.010504847E-17
 63.1982193   1.010570856E-17
 63.3250618   1.010636782E-17
 63.4519081   1.010701137E-17
 63.5787506   1.010763506E-17
 63.7055931   1.010824138E-17
 63.8324394   1.010884109E-17
 63.9592819   1.010944576E-17
 64.0861282   1.011006118E-17
 64.2129669   1.011068405E-17
 64.3398132   1.011130609E-17
 64.4666595   1.011191489E-17
 64.5934982   1.011249971E-17
 64.7203445   1.011306137E-17
 64.8471909   1.011360813E-17
 64.9740295   1.01141549E-17
 65.1008759   1.011471242E-17
 65.2277145   1.011528814E-17
 65.3545609   1.011587792E-17
 65.4814072   1.011647183E-17
 65.6082458   1.011705582E-17
 65.7350922   1.011762492E-17
 65.8619385   1.011817913E-17
 65.9887772   1.011872921E-17
 66.1156235   1.011928755E-17
 66.2424698   1.011986741E-17
 66.3693085   1.012047042E-17
 66.4961548   1.012109163E-17
 66.6230011   1.012171698E-17
 66.7498398   1.012233489E-17
 66.8766861   1.012293707E-17
 67.0035324   1.01235252E-17
 67.1303711   1.012410836E-17
 67.2572174   1.012469814E-17
 67.3840637   1.012530198E-17
 67.5109024   1.012591658E-17
 67.6377487   1.012653448E-17
 67.7645874   1.012713998E-17
 67.8914337   1.012772231E-17
 68.01828   1.012827818E-17
 68.1451187   1.012881337E-17
 68.271965   1.012934111E-17
 68.3988113   1.012987712E-17
 68.52565   1.013042885E-17
 68.6524963   1.013099464E-17
 68.7793427   1.013156622E-17
 68.9061813   1.013213036E-17
 69.0330276   1.013267795E-17
 69.159874   1.013320652E-17
 69.2867126   1.013372434E-17
 69.413559   1.013424298E-17
 69.5404053   1.013477403E-17
 69.667244   1.013532162E-17
 69.7940903   1.01358808E-17
 69.920929   1.013643666E-17
 70.0477753   1.013697433E-17
 70.1746216   1.013748387E-17
 70.3014603   1.013796612E-17
 70.4283066   1.013843017E-17
 70.5551529   1.013889091E-17
 70.6819916   1.013935909E-17
 70.8088379   1.013984051E-17
 70.9356842   1.014032689E-17
 71.0625229   1.014080666E-17
 71.1893692   1.014126657E-17
 71.3162155   1.014169919E-17
 71.4430542   1.014210864E-17
 71.5699005   1.014250734E-17
 71.6967468   1.014291018E-17
 71.8235855   1.014333039E-17
 71.9504318   1.014376962E-17
 72.0772781   1.014422126E-17
 72.2041168   1.014467125E-17
 72.3309631   1.014510882E-17
 72.4578018   1.014552655E-17
 72.5846481   1.014592856E-17
 72.7114944   1.014632643E-17
 72.8383331   1.014673506E-17
 72.9651794   1.014716189E-17
 73.0920258   1.014760774E-17
 73.2188644   1.014806186E-17
 73.3457108   1.014850936E-17
 73.4725571   1.014893784E-17
 73.5993958   1.014934151E-17
 73.7262421   1.01497278E-17
 73.8530884   1.01501083E-17
 73.9799271   1.015049791E-17
 74.1067734   1.015090653E-17
 74.2336197   1.015133253E-17
 74.3604584   1.015176515E-17
 74.4873047   1.015219197E-17
 74.614151   1.015259977E-17
 74.7409897   1.015298606E-17
 74.867836   1.015335912E-17
 74.9946747   1.015373384E-17
 75.121521   1.015412427E-17
 75.2483673   1.015453786E-17
 75.375206   1.015497213E-17
 75.5020523   1.015541384E-17
 75.6288986   1.015584811E-17
 75.7557373   1.015626335E-17
 75.8825836   1.015665792E-17
 76.0094299   1.015704008E-17
 76.1362686   1.015742389E-17
 76.2631149   1.015782011E-17
 76.3899612   1.015823535E-17
 76.5167999   1.015866383E-17
 76.6436462   1.015909314E-17
 76.7704926   1.015950838E-17
 76.8973312   1.015990212E-17
 77.0241776   1.016027518E-17
 77.1510239   1.016063666E-17
 77.2778625   1.016099896E-17
 77.4047089   1.016137285E-17
 77.5315475   1.01617608E-17
 77.6583939   1.016215288E-17
 77.7852402   1.016253669E-17
 77.9120789   1.016289982E-17
 78.0389252   1.016323649E-17
 78.1657715   1.016355082E-17
 78.2926102   1.016385605E-17
 78.4194565   1.016416789E-17
 78.5463028   1.016449628E-17
 78.6731415   1.01648437E-17
 78.7999878   1.016520187E-17
 78.9268341   1.016555673E-17
 79.0536728   1.016589835E-17
 79.1805191   1.016622095E-17
 79.3073654   1.016653115E-17
 79.4342041   1.016684134E-17
 79.5610504   1.016716642E-17
 79.6878967   1.016751467E-17
 79.8147354   1.016788441E-17
 79.9415817   1.016826657E-17
 80.0684204   1.016864708E-17
 80.1952667   1.016901352E-17
 80.322113   1.016936341E-17
 80.4489517   1.016970421E-17
 80.575798   1.017004666E-17
 80.7026443   1.017040318E-17
 80.829483   1.017077707E-17
 80.9563293   1.017116501E-17
 81.0831757   1.017155131E-17
 81.2100143   1.017192106E-17
 81.3368607   1.017226351E-17
 81.463707   1.017257701E-17
 81.5905457   1.017287149E-17
 81.717392   1.017316017E-17
 81.8442383   1.017345465E-17
 81.971077   1.017376153E-17
 82.0979233   1.017407503E-17
 82.224762   1.017438109E-17
 82.3516083   1.01746673E-17
 82.4784546   1.017492786E-17
 82.6052933   1.017516526E-17
 82.7321396   1.017539356E-17
 82.8589859   1.017562931E-17
 82.9858246   1.017588573E-17
 83.1126709   1.017616697E-17
 83.2395172   1.017646724E-17
 83.3663559   1.017677164E-17
 83.4932022   1.017706943E-17
 83.6200485   1.017735481E-17
 83.7468872   1.017763357E-17
 83.8737335   1.017791894E-17
 84.0005798   1.017822417E-17
 84.1274185   1.017856001E-17
 84.2542648   1.017892562E-17
 84.3811111   1.017930943E-17
 84.5079498   1.017969655E-17
 84.6347961   1.018007292E-17
 84.7616348   1.018043605E-17
 84.8884811   1.018078843E-17
 85.0153275   1.018114247E-17
 85.1421661   1.018151056E-17
 85.2690125   1.018189768E-17
 85.3958588   1.018229969E-17
 85.5226974   1.018270336E-17
 85.6495438   1.018309378E-17
 85.7763901   1.018345857E-17
 85.9032288   1.018379606E-17
 86.0300751   1.018411535E-17
 86.1569214   1.018442803E-17
 86.2837601   1.018474897E-17
 86.4106064   1.018508233E-17
 86.5374527   1.018542478E-17
 86.6642914   1.018576558E-17
 86.7911377   1.018609314E-17
 86.917984   1.018640003E-17
 87.0448227   1.018668954E-17
 87.171669   1.018697326E-17
 87.2985077   1.018726526E-17
 87.425354   1.018757793E-17
 87.5522003   1.018791294E-17
 87.679039   1.018826449E-17
 87.8058853   1.01886177E-17
 87.9327316   1.018895932E-17
 88.0595703   1.018928192E-17
 88.1864166   1.018958963E-17
 88.3132629   1.018988907E-17
 88.4401016   1.019019348E-17
 88.5669479   1.01905078E-17
 88.6937943   1.019083289E-17
 88.8206329   1.019115714E-17
 88.9474792   1.019147064E-17
 89.0743256   1.019176346E-17
 89.2011642   1.019203313E-17
 89.3280106   1.01922879E-17
 89.4548569   1.019254101E-17
 89.5816956   1.019280571E-17
 89.7085419   1.019309026E-17
 89.8353806   1.019339218E-17
 89.9622269   1.019370403E-17
 90.0890732   1.01940167E-17
 90.2159119   1.019432028E-17
 90.3427582   1.019461558E-17
 90.4696045   1.019490841E-17
 90.5964432   1.019520784E-17
 90.7232895   1.019552383E-17
 90.8501358   1.019585635E-17
 90.9769745   1.019620294E-17
 91.1038208   1.019654953E-17
 91.2306671   1.019688702E-17
 91.3575058   1.019720797E-17
 91.4843521   1.019751154E-17
 91.6111984   1.019780519E-17
 91.7380371   1.019809967E-17
 91.8648834   1.019840407E-17
 91.9917297   1.019872005E-17
 92.1185684   1.019904679E-17
 92.2454147   1.019937435E-17
 92.3722534   1.019969613E-17
 92.4990997   1.02000088E-17
 92.625946   1.020031486E-17
 92.7527847   1.020062257E-17
 92.879631   1.020094186E-17
 93.0064774   1.0201281E-17
 93.133316   1.020164E-17
 93.2601624   1.020201471E-17
 93.3870087   1.020239522E-17
 93.5138474   1.020277324E-17
 93.6406937   1.020314547E-17
 93.76754   1.020351274E-17
 93.8943787   1.020388497E-17
 94.021225   1.020426961E-17
 94.1480713   1.020467079E-17
 94.27491   1.020508686E-17
 94.4017563   1.020550873E-17
 94.528595   1.020592728E-17
 94.6554413   1.020633425E-17
 94.7822876   1.020672633E-17
 94.9091263   1.020710601E-17
 95.0359726   1.020748238E-17
 95.1628189   1.020786205E-17
 95.2896576   1.020824835E-17
 95.4165039   1.020863878E-17
 95.5433502   1.020902838E-17
 95.6701889   1.020941054E-17
 95.7970352   1.020978029E-17
 95.9238815   1.021013928E-17
 96.0507202   1.021049332E-17
 96.1775665   1.0210849E-17
 96.3044128   1.021121296E-17
 96.4312515   1.02115885E-17
 96.5580978   1.021197149E-17
 96.6849442   1.021235613E-17
 96.8117828   1.021273415E-17
 96.9386292   1.02131039E-17
 97.0654678   1.021346207E-17
 97.1923141   1.021381527E-17
 97.3191605   1.021416848E-17
 97.4459991   1.021452582E-17
 97.5728455   1.021488978E-17
 97.6996918   1.021525705E-17
 97.8265305   1.021562101E-17
 97.9533768   1.02159767E-17
 98.0802231   1.02163208E-17
 98.2070618   1.021665664E-17
 98.3339081   1.021698834E-17
 98.4607544   1.021732417E-17
 98.5875931   1.021766663E-17
 98.7144394   1.021801983E-17
 98.8412857   1.021837883E-17
 98.9681244   1.021873782E-17
 99.0949707   1.021909517E-17
 99.221817   1.021944837E-17
 99.3486557   1.021979992E-17
 99.475502   1.02201523E-17
 99.6023407   1.02205113E-17
 99.729187   1.022087857E-17
 99.8560333   1.022125328E-17
 99.982872   1.022163048E-17
 100.109718   1.022200436E-17
 100.236565   1.022236915E-17
 100.363403   1.022272318E-17
 100.49025   1.022306977E-17
 100.617096   1.02234114E-17
 100.743935   1.022375302E-17
 100.870781   1.022409713E-17
 100.997627   1.022444454E-17
 101.124466   1.022479279E-17
 101.251312   1.022513855E-17
 101.378159   1.0225481E-17
 101.504997   1.022581766E-17
 101.631844   1.022615184E-17
 101.75869   1.022648768E-17
 101.885529   1.022683013E-17
 102.012375   1.022718003E-17
 102.139214   1.022753572E-17
 102.26606   1.022789389E-17
 102.392906   1.022824957E-17
 102.519745   1.022859864E-17
 102.646591   1.022893944E-17
 102.773438   1.02292728E-17
 102.900276   1.022960201E-17
 103.027122   1.022992958E-17
 103.153969   1.02302588E-17
 103.280807   1.023058801E-17
 103.407654   1.023091392E-17
 103.5345   1.023123735E-17
 103.661339   1.023155499E-17
 103.788185   1.023186849E-17
 103.915031   1.023218199E-17
 104.04187   1.02324988E-17
 104.168716   1.023282471E-17
 104.295563   1.023316137E-17
 104.422401   1.023350796E-17
 104.549248   1.023386117E-17
 104.676086   1.023421768E-17
 104.802933   1.023457585E-17
 104.929779   1.023493402E-17
 105.056618   1.023529467E-17
 105.183464   1.023565946E-17
 105.31031   1.023603252E-17
 105.437149   1.023641219E-17
 105.563995   1.023679849E-17
 105.690842   1.023718809E-17
 105.81768   1.023757521E-17
 105.944527   1.023795819E-17
 106.071373   1.023833456E-17
 106.198212   1.023870762E-17
 106.325058   1.023907654E-17
 106.451904   1.023944546E-17
 106.578743   1.023981356E-17
 106.705589   1.024017917E-17
 106.832428   1.0240539E-17
 106.959274   1.024089055E-17
 107.086121   1.024123466E-17
 107.212959   1.024156966E-17
 107.339806   1.024189971E-17
 107.466652   1.02422281E-17
 107.593491   1.024256145E-17
 107.720337   1.024289812E-17
 107.847183   1.024323891E-17
 107.974022   1.024358137E-17
 108.100868   1.024392217E-17
 108.227715   1.024425883E-17
 108.354553   1.024459135E-17
 108.4814   1.024492305E-17
 108.608246   1.024525558E-17
 108.735085   1.024559059E-17
 108.861931   1.024592808E-17
 108.988777   1.024626557E-17
 109.115616   1.024659892E-17
 109.242462   1.024692731E-17
 109.369301   1.024724826E-17
 109.496147   1.024756341E-17
 109.622993   1.024787609E-17
 109.749832   1.024818959E-17
 109.876678   1.024850557E-17
 110.003525   1.024882486E-17
 110.130363   1.024914581E-17
 110.25721   1.024946676E-17
 110.384056   1.024978688E-17
 110.510895   1.025010617E-17
 110.637741   1.025042794E-17
 110.764587   1.025075385E-17
 110.891426   1.02510872E-17
 111.018272   1.025142966E-17
 111.145119   1.025178038E-17
 111.271957   1.02521369E-17
 111.398804   1.025249589E-17
 111.52565   1.025285489E-17
 111.652489   1.025321223E-17
 111.779335   1.025356957E-17
 111.906174   1.025392609E-17
 112.03302   1.025428508E-17
 112.159866   1.025464573E-17
 112.286705   1.025500804E-17
 112.413551   1.025536869E-17
 112.540398   1.025572769E-17
 112.667236   1.025608337E-17
 112.794083   1.025643906E-17
 112.920929   1.02567964E-17
 113.047768   1.025715954E-17
 113.174614   1.025752846E-17
 113.30146   1.025790235E-17
 113.428299   1.025827954E-17
 113.555145   1.025865756E-17
 113.681992   1.025903393E-17
 113.80883   1.025940781E-17
 113.935677   1.02597817E-17
 114.062523   1.026015724E-17
 114.189362   1.026053692E-17
 114.316208   1.026092321E-17
 114.443047   1.026131364E-17
 114.569893   1.026170655E-17
 114.696739   1.026209863E-17
 114.823578   1.026248658E-17
 114.950424   1.026286956E-17
 115.077271   1.02632451E-17
 115.204109   1.026361403E-17
 115.330956   1.026397468E-17
 115.457802   1.026432706E-17
 115.584641   1.026467116E-17
 115.711487   1.026500617E-17
 115.838333   1.026533125E-17
 115.965172   1.026564476E-17
 116.092018   1.026594585E-17
 116.218864   1.026623702E-17
 116.345703   1.026651909E-17
 116.472549   1.026679536E-17
 116.599396   1.026706916E-17
 116.726234   1.026734048E-17
 116.853081   1.026761179E-17
 116.979919   1.026788228E-17
 117.106766   1.026815359E-17
 117.233612   1.026842491E-17
 117.360451   1.026870036E-17
 117.487297   1.026897995E-17
 117.614143   1.026926781E-17
 117.740982   1.026956311E-17
 117.867828   1.026986669E-17
 117.994675   1.027017605E-17
 118.121513   1.027049121E-17
 118.24836   1.027080884E-17
 118.375206   1.027112814E-17
 118.502045   1.027144908E-17
 118.628891   1.027177251E-17
 118.755737   1.027209842E-17
 118.882576   1.027242929E-17
 119.009422   1.027276347E-17
 119.136261   1.027310096E-17
 119.263107   1.027343762E-17
 119.389954   1.027377346E-17
 119.516792   1.027410764E-17
 119.643639   1.027443851E-17
 119.770485   1.027476608E-17
 119.897324   1.027509281E-17
 120.02417   1.027541955E-17
 120.151016   1.027574629E-17