 -7.19999981   9.827619534E-18
 -7.07315636   9.827644349E-18
 -6.9463129   9.82768819E-18
 -6.81946898   9.82774692E-18
 -6.69262552   9.827815576E-18
 -6.56578159   9.827890849E-18
 -6.43893814   9.827966123E-18
 -6.31209469   9.828038087E-18
 -6.18525076   9.828102607E-18
 -6.05840731   9.82816051E-18
 -5.93156338   9.828211795E-18
 -5.80471992   9.828259772E-18
 -5.67787647   9.82830444E-18
 -5.55103254   9.828343317E-18
 -5.42418909   9.828370614E-18
 -5.29734564   9.828381367E-18
 -5.17050171   9.828368132E-18
 -5.04365826   9.828328428E-18
 -4.91681433   9.828261426E-18
 -4.78997087   9.828171263E-18
 -4.66312742   9.828059594E-18
 -4.53628349   9.827930554E-18
 -4.40944004   9.827785797E-18
 -4.28259611   9.827618707E-18
 -4.15575266   9.827425974E-18
 -4.02890921   9.827204289E-18
 -3.90206528   9.826951172E-18
 -3.77522182   9.826670758E-18
 -3.64837813   9.826368837E-18
 -3.52153444   9.826052027E-18
 -3.39469075   9.825722809E-18
 -3.2678473   9.825385319E-18
 -3.14100361   9.825036249E-18
 -3.01415992   9.824675598E-18
 -2.88731623   9.82430254E-18
 -2.76047254   9.823922037E-18
 -2.63362908   9.823541534E-18
 -2.50678539   9.823171784E-18
 -2.3799417   9.822821886E-18
 -2.25309801   9.822496804E-18
 -2.12625432   9.822197365E-18
 -1.99941075   9.821921087E-18
 -1.87256718   9.821665488E-18
 -1.74572349   9.821430569E-18
 -1.61887991   9.82121881E-18
 -1.49203622   9.821036831E-18
 -1.36519253   9.820891247E-18
 -1.23834896   9.820789504E-18
 -1.11150527   9.820730774E-18
 -0.984661698   9.820713403E-18
 -0.857818007   9.820731601E-18
 -0.730974376   9.820780405E-18
 -0.604130745   9.820856505E-18
 -0.477287114   9.820959903E-18
 -0.350443482   9.821094733E-18
 -0.223599836   9.821263478E-18
 -9.675619751E-2   9.821467792E-18
 3.008744121E-2   9.821703538E-18
 0.156931072   9.821967409E-18
 0.283774734   9.822253613E-18
 0.410618365   9.822556361E-18
 0.537461996   9.822875653E-18
 0.664305627   9.823215624E-18
 0.791149259   9.823581238E-18
 0.91799289   9.823978285E-18
 1.04483652   9.824409246E-18
 1.17168021   9.824873294E-18
 1.29852378   9.825362985E-18
 1.42536747   9.825870047E-18
 1.55221117   9.826389516E-18
 1.67905474   9.826918085E-18
 1.80589843   9.827459888E-18
 1.932742   9.828019062E-18
 2.05958557   9.828598089E-18
 2.18642926   9.829197795E-18
 2.31327295   9.829814044E-18
 2.44011664   9.830443529E-18
 2.56696033   9.831080458E-18
 2.69380379   9.831720695E-18
 2.82064748   9.832365069E-18
 2.94749117   9.833018542E-18
 3.07433486   9.833685249E-18
 3.20117831   9.834367673E-18
 3.328022   9.83506416E-18
 3.45486569   9.835765609E-18
 3.58170938   9.836462922E-18
 3.70855308   9.837147E-18
 3.83539653   9.837812881E-18
 3.96224022   9.838458082E-18
 4.08908367   9.839087566E-18
 4.2159276   9.839707124E-18
 4.34277105   9.840319238E-18
 4.46961498   9.840923907E-18
 4.59645844   9.841515341E-18
 4.72330189   9.84208775E-18
 4.85014582   9.842638652E-18
 4.97698927   9.843167221E-18
 5.1038332   9.843679246E-18
 5.23067665   9.844186307E-18
 5.3575201   9.844699159E-18
 5.48436403   9.845223592E-18
 5.61120749   9.845762914E-18
 5.73805141   9.84631547E-18
 5.86489487   9.846877126E-18
 5.99173832   9.847446226E-18
 6.11858225   9.848024425E-18
 6.2454257   9.848616687E-18
 6.37226963   9.849230455E-18
 6.49911308   9.849869865E-18
 6.62595654   9.850535746E-18
 6.75280046   9.851223133E-18
 6.87964392   9.851921273E-18
 7.00648737   9.852621895E-18
 7.1333313   9.853315073E-18
 7.26017475   9.853999151E-18
 7.38701868   9.854674957E-18
 7.51386213   9.855347455E-18
 7.64070559   9.856019126E-18
 7.76754951   9.856689142E-18
 7.89439297   9.857352541E-18
 8.02123642   9.858003532E-18
 8.14808083   9.858634671E-18
 8.27492428   9.859244303E-18
 8.40176773   9.859834083E-18
 8.52861118   9.860413109E-18
 8.65545464   9.860986346E-18
 8.78229809   9.861559582E-18
 8.90914249   9.862137781E-18
 9.03598595   9.862718462E-18
 9.1628294   9.863297488E-18
 9.28967285   9.863873206E-18
 9.4165163   9.864444788E-18
 9.54336071   9.865018024E-18
 9.67020416   9.865600359E-18
 9.79704762   9.866199238E-18
 9.92389107   9.866818796E-18
 10.0507345   9.867457379E-18
 10.1775789   9.868109198E-18
 10.3044224   9.868765152E-18
 10.4312658   9.869419452E-18
 10.5581093   9.870069616E-18
 10.6849527   9.870718125E-18
 10.8117971   9.871368289E-18
 10.9386406   9.872027552E-18
 11.065484   9.872696741E-18
 11.1923275   9.873371721E-18
 11.319171   9.8740467E-18
 11.4460154   9.874714235E-18
 11.5728588   9.875368535E-18
 11.6997023   9.876011254E-18
 11.8265457   9.876648183E-18
 11.9533892   9.877289248E-18
 12.0802336   9.877940239E-18
 12.207077   9.878602811E-18
 12.3339205   9.879272E-18
 12.4607639   9.879937881E-18
 12.5876074   9.880593008E-18
 12.7144518   9.881234073E-18
 12.8412952   9.881861903E-18
 12.9681387   9.88248477E-18
 13.0949821   9.883109291E-18
 13.2218256   9.883741257E-18
 13.34867   9.88437984E-18
 13.4755135   9.885018424E-18
 13.6023569   9.885647081E-18
 13.7292004   9.886261676E-18
 13.8560438   9.886859728E-18
 13.9828882   9.887447026E-18
 14.1097317   9.888035152E-18
 14.2365751   9.88863403E-18
 14.3634186   9.889249453E-18
 14.490262   9.88987811E-18
 14.6171055   9.890515866E-18
 14.7439499   9.891152795E-18
 14.8707933   9.891781453E-18
 14.9976368   9.892399356E-18
 15.1244802   9.893010643E-18
 15.2513237   9.893624411E-18
 15.3781681   9.894244796E-18
 15.5050116   9.894874281E-18
 15.631855   9.895508728E-18
 15.7586985   9.896139867E-18
 15.8855419   9.89675529E-18
 16.0123863   9.897351687E-18
 16.1392288   9.897928232E-18
 16.2660732   9.89849485E-18
 16.3929176   9.899060642E-18
 16.5197601   9.899635532E-18
 16.6466045   9.900223658E-18
 16.773447   9.900820882E-18
 16.9002914   9.901418107E-18
 17.0271358   9.902005405E-18
 17.1539783   9.902579468E-18
 17.2808228   9.903141951E-18
 17.4076653   9.903701952E-18
 17.5345097   9.904269398E-18
 17.6613541   9.904851733E-18
 17.7881966   9.905450612E-18
 17.915041   9.906061071E-18
 18.0418835   9.90667484E-18
 18.1687279   9.907283644E-18
 18.2955723   9.907882523E-18
 18.4224148   9.908473957E-18
 18.5492592   9.9090687E-18
 18.6761017   9.909674196E-18
 18.8029461   9.910296236E-18
 18.9297905   9.910933992E-18
 19.056633   9.911580848E-18
 19.1834774   9.912226876E-18
 19.3103199   9.912863805E-18
 19.4371643   9.913488326E-18
 19.5640087   9.914107057E-18
 19.6908512   9.91472827E-18
 19.8176956   9.915361063E-18
 19.9445381   9.916011227E-18
 20.0713825   9.916675453E-18
 20.1982269   9.917344642E-18
 20.3250694   9.918010523E-18
 20.4519138   9.918663995E-18
 20.5787563   9.919306715E-18
 20.7056007   9.919944471E-18
 20.8324451   9.92058719E-18
 20.9592876   9.921240663E-18
 21.086132   9.921909852E-18
 21.2129745   9.922588967E-18
 21.339819   9.923269737E-18
 21.4666634   9.923944716E-18
 21.5935059   9.924606461E-18
 21.7203503   9.925258279E-18
 21.8471928   9.925905962E-18
 21.9740372   9.92655778E-18
 22.1008816   9.927220352E-18
 22.2277241   9.927894504E-18
 22.3545685   9.928571965E-18
 22.481411   9.929243635E-18
 22.6082554   9.929900417E-18
 22.7350998   9.930539827E-18
 22.8619423   9.931164349E-18
 22.9887867   9.93178308E-18
 23.1156292   9.932404292E-18
 23.2424736   9.933034604E-18
 23.369318   9.933671533E-18
 23.4961605   9.934309289E-18
 23.6230049   9.934937947E-18
 23.7498474   9.935550888E-18
 23.8766918   9.936147285E-18
 24.0035343   9.936731274E-18
 24.1303787   9.937315264E-18
 24.2572231   9.937907525E-18
 24.3840656   9.938514676E-18
 24.51091   9.939134234E-18
 24.6377525   9.939758755E-18
 24.7645969   9.940379141E-18
 24.8914413   9.940987946E-18
 25.0182838   9.941586824E-18
 25.1451283   9.942182394E-18
 25.2719707   9.942784582E-18
 25.3988152   9.943400832E-18
 25.5256596   9.944034452E-18
 25.6525021   9.944679653E-18
 25.7793465   9.945328162E-18
 25.906189   9.945967573E-18
 26.0330334   9.946592922E-18
 26.1598778   9.947204208E-18
 26.2867203   9.947808877E-18
 26.4135647   9.948414373E-18
 26.5404072   9.949027314E-18
 26.6672516   9.949650181E-18
 26.794096   9.95027553E-18
 26.9209385   9.950896742E-18
 27.0477829   9.95150472E-18
 27.1746254   9.952096981E-18
 27.3014698   9.952678489E-18
 27.4283142   9.953257516E-18
 27.5551567   9.953844814E-18
 27.6820011   9.954448656E-18
 27.8088436   9.955070696E-18
 27.935688   9.955708452E-18
 28.0625324   9.956352826E-18
 28.1893749   9.956998854E-18
 28.3162193   9.957643227E-18
 28.4430618   9.958288428E-18
 28.5699062   9.958941074E-18
 28.6967506   9.959608608E-18
 28.8235931   9.960292687E-18
 28.9504375   9.960991654E-18
 29.07728   9.961698067E-18
 29.2041245   9.96240117E-18
 29.3309689   9.963091866E-18
 29.4578114   9.9637685E-18
 29.5846558   9.964432726E-18
 29.7114983   9.965090334E-18
 29.8383427   9.965747116E-18
 29.9651871   9.966403897E-18
 30.0920296   9.967059024E-18
 30.218874   9.967706707E-18
 30.3457165   9.9683395E-18
 30.4725609   9.968954095E-18
 30.5994053   9.969551319E-18
 30.7262478   9.970135309E-18
 30.8530922   9.970714335E-18
 30.9799347   9.97129667E-18
 31.1067791   9.971887277E-18
 31.2336235   9.972485329E-18
 31.360466   9.973086689E-18
 31.4873104   9.973685568E-18
 31.6141529   9.974280311E-18
 31.7409973   9.974872572E-18
 31.8678417   9.975467315E-18
 31.9946842   9.976071984E-18
 32.1215286   9.976691542E-18
 32.2483711   9.977326817E-18
 32.3752136   9.9779745E-18
 32.5020599   9.978626318E-18
 32.6289024   9.979277309E-18
 32.7557449   9.979923337E-18
 32.8825912   9.980565229E-18
 33.0094337   9.981207121E-18
 33.1362762   9.981852322E-18
 33.2631226   9.982504968E-18
 33.3899651   9.983162576E-18
 33.5168076   9.983821012E-18
 33.6436501   9.984473658E-18
 33.7704964   9.985116377E-18
 33.8973389   9.985745861E-18
 34.0241814   9.986366247E-18
 34.1510277   9.986981669E-18
 34.2778702   9.987598746E-18
 34.4047127   9.988219959E-18
 34.531559   9.98884448E-18
 34.6584015   9.989469829E-18
 34.785244   9.990091868E-18
 34.9120865   9.990706464E-18
 35.0389328   9.991312787E-18
 35.1657753   9.991914147E-18
 35.2926178   9.99251468E-18
 35.4194641   9.993118522E-18
 35.5463066   9.993728982E-18
 35.6731491   9.994346885E-18
 35.7999954   9.994968925E-18
 35.9268379   9.995591792E-18
 36.0536804   9.996212178E-18
 36.1805229   9.996829254E-18
 36.3073692   9.997447986E-18
 36.4342117   9.998069198E-18
 36.5610542   9.998698683E-18
 36.6879005   9.999337266E-18
 36.814743   9.999983294E-18
 36.9415855   1.000063594E-17
 37.0684319   1.000128776E-17
 37.1952744   1.000193461E-17
 37.3221169   1.000257485E-17
 37.4489594   1.00032093E-17
 37.5758057   1.000383878E-17
 37.7026482   1.000446744E-17
 37.8294907   1.000509692E-17
 37.956337   1.000572724E-17
 38.0831795   1.000635507E-17
 38.210022   1.000697545E-17
 38.3368683   1.000758757E-17
 38.4637108   1.000818893E-17
 38.5905533   1.000877953E-17
 38.7173958   1.000936435E-17
 38.8442421   1.000994668E-17
 38.9710846   1.001052985E-17
 39.0979271   1.001111715E-17
 39.2247734   1.001170858E-17
 39.3516159   1.001230084E-17
 39.4784584   1.001289393E-17
 39.6053047   1.001348702E-17
 39.7321472   1.001408176E-17
 39.8589897   1.001468312E-17
 39.9858322   1.001529358E-17
 40.1126785   1.001591976E-17
 40.239521   1.001656082E-17
 40.3663635   1.001721264E-17
 40.4932098   1.001787273E-17
 40.6200523   1.00185353E-17
 40.7468948   1.00191987E-17
 40.8737411   1.00198621E-17
 41.0005836   1.002052798E-17
 41.1274261   1.002119965E-17
 41.2542686   1.002187711E-17
 41.381115   1.002256367E-17
 41.5079575   1.002325354E-17
 41.6348   1.002394341E-17
 41.7616463   1.002462997E-17
 41.8884888   1.002530991E-17
 42.0153313   1.002598241E-17
 42.1421776   1.002664994E-17
 42.2690201   1.002731334E-17
 42.3958626   1.002797509E-17
 42.5227051   1.0028636E-17
 42.6495514   1.002929113E-17
 42.7763939   1.002993881E-17
 42.9032364   1.003057326E-17
 43.0300827   1.00311953E-17
 43.1569252   1.003180741E-17
 43.2837677   1.003241291E-17
 43.4106102   1.003301758E-17
 43.5374565   1.00336239E-17
 43.664299   1.003423271E-17
 43.7911415   1.003484151E-17
 43.9179878   1.003544784E-17
 44.0448303   1.00360492E-17
 44.1716728   1.003664642E-17
 44.2985191   1.003724034E-17
 44.4253616   1.003783839E-17
 44.5522041   1.003844388E-17
 44.6790466   1.003906096E-17
 44.8058929   1.003968796E-17
 44.9327354   1.004032158E-17
 45.0595779   1.004095769E-17
 45.1864243   1.004159048E-17
 45.3132668   1.004221914E-17
 45.4401093   1.004284366E-17
 45.5669556   1.004346901E-17
 45.6937981   1.004409684E-17
 45.8206406   1.004472798E-17
 45.9474831   1.004535746E-17
 46.0743294   1.004597867E-17
 46.2011719   1.004658748E-17
 46.3280144   1.004717726E-17
 46.4548607   1.004775132E-17
 46.5817032   1.004831132E-17
 46.7085457   1.004886553E-17
 46.835392   1.004942057E-17
 46.9622345   1.004998057E-17
 47.089077   1.005054471E-17
 47.2159195   1.005110802E-17
 47.3427658   1.005166637E-17
 47.4696083   1.005221727E-17
 47.5964508   1.005276403E-17
 47.7232971   1.005331411E-17
 47.8501396   1.005387577E-17
 47.9769821   1.005445396E-17
 48.1038284   1.005505119E-17
 48.2306709   1.005566413E-17
 48.3575134   1.0056287E-17
 48.4843559   1.005691235E-17
 48.6112022   1.005753687E-17
 48.7380447   1.005816304E-17
 48.8648872   1.005879501E-17
 48.9917336   1.005943938E-17
 49.118576   1.006009947E-17
 49.2454185   1.006077528E-17
 49.3722649   1.006146101E-17
 49.4991074   1.00621484E-17
 49.6259499   1.006282917E-17
 49.7527924   1.006350167E-17
 49.8796387   1.006416507E-17
 50.0064812   1.006482681E-17
 50.1333237   1.006549269E-17
 50.26017   1.006616601E-17
 50.3870125   1.006684844E-17
 50.513855   1.006753417E-17
 50.6407013   1.006821494E-17
 50.7675438   1.006888578E-17
 50.8943863   1.006954505E-17
 51.0212288   1.007019687E-17
 51.1480751   1.00708462E-17
 51.2749176   1.00715005E-17
 51.4017601   1.007216142E-17
 51.5286064   1.007282813E-17
 51.6554489   1.007349566E-17
 51.7822914   1.007415741E-17
 51.9091377   1.007480674E-17
 52.0359802   1.007544202E-17
 52.1628227   1.007606654E-17
 52.2896652   1.007668693E-17
 52.4165115   1.007730814E-17
 52.543354   1.007793431E-17
 52.6701965   1.007856132E-17
 52.7970428   1.007918501E-17
 52.9238853   1.007979878E-17
 53.0507278   1.008039848E-17
 53.1775742   1.008098661E-17
 53.3044167   1.008156646E-17
 53.4312592   1.008214384E-17
 53.5581017   1.008272369E-17
 53.684948   1.008331016E-17
 53.8117905   1.008389911E-17
 53.938633   1.008448807E-17
 54.0654793   1.008507206E-17
 54.1923218   1.008564943E-17
 54.3191643   1.008622184E-17
 54.4460106   1.008679342E-17
 54.5728531   1.008736996E-17
 54.6996956   1.008795643E-17
 54.8265381   1.008855283E-17
 54.9533844   1.00891575E-17
 55.0802269   1.008976465E-17
 55.2070694   1.009037015E-17
 55.3339157   1.009097233E-17
 55.4607582   1.009157535E-17
 55.5876007   1.009218085E-17
 55.7144432   1.009279379E-17
 55.8412895   1.009341417E-17
 55.968132   1.009404117E-17
 56.0949745   1.009467066E-17
 56.2218208   1.009529683E-17
 56.3486633   1.009591722E-17
 56.4755058   1.009652851E-17
 56.6023521   1.009713566E-17
 56.7291946   1.009774198E-17
 56.8560371   1.009835244E-17
 56.9828796   1.009896703E-17
 57.109726   1.009958411E-17
 57.2365685   1.010020036E-17
 57.3634109   1.010080999E-17
 57.4902573   1.010141218E-17
 57.6170998   1.010201106E-17
 57.7439423   1.010260911E-17
 57.8707886   1.010321378E-17
 57.9976311   1.010382838E-17
 58.1244736   1.01044529E-17
 58.2513161   1.010508486E-17
 58.3781624   1.010571848E-17
 58.5050049   1.010635045E-17
 58.6318474   1.010697993E-17
 58.7586937   1.010760776E-17
 58.8855362   1.010823973E-17
 59.0123787   1.010887914E-17
 59.139225   1.01095293E-17
 59.2660675   1.011018691E-17
 59.39291   1.011084866E-17
 59.5197525   1.011150875E-17
 59.6465988   1.011216139E-17
 59.7734413   1.011280577E-17
 59.9002838   1.01134427E-17
 60.0271301   1.011407632E-17
 60.1539726   1.011471159E-17
 60.2808151   1.0115351E-17
 60.4076614   1.011599124E-17
 60.5345039   1.0116629E-17
 60.6613464   1.011726013E-17
 60.7881889   1.011787969E-17
 60.9150352   1.011848932E-17
 61.0418777   1.011909151E-17
 61.1687202   1.011969205E-17
 61.2955666   1.012029423E-17
 61.4224091   1.012089973E-17
 61.5492516   1.012150771E-17
 61.6760979   1.012211486E-17
 61.8029404   1.012271622E-17
 61.9297829   1.012331013E-17
 62.0566254   1.01238966E-17
 62.1834717   1.012447977E-17
 62.3103142   1.012506376E-17
 62.4371567   1.012565271E-17
 62.564003   1.012624745E-17
 62.6908455   1.012684468E-17
 62.817688   1.012744273E-17
 62.9445343   1.012803664E-17
 63.0713768   1.012862642E-17
 63.1982193   1.012921207E-17
 63.3250618   1.012979688E-17
 63.4519081   1.013038501E-17
 63.5787506   1.013097892E-17
 63.7055931   1.01315778E-17
 63.8324394   1.013217999E-17
 63.9592819   1.013278218E-17
 64.0861282   1.013338106E-17
 64.2129669   1.013397663E-17
 64.3398132   1.013456889E-17
 64.4666595   1.013516115E-17
 64.5934982   1.013575589E-17
 64.7203445   1.013635394E-17
 64.8471909   1.013695365E-17
 64.9740295   1.013755336E-17
 65.1008759   1.013814893E-17
 65.2277145   1.013873788E-17
 65.3545609   1.013932187E-17
 65.4814072   1.013990172E-17
 65.6082458   1.014047827E-17
 65.7350922   1.014105481E-17
 65.8619385   1.014163053E-17
 65.9887772   1.014220625E-17
 66.1156235   1.014277783E-17
 66.2424698   1.014334445E-17
 66.3693085   1.014390445E-17
 66.4961548   1.014445783E-17
 66.6230011   1.014500956E-17
 66.7498398   1.014556046E-17
 66.8766861   1.014611302E-17
 67.0035324   1.01466664E-17
 67.1303711   1.014722144E-17
 67.2572174   1.014777565E-17
 67.3840637   1.014832656E-17
 67.5109024   1.014887332E-17
 67.6377487   1.014941513E-17
 67.7645874   1.014995528E-17
 67.8914337   1.015049294E-17
 68.01828   1.015103061E-17
 68.1451187   1.015156662E-17
 68.271965   1.015209933E-17
 68.3988113   1.015262624E-17
 68.52565   1.015314737E-17
 68.6524963   1.015366022E-17
 68.7793427   1.015416811E-17
 68.9061813   1.015467186E-17
 69.0330276   1.015517644E-17
 69.159874   1.01556835E-17
 69.2867126   1.015619553E-17
 69.413559   1.015671334E-17
 69.5404053   1.015723612E-17
 69.667244   1.015776221E-17
 69.7940903   1.015828912E-17
 69.920929   1.015881769E-17
 70.0477753   1.015934874E-17
 70.1746216   1.015988558E-17
 70.3014603   1.016042904E-17
 70.4283066   1.016097911E-17
 70.5551529   1.016153498E-17
 70.6819916   1.016209415E-17
 70.8088379   1.01626525E-17
 70.9356842   1.016320836E-17
 71.0625229   1.016376009E-17
 71.1893692   1.016430686E-17
 71.3162155   1.016485197E-17
 71.4430542   1.01653946E-17
 71.5699005   1.016593475E-17
 71.6967468   1.016647159E-17
 71.8235855   1.016700347E-17
 71.9504318   1.016752625E-17
 72.0772781   1.016803744E-17
 72.2041168   1.016853789E-17
 72.3309631   1.016902923E-17
 72.4578018   1.016951396E-17
 72.5846481   1.016999538E-17
 72.7114944   1.01704768E-17
 72.8383331   1.017095822E-17
 72.9651794   1.017144046E-17
 73.0920258   1.017192023E-17
 73.2188644   1.01723942E-17
 73.3457108   1.017286239E-17
 73.4725571   1.017332395E-17
 73.5993958   1.017377973E-17
 73.7262421   1.017423385E-17
 73.8530884   1.017468632E-17
 73.9799271   1.017513713E-17
 74.1067734   1.017558547E-17
 74.2336197   1.017602635E-17
 74.3604584   1.017645897E-17
 74.4873047   1.017688166E-17
 74.614151   1.017729442E-17
 74.7409897   1.017769974E-17
 74.867836   1.017810175E-17
 74.9946747   1.017850128E-17
 75.121521   1.017889832E-17
 75.2483673   1.017928958E-17
 75.375206   1.017967505E-17
 75.5020523   1.018005141E-17
 75.6288986   1.018041951E-17
 75.7557373   1.018077933E-17
 75.8825836   1.018113419E-17
 76.0094299   1.018148823E-17
 76.1362686   1.018184226E-17
 76.2631149   1.018219712E-17
 76.3899612   1.018255281E-17
 76.5167999   1.018290767E-17
 76.6436462   1.018326005E-17
 76.7704926   1.018361077E-17
 76.8973312   1.018396232E-17
 77.0241776   1.018431801E-17
 77.1510239   1.018468114E-17
 77.2778625   1.018505255E-17
 77.4047089   1.018542974E-17
 77.5315475   1.018581107E-17
 77.6583939   1.01861924E-17
 77.7852402   1.018657208E-17
 77.9120789   1.01869501E-17
 78.0389252   1.018732812E-17
 78.1657715   1.018770945E-17
 78.2926102   1.01880974E-17
 78.4194565   1.018849114E-17
 78.5463028   1.018888901E-17
 78.6731415   1.018928771E-17
 78.7999878   1.018968311E-17
 78.9268341   1.019007519E-17
 79.0536728   1.019046396E-17
 79.1805191   1.019085274E-17
 79.3073654   1.0191244E-17
 79.4342041   1.019163939E-17
 79.5610504   1.019203643E-17
 79.6878967   1.019243183E-17
 79.8147354   1.019282226E-17
 79.9415817   1.019320524E-17
 80.0684204   1.019358078E-17
 80.1952667   1.019395053E-17
 80.322113   1.019431697E-17
 80.4489517   1.019468424E-17
 80.575798   1.019505316E-17
 80.7026443   1.019542539E-17
 80.829483   1.019579845E-17
 80.9563293   1.019617068E-17
 81.0831757   1.019654126E-17
 81.2100143   1.019691018E-17
 81.3368607   1.019728324E-17
 81.463707   1.019766044E-17
 81.5905457   1.01980459E-17
 81.717392   1.019843964E-17
 81.8442383   1.019883999E-17
 81.971077   1.019924118E-17
 82.0979233   1.019963988E-17
 82.224762   1.020003527E-17
 82.3516083   1.02004257E-17
 82.4784546   1.020081282E-17
 82.6052933   1.020120077E-17
 82.7321396   1.020158954E-17
 82.8589859   1.020197832E-17
 82.9858246   1.020236378E-17
 83.1126709   1.020274346E-17
 83.2395172   1.020311569E-17
 83.3663559   1.020347882E-17
 83.4932022   1.020383451E-17
 83.6200485   1.020418441E-17
 83.7468872   1.020453182E-17
 83.8737335   1.020487676E-17
 84.0005798   1.020521838E-17
 84.1274185   1.020555587E-17
 84.2542648   1.020588923E-17
 84.3811111   1.020621596E-17
 84.5079498   1.020653691E-17
 84.6347961   1.02068562E-17
 84.7616348   1.020717467E-17
 84.8884811   1.020749644E-17
 85.0153275   1.020782152E-17
 85.1421661   1.020814909E-17
 85.2690125   1.02084783E-17
 85.3958588   1.020880752E-17
 85.5226974   1.020913591E-17
 85.6495438   1.020946596E-17
 85.7763901   1.020980014E-17
 85.9032288   1.021013928E-17
 86.0300751   1.021048753E-17
 86.1569214   1.021084404E-17
 86.2837601   1.021120717E-17
 86.4106064   1.021157444E-17
 86.5374527   1.021194419E-17
 86.6642914   1.021231311E-17
 86.7911377   1.021268369E-17
 86.917984   1.021305344E-17
 87.0448227   1.021342733E-17
 87.171669   1.021380287E-17
 87.2985077   1.021418089E-17
 87.425354   1.021455725E-17
 87.5522003   1.021493197E-17
 87.679039   1.021530006E-17
 87.8058853   1.021566237E-17
 87.9327316   1.021602302E-17
 88.0595703   1.021638367E-17
 88.1864166   1.021674846E-17
 88.3132629   1.021711903E-17
 88.4401016   1.021749457E-17
 88.5669479   1.021787425E-17
 88.6937943   1.021825558E-17
 88.8206329   1.021863691E-17
 88.9474792   1.021901907E-17
 89.0743256   1.021940288E-17
 89.2011642   1.021979165E-17
 89.3280106   1.022019035E-17
 89.4548569   1.022059815E-17
 89.5816956   1.022101423E-17
 89.7085419   1.022143609E-17
 89.8353806   1.02218596E-17
 89.9622269   1.022228229E-17
 90.0890732   1.022270416E-17
 90.2159119   1.022312602E-17
 90.3427582   1.022354871E-17
 90.4696045   1.022397471E-17
 90.5964432   1.022440318E-17
 90.7232895   1.022483001E-17
 90.8501358   1.022525187E-17
 90.9769745   1.022566381E-17
 91.1038208   1.022606416E-17
 91.2306671   1.022645377E-17
 91.3575058   1.022683427E-17
 91.4843521   1.022720981E-17
 91.6111984   1.022758452E-17
 91.7380371   1.022795923E-17
 91.8648834   1.022833395E-17
 91.9917297   1.022870535E-17
 92.1185684   1.022907096E-17
 92.2454147   1.022942996E-17
 92.3722534   1.022978234E-17
 92.4990997   1.023012976E-17
 92.625946   1.023047469E-17
 92.7527847   1.023081714E-17
 92.879631   1.023115877E-17
 93.0064774   1.023149791E-17
 93.133316   1.023183127E-17
 93.2601624   1.023215635E-17
 93.3870087   1.023247481E-17
 93.5138474   1.023278831E-17
 93.6406937   1.023310099E-17
 93.76754   1.023341532E-17
 93.8943787   1.023373295E-17
 94.021225   1.023405473E-17
 94.1480713   1.023437816E-17
 94.27491   1.023470241E-17
 94.4017563   1.023502832E-17
 94.528595   1.023535588E-17
 94.6554413   1.023568758E-17
 94.7822876   1.02360259E-17
 94.9091263   1.023637414E-17
 95.0359726   1.0236729E-17
 95.1628189   1.023709048E-17
 95.2896576   1.023745361E-17
 95.4165039   1.023781923E-17
 95.5433502   1.023818484E-17
 95.6701889   1.023855128E-17
 95.7970352   1.023892103E-17
 95.9238815   1.023929492E-17
 96.0507202   1.023967459E-17
 96.1775665   1.024005758E-17
 96.3044128   1.024044222E-17
 96.4312515   1.024082686E-17
 96.5580978   1.024120901E-17
 96.6849442   1.024159117E-17
 96.8117828   1.024197829E-17
 96.9386292   1.024237286E-17
 97.0654678   1.024277404E-17
 97.1923141   1.024318432E-17
 97.3191605   1.024359791E-17
 97.4459991   1.024401316E-17
 97.5728455   1.024442592E-17
 97.6996918   1.02448362E-17
 97.8265305   1.024524565E-17
 97.9533768   1.024565842E-17
 98.0802231   1.024607697E-17
 98.2070618   1.024650297E-17
 98.3339081   1.02469331E-17
 98.4607544   1.024736572E-17
 98.5875931   1.024779668E-17
 98.7144394   1.024822268E-17
 98.8412857   1.024864454E-17
 98.9681244   1.024906309E-17
 99.0949707   1.02494833E-17
 99.221817   1.02499093E-17
 99.3486557   1.025034026E-17
 99.475502   1.025077288E-17
 99.6023407   1.025120466E-17
 99.729187   1.025163149E-17
 99.8560333   1.025205087E-17
 99.982872   1.025246198E-17
 100.109718   1.025286812E-17
 100.236565   1.025327344E-17
 100.363403   1.025368042E-17
 100.49025   1.025408904E-17
 100.617096   1.02544985E-17
 100.743935   1.025490299E-17
 100.870781   1.025530003E-17
 100.997627   1.025568881E-17
 101.124466   1.025606849E-17
 101.251312   1.025644485E-17
 101.378159   1.025681874E-17
 101.504997   1.025719593E-17
 101.631844   1.025757478E-17
 101.75869   1.025795198E-17
 101.885529   1.025832503E-17
 102.012375   1.025869065E-17
 102.139214   1.025904634E-17
 102.26606   1.025939375E-17
 102.392906   1.025973703E-17
 102.519745   1.026007866E-17
 102.646591   1.026042276E-17
 102.773438   1.02607677E-17
 102.900276   1.026111015E-17
 103.027122   1.02614493E-17
 103.153969   1.026178348E-17
 103.280807   1.026211435E-17
 103.407654   1.026244439E-17
 103.5345   1.026277692E-17
 103.661339   1.026311358E-17
 103.788185   1.026345686E-17
 103.915031   1.026380593E-17
 104.04187   1.026415914E-17
 104.168716   1.0264514E-17
 104.295563   1.026486969E-17
 104.422401   1.026522703E-17
 104.549248   1.026558851E-17
 104.676086   1.026595495E-17
 104.802933   1.026632883E-17
 104.929779   1.026670851E-17
 105.056618   1.026709232E-17
 105.183464   1.026747696E-17
 105.31031   1.026785995E-17
 105.437149   1.026824293E-17
 105.563995   1.026862343E-17
 105.690842   1.026900311E-17
 105.81768   1.026938361E-17
 105.944527   1.026976329E-17
 106.071373   1.027014131E-17
 106.198212   1.027051437E-17
 106.325058   1.027088081E-17
 106.451904   1.027123981E-17
 106.578743   1.027159384E-17
 106.705589   1.027194374E-17
 106.832428   1.027229363E-17
 106.959274   1.027264436E-17
 107.086121   1.027299922E-17
 107.212959   1.027335656E-17
 107.339806   1.027371225E-17
 107.466652   1.027406545E-17
 107.593491   1.027441535E-17
 107.720337   1.027476277E-17
 107.847183   1.027511101E-17
 107.974022   1.027546339E-17
 108.100868   1.027582156E-17
 108.227715   1.027618717E-17
 108.354553   1.027655692E-17
 108.4814   1.027692833E-17
 108.608246   1.027729808E-17
 108.735085   1.027766617E-17
 108.861931   1.027803179E-17
 108.988777   1.02783974E-17
 109.115616   1.027876549E-17
 109.242462   1.027913607E-17
 109.369301   1.027950748E-17
 109.496147   1.027987723E-17
 109.622993   1.028024367E-17
 109.749832   1.028060349E-17
 109.876678   1.02809567E-17
 110.003525   1.028130494E-17
 110.130363   1.028165153E-17
 110.25721   1.02820006E-17
 110.384056   1.02823538E-17
 110.510895   1.028271032E-17
 110.637741   1.028307014E-17
 110.764587   1.028342997E-17
 110.891426   1.028378565E-17
 111.018272   1.028413638E-17
 111.145119   1.028448379E-17
 111.271957   1.028482956E-17
 111.398804   1.028517614E-17
 111.52565   1.028552604E-17
 111.652489   1.028587842E-17
 111.779335   1.028623163E-17
 111.906174   1.028658401E-17
 112.03302   1.028693308E-17
 112.159866   1.028727884E-17
 112.286705   1.028762212E-17
 112.413551   1.028796622E-17
 112.540398   1.028831116E-17
 112.667236   1.028866023E-17
 112.794083   1.028901344E-17
 112.920929   1.028936995E-17
 113.047768   1.028972564E-17
 113.174614   1.029007967E-17
 113.30146   1.029043122E-17
 113.428299   1.029078112E-17
 113.555145   1.029112936E-17
 113.681992   1.029147761E-17
 113.80883   1.02918275E-17
 113.935677   1.029217906E-17
 114.062523   1.029253061E-17
 114.189362   1.029287968E-17
 114.316208   1.029322627E-17
 114.443047   1.029357037E-17
 114.569893   1.029391365E-17
 114.696739   1.029425859E-17
 114.823578   1.029460766E-17
 114.950424   1.029496252E-17
 115.077271   1.029532317E-17
 115.204109   1.029568878E-17
 115.330956   1.029605853E-17
 115.457802   1.029643076E-17
 115.584641   1.029680548E-17
 115.711487   1.029718433E-17
 115.838333   1.029756814E-17
 115.965172   1.029795774E-17
 116.092018   1.029835148E-17
 116.218864   1.029874604E-17
 116.345703   1.029913895E-17
 116.472549   1.02995269E-17
 116.599396   1.029990823E-17
 116.726234   1.03002846E-17
 116.853081   1.030065931E-17
 116.979919   1.030103402E-17
 117.106766   1.030140874E-17
 117.233612   1.030178262E-17
 117.360451   1.030215403E-17
 117.487297   1.030251799E-17
 117.614143   1.03028745E-17
 117.740982   1.030322357E-17
 117.867828   1.030356933E-17
 117.994675   1.030391509E-17
 118.121513   1.030426665E-17
 118.24836   1.030462233E-17
 118.375206   1.030498216E-17
 118.502045   1.030534033E-17
 118.628891   1.030569436E-17
 118.755737   1.030603929E-17
 118.882576   1.030637596E-17
 119.009422   1.030670931E-17
 119.136261   1.030704184E-17
 119.263107   1.030737767E-17
 119.389954   1.030771599E-17
 119.516792   1.030805431E-17
 119.643639   1.030838931E-17
 119.770485   1.030871605E-17
 119.897324   1.030903534E-17
 120.02417   1.030934967E-17