 -7.19999981   9.918584172E-19
 -7.07296753   9.918660687E-19
 -6.94593477   9.918797171E-19
 -6.81890202   9.918966743E-19
 -6.69186926   9.919149757E-19
 -6.56483698   9.919323465E-19
 -6.43780422   9.919476493E-19
 -6.31077147   9.919596435E-19
 -6.18373871   9.919678119E-19
 -6.05670643   9.919715342E-19
 -5.92967367   9.919721546E-19
 -5.80264091   9.9197019E-19
 -5.67560816   9.919676051E-19
 -5.5485754   9.919657439E-19
 -5.42154312   9.919660541E-19
 -5.29451036   9.919697764E-19
 -5.16747761   9.91978255E-19
 -5.04044485   9.919919035E-19
 -4.91341257   9.920096879E-19
 -4.78637981   9.920303674E-19
 -4.65934706   9.920532183E-19
 -4.5323143   9.920758623E-19
 -4.40528202   9.920971622E-19
 -4.27824926   9.921164976E-19
 -4.15121651   9.921323174E-19
 -4.02418375   9.921452421E-19
 -3.89715123   9.921568226E-19
 -3.77011847   9.92167576E-19
 -3.64308596   9.921798803E-19
 -3.5160532   9.921954933E-19
 -3.38902068   9.922159661E-19
 -3.26198792   9.922425392E-19
 -3.13495541   9.922744891E-19
 -3.00792265   9.923118156E-19
 -2.88089013   9.923524509E-19
 -2.75385737   9.923936031E-19
 -2.62682486   9.92433618E-19
 -2.4997921   9.924698071E-19
 -2.37275958   9.925009298E-19
 -2.24572682   9.925258486E-19
 -2.11869431   9.925460111E-19
 -1.99166155   9.925623479E-19
 -1.86462891   9.925767202E-19
 -1.73759627   9.925909891E-19
 -1.61056364   9.926069123E-19
 -1.483531   9.926252137E-19
 -1.35649836   9.926473407E-19
 -1.22946572   9.926727766E-19
 -1.10243309   9.927012109E-19
 -0.975400388   9.927312996E-19
 -0.848367751   9.927606645E-19
 -0.721335113   9.927870309E-19
 -0.594302475   9.928093647E-19
 -0.467269808   9.928261152E-19
 -0.34023717   9.928362481E-19
 -0.213204518   9.928413146E-19
 -8.617187291E-2   9.92842452E-19
 4.086076841E-2   9.928420384E-19
 0.16789341   9.928413146E-19
 0.294926047   9.928426588E-19
 0.421958715   9.92848449E-19
 0.548991323   9.928594092E-19
 0.67602402   9.92875746E-19
 0.803056657   9.928964255E-19
 0.930089295   9.929203103E-19
 1.05712187   9.929453326E-19
 1.18415463   9.92969631E-19
 1.31118727   9.929918615E-19
 1.4382199   9.930105764E-19
 1.56525254   9.930256725E-19
 1.69228518   9.930363224E-19
 1.81931782   9.930436637E-19
 1.94635046   9.930489369E-19
 2.07338309   9.930530728E-19
 2.20041585   9.930589665E-19
 2.32744837   9.930675485E-19
 2.45448112   9.930795426E-19
 2.58151364   9.93095259E-19
 2.7085464   9.931154216E-19
 2.83557892   9.931384792E-19
 2.96261168   9.931631913E-19
 3.08964419   9.931881101E-19
 3.21667695   9.932117881E-19
 3.34370947   9.93233605E-19
 3.47074223   9.932525268E-19
 3.59777474   9.93267933E-19
 3.7248075   9.932812713E-19
 3.85184002   9.932923348E-19
 3.97887278   9.933036052E-19
 4.10590553   9.933157027E-19
 4.23293829   9.933302817E-19
 4.35997057   9.933487899E-19
 4.48700333   9.933717442E-19
 4.61403608   9.933985241E-19
 4.74106884   9.934285094E-19
 4.86810112   9.934600457E-19
 4.99513388   9.934912718E-19
 5.12216663   9.935209469E-19
 5.24919939   9.935477268E-19
 5.37623167   9.935707845E-19
 5.50326443   9.9359043E-19
 5.63029718   9.936064567E-19
 5.75732994   9.936193814E-19
 5.88436222   9.936309619E-19
 6.01139498   9.936413016E-19
 6.13842773   9.936524686E-19
 6.26546049   9.936643593E-19
 6.39249325   9.936782146E-19
 6.51952553   9.936935174E-19
 6.64655828   9.93710061E-19
 6.77359104   9.937275352E-19
 6.9006238   9.937441822E-19
 7.02765608   9.937603123E-19
 7.15468884   9.937750981E-19
 7.28172159   9.937882296E-19
 7.40875435   9.937994999E-19
 7.53578663   9.938103567E-19
 7.66281939   9.938210066E-19
 7.78985214   9.938332076E-19
 7.9168849   9.938479934E-19
 8.04391766   9.938670186E-19
 8.17094994   9.938915238E-19
 8.29798317   9.939220261E-19
 8.42501545   9.939585254E-19
 8.55204773   9.940009184E-19
 8.67908096   9.940487915E-19
 8.80611324   9.941014209E-19
 8.93314552   9.94156325E-19
 9.06017876   9.942119529E-19
 9.18721104   9.942666502E-19
 9.31424427   9.943179354E-19
 9.44127655   9.943640507E-19
 9.56830883   9.94403652E-19
 9.69534206   9.944365324E-19
 9.82237434   9.944630022E-19
 9.94940662   9.944834749E-19
 10.0764399   9.944989845E-19
 10.2034721   9.945100481E-19
 10.3305054   9.945192505E-19
 10.4575377   9.945272121E-19
 10.5845699   9.945350703E-19
 10.7116032   9.945434455E-19
 10.8386354   9.945520275E-19
 10.9656687   9.945601959E-19
 11.092701   9.945677439E-19
 11.2197332   9.94573741E-19
 11.3467665   9.945779803E-19
 11.4737988   9.945796347E-19
 11.600831   9.945795313E-19
 11.7278643   9.945781871E-19
 11.8548965   9.945769463E-19
 11.9819298   9.945779803E-19
 12.1089621   9.945826332E-19
 12.2359943   9.945927661E-19
 12.3630276   9.946101369E-19
 12.4900599   9.946351592E-19
 12.6170931   9.94668143E-19
 12.7441254   9.947076409E-19
 12.8711576   9.947526188E-19
 12.9981909   9.948006987E-19
 13.1252232   9.948498125E-19
 13.2522554   9.948982026E-19
 13.3792887   9.949438009E-19
 13.506321   9.949864007E-19
 13.6333542   9.950250714E-19
 13.7603865   9.950609504E-19
 13.8874187   9.950958988E-19
 14.014452   9.951313641E-19
 14.1414843   9.951695178E-19
 14.2685175   9.952107735E-19
 14.3955498   9.952557514E-19
 14.5225821   9.953041415E-19
 14.6496153   9.953555301E-19
 14.7766476   9.954088832E-19
 14.9036798   9.954602718E-19
 15.0307131   9.955092823E-19
 15.1577454   9.955543636E-19
 15.2847786   9.955941717E-19
 15.4118109   9.956277759E-19
 15.5388432   9.956563136E-19
 15.6658764   9.956804053E-19
 15.7929087   9.957014984E-19
 15.9199409   9.957207303E-19
 16.0469742   9.95740686E-19
 16.1740074   9.957620893E-19
 16.3010387   9.9578463E-19
 16.428072   9.958076877E-19
 16.5551052   9.958313657E-19
 16.6821365   9.958529758E-19
 16.8091698   9.95870967E-19
 16.936203   9.958836849E-19
 17.0632343   9.958915431E-19
 17.1902676   9.958936111E-19
 17.3173008   9.958911295E-19
 17.444334   9.958856494E-19
 17.5713654   9.95879032E-19
 17.6983986   9.958730349E-19
 17.8254318   9.9587045E-19
 17.9524632   9.958728281E-19
 18.0794964   9.958811E-19
 18.2065296   9.958960926E-19
 18.3335609   9.959178061E-19
 18.4605942   9.959440691E-19
 18.5876274   9.959752951E-19
 18.7146587   9.960091062E-19
 18.841692   9.960441579E-19
 18.9687252   9.960792097E-19
 19.0957584   9.961134343E-19
 19.2227898   9.961466249E-19
 19.349823   9.961791952E-19
 19.4768562   9.962113518E-19
 19.6038876   9.962441288E-19
 19.7309208   9.962772161E-19
 19.857954   9.963116475E-19
 19.9849854   9.963473196E-19
 20.1120186   9.963845428E-19
 20.2390518   9.964226965E-19
 20.3660831   9.964602298E-19
 20.4931164   9.964968325E-19
 20.6201496   9.965304367E-19
 20.7471828   9.96561456E-19
 20.8742142   9.96588236E-19
 21.0012474   9.966105699E-19
 21.1282806   9.966282508E-19
 21.255312   9.966415891E-19
 21.3823452   9.966513085E-19
 21.5093784   9.966588565E-19
 21.6364098   9.966658876E-19
 21.763443   9.96673022E-19
 21.8904762   9.966818108E-19
 22.0175076   9.966934947E-19
 22.1445408   9.96708384E-19
 22.271574   9.967273057E-19
 22.3986073   9.967490192E-19
 22.5256386   9.967732142E-19
 22.6526718   9.96799167E-19
 22.779705   9.968255334E-19
 22.9067364   9.968513828E-19
 23.0337696   9.968756812E-19
 23.1608028   9.968991525E-19
 23.2878342   9.969204524E-19
 23.4148674   9.969399945E-19
 23.5419006   9.969587095E-19
 23.668932   9.969768041E-19
 23.7959652   9.969957258E-19
 23.9229984   9.970166121E-19
 24.0500298   9.97038946E-19
 24.177063   9.970633478E-19
 24.3040962   9.97089921E-19
 24.4311295   9.971184588E-19
 24.5581608   9.971485474E-19
 24.685194   9.971786361E-19
 24.8122272   9.972092418E-19
 24.9392586   9.972377796E-19
 25.0662918   9.972656969E-19
 25.193325   9.972905123E-19
 25.3203564   9.973113986E-19
 25.4473896   9.973288728E-19
 25.5744228   9.973435553E-19
 25.7014542   9.973556528E-19
 25.8284874   9.973649586E-19
 25.9555206   9.973734372E-19
 26.0825539   9.973810886E-19
 26.2095852   9.973888434E-19
 26.3366184   9.97396288E-19
 26.4636517   9.974033191E-19
 26.590683   9.974098331E-19
 26.7177162   9.974154166E-19
 26.8447495   9.974196559E-19
 26.9717808   9.974221374E-19
 27.098814   9.97423068E-19
 27.2258472   9.974232748E-19
 27.3528786   9.974242054E-19
 27.4799118   9.974276175E-19
 27.606945   9.974340282E-19
 27.7339783   9.974459189E-19
 27.8610096   9.97464944E-19
 27.9880428   9.97492241E-19
 28.1150761   9.97526569E-19
 28.2421074   9.975683416E-19
 28.3691406   9.976153875E-19
 28.4961739   9.976649149E-19
 28.6232052   9.977141322E-19
 28.7502384   9.977594203E-19
 28.8772717   9.977985046E-19
 29.004303   9.978295239E-19
 29.1313362   9.97851651E-19
 29.2583694   9.978648859E-19
 29.3854027   9.978708829E-19
 29.512434   9.978707795E-19
 29.6394672   9.978678844E-19
 29.7665005   9.978640587E-19
 29.8935318   9.978623009E-19
 30.020565   9.978634383E-19
 30.1475983   9.978690218E-19
 30.2746296   9.978787411E-19
 30.4016628   9.978912522E-19
 30.5286961   9.979057279E-19
 30.6557274   9.9791979E-19
 30.7827606   9.979321977E-19
 30.9097939   9.979406763E-19
 31.0368271   9.979451224E-19
 31.1638584   9.97945536E-19
 31.2908916   9.979425374E-19
 31.4179249   9.979384015E-19
 31.5449562   9.97934369E-19
 31.6719894   9.979323011E-19
 31.7990227   9.979341622E-19
 31.926054   9.979414001E-19
 32.0530891   9.979544282E-19
 32.1801186   9.979734533E-19
 32.3071518   9.979977517E-19
 32.434185   9.980261861E-19
 32.5612183   9.980573087E-19
 32.6882515   9.980889484E-19
 32.8152847   9.981187269E-19
 32.9423141   9.981464375E-19
 33.0693474   9.981707359E-19
 33.1963806   9.981922426E-19
 33.3234138   9.982113711E-19
 33.4504471   9.982299827E-19
 33.5774803   9.982488011E-19
 33.7045135   9.982705146E-19
 33.831543   9.982957436E-19
 33.9585762   9.983257289E-19
 34.0856094   9.983598501E-19
 34.2126427   9.983974868E-19
 34.3396759   9.984364677E-19
 34.4667091   9.984743112E-19
 34.5937386   9.985097765E-19
 34.7207718   9.98540589E-19
 34.847805   9.98565301E-19
 34.9748383   9.985833956E-19
 35.1018715   9.985952863E-19
 35.2289047   9.986008698E-19
 35.355938   9.98602214E-19
 35.4829674   9.986008698E-19
 35.6100006   9.985977679E-19
 35.7370338   9.985940456E-19
 35.8640671   9.985919776E-19
 35.9911003   9.985906334E-19
 36.1181335   9.985906334E-19
 36.245163   9.98591564E-19
 36.3721962   9.98592598E-19
 36.4992294   9.985934252E-19
 36.6262627   9.985935286E-19
 36.7532959   9.98593115E-19
 36.8803291   9.985923912E-19
 37.0073624   9.985928048E-19
 37.1343918   9.985959067E-19
 37.261425   9.986031446E-19
 37.3884583   9.986164828E-19
 37.5154915   9.98636025E-19
 37.6425247   9.986631151E-19
 37.769558   9.986974431E-19
 37.8965874   9.987385954E-19
 38.0236206   9.987844005E-19
 38.1506538   9.988326872E-19
 38.2776871   9.988815942E-19
 38.4047203   9.989282265E-19
 38.5317535   9.98970206E-19
 38.6587868   9.990052577E-19
 38.7858162   9.990316241E-19
 38.9128494   9.990497187E-19
 39.0398827   9.990585075E-19
 39.1669159   9.990607822E-19
 39.2939491   9.990568531E-19
 39.4209824   9.990494085E-19
 39.5480118   9.990402061E-19
 39.675045   9.990312105E-19
 39.8020782   9.990236625E-19
 39.9291115   9.99017562E-19
 40.0561447   9.990146669E-19
 40.1831779   9.990138397E-19
 40.3102074   9.990154941E-19
 40.4372406   9.990183892E-19
 40.5642738   9.990216979E-19
 40.6913071   9.990251101E-19
 40.8183403   9.990290392E-19
 40.9453735   9.990340023E-19
 41.0724068   9.990416537E-19
 41.1994362   9.990523036E-19
 41.3264694   9.990682269E-19
 41.4535027   9.990903539E-19
 41.5805359   9.991186849E-19
 41.7075691   9.991532197E-19
 41.8346024   9.991929243E-19
 41.9616318   9.992368683E-19
 42.088665   9.992828802E-19
 42.2156982   9.993293057E-19
 42.3427315   9.993733531E-19
 42.4697647   9.994134714E-19
 42.5967979   9.994502809E-19
 42.7238312   9.994817138E-19
 42.8508606   9.995089073E-19
 42.9778938   9.995321718E-19
 43.1049271   9.995507833E-19
 43.2319603   9.995669134E-19
 43.3589935   9.995811822E-19
 43.4860268   9.995928662E-19
 43.6130562   9.996021719E-19
 43.7400894   9.996096166E-19
 43.8671227   9.996148898E-19
 43.9941559   9.996174748E-19
 44.1211891   9.99616751E-19
 44.2482224   9.996129253E-19
 44.3752556   9.996059976E-19
 44.502285   9.995971055E-19
 44.6293182   9.995871793E-19
 44.7563515   9.995768395E-19
 44.8833847   9.99567327E-19
 45.0104179   9.995599857E-19
 45.1374512   9.995558498E-19
 45.2644806   9.995555396E-19
 45.3915138   9.995613299E-19
 45.5185471   9.995731172E-19
 45.6455803   9.995917288E-19
 45.7726135   9.996171646E-19
 45.8996468   9.996488042E-19
 46.02668   9.996852002E-19
 46.1537094   9.997256286E-19
 46.2807426   9.997679183E-19
 46.4077759   9.998100011E-19
 46.5348091   9.998507397E-19
 46.6618423   9.99888273E-19
 46.7888756   9.999211535E-19
 46.915905   9.999502082E-19
 47.0429382   9.999742998E-19
 47.1699715   9.99993842E-19
 47.2970047   1.000009662E-18
 47.4240379   1.000022276E-18
 47.5510712   1.000033443E-18
 47.6781044   1.000043576E-18
 47.8051338   1.000055053E-18
 47.9321671   1.000067461E-18
 48.0592003   1.000081937E-18
 48.1862335   1.00009879E-18
 48.3132668   1.000117712E-18
 48.4403   1.000138495E-18
 48.5673294   1.000160519E-18
 48.6943626   1.000182749E-18
 48.8213959   1.000204566E-18
 48.9484291   1.000225659E-18
 49.0754623   1.000246235E-18
 49.2024956   1.000266088E-18
 49.3295288   1.000285527E-18
 49.4565582   1.000305172E-18
 49.5835915   1.000325128E-18
 49.7106247   1.000345911E-18
 49.8376579   1.000367624E-18
 49.9646912   1.000390785E-18
 50.0917244   1.000413946E-18
 50.2187538   1.000436177E-18
 50.345787   1.00045665E-18
 50.4728203   1.00047371E-18
 50.5998535   1.000485808E-18
 50.7268867   1.000492839E-18
 50.85392   1.000494286E-18
 50.9809532   1.000491288E-18
 51.1079826   1.00048467E-18
 51.2350159   1.000476605E-18
 51.3620491   1.000469781E-18
 51.4890823   1.000466989E-18
 51.6161156   1.000469781E-18
 51.7431488   1.000479294E-18
 51.8701782   1.000496044E-18
 51.9972115   1.000518481E-18
 52.1242447   1.000545468E-18
 52.2512779   1.000574213E-18
 52.3783112   1.000601716E-18
 52.5053444   1.000626325E-18
 52.6323776   1.00064566E-18
 52.759407   1.000659205E-18
 52.8864403   1.000668201E-18
 53.0134735   1.000673061E-18
 53.1405067   1.000676783E-18
 53.26754   1.000680919E-18
 53.3945732   1.00068826E-18
 53.5216026   1.000700564E-18
 53.6486359   1.000717832E-18
 53.7756691   1.000740579E-18
 53.9027023   1.000766739E-18
 54.0297356   1.000794656E-18
 54.1567688   1.000822263E-18
 54.283802   1.000847492E-18
 54.4108315   1.000869102E-18
 54.5378647   1.000886577E-18
 54.6648979   1.000899812E-18
 54.7919312   1.000910255E-18
 54.9189644   1.000919457E-18
 55.0459976   1.000929176E-18
 55.173027   1.000940654E-18
 55.3000603   1.000955026E-18
 55.4270935   1.000973224E-18
 55.5541267   1.000995868E-18
 55.68116   1.001022027E-18
 55.8081932   1.001050669E-18
 55.9352264   1.00108055E-18
 56.0622559   1.001109088E-18
 56.1892891   1.001135351E-18
 56.3163223   1.001157582E-18
 56.4433556   1.001174435E-18
 56.5703888   1.001185292E-18
 56.697422   1.001190359E-18
 56.8244514   1.001190876E-18
 56.9514847   1.001187981E-18
 57.0785179   1.001183431E-18
 57.2055511   1.001179502E-18
 57.3325844   1.001177227E-18
 57.4596176   1.001178261E-18
 57.5866508   1.001181984E-18
 57.7136803   1.001189325E-18
 57.8407135   1.001199975E-18
 57.9677467   1.001213416E-18
 58.09478   1.001228099E-18
 58.2218132   1.001243298E-18
 58.3488464   1.001258291E-18
 58.4758759   1.001272456E-18
 58.6029091   1.001284864E-18
 58.7299423   1.001296031E-18
 58.8569756   1.001306578E-18
 58.9840088   1.001318365E-18
 59.111042   1.00133253E-18
 59.2380753   1.001350832E-18
 59.3651047   1.001373579E-18
 59.4921379   1.001400049E-18
 59.6191711   1.001430241E-18
 59.7462044   1.001461054E-18
 59.8732376   1.001491452E-18
 60.0002708   1.001518129E-18
 60.1273003   1.001539119E-18
 60.2543335   1.001552664E-18
 60.3813667   1.001558661E-18
 60.5084   1.001557524E-18
 60.6354332   1.001550286E-18
 60.7624664   1.001539843E-18
 60.8894997   1.001527435E-18
 61.0165291   1.001516888E-18
 61.1435623   1.001509754E-18
 61.2705956   1.001508513E-18
 61.3976288   1.001513993E-18
 61.524662   1.001525987E-18
 61.6516953   1.001544082E-18
 61.7787247   1.001567346E-18
 61.9057579   1.001593919E-18
 62.0327911   1.001622561E-18
 62.1598244   1.001651925E-18
 62.2868576   1.001681601E-18
 62.4138908   1.001711172E-18
 62.5409203   1.001740537E-18
 62.6679535   1.001770523E-18
 62.7949867   1.001801749E-18
 62.92202   1.001834009E-18
 63.0490532   1.001867509E-18
 63.1760864   1.001902975E-18
 63.3031197   1.001939681E-18
 63.4301491   1.001977214E-18
 63.5571823   1.002014127E-18
 63.6842155   1.002049593E-18
 63.8112488   1.002081749E-18
 63.938282   1.002109563E-18
 64.0653152   1.002131587E-18
 64.1923447   1.002148441E-18
 64.3193817   1.002159194E-18
 64.4464111   1.002164467E-18
 64.5734482   1.002164364E-18
 64.7004776   1.002160952E-18
 64.827507   1.002155058E-18
 64.9545441   1.002147407E-18
 65.0815735   1.002139238E-18
 65.2086105   1.002132207E-18
 65.33564   1.00212652E-18
 65.4626694   1.002121764E-18
 65.5897064   1.002117835E-18
 65.7167358   1.002114113E-18
 65.8437729   1.002108736E-18
 65.9708023   1.002101808E-18
 66.0978394   1.002091262E-18
 66.2248688   1.002076993E-18
 66.3518982   1.002057864E-18
 66.4789352   1.002035737E-18
 66.6059647   1.002011749E-18
 66.7330017   1.001987347E-18
 66.8600311   1.001963876E-18
 66.9870682   1.001941956E-18
 67.1140976   1.001923137E-18
 67.241127   1.001907214E-18
 67.3681641   1.001893772E-18
 67.4951935   1.001881778E-18
 67.6222305   1.001868957E-18
 67.7492599   1.001854585E-18
 67.876297   1.001836077E-18
 68.0033264   1.001812088E-18
 68.1303558   1.001780862E-18
 68.2573929   1.001742709E-18
 68.3844223   1.001696697E-18
 68.5114594   1.001644067E-18
 68.6384888   1.001585131E-18
 68.7655182   1.001520714E-18
 68.8925552   1.001451851E-18
 69.0195847   1.001379783E-18
 69.1466217   1.00130482E-18
 69.2736511   1.001227168E-18
 69.4006882   1.001145277E-18
 69.5277176   1.001059354E-18
 69.654747   1.00096733E-18
 69.7817841   1.000869206E-18
 69.9088135   1.000764567E-18
 70.0358505   1.000652588E-18
 70.1628799   1.000533784E-18
 70.289917   1.000408363E-18
 70.4169464   1.000277462E-18
 70.5439758   1.0001417E-18
 70.6710129   1.000002734E-18
 70.7980423   9.998615965E-19
 70.9250793   9.997190112E-19
 71.0521088   9.995754954E-19
 71.1791458   9.994307388E-19
 71.3061752   9.992852584E-19
 71.4332047   9.991380202E-19
 71.5602417   9.989878869E-19
 71.6872711   9.988348585E-19
 71.8143082   9.986767636E-19
 71.9413376   9.985130853E-19
 72.068367   9.983424793E-19
 72.1954041   9.981649456E-19
 72.3224335   9.979810013E-19
 72.4494705   9.9779106E-19
 72.5764999   9.975946046E-19
 72.703537   9.973939099E-19
 72.8305664   9.971899065E-19
 72.9575958   9.969826977E-19
 73.0846329   9.967738346E-19
 73.2116623   9.965634206E-19
 73.3386993   9.963517657E-19
 73.4657288   9.961381463E-19
 73.5927658   9.95922459E-19
 73.7197952   9.957053241E-19
 73.8468246   9.95486328E-19
 73.9738617   9.952661946E-19
 74.1008911   9.950450271E-19
 74.2279282   9.948228258E-19
 74.3549576   9.946009346E-19
 74.481987   9.9437894E-19
 74.609024   9.941570488E-19
 74.7360535   9.939351576E-19
 74.8630905   9.937140935E-19
 74.9901199   9.934926159E-19
 75.117157   9.932710349E-19
 75.2441864   9.93047903E-19
 75.3712158   9.928234268E-19
 75.4982529   9.925965725E-19
 75.6252823   9.923659959E-19
 75.7523193   9.921314902E-19
 75.8793488   9.918912977E-19
 76.0063858   9.916444877E-19
 76.1334152   9.913910602E-19
 76.2604446   9.911310153E-19
 76.3874817   9.90863319E-19
 76.5145111   9.90588695E-19
 76.6415482   9.90306523E-19
 76.7685776   9.900176302E-19
 76.8956146   9.897234641E-19
 77.022644   9.894238179E-19
 77.1496735   9.89120346E-19
 77.2767105   9.888145994E-19
 77.4037399   9.885074052E-19
 77.530777   9.881984532E-19
 77.6578064   9.878884673E-19
 77.7848358   9.875776542E-19
 77.9118729   9.872652901E-19
 78.0389023   9.869510649E-19
 78.1659393   9.866341513E-19
 78.2929688   9.86314446E-19
 78.4200058   9.859921557E-19
 78.5470352   9.856679009E-19
 78.6740646   9.85341785E-19
 78.8011017   9.85015152E-19
 78.9281311   9.846881055E-19
 79.0551682   9.843611624E-19
 79.1821976   9.840343226E-19
 79.3092346   9.837072761E-19
 79.436264   9.833794024E-19
 79.5632935   9.830501845E-19
 79.6903305   9.827178647E-19
 79.8173599   9.823827531E-19
 79.944397   9.820436091E-19
 80.0714264   9.816998121E-19
 80.1984634   9.813517759E-19
 80.3254929   9.810006377E-19
 80.4525223   9.806467078E-19
 80.5795593   9.802911236E-19
 80.7065887   9.799352291E-19
 80.8336258   9.795791278E-19
 80.9606552   9.79223647E-19
 81.0876846   9.788686831E-19
 81.2147217   9.785136158E-19
 81.3417511   9.781582383E-19
 81.4687881   9.778023439E-19
 81.5958176   9.774452087E-19
 81.7228546   9.770863157E-19
 81.849884   9.767261819E-19
 81.9769135   9.763632564E-19
 82.1039505   9.759979528E-19
 82.2309799   9.756296506E-19
 82.358017   9.752584533E-19
 82.4850464   9.748843609E-19
 82.6120834   9.745062359E-19
 82.7391129   9.741246989E-19
 82.8661423   9.737396463E-19
 82.9931793   9.733508714E-19
 83.1202087   9.72957547E-19
 83.2472458   9.725607071E-19
 83.3742752   9.721601449E-19
 83.5013123   9.71756274E-19
 83.6283417   9.713500249E-19
 83.7553711   9.709422249E-19
 83.8824081   9.705334943E-19
 84.0094376   9.701251772E-19
 84.1364746   9.697172738E-19
 84.263504   9.693106111E-19
 84.3905334   9.689052926E-19
 84.5175705   9.685016285E-19
 84.6445999   9.680996187E-19
 84.771637   9.677001939E-19
 84.8986664   9.673035608E-19
 85.0257034   9.669100296E-19
 85.1527328   9.665203241E-19
 85.2797623   9.661341342E-19
 85.4067993   9.657522869E-19
 85.5338287   9.653745756E-19
 85.6608658   9.650004831E-19
 85.7878952   9.646286654E-19
 85.9149323   9.642594327E-19
 86.0419617   9.638910271E-19
 86.1689911   9.63523242E-19
 86.2960281   9.631543194E-19
 86.4230576   9.627835357E-19
 86.5500946   9.624108908E-19
 86.677124   9.620358678E-19
 86.8041611   9.616580531E-19
 86.9311905   9.612778602E-19
 87.0582199   9.608959095E-19
 87.185257   9.605135453E-19
 87.3122864   9.601304573E-19
 87.4393234   9.597470591E-19
 87.5663528   9.593636608E-19
 87.6933823   9.589806762E-19
 87.8204193   9.58596761E-19
 87.9474487   9.582125356E-19
 88.0744858   9.578271729E-19
 88.2015152   9.574409829E-19
 88.3285522   9.570535522E-19
 88.4555817   9.566659147E-19
 88.5826111   9.562778636E-19
 88.7096481   9.558897091E-19
 88.8366776   9.555026919E-19
 88.9637146   9.55117019E-19
 89.090744   9.547336208E-19
 89.2177811   9.543513599E-19
 89.3448105   9.539712704E-19
 89.4718399   9.535931455E-19
 89.598877   9.532160545E-19
 89.7259064   9.528399976E-19
 89.8529434   9.524636304E-19
 89.9799728   9.52086436E-19
 90.1070099   9.517092417E-19
 90.2340393   9.513314269E-19
 90.3610687   9.509535088E-19
 90.4881058   9.505769348E-19
 90.6151352   9.50201705E-19
 90.7421722   9.498299907E-19
 90.8692017   9.494612749E-19
 90.9962311   9.490964883E-19
 91.1232681   9.487367681E-19
 91.2502975   9.48382011E-19
 91.3773346   9.48032734E-19
 91.504364   9.476875929E-19
 91.6314011   9.473460707E-19
 91.7584305   9.470076504E-19
 91.8854599   9.466706777E-19
 92.0124969   9.463348424E-19
 92.1395264   9.459994207E-19
 92.2665634   9.456632752E-19
 92.3935928   9.453256821E-19
 92.5206299   9.449881924E-19
 92.6476593   9.446501857E-19
 92.7746887   9.443120756E-19
 92.9017258   9.439743791E-19
 93.0287552   9.436365793E-19
 93.1557922   9.432990896E-19
 93.2828217   9.429607727E-19
 93.4098587   9.426204913E-19
 93.5368881   9.422778317E-19
 93.6639175   9.419315532E-19
 93.7909546   9.415816558E-19
 93.917984   9.412267953E-19
 94.0450211   9.408681091E-19
 94.1720505   9.405052871E-19
 94.2990799   9.401385358E-19
 94.4261169   9.397695099E-19
 94.5531464   9.394001738E-19
 94.6801834   9.390317682E-19
 94.8072128   9.386657408E-19
 94.9342499   9.383035391E-19
 95.0612793   9.379455766E-19
 95.1883087   9.375918535E-19
 95.3153458   9.372419561E-19
 95.4423752   9.368951607E-19
 95.5694122   9.365505365E-19
 95.6964417   9.362079804E-19
 95.8234787   9.358654242E-19
 95.9505081   9.355236952E-19
 96.0775375   9.35182173E-19
 96.2045746   9.348406508E-19
 96.331604   9.344988184E-19
 96.4586411   9.341578132E-19
 96.5856705   9.33817842E-19
 96.7126999   9.334785945E-19
 96.8397369   9.331399675E-19
 96.9667664   9.328011336E-19
 97.0938034   9.32462093E-19
 97.2208328   9.321220183E-19
 97.3478699   9.317804961E-19
 97.4748993   9.314371128E-19
 97.6019287   9.310910411E-19
 97.7289658   9.307424879E-19
 97.8559952   9.303921769E-19
 97.9830322   9.300400047E-19
 98.1100616   9.296875224E-19
 98.2370987   9.293356604E-19
 98.3641281   9.2898628E-19
 98.4911575   9.286409321E-19
 98.6181946   9.283006507E-19
 98.745224   9.279661595E-19
 98.872261   9.276384926E-19
 98.9992905   9.273175465E-19
 99.1263275   9.270035281E-19
 99.2533569   9.266951965E-19
 99.3803864   9.263929654E-19
 99.5074234   9.260943532E-19
 99.6344528   9.257986361E-19
 99.7614899   9.255030225E-19
 99.8885193   9.25207719E-19
 100.015549   9.249107612E-19
 100.142586   9.24612149E-19
 100.269615   9.24310228E-19
 100.396652   9.240058256E-19
 100.523682   9.236986314E-19
 100.650719   9.233896794E-19
 100.777748   9.230791765E-19
 100.904778   9.227670192E-19
 101.031815   9.224530008E-19
 101.158844   9.221372246E-19
 101.285881   9.218185532E-19
 101.41291   9.214963664E-19
 101.539948   9.211702504E-19
 101.666977   9.208402054E-19
 101.794006   9.20504887E-19
 101.921043   9.201639852E-19
 102.048073   9.198176033E-19
 102.17511   9.19466672E-19
 102.302139   9.191120183E-19
 102.429176   9.187540559E-19
 102.556206   9.183938187E-19
 102.683235   9.180320306E-19
 102.810272   9.176701391E-19
 102.937302   9.173085577E-19
 103.064339   9.169474934E-19
 103.191368   9.165880834E-19
 103.318398   9.162302244E-19
 103.445435   9.158753639E-19
 103.572464   9.155241224E-19
 103.699501   9.151768099E-19
 103.82653   9.148335299E-19
 103.953568   9.144951097E-19
 104.080597   9.141617559E-19
 104.207626   9.138327448E-19
 104.334663   9.13507973E-19
 104.461693   9.131867167E-19
 104.58873   9.128686658E-19
 104.715759   9.12551959E-19
 104.842796   9.122374236E-19
 104.969826   9.119245425E-19
 105.096855   9.116132124E-19
 105.223892   9.113046741E-19
 105.350922   9.109986172E-19
 105.477959   9.106952487E-19
 105.604988   9.103942584E-19
 105.732025   9.100957496E-19
 105.859055   9.097988951E-19
 105.986084   9.095022475E-19
 106.113121   9.092042557E-19
 106.24015   9.089032653E-19
 106.367188   9.085972085E-19
 106.494217   9.082855682E-19
 106.621246   9.079684478E-19
 106.748283   9.076451236E-19
 106.875313   9.073161125E-19
 107.00235   9.069828621E-19
 107.129379   9.066466132E-19
 107.256416   9.063078828E-19
 107.383446   9.05966464E-19
 107.510475   9.05622667E-19
 107.637512   9.052755614E-19
 107.764542   9.049249402E-19
 107.891579   9.045698729E-19
 108.018608   9.042107731E-19
 108.145645   9.038464001E-19
 108.272675   9.034774775E-19
 108.399704   9.031050394E-19
 108.526741   9.027313606E-19
 108.65377   9.023583021E-19
 108.780807   9.019885524E-19
 108.907837   9.016244895E-19
 109.034874   9.012678713E-19
 109.161903   9.009204554E-19
 109.288933   9.005823454E-19
 109.41597   9.002531275E-19
 109.542999   8.999306304E-19
 109.670036   8.99615061E-19
 109.797066   8.993040411E-19
 109.924095   8.989978809E-19
 110.051132   8.986943056E-19
 110.178162   8.983929017E-19
 110.305199   8.980929453E-19
 110.432228   8.977941263E-19
 110.559265   8.974964447E-19
 110.686295   8.971989699E-19
 110.813324   8.969012882E-19
 110.940361   8.966036066E-19
 111.06739   8.963040638E-19
 111.194427   8.960021429E-19
 111.321457   8.956958793E-19
 111.448494   8.953846526E-19
 111.575523   8.950657745E-19
 111.702553   8.947390381E-19
 111.82959   8.944044436E-19
 111.956619   8.940620942E-19
 112.083656   8.93713541E-19
 112.210686   8.933598178E-19
 112.337723   8.930030962E-19
 112.464752   8.92644927E-19
 112.591782   8.922876884E-19
 112.718819   8.919325177E-19
 112.845848   8.915802422E-19
 112.972885   8.912309651E-19
 113.099915   8.908843765E-19
 113.226944   8.905385116E-19
 113.353981   8.901922331E-19
 113.48101   8.898453342E-19
 113.608047   8.8949523E-19
 113.735077   8.891417137E-19
 113.862114   8.887854057E-19
 113.989143   8.884249617E-19
 114.116173   8.880620362E-19
 114.24321   8.876971462E-19
 114.370239   8.873314289E-19
 114.497276   8.869660219E-19
 114.624306   8.866036134E-19
 114.751343   8.86244617E-19
 114.878372   8.858891361E-19
 115.005402   8.85537998E-19
 115.132439   8.851915127E-19
 115.259468   8.848483361E-19
 115.386505   8.845082615E-19
 115.513535   8.841713922E-19
 115.640572   8.838362807E-19
 115.767601   8.835041676E-19
 115.89463   8.831733988E-19
 116.021667   8.828440775E-19
 116.148697   8.825171344E-19
 116.275734   8.821923626E-19
 116.402763   8.818698655E-19
 116.529793   8.815493331E-19
 116.65683   8.812317991E-19
 116.783859   8.809165399E-19
 116.910896   8.806035554E-19
 117.037926   8.802911913E-19
 117.164963   8.799786205E-19
 117.291992   8.796643952E-19
 117.419022   8.793475851E-19
 117.546059   8.790262254E-19
 117.673088   8.787006264E-19
 117.800125   8.783695474E-19
 117.927155   8.780330917E-19
 118.054192   8.776913627E-19
 118.181221   8.773451876E-19
 118.30825   8.769961174E-19
 118.435287   8.76645703E-19
 118.562317   8.762949784E-19
 118.689354   8.759453912E-19
 118.816383   8.755983889E-19
 118.943413   8.752543852E-19
 119.07045   8.749132766E-19
 119.197479   8.745752699E-19
 119.324516   8.74239538E-19
 119.451546   8.739061842E-19
 119.578583   8.735736576E-19
 119.705612   8.732410276E-19
 119.832642   8.729081908E-19
 119.959679   8.725742166E-19
 120.086708   8.72240139E-19
 120.213745   8.719052343E-19
 120.340775   8.715708465E-19