 -7.19999981   4.91965752E-18
 -7.07315636   4.919608303E-18
 -6.9463129   4.919532616E-18
 -6.81946898   4.91944783E-18
 -6.69262552   4.919365112E-18
 -6.56578159   4.919293561E-18
 -6.43893814   4.919237313E-18
 -6.31209469   4.919199676E-18
 -6.18525076   4.919182719E-18
 -6.05840731   4.919188095E-18
 -5.93156338   4.919216633E-18
 -5.80471992   4.91926585E-18
 -5.67787647   4.919330784E-18
 -5.55103254   4.91940523E-18
 -5.42418909   4.91948009E-18
 -5.29734564   4.919545024E-18
 -5.17050171   4.919589692E-18
 -5.04365826   4.919604581E-18
 -4.91681433   4.91958142E-18
 -4.78997087   4.919515659E-18
 -4.66312742   4.919403576E-18
 -4.53628349   4.919245584E-18
 -4.40944004   4.919043339E-18
 -4.28259611   4.918800148E-18
 -4.15575266   4.918518493E-18
 -4.02890921   4.91820251E-18
 -3.90206528   4.917853853E-18
 -3.77522182   4.917472523E-18
 -3.64837813   4.917058519E-18
 -3.52153444   4.91660936E-18
 -3.39469075   4.916124218E-18
 -3.2678473   4.915600613E-18
 -3.14100361   4.915039371E-18
 -3.01415992   4.914443801E-18
 -2.88731623   4.91382052E-18
 -2.76047254   4.913177387E-18
 -2.63362908   4.912525156E-18
 -2.50678539   4.911874992E-18
 -2.3799417   4.911235581E-18
 -2.25309801   4.910616023E-18
 -2.12625432   4.910020866E-18
 -1.99941075   4.909450525E-18
 -1.87256718   4.908904586E-18
 -1.74572349   4.908378086E-18
 -1.61887991   4.907866474E-18
 -1.49203622   4.907364789E-18
 -1.36519253   4.906870549E-18
 -1.23834896   4.906382926E-18
 -1.11150527   4.905903161E-18
 -0.984661698   4.905435804E-18
 -0.857818007   4.904986645E-18
 -0.730974376   4.904562301E-18
 -0.604130745   4.904168977E-18
 -0.477287114   4.903809567E-18
 -0.350443482   4.903483658E-18
 -0.223599836   4.903190009E-18
 -9.675619751E-2   4.902922002E-18
 3.008744121E-2   4.90267178E-18
 0.156931072   4.90242983E-18
 0.283774734   4.902186225E-18
 0.410618365   4.901934762E-18
 0.537461996   4.901670478E-18
 0.664305627   4.901391718E-18
 0.791149259   4.901100137E-18
 0.91799289   4.900800284E-18
 1.04483652   4.900495881E-18
 1.17168021   4.900191893E-18
 1.29852378   4.899890385E-18
 1.42536747   4.899593427E-18
 1.55221117   4.899298538E-18
 1.67905474   4.899003234E-18
 1.80589843   4.8987009E-18
 1.932742   4.898386157E-18
 2.05958557   4.898053631E-18
 2.18642926   4.897697943E-18
 2.31327295   4.897316613E-18
 2.44011664   4.896909226E-18
 2.56696033   4.896478265E-18
 2.69380379   4.896028279E-18
 2.82064748   4.895564231E-18
 2.94749117   4.895093978E-18
 3.07433486   4.894624967E-18
 3.20117831   4.894161332E-18
 3.328022   4.893707624E-18
 3.45486569   4.893263014E-18
 3.58170938   4.892827917E-18
 3.70855308   4.892399438E-18
 3.83539653   4.891973026E-18
 3.96224022   4.891545374E-18
 4.08908367   4.891112758E-18
 4.2159276   4.890672698E-18
 4.34277105   4.89022478E-18
 4.46961498   4.889769003E-18
 4.59645844   4.889309091E-18
 4.72330189   4.888847938E-18
 4.85014582   4.888390507E-18
 4.97698927   4.887939693E-18
 5.1038332   4.887498392E-18
 5.23067665   4.887069086E-18
 5.3575201   4.886648878E-18
 5.48436403   4.886234874E-18
 5.61120749   4.88582087E-18
 5.73805141   4.885401076E-18
 5.86489487   4.884968874E-18
 5.99173832   4.884519715E-18
 6.11858225   4.884048636E-18
 6.2454257   4.883554809E-18
 6.37226963   4.883039062E-18
 6.49911308   4.882503876E-18
 6.62595654   4.881954628E-18
 6.75280046   4.881396695E-18
 6.87964392   4.88083628E-18
 7.00648737   4.880280001E-18
 7.1333313   4.879730339E-18
 7.26017475   4.879191845E-18
 7.38701868   4.878665344E-18
 7.51386213   4.878150011E-18
 7.64070559   4.87764419E-18
 7.76754951   4.8771454E-18
 7.89439297   4.87665116E-18
 8.02123642   4.876159401E-18
 8.14808083   4.875669296E-18
 8.27492428   4.875182087E-18
 8.40176773   4.874697773E-18
 8.52861118   4.874218421E-18
 8.65545464   4.873745274E-18
 8.78229809   4.873278331E-18
 8.90914249   4.872817591E-18
 9.03598595   4.87236016E-18
 9.1628294   4.87190397E-18
 9.28967285   4.871446126E-18
 9.4165163   4.870984145E-18
 9.54336071   4.870515134E-18
 9.67020416   4.870040332E-18
 9.79704762   4.869558086E-18
 9.92389107   4.869069222E-18
 10.0507345   4.868574568E-18
 10.1775789   4.868075365E-18
 10.3044224   4.867574507E-18
 10.4312658   4.867071994E-18
 10.5581093   4.866569482E-18
 10.6849527   4.866067384E-18
 10.8117971   4.865565285E-18
 10.9386406   4.865062773E-18
 11.065484   4.86455902E-18
 11.1923275   4.864052372E-18
 11.319171   4.863542001E-18
 11.4460154   4.863027081E-18
 11.5728588   4.862508853E-18
 11.6997023   4.86198897E-18
 11.8265457   4.861468673E-18
 11.9533892   4.860950444E-18
 12.0802336   4.860435524E-18
 12.207077   4.859927222E-18
 12.3339205   4.859424296E-18
 12.4607639   4.858929642E-18
 12.5876074   4.858441606E-18
 12.7144518   4.857960186E-18
 12.8412952   4.857485385E-18
 12.9681387   4.857015546E-18
 13.0949821   4.856550257E-18
 13.2218256   4.856087449E-18
 13.34867   4.855625883E-18
 13.4755135   4.855163902E-18
 13.6023569   4.854700681E-18
 13.7292004   4.854235806E-18
 13.8560438   4.853770103E-18
 13.9828882   4.853304814E-18
 14.1097317   4.852841593E-18
 14.2365751   4.852382094E-18
 14.3634186   4.851929213E-18
 14.490262   4.851483776E-18
 14.6171055   4.851046611E-18
 14.7439499   4.850616477E-18
 14.8707933   4.850193374E-18
 14.9976368   4.849773993E-18
 15.1244802   4.849356267E-18
 15.2513237   4.84893606E-18
 15.3781681   4.848509648E-18
 15.5050116   4.84807331E-18
 15.631855   4.84762291E-18
 15.7586985   4.847157621E-18
 15.8855419   4.846674548E-18
 16.0123863   4.846174103E-18
 16.1392288   4.845657529E-18
 16.2660732   4.845127306E-18
 16.3929176   4.844587157E-18
 16.5197601   4.844039564E-18
 16.6466045   4.843487421E-18
 16.773447   4.842934451E-18
 16.9002914   4.842382721E-18
 17.0271358   4.841834714E-18
 17.1539783   4.841293324E-18
 17.2808228   4.840759379E-18
 17.4076653   4.840234533E-18
 17.5345097   4.839718372E-18
 17.6613541   4.839210483E-18
 17.7881966   4.838710039E-18
 17.915041   4.838214144E-18
 18.0418835   4.837722386E-18
 18.1687279   4.837231454E-18
 18.2955723   4.836742177E-18
 18.4224148   4.836253313E-18
 18.5492592   4.835764863E-18
 18.6761017   4.835278067E-18
 18.8029461   4.834793339E-18
 18.9297905   4.834312333E-18
 19.056633   4.833835877E-18
 19.1834774   4.833364384E-18
 19.3103199   4.832898682E-18
 19.4371643   4.832438356E-18
 19.5640087   4.831982166E-18
 19.6908512   4.831529284E-18
 19.8176956   4.831076816E-18
 19.9445381   4.830622694E-18
 20.0713825   4.830164023E-18
 20.1982269   4.829697906E-18
 20.3250694   4.829223932E-18
 20.4519138   4.828741686E-18
 20.5787563   4.828253235E-18
 20.7056007   4.827758995E-18
 20.8324451   4.82726186E-18
 20.9592876   4.82676307E-18
 21.086132   4.826263453E-18
 21.2129745   4.825763422E-18
 21.339819   4.825263391E-18
 21.4666634   4.824762947E-18
 21.5935059   4.824262503E-18
 21.7203503   4.823761231E-18
 21.8471928   4.823260373E-18
 21.9740372   4.822759929E-18
 22.1008816   4.822259898E-18
 22.2277241   4.821761108E-18
 22.3545685   4.821262732E-18
 22.481411   4.820766424E-18
 22.6082554   4.820272183E-18
 22.7350998   4.819780838E-18
 22.8619423   4.819292801E-18
 22.9887867   4.818808487E-18
 23.1156292   4.818327895E-18
 23.2424736   4.817850198E-18
 23.369318   4.81737581E-18
 23.4961605   4.816904317E-18
 23.6230049   4.816436133E-18
 23.7498474   4.815970431E-18
 23.8766918   4.815508864E-18
 24.0035343   4.815051846E-18
 24.1303787   4.814598138E-18
 24.2572231   4.814147324E-18
 24.3840656   4.813698993E-18
 24.51091   4.813249834E-18
 24.6377525   4.812798193E-18
 24.7645969   4.812342003E-18
 24.8914413   4.811880022E-18
 25.0182838   4.811410184E-18
 25.1451283   4.810932487E-18
 25.2719707   4.810446518E-18
 25.3988152   4.809951864E-18
 25.5256596   4.809449352E-18
 25.6525021   4.808938982E-18
 25.7793465   4.80842158E-18
 25.906189   4.807897148E-18
 26.0330334   4.807367339E-18
 26.1598778   4.806833807E-18
 26.2867203   4.806298208E-18
 26.4135647   4.805762195E-18
 26.5404072   4.80522825E-18
 26.6672516   4.804696372E-18
 26.794096   4.804169045E-18
 26.9209385   4.803645439E-18
 27.0477829   4.803128038E-18
 27.1746254   4.8026156E-18
 27.3014698   4.802108951E-18
 27.4283142   4.801607266E-18
 27.5551567   4.801108063E-18
 27.6820011   4.800610514E-18
 27.8088436   4.800113378E-18
 27.935688   4.799615002E-18
 28.0625324   4.79911249E-18
 28.1893749   4.798605842E-18
 28.3162193   4.798095058E-18
 28.4430618   4.797580138E-18
 28.5699062   4.797062736E-18
 28.6967506   4.796542853E-18
 28.8235931   4.796022143E-18
 28.9504375   4.795501019E-18
 29.07728   4.794979482E-18
 29.2041245   4.794458772E-18
 29.3309689   4.793938889E-18
 29.4578114   4.793422728E-18
 29.5846558   4.792909049E-18
 29.7114983   4.792399092E-18
 29.8383427   4.791893271E-18
 29.9651871   4.791391586E-18
 30.0920296   4.790893623E-18
 30.218874   4.790398969E-18
 30.3457165   4.789907624E-18
 30.4725609   4.789420414E-18
 30.5994053   4.788936927E-18
 30.7262478   4.788458403E-18
 30.8530922   4.78798567E-18
 30.9799347   4.787517899E-18
 31.1067791   4.787055919E-18
 31.2336235   4.786598901E-18
 31.360466   4.786147261E-18
 31.4873104   4.785699756E-18
 31.6141529   4.785254733E-18
 31.7409973   4.784810123E-18
 31.8678417   4.784364273E-18
 31.9946842   4.783915941E-18
 32.1215286   4.783460165E-18
 32.2483711   4.782994048E-18
 32.3752136   4.782515111E-18
 32.5020599   4.782021697E-18
 32.6289024   4.781513395E-18
 32.7557449   4.780992271E-18
 32.8825912   4.78045998E-18
 33.0094337   4.779919832E-18
 33.1362762   4.77937596E-18
 33.2631226   4.778829194E-18
 33.3899651   4.778282014E-18
 33.5168076   4.777735661E-18
 33.6436501   4.777189722E-18
 33.7704964   4.776644196E-18
 33.8973389   4.776098257E-18
 34.0241814   4.775551491E-18
 34.1510277   4.775003484E-18
 34.2778702   4.774454649E-18
 34.4047127   4.773906642E-18
 34.531559   4.773361116E-18
 34.6584015   4.772819727E-18
 34.785244   4.772285368E-18
 34.9120865   4.771760522E-18
 35.0389328   4.77124767E-18
 35.1657753   4.770745985E-18
 35.2926178   4.770256708E-18
 35.4194641   4.769777356E-18
 35.5463066   4.76930545E-18
 35.6731491   4.768837266E-18
 35.7999954   4.768369495E-18
 35.9268379   4.767898829E-18
 36.0536804   4.767424441E-18
 36.1805229   4.766945504E-18
 36.3073692   4.76646243E-18
 36.4342117   4.765976875E-18
 36.5610542   4.76549132E-18
 36.6879005   4.765005765E-18
 36.814743   4.764521864E-18
 36.9415855   4.764039205E-18
 37.0684319   4.763558613E-18
 37.1952744   4.763078021E-18
 37.3221169   4.762598256E-18
 37.4489594   4.762116837E-18
 37.5758057   4.761634177E-18
 37.7026482   4.761147795E-18
 37.8294907   4.760656863E-18
 37.956337   4.760160555E-18
 38.0831795   4.759657215E-18
 38.210022   4.759147672E-18
 38.3368683   4.758632752E-18
 38.4637108   4.758113283E-18
 38.5905533   4.757591332E-18
 38.7173958   4.757068967E-18
 38.8442421   4.756546189E-18
 38.9710846   4.756024238E-18
 39.0979271   4.755503941E-18
 39.2247734   4.754984886E-18
 39.3516159   4.75446707E-18
 39.4784584   4.753949669E-18
 39.6053047   4.753429786E-18
 39.7321472   4.752906594E-18
 39.8589897   4.752376371E-18
 39.9858322   4.751838704E-18
 40.1126785   4.751292351E-18
 40.239521   4.75073814E-18
 40.3663635   4.750178553E-18
 40.4932098   4.749616483E-18
 40.6200523   4.749057723E-18
 40.7468948   4.748505993E-18
 40.8737411   4.747963776E-18
 41.0005836   4.747433967E-18
 41.1274261   4.746916152E-18
 41.2542686   4.74640785E-18
 41.381115   4.745906165E-18
 41.5079575   4.745408202E-18
 41.6348   4.744909412E-18
 41.7616463   4.744407727E-18
 41.8884888   4.74390232E-18
 42.0153313   4.743393604E-18
 42.1421776   4.742882406E-18
 42.2690201   4.742372449E-18
 42.3958626   4.741866215E-18
 42.5227051   4.741367425E-18
 42.6495514   4.740877734E-18
 42.7763939   4.740398796E-18
 42.9032364   4.739929785E-18
 43.0300827   4.739467804E-18
 43.1569252   4.73900996E-18
 43.2837677   4.738550875E-18
 43.4106102   4.738085999E-18
 43.5374565   4.737611611E-18
 43.664299   4.737125229E-18
 43.7911415   4.736626853E-18
 43.9179878   4.736116482E-18
 44.0448303   4.735597426E-18
 44.1716728   4.73507258E-18
 44.2985191   4.734544425E-18
 44.4253616   4.734015443E-18
 44.5522041   4.733488529E-18
 44.6790466   4.732963683E-18
 44.8058929   4.732441732E-18
 44.9327354   4.731922676E-18
 45.0595779   4.731406102E-18
 45.1864243   4.730890355E-18
 45.3132668   4.730375022E-18
 45.4401093   4.729858447E-18
 45.5669556   4.729338978E-18
 45.6937981   4.7288162E-18
 45.8206406   4.728290113E-18
 45.9474831   4.727760717E-18
 46.0743294   4.727229254E-18
 46.2011719   4.72669779E-18
 46.3280144   4.726168808E-18
 46.4548607   4.725643962E-18
 46.5817032   4.72512532E-18
 46.7085457   4.724613709E-18
 46.835392   4.724109542E-18
 46.9622345   4.723612406E-18
 47.089077   4.723121061E-18
 47.2159195   4.722635506E-18
 47.3427658   4.722151605E-18
 47.4696083   4.721669359E-18
 47.5964508   4.721185872E-18
 47.7232971   4.72069949E-18
 47.8501396   4.720208972E-18
 47.9769821   4.719713491E-18
 48.1038284   4.719212633E-18
 48.2306709   4.718706398E-18
 48.3575134   4.718196028E-18
 48.4843559   4.717681521E-18
 48.6112022   4.717163293E-18
 48.7380447   4.716642169E-18
 48.8648872   4.716115669E-18
 48.9917336   4.715582551E-18
 49.118576   4.715041161E-18
 49.2454185   4.714490672E-18
 49.3722649   4.713931085E-18
 49.4991074   4.713363639E-18
 49.6259499   4.712789575E-18
 49.7527924   4.71221303E-18
 49.8796387   4.711636486E-18
 50.0064812   4.711062009E-18
 50.1333237   4.710492908E-18
 50.26017   4.709930012E-18
 50.3870125   4.709374974E-18
 50.513855   4.708827794E-18
 50.6407013   4.708288058E-18
 50.7675438   4.707754941E-18
 50.8943863   4.707227199E-18
 51.0212288   4.70670318E-18
 51.1480751   4.70618247E-18
 51.2749176   4.705663828E-18
 51.4017601   4.705147254E-18
 51.5286064   4.704631507E-18
 51.6554489   4.704116173E-18
 51.7822914   4.703601253E-18
 51.9091377   4.703086333E-18
 52.0359802   4.702570172E-18
 52.1628227   4.702052771E-18
 52.2896652   4.701534129E-18
 52.4165115   4.701013005E-18
 52.543354   4.70049064E-18
 52.6701965   4.699967035E-18
 52.7970428   4.699443843E-18
 52.9238853   4.698921892E-18
 53.0507278   4.698402423E-18
 53.1775742   4.697885435E-18
 53.3044167   4.697370515E-18
 53.4312592   4.69685725E-18
 53.5581017   4.696343984E-18
 53.684948   4.695830305E-18
 53.8117905   4.695315798E-18
 53.938633   4.694800465E-18
 54.0654793   4.694285959E-18
 54.1923218   4.693772279E-18
 54.3191643   4.693260668E-18
 54.4460106   4.69275402E-18
 54.5728531   4.692251094E-18
 54.6996956   4.691754372E-18
 54.8265381   4.691263027E-18
 54.9533844   4.690776231E-18
 55.0802269   4.690293158E-18
 55.2070694   4.689811739E-18
 55.3339157   4.689328665E-18
 55.4607582   4.688842283E-18
 55.5876007   4.688350524E-18
 55.7144432   4.687851321E-18
 55.8412895   4.687344259E-18
 55.968132   4.686830166E-18
 56.0949745   4.68630987E-18
 56.2218208   4.685786678E-18
 56.3486633   4.685262659E-18
 56.4755058   4.684740294E-18
 56.6023521   4.684221238E-18
 56.7291946   4.683707146E-18
 56.8560371   4.683197602E-18
 56.9828796   4.682692195E-18
 57.109726   4.682189683E-18
 57.2365685   4.681688411E-18
 57.3634109   4.68118714E-18
 57.4902573   4.680682973E-18
 57.6170998   4.680174671E-18
 57.7439423   4.679660165E-18
 57.8707886   4.679138214E-18
 57.9976311   4.678607991E-18
 58.1244736   4.678070737E-18
 58.2513161   4.677527279E-18
 58.3781624   4.676980513E-18
 58.5050049   4.676430438E-18
 58.6318474   4.675879122E-18
 58.7586937   4.675327806E-18
 58.8855362   4.674776077E-18
 59.0123787   4.674222279E-18
 59.139225   4.673665173E-18
 59.2660675   4.67310269E-18
 59.39291   4.672533176E-18
 59.5197525   4.671956218E-18
 59.6465988   4.671370988E-18
 59.7734413   4.670777899E-18
 59.9002838   4.67017902E-18
 60.0271301   4.66957766E-18
 60.1539726   4.668975473E-18
 60.2808151   4.668377421E-18
 60.4076614   4.667786814E-18
 60.5345039   4.667206133E-18
 60.6613464   4.666636206E-18
 60.7881889   4.666077859E-18
 60.9150352   4.665530265E-18
 61.0418777   4.664990944E-18
 61.1687202   4.664456585E-18
 61.2955666   4.663924708E-18
 61.4224091   4.663393244E-18
 61.5492516   4.662860954E-18
 61.6760979   4.662328249E-18
 61.8029404   4.661795958E-18
 61.9297829   4.661266149E-18
 62.0566254   4.660741303E-18
 62.1834717   4.660223902E-18
 62.3103142   4.659716013E-18
 62.4371567   4.659217637E-18
 62.564003   4.658728773E-18
 62.6908455   4.658249422E-18
 62.817688   4.657776688E-18
 62.9445343   4.657307676E-18
 63.0713768   4.656839079E-18
 63.1982193   4.656367999E-18
 63.3250618   4.655889889E-18
 63.4519081   4.65540392E-18
 63.5787506   4.65490968E-18
 63.7055931   4.654405927E-18
 63.8324394   4.653895143E-18
 63.9592819   4.653378982E-18
 64.0861282   4.65286034E-18
 64.2129669   4.652340457E-18
 64.3398132   4.651821401E-18
 64.4666595   4.651302759E-18
 64.5934982   4.650784944E-18
 64.7203445   4.650265474E-18
 64.8471909   4.649744351E-18
 64.9740295   4.649219504E-18
 65.1008759   4.648688868E-18
 65.2277145   4.648152028E-18
 65.3545609   4.647607743E-18
 65.4814072   4.647056841E-18
 65.6082458   4.646498907E-18
 65.7350922   4.64593477E-18
 65.8619385   4.645366497E-18
 65.9887772   4.644794915E-18
 66.1156235   4.644221679E-18
 66.2424698   4.643648857E-18
 66.3693085   4.643076861E-18
 66.4961548   4.642506107E-18
 66.6230011   4.641936593E-18
 66.7498398   4.64136832E-18
 66.8766861   4.640799219E-18
 67.0035324   4.640228465E-18
 67.1303711   4.639656056E-18
 67.2572174   4.639081992E-18
 67.3840637   4.638505861E-18
 67.5109024   4.637928076E-18
 67.6377487   4.63735029E-18
 67.7645874   4.636773331E-18
 67.8914337   4.636199682E-18
 68.01828   4.635631409E-18
 68.1451187   4.635072234E-18
 68.271965   4.634524227E-18
 68.3988113   4.633990696E-18
 68.52565   4.633472054E-18
 68.6524963   4.632968714E-18
 68.7793427   4.63247861E-18
 68.9061813   4.631999672E-18
 69.0330276   4.631528179E-18
 69.159874   4.631059168E-18
 69.2867126   4.630590983E-18
 69.413559   4.630119077E-18
 69.5404053   4.629643448E-18
 69.667244   4.629163683E-18
 69.7940903   4.628681437E-18
 69.920929   4.628198777E-18
 70.0477753   4.627718599E-18
 70.1746216   4.627243797E-18
 70.3014603   4.62677644E-18
 70.4283066   4.626317768E-18
 70.5551529   4.625867782E-18
 70.6819916   4.625425241E-18
 70.8088379   4.624986835E-18
 70.9356842   4.62454967E-18
 71.0625229   4.62410961E-18
 71.1893692   4.623664173E-18
 71.3162155   4.623210464E-18
 71.4430542   4.622748898E-18
 71.5699005   4.622278646E-18
 71.6967468   4.621802603E-18
 71.8235855   4.621322838E-18
 71.9504318   4.620843487E-18
 72.0772781   4.620367445E-18
 72.2041168   4.619896779E-18
 72.3309631   4.619433144E-18
 72.4578018   4.618977781E-18
 72.5846481   4.618529449E-18
 72.7114944   4.618087735E-18
 72.8383331   4.61765057E-18
 72.9651794   4.6172163E-18
 73.0920258   4.616782444E-18
 73.2188644   4.616346106E-18
 73.3457108   4.61590646E-18
 73.4725571   4.61546185E-18
 73.5993958   4.615012277E-18
 73.7262421   4.614558982E-18
 73.8530884   4.614101138E-18
 73.9799271   4.613642466E-18
 74.1067734   4.613184622E-18
 74.2336197   4.612728845E-18
 74.3604584   4.612277205E-18
 74.4873047   4.611830114E-18
 74.614151   4.611387572E-18
 74.7409897   4.610948339E-18
 74.867836   4.610512415E-18
 74.9946747   4.610076491E-18
 75.121521   4.609638912E-18
 75.2483673   4.609199266E-18
 75.375206   4.608755483E-18
 75.5020523   4.608307979E-18
 75.6288986   4.607857992E-18
 75.7557373   4.607407592E-18
 75.8825836   4.606960088E-18
 76.0094299   4.606519614E-18
 76.1362686   4.606088239E-18
 76.2631149   4.605668445E-18
 76.3899612   4.605261472E-18
 76.5167999   4.604865666E-18
 76.6436462   4.604478546E-18
 76.7704926   4.604095148E-18
 76.8973312   4.603710922E-18
 77.0241776   4.603322561E-18
 77.1510239   4.602926341E-18
 77.2778625   4.602522264E-18
 77.4047089   4.602111155E-18
 77.5315475   4.601694256E-18
 77.6583939   4.601275703E-18
 77.7852402   4.600858804E-18
 77.9120789   4.600447281E-18
 78.0389252   4.600043203E-18
 78.1657715   4.599648225E-18
 78.2926102   4.599262759E-18
 78.4194565   4.598884737E-18
 78.5463028   4.598510851E-18
 78.6731415   4.598136966E-18
 78.7999878   4.597759358E-18
 78.9268341   4.597374305E-18
 79.0536728   4.596979326E-18
 79.1805191   4.596573594E-18
 79.3073654   4.596157109E-18
 79.4342041   4.595733179E-18
 79.5610504   4.595304286E-18
 79.6878967   4.594875393E-18
 79.8147354   4.594449808E-18
 79.9415817   4.594031668E-18
 80.0684204   4.593623041E-18
 80.1952667   4.593225581E-18
 80.322113   4.592840115E-18
 80.4489517   4.592465402E-18
 80.575798   4.592100202E-18
 80.7026443   4.591743273E-18
 80.829483   4.591391308E-18
 80.9563293   4.59104141E-18
 81.0831757   4.590690272E-18
 81.2100143   4.590337066E-18
 81.3368607   4.589980551E-18
 81.463707   4.589621141E-18
 81.5905457   4.589260491E-18
 81.717392   4.588901081E-18
 81.8442383   4.588545807E-18
 81.971077   4.588198804E-18
 82.0979233   4.587861315E-18
 82.224762   4.587535819E-18
 82.3516083   4.587221077E-18
 82.4784546   4.586914193E-18
 82.6052933   4.586613513E-18
 82.7321396   4.58631366E-18
 82.8589859   4.586010498E-18
 82.9858246   4.585699478E-18
 83.1126709   4.585377291E-18
 83.2395172   4.585043524E-18
 83.3663559   4.584699003E-18
 83.4932022   4.584347038E-18
 83.6200485   4.583990936E-18
 83.7468872   4.583636903E-18
 83.8737335   4.583289901E-18
 84.0005798   4.582952825E-18
 84.1274185   4.582627743E-18
 84.2542648   4.582313001E-18
 84.3811111   4.582007771E-18
 84.5079498   4.58170585E-18
 84.6347961   4.581403929E-18
 84.7616348   4.581096218E-18
 84.8884811   4.580780235E-18
 85.0153275   4.580453912E-18
 85.1421661   4.580118077E-18
 85.2690125   4.57977397E-18
 85.3958588   4.579425727E-18
 85.5226974   4.57907707E-18
 85.6495438   4.578731722E-18
 85.7763901   4.578393405E-18
 85.9032288   4.578065015E-18
 86.0300751   4.577746136E-18
 86.1569214   4.577435944E-18
 86.2837601   4.577131128E-18
 86.4106064   4.576827966E-18
 86.5374527   4.576521496E-18
 86.6642914   4.576206753E-18
 86.7911377   4.575881671E-18
 86.917984   4.575543354E-18
 87.0448227   4.575191803E-18
 87.171669   4.574828257E-18
 87.2985077   4.574454371E-18
 87.425354   4.574075522E-18
 87.5522003   4.573694606E-18
 87.679039   4.573316998E-18
 87.8058853   4.57294518E-18
 87.9327316   4.572581634E-18
 88.0595703   4.572227601E-18
 88.1864166   4.571882667E-18
 88.3132629   4.571544763E-18
 88.4401016   4.571209755E-18
 88.5669479   4.570875161E-18
 88.6937943   4.570535189E-18
 88.8206329   4.570186533E-18
 88.9474792   4.569826709E-18
 89.0743256   4.569454478E-18
 89.2011642   4.569070666E-18
 89.3280106   4.568677755E-18
 89.4548569   4.568280709E-18
 89.5816956   4.567882835E-18
 89.7085419   4.56748951E-18
 89.8353806   4.567104458E-18
 89.9622269   4.566728091E-18
 90.0890732   4.566361236E-18
 90.2159119   4.56600224E-18
 90.3427582   4.565646966E-18
 90.4696045   4.565293346E-18
 90.5964432   4.564938072E-18
 90.7232895   4.564578248E-18
 90.8501358   4.564212634E-18
 90.9769745   4.563841644E-18
 91.1038208   4.563466104E-18
 91.2306671   4.563089323E-18
 91.3575058   4.562715438E-18
 91.4843521   4.562348169E-18
 91.6111984   4.561991241E-18
 91.7380371   4.561645893E-18
 91.8648834   4.561312539E-18
 91.9917297   4.560989939E-18
 92.1185684   4.560676024E-18
 92.2454147   4.560367072E-18
 92.3722534   4.560059361E-18
 92.4990997   4.559749168E-18
 92.625946   4.559434426E-18
 92.7527847   4.559114307E-18
 92.879631   4.558787984E-18
 93.0064774   4.558456698E-18
 93.133316   4.55812169E-18
 93.2601624   4.557785441E-18
 93.3870087   4.557449606E-18
 93.5138474   4.557115011E-18
 93.6406937   4.556784139E-18
 93.76754   4.556456162E-18
 93.8943787   4.556132734E-18
 94.021225   4.555812202E-18
 94.1480713   4.55549291E-18
 94.27491   4.555174032E-18
 94.4017563   4.554852672E-18
 94.528595   4.554527177E-18
 94.6554413   4.554195891E-18
 94.7822876   4.55385716E-18
 94.9091263   4.553510572E-18
 95.0359726   4.553156952E-18
 95.1628189   4.552796715E-18
 95.2896576   4.552431928E-18
 95.4165039   4.552064246E-18
 95.5433502   4.551695324E-18
 95.6701889   4.551327642E-18
 95.7970352   4.550962028E-18
 95.9238815   4.550598896E-18
 96.0507202   4.550237418E-18
 96.1775665   4.549876354E-18
 96.3044128   4.549512808E-18
 96.4312515   4.549143058E-18
 96.5580978   4.548765864E-18
 96.6849442   4.548377089E-18
 96.8117828   4.547976733E-18
 96.9386292   4.547565211E-18
 97.0654678   4.547143349E-18
 97.1923141   4.546715283E-18
 97.3191605   4.546284322E-18
 97.4459991   4.545854602E-18
 97.5728455   4.54542819E-18
 97.6996918   4.545007982E-18
 97.8265305   4.544593978E-18
 97.9533768   4.544187005E-18
 98.0802231   4.543783755E-18
 98.2070618   4.543382986E-18
 98.3339081   4.542981803E-18
 98.4607544   4.542578553E-18
 98.5875931   4.542170753E-18
 98.7144394   4.54175799E-18
 98.8412857   4.541341091E-18
 98.9681244   4.540919228E-18
 99.0949707   4.540494471E-18
 99.221817   4.5400693E-18
 99.3486557   4.539646611E-18
 99.475502   4.539228058E-18
 99.6023407   4.538816122E-18
 99.729187   4.538412458E-18
 99.8560333   4.538015824E-18
 99.982872   4.537626636E-18
 100.109718   4.537242411E-18
 100.236565   4.536863562E-18
 100.363403   4.536487608E-18
 100.49025   4.536113309E-18
 100.617096   4.535739837E-18
 100.743935   4.535367606E-18
 100.870781   4.534995374E-18
 100.997627   4.53462397E-18
 101.124466   4.534255461E-18
 101.251312   4.533889848E-18
 101.378159   4.53352837E-18
 101.504997   4.533173096E-18
 101.631844   4.532824439E-18
 101.75869   4.5324824E-18
 101.885529   4.532146564E-18
 102.012375   4.531814865E-18
 102.139214   4.531486474E-18
 102.26606   4.531159324E-18
 102.392906   4.53083052E-18
 102.519745   4.530497993E-18
 102.646591   4.530160917E-18
 102.773438   4.529818878E-18
 102.900276   4.529471049E-18
 103.027122   4.529117429E-18
 103.153969   4.52875926E-18
 103.280807   4.528396955E-18
 103.407654   4.528031754E-18
 103.5345   4.527665727E-18
 103.661339   4.527299286E-18
 103.788185   4.526931604E-18
 103.915031   4.526563095E-18
 104.04187   4.526192105E-18
 104.168716   4.525816978E-18
 104.295563   4.525434821E-18
 104.422401   4.525043978E-18
 104.549248   4.524643209E-18
 104.676086   4.524232514E-18
 104.802933   4.523812306E-18
 104.929779   4.52338424E-18
 105.056618   4.52294997E-18
 105.183464   4.522512805E-18
 105.31031   4.522074813E-18
 105.437149   4.521638062E-18
 105.563995   4.521204206E-18
 105.690842   4.520773658E-18
 105.81768   4.520346006E-18
 105.944527   4.519921662E-18
 106.071373   4.519498559E-18
 106.198212   4.519075456E-18
 106.325058   4.518651526E-18
 106.451904   4.51822346E-18
 106.578743   4.517792913E-18
 106.705589   4.517358643E-18
 106.832428   4.516922305E-18
 106.959274   4.516487208E-18
 107.086121   4.516056247E-18
 107.212959   4.51563149E-18
 107.339806   4.515215832E-18
 107.466652   4.514810927E-18
 107.593491   4.514415534E-18
 107.720337   4.514029241E-18
 107.847183   4.513649152E-18
 107.974022   4.513273198E-18
 108.100868   4.512898072E-18
 108.227715   4.51252005E-18
 108.354553   4.51213872E-18
 108.4814   4.51175284E-18
 108.608246   4.511360343E-18
 108.735085   4.510962055E-18
 108.861931   4.510559218E-18
 108.988777   4.510153073E-18
 109.115616   4.509745686E-18
 109.242462   4.509338713E-18
 109.369301   4.508934222E-18
 109.496147   4.508533453E-18
 109.622993   4.508135993E-18
 109.749832   4.507741428E-18
 109.876678   4.507349344E-18
 110.003525   4.506957674E-18
 110.130363   4.50656435E-18
 110.25721   4.506167717E-18
 110.384056   4.505767361E-18
 110.510895   4.505362043E-18
 110.637741   4.504953002E-18
 110.764587   4.504540239E-18
 110.891426   4.504124167E-18
 111.018272   4.503708922E-18
 111.145119   4.503294918E-18
 111.271957   4.502885464E-18
 111.398804   4.502482627E-18
 111.52565   4.502086821E-18
 111.652489   4.501699287E-18
 111.779335   4.50131837E-18
 111.906174   4.500942417E-18
 112.03302   4.50056729E-18
 112.159866   4.500191337E-18
 112.286705   4.499810834E-18
 112.413551   4.499424954E-18
 112.540398   4.499033284E-18
 112.667236   4.498634996E-18
 112.794083   4.498232986E-18
 112.920929   4.497828082E-18
 113.047768   4.49742359E-18
 113.174614   4.497020753E-18
 113.30146   4.496621225E-18
 113.428299   4.496225833E-18
 113.555145   4.495833336E-18
 113.681992   4.49544332E-18
 113.80883   4.495053304E-18
 113.935677   4.494661634E-18
 114.062523   4.494265415E-18
 114.189362   4.493862578E-18
 114.316208   4.493451469E-18
 114.443047   4.493032502E-18
 114.569893   4.492605263E-18
 114.696739   4.49217058E-18
 114.823578   4.491730933E-18
 114.950424   4.491286324E-18
 115.077271   4.490837992E-18
 115.204109   4.490385524E-18
 115.330956   4.489930161E-18
 115.457802   4.489470662E-18
 115.584641   4.489007028E-18
 115.711487   4.488540911E-18
 115.838333   4.4880719E-18
 115.965172   4.487601648E-18
 116.092018   4.487131395E-18
 116.218864   4.486662384E-18
 116.345703   4.486195027E-18
 116.472549   4.485730152E-18
 116.599396   4.485268585E-18
 116.726234   4.484810327E-18
 116.853081   4.484356205E-18
 116.979919   4.483907045E-18
 117.106766   4.48346409E-18
 117.233612   4.48302858E-18
 117.360451   4.482601754E-18
 117.487297   4.482184028E-18
 117.614143   4.481775401E-18
 117.740982   4.481375046E-18
 117.867828   4.480982135E-18
 117.994675   4.480594187E-18
 118.121513   4.480209962E-18
 118.24836   4.47982615E-18
 118.375206   4.479441511E-18
 118.502045   4.479053977E-18
 118.628891   4.478662307E-18
 118.755737   4.478267328E-18
 118.882576   4.477869868E-18
 119.009422   4.477472407E-18
 119.136261   4.477076602E-18
 119.263107   4.476685759E-18
 119.389954   4.476300293E-18
 119.516792   4.475922271E-18
 119.643639   4.475550453E-18
 119.770485   4.475183599E-18
 119.897324   4.474817985E-18
 120.02417   4.47444989E-18
 120.151016   4.474077245E-18