-7.200000 4.9197249E-18
-7.057088 4.9257402E-18
-6.914176 4.9363897E-18
-6.771265 4.9498442E-18
-6.628353 4.9639841E-18
-6.485441 4.9767479E-18
-6.342530 4.9865376E-18
-6.199618 4.9925234E-18
-6.056706 4.9947734E-18
-5.913795 4.9941824E-18
-5.770883 4.9922497E-18
-5.627971 4.9907665E-18
-5.485059 4.9914651E-18
-5.342147 4.9956878E-18
-5.199236 5.0041296E-18
-5.056324 5.0166904E-18
-4.913413 5.0324746E-18
-4.770501 5.0499451E-18
-4.627589 5.0672075E-18
-4.484677 5.0823805E-18
-4.341765 5.0939767E-18
-4.198854 5.1012175E-18
-4.055942 5.1042147E-18
-3.913030 5.1039724E-18
-3.770118 5.1021956E-18
-3.627207 5.1009486E-18
-3.484295 5.1022225E-18
-3.341383 5.1075173E-18
-3.198472 5.1175216E-18
-3.055560 5.1319650E-18
-2.912648 5.1496700E-18
-2.769737 5.1687865E-18
-2.626825 5.1871694E-18
-2.483913 5.2028089E-18
-2.341001 5.2142393E-18
-2.198090 5.2208402E-18
-2.055178 5.2229718E-18
-1.912266 5.2219085E-18
-1.769354 5.2195825E-18
-1.626443 5.2181746E-18
-1.483531 5.2196445E-18
-1.340619 5.2252908E-18
-1.197708 5.2354577E-18
-1.054796 5.2494445E-18
-0.9118841 5.2656523E-18
-0.7689723 5.2819320E-18
-0.6260606 5.2960512E-18
-0.4831489 5.3061763E-18
-0.3402372 5.3112655E-18
-0.1973254 5.3112895E-18
-5.4413714E-02 5.3072396E-18
8.8498011E-02 5.3009237E-18
0.2314097 5.2946007E-18
0.3743215 5.2905165E-18
0.5172332 5.2904433E-18
0.6601449 5.2953079E-18
0.8030567 5.3049934E-18
0.9459684 5.3183524E-18
1.088880 5.3334476E-18
1.231792 5.3479650E-18
1.374704 5.3597139E-18
1.517615 5.3671060E-18
1.660527 5.3694990E-18
1.803439 5.3673351E-18
1.946350 5.3620358E-18
2.089262 5.3556892E-18
2.232174 5.3506012E-18
2.375086 5.3488067E-18
2.517997 5.3516501E-18
2.660909 5.3595116E-18
2.803821 5.3717427E-18
2.946733 5.3868053E-18
3.089644 5.4025941E-18
3.232556 5.4168704E-18
3.375468 5.4277284E-18
3.518379 5.4339926E-18
3.661291 5.4354617E-18
3.804203 5.4329554E-18
3.947115 5.4281432E-18
4.090026 5.4231942E-18
4.232938 5.4203185E-18
4.375850 5.4213000E-18
4.518762 5.4271221E-18
4.661673 5.4377638E-18
4.804585 5.4522026E-18
4.947497 5.4686275E-18
5.090408 5.4848171E-18
5.233320 5.4985921E-18
5.376232 5.5082594E-18
5.519144 5.5129516E-18
5.662055 5.5127936E-18
5.804967 5.5088649E-18
5.947879 5.5029646E-18
6.090790 5.4972389E-18
6.233702 5.4937362E-18
6.376614 5.4939988E-18
6.519526 5.4987617E-18
6.662437 5.5078268E-18
6.805349 5.5201257E-18
6.948261 5.5339524E-18
7.091173 5.5473275E-18
7.234084 5.5584006E-18
7.376996 5.5658287E-18
7.519908 5.5690439E-18
7.662819 5.5683656E-18
7.805731 5.5649250E-18
7.948643 5.5604231E-18
8.091555 5.5567706E-18
8.234467 5.5556767E-18
8.377378 5.5582955E-18
8.520289 5.5649833E-18
8.663201 5.5752374E-18
8.806113 5.5878122E-18
8.949025 5.6009905E-18
9.091937 5.6129366E-18
9.234848 5.6220629E-18
9.377760 5.6273325E-18
9.520672 5.6284487E-18
9.663584 5.6258940E-18
9.806496 5.6208263E-18
9.949407 5.6148536E-18
10.09232 5.6097210E-18
10.23523 5.6069714E-18
10.37814 5.6076468E-18
10.52105 5.6120826E-18
10.66397 5.6198469E-18
10.80688 5.6298425E-18
10.94979 5.6405487E-18
11.09270 5.6503496E-18
11.23561 5.6578786E-18
11.37852 5.6623007E-18
11.52144 5.6634695E-18
11.66435 5.6619413E-18
11.80726 5.6588410E-18
11.95017 5.6556282E-18
12.09308 5.6537985E-18
12.23599 5.6545897E-18
12.37891 5.6587347E-18
12.52182 5.6663088E-18
12.66473 5.6767052E-18
12.80764 5.6887407E-18
12.95055 5.7008833E-18
13.09346 5.7115597E-18
13.23638 5.7194775E-18
13.37929 5.7238926E-18
13.52220 5.7247541E-18
13.66511 5.7227018E-18
13.80802 5.7189129E-18
13.95094 5.7148407E-18
14.09385 5.7119084E-18
14.23676 5.7112259E-18
14.37967 5.7133787E-18
14.52258 5.7183273E-18
14.66549 5.7254257E-18
14.80841 5.7335573E-18
14.95132 5.7413568E-18
15.09423 5.7474957E-18
15.23714 5.7509620E-18
15.38005 5.7512929E-18
15.52296 5.7486968E-18
15.66588 5.7440253E-18
15.80879 5.7385986E-18
15.95170 5.7339221E-18
16.09461 5.7313554E-18
16.23752 5.7318236E-18
16.38043 5.7356365E-18
16.52335 5.7424433E-18
16.66626 5.7513310E-18
16.80917 5.7610197E-18
16.95208 5.7701162E-18
17.09499 5.7773719E-18
17.23791 5.7819089E-18
17.38082 5.7833892E-18
17.52373 5.7820876E-18
17.66664 5.7788628E-18
17.80955 5.7750012E-18
17.95246 5.7719600E-18
18.09538 5.7710547E-18
18.23829 5.7731495E-18
18.38120 5.7784509E-18
18.52411 5.7864510E-18
18.66702 5.7960459E-18
18.80993 5.8057925E-18
18.95285 5.8142389E-18
19.09576 5.8202310E-18
19.23867 5.8231385E-18
19.38158 5.8229541E-18
19.52449 5.8202678E-18
19.66740 5.8161459E-18
19.81032 5.8119286E-18
19.95323 5.8089970E-18
20.09614 5.8085169E-18
20.23905 5.8112040E-18
20.38196 5.8171592E-18
20.52488 5.8258045E-18
20.66779 5.8359743E-18
20.81070 5.8461486E-18
20.95361 5.8547856E-18
21.09652 5.8606739E-18
21.23943 5.8632026E-18
21.38235 5.8624825E-18
21.52526 5.8592909E-18
21.66817 5.8548675E-18
21.81108 5.8506266E-18
21.95399 5.8478679E-18
22.09690 5.8475366E-18
22.23981 5.8500736E-18
22.38273 5.8553568E-18
22.52564 5.8627315E-18
22.66855 5.8711233E-18
22.81146 5.8792321E-18
22.95437 5.8857805E-18
23.09729 5.8897845E-18
23.24020 5.8907882E-18
23.38311 5.8889879E-18
23.52602 5.8852081E-18
23.66893 5.8807161E-18
23.81184 5.8769263E-18
23.95476 5.8750764E-18
24.09767 5.8759585E-18
24.24058 5.8797752E-18
24.38349 5.8861287E-18
24.52640 5.8941363E-18
24.66932 5.9026144E-18
24.81223 5.9102969E-18
24.95514 5.9160466E-18
25.09805 5.9190547E-18
25.24096 5.9189934E-18
25.38387 5.9161041E-18
25.52678 5.9111919E-18
25.66970 5.9054918E-18
25.81261 5.9004232E-18
25.95552 5.8972820E-18
26.09843 5.8969429E-18
26.24134 5.8996676E-18
26.38426 5.9050699E-18
26.52717 5.9122379E-18
26.67008 5.9199786E-18
26.81299 5.9270886E-18
26.95590 5.9325960E-18
27.09881 5.9359200E-18
27.24173 5.9369395E-18
27.38464 5.9359912E-18
27.52755 5.9338041E-18
27.67046 5.9313883E-18
27.81337 5.9298667E-18
27.95629 5.9302543E-18
28.09920 5.9332263E-18
28.24211 5.9389268E-18
28.38502 5.9468868E-18
28.52793 5.9560946E-18
28.67084 5.9652250E-18
28.81376 5.9729546E-18
28.95667 5.9782746E-18
29.09958 5.9807077E-18
29.24249 5.9803698E-18
29.38540 5.9778916E-18
29.52831 5.9742375E-18
29.67122 5.9704974E-18
29.81414 5.9677020E-18
29.95705 5.9666750E-18
30.09996 5.9679232E-18
30.24287 5.9715471E-18
30.38578 5.9771976E-18
30.52870 5.9840892E-18
30.67161 5.9911186E-18
30.81452 5.9970826E-18
30.95743 6.0009604E-18
31.10034 6.0021842E-18
31.24325 6.0007954E-18
31.38617 5.9974424E-18
31.52908 5.9932106E-18
31.67199 5.9893443E-18
31.81490 5.9869583E-18
31.95781 5.9868136E-18
32.10072 5.9892120E-18
32.24364 5.9939906E-18
32.38655 6.0005973E-18
32.52946 6.0081900E-18
32.67237 6.0157533E-18
32.81528 6.0222442E-18
32.95819 6.0267573E-18
33.10111 6.0287136E-18
33.24402 6.0280225E-18
33.38693 6.0251521E-18
33.52984 6.0210601E-18
33.67275 6.0169821E-18
33.81567 6.0141271E-18
33.95858 6.0133781E-18
34.10149 6.0150874E-18
34.24440 6.0190323E-18
34.38731 6.0245202E-18
34.53022 6.0305896E-18
34.67313 6.0362384E-18
34.81605 6.0406088E-18
34.95896 6.0431160E-18
35.10187 6.0435230E-18
35.24478 6.0419766E-18
35.38770 6.0390095E-18
35.53061 6.0354840E-18
35.67352 6.0324628E-18
35.81643 6.0309937E-18
35.95934 6.0318581E-18
36.10225 6.0353517E-18
36.24516 6.0411829E-18
36.38808 6.0485266E-18
36.53099 6.0562380E-18
36.67390 6.0631417E-18
36.81681 6.0683128E-18
36.95972 6.0712542E-18
37.10263 6.0719487E-18
37.24555 6.0707951E-18
37.38846 6.0684914E-18
37.53137 6.0658974E-18
37.67428 6.0639109E-18
37.81719 6.0633456E-18
37.96011 6.0647952E-18
38.10302 6.0684948E-18
38.24593 6.0742188E-18
38.38884 6.0812648E-18
38.53175 6.0885680E-18
38.67466 6.0949455E-18
38.81758 6.0993978E-18
38.96049 6.1013785E-18
39.10340 6.1009252E-18
39.24631 6.0986285E-18
39.38922 6.0954402E-18
39.53214 6.0924168E-18
39.67505 6.0904787E-18
39.81796 6.0902529E-18
39.96087 6.0920053E-18
40.10378 6.0956453E-18
40.24669 6.1007569E-18
40.38961 6.1066456E-18
40.53252 6.1124102E-18
40.67543 6.1170722E-18
40.81834 6.1197671E-18
40.96125 6.1199619E-18
41.10416 6.1176421E-18
41.24707 6.1133664E-18
41.38999 6.1081614E-18
41.53290 6.1032649E-18
41.67581 6.0998031E-18
41.81872 6.0985127E-18
41.96163 6.0995992E-18
42.10455 6.1027570E-18
42.24746 6.1073255E-18
42.39037 6.1124904E-18
42.53328 6.1174672E-18
42.67619 6.1216204E-18
42.81910 6.1245296E-18
42.96202 6.1260318E-18
43.10493 6.1262551E-18
43.24784 6.1256368E-18
43.39075 6.1248899E-18
43.53366 6.1248808E-18
43.67657 6.1264235E-18
43.81948 6.1300358E-18
43.96240 6.1357503E-18
44.10531 6.1430564E-18
44.24822 6.1510073E-18
44.39113 6.1584602E-18
44.53405 6.1643679E-18
44.67696 6.1680108E-18
44.81987 6.1691205E-18
44.96278 6.1678685E-18
45.10569 6.1647757E-18
45.24860 6.1605852E-18
45.39151 6.1561503E-18
45.53443 6.1523332E-18
45.67734 6.1499001E-18
45.82025 6.1493951E-18
45.96316 6.1510052E-18
46.10608 6.1544669E-18
46.24899 6.1590714E-18
46.39190 6.1638033E-18
46.53481 6.1675976E-18
46.67772 6.1696217E-18
46.82063 6.1695067E-18
46.96354 6.1674293E-18
47.10646 6.1640387E-18
47.24937 6.1602626E-18
47.39228 6.1570734E-18
47.53519 6.1552970E-18
47.67810 6.1554914E-18
47.82101 6.1579039E-18
47.96392 6.1624579E-18
48.10684 6.1687569E-18
48.24975 6.1761064E-18
48.39266 6.1835783E-18
48.53557 6.1901532E-18
48.67849 6.1949306E-18
48.82140 6.1973645E-18
48.96431 6.1974245E-18
49.10722 6.1956341E-18
49.25013 6.1929321E-18
49.39304 6.1904187E-18
49.53595 6.1890638E-18
49.67887 6.1894807E-18
49.82178 6.1918377E-18
49.96469 6.1958930E-18
50.10760 6.2011141E-18
50.25051 6.2068176E-18
50.39342 6.2122765E-18
50.53634 6.2167971E-18
50.67925 6.2197915E-18
50.82216 6.2208701E-18
50.96507 6.2199515E-18
51.10798 6.2173438E-18
51.25090 6.2137460E-18
51.39381 6.2101234E-18
51.53672 6.2074735E-18
51.67963 6.2065582E-18
51.82254 6.2076940E-18
51.96545 6.2106780E-18
52.10837 6.2148797E-18
52.25128 6.2194395E-18
52.39419 6.2235059E-18
52.53710 6.2264180E-18
52.68001 6.2277978E-18
52.82293 6.2275546E-18
52.96584 6.2258609E-18
53.10875 6.2231122E-18
53.25166 6.2199036E-18
53.39457 6.2169824E-18
53.53748 6.2151477E-18
53.68040 6.2150881E-18
53.82331 6.2171900E-18
53.96622 6.2213879E-18
54.10913 6.2271290E-18
54.25204 6.2334912E-18
54.39495 6.2394172E-18
54.53786 6.2439898E-18
54.68078 6.2466558E-18
54.82369 6.2473184E-18
54.96660 6.2462943E-18
55.10951 6.2441813E-18
55.25242 6.2416944E-18
55.39534 6.2395392E-18
55.53825 6.2383236E-18
55.68116 6.2384973E-18
55.82407 6.2402902E-18
55.96698 6.2436536E-18
56.10989 6.2482093E-18
56.25281 6.2532749E-18
56.39572 6.2579824E-18
56.53863 6.2614826E-18
56.68154 6.2631763E-18
56.82445 6.2628909E-18
56.96737 6.2609305E-18
57.11028 6.2579787E-18
57.25319 6.2548954E-18
57.39610 6.2524903E-18
57.53901 6.2513505E-18
57.68192 6.2517570E-18
57.82484 6.2536972E-18
57.96775 6.2569199E-18
58.11066 6.2609975E-18
58.25357 6.2653757E-18
58.39648 6.2694248E-18
58.53939 6.2725275E-18
58.68230 6.2742022E-18
58.82522 6.2742497E-18
58.96813 6.2728551E-18
59.11104 6.2705907E-18
59.25395 6.2682882E-18
59.39687 6.2668212E-18
59.53978 6.2668514E-18
59.68269 6.2686584E-18
59.82560 6.2720850E-18
59.96851 6.2766208E-18
60.11142 6.2815761E-18
60.25433 6.2862517E-18
60.39725 6.2900774E-18
60.54016 6.2926719E-18
60.68307 6.2938580E-18
60.82598 6.2936674E-18
60.96889 6.2923489E-18
61.11180 6.2903715E-18
61.25471 6.2883867E-18
61.39763 6.2871174E-18
61.54054 6.2871877E-18
61.68345 6.2889355E-18
61.82636 6.2922856E-18
61.96928 6.2967449E-18
62.11219 6.3015347E-18
62.25510 6.3058199E-18
62.39801 6.3089433E-18
62.54092 6.3105907E-18
62.68383 6.3108256E-18
62.82674 6.3100150E-18
62.96966 6.3086952E-18
63.11257 6.3074325E-18
63.25548 6.3067335E-18
63.39839 6.3069850E-18
63.54131 6.3084235E-18
63.68422 6.3110924E-18
63.82713 6.3147927E-18
63.97004 6.3190614E-18
64.11295 6.3232130E-18
64.25586 6.3264705E-18
64.39877 6.3281575E-18
64.54169 6.3278978E-18
64.68460 6.3257397E-18
64.82751 6.3221563E-18
64.97042 6.3179158E-18
65.11333 6.3138779E-18
65.25625 6.3107851E-18
65.39915 6.3091204E-18
65.54207 6.3090629E-18
65.68498 6.3105191E-18
65.82789 6.3131905E-18
65.97080 6.3166403E-18
66.11372 6.3203473E-18
66.25663 6.3237635E-18
66.39954 6.3263902E-18
66.54245 6.3278866E-18
66.68536 6.3281769E-18
66.82828 6.3275148E-18
66.97118 6.3264494E-18
67.11410 6.3256925E-18
67.25701 6.3259196E-18
67.39992 6.3275681E-18
67.54283 6.3307180E-18
67.68575 6.3350798E-18
67.82866 6.3400933E-18
67.97157 6.3450845E-18
68.11448 6.3494173E-18
68.25739 6.3525966E-18
68.40031 6.3543183E-18
68.54321 6.3544821E-18
68.68613 6.3531958E-18
68.82904 6.3507797E-18
68.97195 6.3477559E-18
69.11486 6.3447938E-18
69.25777 6.3425910E-18
69.40069 6.3417133E-18
69.54359 6.3424363E-18
69.68651 6.3446540E-18
69.82942 6.3479044E-18
69.97233 6.3514976E-18
70.11524 6.3547228E-18
70.25816 6.3570336E-18
70.40107 6.3581713E-18
70.54398 6.3581792E-18
70.68689 6.3573429E-18
70.82980 6.3560856E-18
70.97272 6.3548812E-18
71.11562 6.3541885E-18
71.25854 6.3544143E-18
71.40145 6.3558635E-18
71.54436 6.3586776E-18
71.68727 6.3627576E-18
71.83018 6.3677290E-18
71.97310 6.3729651E-18
72.11600 6.3777131E-18
72.25892 6.3812753E-18
72.40183 6.3831989E-18
72.54475 6.3833950E-18
72.68765 6.3821538E-18
72.83057 6.3800428E-18
72.97348 6.3777449E-18
73.11639 6.3758891E-18
73.25930 6.3749358E-18
73.40221 6.3751306E-18
73.54513 6.3765087E-18
73.68803 6.3789203E-18
73.83095 6.3820558E-18
73.97386 6.3854671E-18
74.11678 6.3886095E-18
74.25968 6.3909298E-18
74.40260 6.3919881E-18
74.54551 6.3915965E-18
74.68842 6.3899020E-18
74.83133 6.3873853E-18
74.97424 6.3847487E-18
75.11716 6.3827336E-18
75.26006 6.3819193E-18
75.40298 6.3825843E-18
75.54589 6.3846643E-18
75.68880 6.3878059E-18
75.83171 6.3914852E-18
75.97462 6.3951343E-18
76.11754 6.3982404E-18
76.26044 6.4004109E-18
76.40336 6.4014151E-18
76.54627 6.4012129E-18
76.68919 6.3999816E-18
76.83209 6.3981188E-18
76.97501 6.3961964E-18
77.11792 6.3948556E-18
77.26083 6.3946554E-18
77.40374 6.3959206E-18
77.54665 6.3986490E-18
77.68957 6.4025066E-18
77.83247 6.4069262E-18
77.97539 6.4112652E-18
78.11830 6.4149693E-18
78.26122 6.4176833E-18
78.40412 6.4192913E-18
78.54704 6.4198910E-18
78.68995 6.4197355E-18
78.83286 6.4191734E-18
78.97577 6.4186006E-18
79.11868 6.4184182E-18
79.26160 6.4189728E-18
79.40450 6.4204800E-18
79.54742 6.4229462E-18
79.69033 6.4261230E-18
79.83324 6.4295318E-18
79.97615 6.4325680E-18
80.11906 6.4346628E-18
80.26198 6.4354437E-18
80.40488 6.4348456E-18
80.54780 6.4331189E-18
80.69071 6.4307531E-18
80.83363 6.4283398E-18
80.97653 6.4264386E-18
81.11945 6.4254778E-18
81.26236 6.4257111E-18
81.40527 6.4272107E-18
81.54818 6.4298755E-18
81.69109 6.4334365E-18
81.83401 6.4374727E-18
81.97691 6.4414461E-18
82.11983 6.4447904E-18
82.26274 6.4470337E-18
82.40565 6.4479300E-18
82.54856 6.4475437E-18
82.69147 6.4462491E-18
82.83439 6.4446295E-18
82.97730 6.4433114E-18
83.12021 6.4427907E-18
83.26312 6.4433135E-18
83.40604 6.4448499E-18
83.54894 6.4471466E-18
83.69186 6.4498296E-18
83.83477 6.4525030E-18
83.97768 6.4548183E-18
84.12059 6.4565049E-18
84.26350 6.4573859E-18
84.40642 6.4574016E-18
84.54933 6.4566402E-18
84.69224 6.4553667E-18
84.83515 6.4540106E-18
84.97807 6.4530940E-18
85.12097 6.4531081E-18
85.26389 6.4543724E-18
85.40680 6.4569317E-18
85.54971 6.4605354E-18
85.69262 6.4647060E-18
85.83553 6.4688754E-18
85.97845 6.4725303E-18
86.12135 6.4753220E-18
86.26427 6.4771087E-18
86.40718 6.4779380E-18
86.55009 6.4779951E-18
86.69300 6.4775575E-18
86.83591 6.4769582E-18
86.97883 6.4765549E-18
87.12174 6.4766877E-18
87.26465 6.4776092E-18
87.40756 6.4794075E-18
87.55048 6.4819465E-18
87.69338 6.4848660E-18
87.83630 6.4876545E-18
87.97921 6.4897869E-18
88.12212 6.4908763E-18
88.26503 6.4907845E-18
88.40794 6.4896525E-18
88.55086 6.4878497E-18
88.69377 6.4858591E-18
88.83668 6.4841592E-18
88.97959 6.4831339E-18
89.12251 6.4830281E-18
89.26541 6.4839396E-18
89.40833 6.4858235E-18
89.55124 6.4884965E-18
89.69415 6.4916452E-18
89.83706 6.4948505E-18
89.97997 6.4976559E-18
90.12289 6.4996689E-18
90.26580 6.5006718E-18
90.40871 6.5006979E-18
90.55162 6.5000345E-18
90.69453 6.4991386E-18
90.83744 6.4985058E-18
90.98035 6.4985257E-18
91.12327 6.4993913E-18
91.26618 6.5010833E-18
91.40909 6.5034181E-18
91.55200 6.5061279E-18
91.69492 6.5089308E-18
91.83783 6.5115687E-18
91.98074 6.5138141E-18
92.12365 6.5154775E-18
92.26656 6.5164362E-18
92.40947 6.5166773E-18
92.55238 6.5163494E-18
92.69530 6.5157654E-18
92.83821 6.5153468E-18
92.98112 6.5155081E-18
93.12403 6.5165247E-18
93.26694 6.5184363E-18
93.40986 6.5210304E-18
93.55276 6.5239131E-18
93.69568 6.5266366E-18
93.83859 6.5288278E-18
93.98150 6.5302663E-18
94.12441 6.5308970E-18
94.26733 6.5307957E-18
94.41024 6.5301116E-18
94.55315 6.5290358E-18
94.69606 6.5277959E-18
94.83897 6.5266565E-18
94.98188 6.5259033E-18
95.12479 6.5257875E-18
95.26771 6.5264418E-18
95.41062 6.5278079E-18
95.55353 6.5296198E-18
95.69644 6.5314661E-18
95.83936 6.5329194E-18
95.98227 6.5336792E-18
96.12518 6.5336747E-18
96.26809 6.5330824E-18
96.41100 6.5322565E-18
96.55391 6.5316080E-18
96.69682 6.5314934E-18
96.83974 6.5321464E-18
96.98265 6.5336602E-18
97.12556 6.5360189E-18
97.26847 6.5391221E-18
97.41138 6.5427952E-18
97.55430 6.5467797E-18
97.69720 6.5507340E-18
97.84012 6.5542702E-18
97.98303 6.5570334E-18
98.12594 6.5588061E-18
98.26885 6.5595853E-18
98.41177 6.5595993E-18
98.55468 6.5592445E-18
98.69759 6.5589607E-18
98.84050 6.5591014E-18
98.98341 6.5598483E-18
99.12633 6.5611917E-18
99.26923 6.5629775E-18
99.41215 6.5649810E-18
99.55506 6.5669695E-18
99.69797 6.5687293E-18
99.84088 6.5700723E-18
99.98380 6.5708362E-18
100.1267 6.5709164E-18
100.2696 6.5703146E-18
100.4125 6.5691851E-18
100.5554 6.5678472E-18
100.6984 6.5667255E-18
100.8413 6.5662383E-18
100.9842 6.5666717E-18
101.1271 6.5680841E-18
101.2700 6.5702915E-18
101.4129 6.5729372E-18
101.5558 6.5756032E-18
101.6987 6.5779251E-18
101.8416 6.5796609E-18
101.9846 6.5807011E-18
102.1275 6.5810436E-18
102.2704 6.5807594E-18
102.4133 6.5799877E-18
102.5562 6.5789446E-18
102.6991 6.5779251E-18
102.8420 6.5772720E-18
102.9849 6.5772977E-18
103.1279 6.5781766E-18
103.2708 6.5798669E-18
103.4137 6.5820953E-18
103.5566 6.5844317E-18
103.6995 6.5864252E-18
103.8424 6.5877549E-18
103.9853 6.5883178E-18
104.1282 6.5882425E-18
104.2711 6.5878149E-18
104.4141 6.5873744E-18
104.5570 6.5872214E-18
104.6999 6.5875779E-18
104.8428 6.5885883E-18
104.9857 6.5903390E-18
105.1286 6.5928520E-18
105.2715 6.5960557E-18
105.4144 6.5997383E-18
105.5574 6.6035305E-18
105.7003 6.6069563E-18
105.8432 6.6095420E-18
105.9861 6.6109598E-18
106.1290 6.6111401E-18
106.2719 6.6102981E-18
106.4148 6.6088695E-18
106.5577 6.6073703E-18
106.7006 6.6062486E-18
106.8436 6.6057866E-18
106.9865 6.6060720E-18
107.1294 6.6070369E-18
107.2723 6.6085209E-18
107.4152 6.6103175E-18
107.5581 6.6121919E-18
107.7010 6.6138818E-18
107.8439 6.6151193E-18
107.9869 6.6156793E-18
108.1298 6.6154638E-18
108.2727 6.6145729E-18
108.4156 6.6133243E-18
108.5585 6.6121882E-18
108.7014 6.6116571E-18
108.8443 6.6120893E-18
108.9872 6.6135977E-18
109.1301 6.6160246E-18
109.2731 6.6190037E-18
109.4160 6.6220833E-18
109.5589 6.6248502E-18
109.7018 6.6270075E-18
109.8447 6.6283964E-18
109.9876 6.6289816E-18
110.1305 6.6288228E-18
110.2734 6.6280733E-18
110.4164 6.6269823E-18
110.5593 6.6258904E-18
110.7022 6.6251881E-18
110.8451 6.6252245E-18
110.9880 6.6262081E-18
111.1309 6.6281271E-18
111.2738 6.6307398E-18
111.4167 6.6336523E-18
111.5596 6.6364436E-18
111.7026 6.6387924E-18
111.8455 6.6405543E-18
111.9884 6.6417619E-18
112.1313 6.6425631E-18
112.2742 6.6431388E-18
112.4171 6.6436492E-18
112.5600 6.6442170E-18
112.7029 6.6449449E-18
112.8458 6.6459301E-18
112.9888 6.6472474E-18
113.1317 6.6488984E-18
113.2746 6.6507563E-18
113.4175 6.6525484E-18
113.5604 6.6539029E-18
113.7033 6.6544563E-18
113.8462 6.6539769E-18
113.9891 6.6524570E-18
114.1321 6.6501173E-18
114.2750 6.6473400E-18
114.4179 6.6445483E-18
114.5608 6.6421011E-18
114.7037 6.6402362E-18
114.8466 6.6390777E-18
114.9895 6.6386774E-18
115.1324 6.6390484E-18
115.2754 6.6401692E-18
115.4183 6.6419514E-18
115.5612 6.6442034E-18
115.7041 6.6466390E-18
115.8470 6.6489348E-18
115.9899 6.6508307E-18
116.1328 6.6522254E-18
116.2757 6.6532130E-18
116.4186 6.6540390E-18
116.5616 6.6549956E-18
116.7045 6.6562976E-18
116.8474 6.6580036E-18
116.9903 6.6600124E-18
117.1332 6.6621255E-18
117.2761 6.6641364E-18
117.4190 6.6658987E-18
117.5619 6.6673404E-18
117.7048 6.6684294E-18
117.8478 6.6691317E-18
117.9907 6.6693939E-18
118.1336 6.6691735E-18
118.2765 6.6684948E-18
118.4194 6.6674993E-18
118.5623 6.6664417E-18
118.7052 6.6656294E-18
118.8481 6.6653192E-18
118.9911 6.6656315E-18
119.1340 6.6665182E-18
119.2769 6.6677970E-18
119.4198 6.6692413E-18
119.5627 6.6706645E-18
119.7056 6.6719714E-18
119.8485 6.6731493E-18
119.9914 6.6742222E-18
120.1343 6.6752015E-18
120.2773 6.6760742E-18
120.4202 6.6768261E-18
120.5631 6.6774846E-18
120.7060 6.6781409E-18
120.8489 6.6789276E-18
120.9918 6.6799541E-18
121.1347 6.6812387E-18
121.2776 6.6826681E-18
121.4206 6.6840263E-18
121.5635 6.6850727E-18
121.7064 6.6856430E-18
121.8493 6.6857142E-18
121.9922 6.6854065E-18
122.1351 6.6849251E-18
122.2780 6.6844763E-18
122.4209 6.6841959E-18
122.5639 6.6841310E-18
122.7068 6.6842683E-18
122.8497 6.6845793E-18
122.9926 6.6850500E-18
123.1355 6.6856737E-18
123.2784 6.6864173E-18
123.4213 6.6871866E-18
123.5642 6.6878376E-18
123.7071 6.6882201E-18
123.8501 6.6882619E-18
123.9930 6.6880216E-18
124.1359 6.6876957E-18
124.2788 6.6875551E-18
124.4217 6.6878450E-18
124.5646 6.6886891E-18
124.7075 6.6900503E-18
124.8504 6.6917600E-18
124.9933 6.6935947E-18
125.1363 6.6953591E-18
125.2792 6.6969308E-18
125.4221 6.6982526E-18
125.5650 6.6992932E-18
125.7079 6.7000079E-18
125.8508 6.7003400E-18
125.9937 6.7002614E-18
126.1366 6.6998300E-18
126.2795 6.6992216E-18
126.4225 6.6987046E-18
126.5654 6.6985620E-18
126.7083 6.6989855E-18
126.8512 6.7000050E-18
126.9941 6.7014736E-18
127.1370 6.7031338E-18
127.2799 6.7047149E-18
127.4228 6.7060227E-18
127.5658 6.7069814E-18
127.7087 6.7076175E-18
127.8516 6.7080055E-18
127.9945 6.7082218E-18
128.1374 6.7083293E-18
128.2803 6.7083942E-18
128.4232 6.7085154E-18
128.5661 6.7088297E-18
128.7090 6.7094749E-18
128.8520 6.7105230E-18
128.9949 6.7119201E-18
129.1378 6.7134665E-18
129.2807 6.7148669E-18
129.4236 6.7158265E-18
129.5665 6.7161577E-18
129.7094 6.7158451E-18
129.8523 6.7150435E-18
129.9953 6.7140149E-18
130.1382 6.7130347E-18
130.2811 6.7123167E-18
130.4240 6.7119846E-18
130.5669 6.7120818E-18
130.7098 6.7126046E-18
130.8527 6.7135190E-18
130.9956 6.7147561E-18
131.1385 6.7161883E-18
131.2815 6.7176210E-18
131.4244 6.7188171E-18
131.5673 6.7195612E-18
131.7102 6.7197374E-18
131.8531 6.7193854E-18
131.9960 6.7186976E-18
132.1389 6.7179602E-18
132.2818 6.7174519E-18
132.4248 6.7173580E-18
132.5677 6.7177232E-18
132.7106 6.7184643E-18
132.8535 6.7194284E-18
132.9964 6.7204516E-18
133.1393 6.7213971E-18
133.2822 6.7221598E-18
133.4251 6.7226515E-18
133.5681 6.7227967E-18
133.7110 6.7225518E-18
133.8539 6.7219488E-18
133.9968 6.7211336E-18
134.1397 6.7203644E-18
134.2826 6.7199661E-18
134.4255 6.7202333E-18
134.5684 6.7213384E-18
134.7113 6.7232731E-18
134.8542 6.7258581E-18
134.9972 6.7288078E-18
135.1401 6.7318274E-18
135.2830 6.7346878E-18
135.4259 6.7372542E-18
135.5688 6.7394685E-18
135.7117 6.7413069E-18
135.8546 6.7427545E-18
135.9975 6.7437992E-18
136.1405 6.7444639E-18
136.2834 6.7448311E-18
136.4263 6.7450416E-18
136.5692 6.7452526E-18
136.7121 6.7455731E-18
136.8550 6.7460061E-18
136.9979 6.7464350E-18
137.1408 6.7466650E-18
137.2838 6.7465049E-18
137.4267 6.7458490E-18
137.5696 6.7447170E-18
137.7125 6.7432438E-18
137.8554 6.7416217E-18
137.9983 6.7400327E-18
138.1412 6.7386049E-18
138.2841 6.7374138E-18
138.4270 6.7365126E-18
138.5700 6.7359646E-18
138.7129 6.7358542E-18
138.8558 6.7362524E-18
138.9987 6.7371735E-18
139.1416 6.7385355E-18
139.2845 6.7401642E-18
139.4274 6.7418417E-18
139.5703 6.7433778E-18
139.7133 6.7446764E-18
139.8562 6.7457551E-18
139.9991 6.7467188E-18
140.1420 6.7476965E-18
140.2849 6.7487834E-18
140.4278 6.7500072E-18
140.5707 6.7513365E-18
140.7136 6.7527150E-18
140.8566 6.7540918E-18
140.9995 6.7554306E-18
141.1424 6.7566900E-18
141.2853 6.7577993E-18
141.4282 6.7586455E-18
141.5711 6.7590992E-18
141.7140 6.7590644E-18
141.8569 6.7585367E-18
141.9998 6.7576284E-18
142.1427 6.7565519E-18
142.2857 6.7555580E-18
142.4286 6.7548603E-18
142.5715 6.7545761E-18
142.7144 6.7547135E-18
142.8573 6.7551978E-18
143.0002 6.7559228E-18
143.1431 6.7567909E-18
143.2860 6.7577277E-18
143.4290 6.7586699E-18
143.5719 6.7595487E-18
143.7148 6.7602870E-18
143.8577 6.7608205E-18
144.0006 6.7611386E-18
144.1435 6.7613090E-18
144.2864 6.7614769E-18
144.4293 6.7618185E-18
144.5723 6.7624745E-18
144.7152 6.7634869E-18
144.8581 6.7647798E-18
145.0010 6.7661831E-18
145.1439 6.7675013E-18
145.2868 6.7685774E-18
145.4297 6.7693376E-18
145.5726 6.7697892E-18
145.7155 6.7699878E-18
145.8585 6.7699964E-18
146.0014 6.7698637E-18
146.1443 6.7696321E-18
146.2872 6.7693624E-18
146.4301 6.7691490E-18
146.5730 6.7691122E-18
146.7159 6.7693550E-18
146.8588 6.7699129E-18
147.0018 6.7707186E-18
147.1447 6.7716152E-18
147.2876 6.7724122E-18
147.4305 6.7729598E-18
147.5734 6.7732138E-18
147.7163 6.7732547E-18
147.8592 6.7732543E-18
148.0021 6.7734032E-18
148.1451 6.7738507E-18
148.2880 6.7746626E-18
148.4309 6.7758235E-18
148.5738 6.7772690E-18
148.7167 6.7789192E-18
148.8596 6.7806944E-18
149.0025 6.7825063E-18
149.1454 6.7842434E-18
149.2883 6.7857642E-18
149.4312 6.7869255E-18
149.5742 6.7876303E-18
149.7171 6.7878793E-18
149.8600 6.7877912E-18
150.0029 6.7875778E-18
150.1458 6.7874789E-18
150.2887 6.7876807E-18
150.4316 6.7882552E-18
150.5745 6.7891461E-18
150.7175 6.7902036E-18
150.8604 6.7912442E-18
151.0033 6.7921107E-18
151.1462 6.7927030E-18
151.2891 6.7929805E-18
151.4320 6.7929428E-18
151.5749 6.7926211E-18
151.7178 6.7920747E-18
151.8607 6.7914097E-18
152.0037 6.7907843E-18
152.1466 6.7903922E-18
152.2895 6.7904158E-18
152.4324 6.7909642E-18
152.5753 6.7920239E-18
152.7182 6.7934466E-18
152.8611 6.7949864E-18
153.0040 6.7963748E-18
153.1470 6.7974005E-18
153.2899 6.7979634E-18
153.4328 6.7980854E-18
153.5757 6.7978828E-18
153.7186 6.7975217E-18
153.8615 6.7971834E-18
154.0044 6.7970465E-18
154.1473 6.7972773E-18
154.2903 6.7980279E-18
154.4332 6.7994027E-18
154.5761 6.8014214E-18
154.7190 6.8039791E-18
154.8619 6.8068316E-18
155.0048 6.8096395E-18
155.1477 6.8120375E-18
155.2906 6.8137353E-18
155.4335 6.8145869E-18
155.5765 6.8146183E-18
155.7194 6.8139884E-18
155.8623 6.8129300E-18
156.0052 6.8116686E-18
156.1481 6.8103848E-18
156.2910 6.8091994E-18
156.4339 6.8081853E-18
156.5768 6.8073838E-18
156.7197 6.8068031E-18
156.8627 6.8063978E-18
157.0056 6.8060599E-18
157.1485 6.8056231E-18
157.2914 6.8049150E-18
157.4343 6.8038236E-18
157.5772 6.8023686E-18
157.7201 6.8007254E-18
157.8630 6.7991996E-18
158.0060 6.7981421E-18
158.1489 6.7978505E-18
158.2918 6.7984866E-18
158.4347 6.8000516E-18
158.5776 6.8024120E-18
158.7205 6.8053510E-18
158.8634 6.8086320E-18
159.0063 6.8120317E-18
159.1492 6.8153466E-18
159.2922 6.8183873E-18
159.4351 6.8209855E-18
159.5780 6.8230175E-18
159.7209 6.8244448E-18
159.8638 6.8253419E-18
160.0067 6.8258890E-18
160.1496 6.8263258E-18
160.2925 6.8268697E-18
160.4355 6.8276418E-18
160.5784 6.8286320E-18
160.7213 6.8297081E-18
160.8642 6.8306809E-18
161.0071 6.8313716E-18
161.1500 6.8316714E-18
161.2929 6.8315515E-18
161.4358 6.8310515E-18
161.5788 6.8302404E-18
161.7217 6.8291994E-18
161.8646 6.8280174E-18
162.0075 6.8268109E-18
162.1504 6.8257331E-18
162.2933 6.8249580E-18
162.4362 6.8246450E-18
162.5791 6.8248853E-18
162.7220 6.8256640E-18
162.8650 6.8268606E-18
163.0079 6.8282879E-18
163.1508 6.8297507E-18
163.2937 6.8311032E-18
163.4366 6.8322695E-18
163.5795 6.8332365E-18
163.7224 6.8340157E-18
163.8653 6.8346158E-18
164.0083 6.8350306E-18
164.1512 6.8352564E-18
164.2941 6.8353143E-18
164.4370 6.8352655E-18
164.5799 6.8351915E-18
164.7228 6.8351584E-18
164.8657 6.8351795E-18
165.0086 6.8351994E-18
165.1515 6.8351167E-18
165.2944 6.8348321E-18
165.4374 6.8343039E-18
165.5803 6.8335727E-18
165.7232 6.8327493E-18
165.8661 6.8319717E-18
166.0090 6.8313501E-18
166.1519 6.8309361E-18
166.2948 6.8307297E-18
166.4377 6.8307098E-18
166.5807 6.8308716E-18
166.7236 6.8312434E-18
166.8665 6.8318679E-18
167.0094 6.8327621E-18
167.1523 6.8338854E-18
167.2952 6.8351320E-18
167.4381 6.8363620E-18
167.5810 6.8374563E-18
167.7240 6.8383662E-18
167.8669 6.8391243E-18
168.0098 6.8398142E-18
168.1527 6.8405173E-18
168.2956 6.8412593E-18
168.4385 6.8419955E-18
168.5814 6.8426349E-18
168.7243 6.8430898E-18
168.8672 6.8433281E-18
169.0102 6.8433856E-18
169.1531 6.8433463E-18
169.2960 6.8432954E-18
169.4389 6.8432751E-18
169.5818 6.8432776E-18
169.7247 6.8432656E-18
169.8676 6.8432143E-18
170.0105 6.8431469E-18
170.1535 6.8431304E-18
170.2964 6.8432400E-18
170.4393 6.8435096E-18
170.5822 6.8438935E-18
170.7251 6.8442702E-18
170.8680 6.8444878E-18
171.0109 6.8444253E-18
171.1538 6.8440461E-18
171.2968 6.8434108E-18
171.4397 6.8426502E-18
171.5826 6.8419132E-18
171.7255 6.8413164E-18
171.8684 6.8409235E-18
172.0113 6.8407555E-18
172.1542 6.8408155E-18
172.2971 6.8411059E-18
172.4400 6.8416282E-18
172.5829 6.8423607E-18
172.7259 6.8432371E-18
172.8688 6.8441424E-18
173.0117 6.8449440E-18
173.1546 6.8455366E-18
173.2975 6.8458899E-18
173.4404 6.8460681E-18
173.5833 6.8462058E-18
173.7262 6.8464532E-18
173.8692 6.8469156E-18
174.0121 6.8476170E-18
174.1550 6.8484946E-18
174.2979 6.8494302E-18
174.4408 6.8502892E-18
174.5837 6.8509530E-18
174.7266 6.8513261E-18
174.8695 6.8513323E-18
175.0125 6.8509079E-18
175.1554 6.8500138E-18
175.2983 6.8486609E-18
175.4412 6.8469404E-18
175.5841 6.8450321E-18
175.7270 6.8431833E-18
175.8699 6.8416456E-18
176.0128 6.8406075E-18
176.1557 6.8401443E-18
176.2987 6.8402046E-18
176.4416 6.8406484E-18
176.5845 6.8413002E-18
176.7274 6.8420104E-18
176.8703 6.8426845E-18
177.0132 6.8432830E-18
177.1561 6.8438012E-18
177.2990 6.8442549E-18
177.4420 6.8446776E-18
177.5849 6.8451334E-18
177.7278 6.8457257E-18
177.8707 6.8465909E-18
178.0136 6.8478528E-18
178.1565 6.8495687E-18
178.2994 6.8516785E-18
178.4423 6.8539917E-18
178.5853 6.8562205E-18