 -7.19999981   4.072848636E-20
 -7.07315636   4.071470217E-20
 -6.9463129   4.068834225E-20
 -6.81946898   4.06506506E-20
 -6.69262552   4.060434141E-20
 -6.56578159   4.055176697E-20
 -6.43893814   4.04954993E-20
 -6.31209469   4.043855955E-20
 -6.18525076   4.038345834E-20
 -6.05840731   4.033374349E-20
 -5.93156338   4.029104029E-20
 -5.80471992   4.025622762E-20
 -5.67787647   4.023123125E-20
 -5.55103254   4.021679114E-20
 -5.42418909   4.021141446E-20
 -5.29734564   4.021416096E-20
 -5.17050171   4.02231307E-20
 -5.04365826   4.02361071E-20
 -4.91681433   4.025050844E-20
 -4.78997087   4.026369809E-20
 -4.66312742   4.027312666E-20
 -4.53628349   4.027641923E-20
 -4.40944004   4.027127843E-20
 -4.28259611   4.025703541E-20
 -4.15575266   4.023323135E-20
 -4.02890921   4.01992297E-20
 -3.90206528   4.015635202E-20
 -3.77522182   4.010469201E-20
 -3.64837813   4.004744852E-20
 -3.52153444   3.998675092E-20
 -3.39469075   3.992488685E-20
 -3.2678473   3.986441866E-20
 -3.14100361   3.980766631E-20
 -3.01415992   3.975714044E-20
 -2.88731623   3.97144437E-20
 -2.76047254   3.968104952E-20
 -2.63362908   3.965794339E-20
 -2.50678539   3.964413012E-20
 -2.3799417   3.964011377E-20
 -2.25309801   3.964443062E-20
 -2.12625432   3.965516135E-20
 -1.99941075   3.967051589E-20
 -1.87256718   3.968843921E-20
 -1.74572349   3.970627206E-20
 -1.61887991   3.972090928E-20
 -1.49203622   3.973113595E-20
 -1.36519253   3.973408924E-20
 -1.23834896   3.972920694E-20
 -1.11150527   3.97150964E-20
 -0.984661698   3.96924491E-20
 -0.857818007   3.966091284E-20
 -0.730974376   3.962169285E-20
 -0.604130745   3.957654042E-20
 -0.477287114   3.952710022E-20
 -0.350443482   3.947580856E-20
 -0.223599836   3.942486264E-20
 -9.675619751E-2   3.937667936E-20
 3.008744121E-2   3.933299389E-20
 0.156931072   3.929643961E-20
 0.283774734   3.926763693E-20
 0.410618365   3.924915784E-20
 0.537461996   3.92404886E-20
 0.664305627   3.924074709E-20
 0.791149259   3.925004965E-20
 0.91799289   3.926710701E-20
 1.04483652   3.928999988E-20
 1.17168021   3.931624025E-20
 1.29852378   3.93433595E-20
 1.42536747   3.936912165E-20
 1.55221117   3.939094823E-20
 1.67905474   3.940688115E-20
 1.80589843   3.94153339E-20
 1.932742   3.941547931E-20
 2.05958557   3.940612506E-20
 2.18642926   3.938829221E-20
 2.31327295   3.936197429E-20
 2.44011664   3.932848963E-20
 2.56696033   3.929002573E-20
 2.69380379   3.924947773E-20
 2.82064748   3.920916237E-20
 2.94749117   3.917183261E-20
 3.07433486   3.913956287E-20
 3.20117831   3.911495102E-20
 3.328022   3.909967726E-20
 3.45486569   3.909466247E-20
 3.58170938   3.910007469E-20
 3.70855308   3.911634689E-20
 3.83539653   3.914170514E-20
 3.96224022   3.91748473E-20
 4.08908367   3.921407698E-20
 4.2159276   3.925672525E-20
 4.34277105   3.929986143E-20
 4.46961498   3.93411623E-20
 4.59645844   3.93782788E-20
 4.72330189   3.940826409E-20
 4.85014582   3.943070137E-20
 4.97698927   3.94443143E-20
 5.1038332   3.944827249E-20
 5.23067665   3.94442206E-20
 5.3575201   3.943269177E-20
 5.48436403   3.941504633E-20
 5.61120749   3.939368504E-20
 5.73805141   3.937176475E-20
 5.86489487   3.935149882E-20
 5.99173832   3.933467087E-20
 6.11858225   3.932398538E-20
 6.2454257   3.932084144E-20
 6.37226963   3.932594347E-20
 6.49911308   3.933996353E-20
 6.62595654   3.936305673E-20
 6.75280046   3.939461884E-20
 6.87964392   3.943386792E-20
 7.00648737   3.947816409E-20
 7.1333313   3.95269322E-20
 7.26017475   3.957771333E-20
 7.38701868   3.962749927E-20
 7.51386213   3.967466472E-20
 7.64070559   3.97179883E-20
 7.76754951   3.975480753E-20
 7.89439297   3.978389456E-20
 8.02123642   3.980527848E-20
 8.14808083   3.981893988E-20
 8.27492428   3.982478831E-20
 8.40176773   3.982372848E-20
 8.52861118   3.981714335E-20
 8.65545464   3.980606042E-20
 8.78229809   3.9792874E-20
 8.90914249   3.97798459E-20
 9.03598595   3.976786471E-20
 9.1628294   3.975990633E-20
 9.28967285   3.9756659E-20
 9.4165163   3.976013251E-20
 9.54336071   3.977073076E-20
 9.67020416   3.978935848E-20
 9.79704762   3.981559885E-20
 9.92389107   3.984936139E-20
 10.0507345   3.988915007E-20
 10.1775789   3.99333913E-20
 10.3044224   3.998025626E-20
 10.4312658   4.00281778E-20
 10.5581093   4.007455161E-20
 10.6849527   4.011765871E-20
 10.8117971   4.015591258E-20
 10.9386406   4.018721943E-20
 11.065484   4.021109135E-20
 11.1923275   4.022776744E-20
 11.319171   4.02367501E-20
 11.4460154   4.02395483E-20
 11.5728588   4.023664024E-20
 11.6997023   4.023020374E-20
 11.8265457   4.02224877E-20
 11.9533892   4.021457455E-20
 12.0802336   4.020852579E-20
 12.207077   4.020622197E-20
 12.3339205   4.020934328E-20
 12.4607639   4.021928237E-20
 12.5876074   4.023627512E-20
 12.7144518   4.026097098E-20
 12.8412952   4.029330534E-20
 12.9681387   4.033173693E-20
 13.0949821   4.03753287E-20
 13.2218256   4.042319532E-20
 13.34867   4.047314927E-20
 13.4755135   4.05236396E-20
 13.6023569   4.0573474E-20
 13.7292004   4.061997706E-20
 13.8560438   4.066218266E-20
 13.9828882   4.069933147E-20
 14.1097317   4.073074495E-20
 14.2365751   4.075643601E-20
 14.3634186   4.07765533E-20
 14.490262   4.079088679E-20
 14.6171055   4.080078065E-20
 14.7439499   4.080768244E-20
 14.8707933   4.081178926E-20
 14.9976368   4.081534355E-20
 15.1244802   4.082026463E-20
 15.2513237   4.08267399E-20
 15.3781681   4.083738985E-20
 15.5050116   4.085235665E-20
 15.631855   4.087258057E-20
 15.7586985   4.089834273E-20
 15.8855419   4.092979498E-20
 16.0123863   4.096655928E-20
 16.1392288   4.100705881E-20
 16.2660732   4.105090908E-20
 16.3929176   4.10968693E-20
 16.5197601   4.11440089E-20
 16.6466045   4.11899045E-20
 16.773447   4.1232556E-20
 16.9002914   4.127155951E-20
 17.0271358   4.130518957E-20
 17.1539783   4.133288073E-20
 17.2808228   4.135331791E-20
 17.4076653   4.136720873E-20
 17.5345097   4.137506371E-20
 17.6613541   4.137626248E-20
 17.7881966   4.137303454E-20
 17.915041   4.136641386E-20
 18.0418835   4.135814529E-20
 18.1687279   4.135027091E-20
 18.2955723   4.134464867E-20
 18.4224148   4.134233838E-20
 18.5492592   4.134577958E-20
 18.6761017   4.135542787E-20
 18.8029461   4.137188747E-20
 18.9297905   4.139640885E-20
 19.056633   4.142877552E-20
 19.1834774   4.146769179E-20
 19.3103199   4.151061147E-20
 19.4371643   4.155766383E-20
 19.5640087   4.160548521E-20
 19.6908512   4.165257312E-20
 19.8176956   4.169749936E-20
 19.9445381   4.173757885E-20
 20.0713825   4.17710312E-20
 20.1982269   4.17967675E-20
 20.3250694   4.181407367E-20
 20.4519138   4.182268152E-20
 20.5787563   4.182342792E-20
 20.7056007   4.181713682E-20
 20.8324451   4.180463218E-20
 20.9592876   4.178869603E-20
 21.086132   4.177152557E-20
 21.2129745   4.175477516E-20
 21.339819   4.17408488E-20
 21.4666634   4.173108742E-20
 21.5935059   4.172745235E-20
 21.7203503   4.173142023E-20
 21.8471928   4.174286182E-20
 21.9740372   4.176160586E-20
 22.1008816   4.178697058E-20
 22.2277241   4.181742117E-20
 22.3545685   4.185190749E-20
 22.481411   4.188838421E-20
 22.6082554   4.192418563E-20
 22.7350998   4.195765413E-20
 22.8619423   4.198647297E-20
 22.9887867   4.200979882E-20
 23.1156292   4.202573174E-20
 23.2424736   4.203423296E-20
 23.369318   4.20344753E-20
 23.4961605   4.202764459E-20
 23.6230049   4.201376347E-20
 23.7498474   4.199424395E-20
 23.8766918   4.197122183E-20
 24.0035343   4.194570525E-20
 24.1303787   4.192003034E-20
 24.2572231   4.189596778E-20
 24.3840656   4.187447724E-20
 24.51091   4.185666701E-20
 24.6377525   4.184374231E-20
 24.7645969   4.183555452E-20
 24.8914413   4.183344133E-20
 25.0182838   4.183578393E-20
 25.1451283   4.184266956E-20
 25.2719707   4.185223061E-20
 25.3988152   4.186388222E-20
 25.5256596   4.187616391E-20
 25.6525021   4.18873567E-20
 25.7793465   4.189653324E-20
 25.906189   4.190215225E-20
 26.0330334   4.190285664E-20
 26.1598778   4.189822314E-20
 26.2867203   4.188724361E-20
 26.4135647   4.187019917E-20
 26.5404072   4.184810763E-20
 26.6672516   4.182042293E-20
 26.794096   4.1789688E-20
 26.9209385   4.175626796E-20
 27.0477829   4.172258297E-20
 27.1746254   4.168981563E-20
 27.3014698   4.165956215E-20
 27.4283142   4.16334478E-20
 27.5551567   4.161301062E-20
 27.6820011   4.159836371E-20
 27.8088436   4.159148777E-20
 27.935688   4.15914393E-20
 28.0625324   4.159713909E-20
 28.1893749   4.160825433E-20
 28.3162193   4.162298848E-20
 28.4430618   4.164033343E-20
 28.5699062   4.165763637E-20
 28.6967506   4.16729489E-20
 28.8235931   4.1684775E-20
 28.9504375   4.169239411E-20
 29.07728   4.169387399E-20
 29.2041245   4.168862656E-20
 29.3309689   4.167826418E-20
 29.4578114   4.16624702E-20
 29.5846558   4.164280528E-20
 29.7114983   4.162038093E-20
 29.8383427   4.159724895E-20
 29.9651871   4.157474705E-20
 30.0920296   4.155536647E-20
 30.218874   4.153962742E-20
 30.3457165   4.152936521E-20
 30.4725609   4.152529716E-20
 30.5994053   4.152730695E-20
 30.7262478   4.153492929E-20
 30.8530922   4.154750825E-20
 30.9799347   4.156305666E-20
 31.1067791   4.158122879E-20
 31.2336235   4.15998242E-20
 31.360466   4.161738886E-20
 31.4873104   4.163148324E-20
 31.6141529   4.164140618E-20
 31.7409973   4.164678608E-20
 31.8678417   4.16462594E-20
 31.9946842   4.16407761E-20
 32.1215286   4.163071422E-20
 32.2483711   4.161630642E-20
 32.3752136   4.159923935E-20
 32.5020599   4.158091536E-20
 32.6289024   4.156249767E-20
 32.7557449   4.154619963E-20
 32.8825912   4.153188553E-20
 33.0094337   4.15206572E-20
 33.1362762   4.151395897E-20
 33.2631226   4.151123186E-20
 33.3899651   4.151245001E-20
 33.5168076   4.1517901E-20
 33.6436501   4.152588524E-20
 33.7704964   4.153614745E-20
 33.8973389   4.154739516E-20
 34.0241814   4.155927619E-20
 34.1510277   4.156976458E-20
 34.2778702   4.15781721E-20
 34.4047127   4.158457952E-20
 34.531559   4.158778807E-20
 34.6584015   4.15886508E-20
 34.785244   4.158646975E-20
 34.9120865   4.158229184E-20
 35.0389328   4.157747416E-20
 35.1657753   4.157232367E-20
 35.2926178   4.156818454E-20
 35.4194641   4.156519893E-20
 35.5463066   4.156561575E-20
 35.6731491   4.156902464E-20
 35.7999954   4.15757778E-20
 35.9268379   4.158583967E-20
 36.0536804   4.159861251E-20
 36.1805229   4.161366978E-20
 36.3073692   4.162978041E-20
 36.4342117   4.16463628E-20
 36.5610542   4.166190798E-20
 36.6879005   4.16765969E-20
 36.814743   4.168791247E-20
 36.9415855   4.169712132E-20
 37.0684319   4.170288896E-20
 37.1952744   4.170538666E-20
 37.3221169   4.170523156E-20
 37.4489594   4.170348996E-20
 37.5758057   4.170106335E-20
 37.7026482   4.169872075E-20
 37.8294907   4.169772878E-20
 37.956337   4.169899863E-20
 38.0831795   4.170354489E-20
 38.210022   4.171196533E-20
 38.3368683   4.172412101E-20
 38.4637108   4.173973081E-20
 38.5905533   4.175862349E-20
 38.7173958   4.177966813E-20
 38.8442421   4.180191476E-20
 38.9710846   4.182461699E-20
 39.0979271   4.184588781E-20
 39.2247734   4.186611496E-20
 39.3516159   4.188329511E-20
 39.4784584   4.189676588E-20
 39.6053047   4.190686653E-20
 39.7321472   4.191426592E-20
 39.8589897   4.191879603E-20
 39.9858322   4.192100615E-20
 40.1126785   4.192136804E-20
 40.239521   4.192204336E-20
 40.3663635   4.192342307E-20
 40.4932098   4.192575274E-20
 40.6200523   4.192997266E-20
 40.7468948   4.193596326E-20
 40.8737411   4.194419629E-20
 41.0005836   4.195406429E-20
 41.1274261   4.196563513E-20
 41.2542686   4.197833364E-20
 41.381115   4.199158146E-20
 41.5079575   4.200354973E-20
 41.6348   4.201444202E-20
 41.7616463   4.202307894E-20
 41.8884888   4.202921818E-20
 42.0153313   4.203206807E-20
 42.1421776   4.203141214E-20
 42.2690201   4.202768337E-20
 42.3958626   4.202113055E-20
 42.5227051   4.201262287E-20
 42.6495514   4.200279686E-20
 42.7763939   4.199308719E-20
 42.9032364   4.198530329E-20
 43.0300827   4.197918667E-20
 43.1569252   4.1976298E-20
 43.2837677   4.197739014E-20
 43.4106102   4.19826925E-20
 43.5374565   4.199167193E-20
 43.664299   4.20036402E-20
 43.7911415   4.20177152E-20
 43.9179878   4.203254952E-20
 44.0448303   4.204670852E-20
 44.1716728   4.20588125E-20
 44.2985191   4.20672911E-20
 44.4253616   4.207112328E-20
 44.5522041   4.207068707E-20
 44.6790466   4.206528131E-20
 44.8058929   4.205605631E-20
 44.9327354   4.204350966E-20
 45.0595779   4.202902107E-20
 45.1864243   4.201364715E-20
 45.3132668   4.199876759E-20
 45.4401093   4.198695119E-20
 45.5669556   4.197902835E-20
 45.6937981   4.197543205E-20
 45.8206406   4.197683115E-20
 45.9474831   4.198335812E-20
 46.0743294   4.199448305E-20
 46.2011719   4.200881331E-20
 46.3280144   4.202508227E-20
 46.4548607   4.204188115E-20
 46.5817032   4.205685441E-20
 46.7085457   4.2068338E-20
 46.835392   4.207487144E-20
 46.9622345   4.207516224E-20
 47.089077   4.206829923E-20
 47.2159195   4.205432117E-20
 47.3427658   4.203421357E-20
 47.4696083   4.20081283E-20
 47.5964508   4.197817855E-20
 47.7232971   4.194606391E-20
 47.8501396   4.1913051E-20
 47.9769821   4.188147273E-20
 48.1038284   4.185345522E-20
 48.2306709   4.183030709E-20
 48.3575134   4.181268103E-20
 48.4843559   4.180081616E-20
 48.6112022   4.179493865E-20
 48.7380447   4.17947674E-20
 48.8648872   4.179969494E-20
 48.9917336   4.180791505E-20
 49.118576   4.181756657E-20
 49.2454185   4.182851379E-20
 49.3722649   4.183860151E-20
 49.4991074   4.184683454E-20
 49.6259499   4.185268943E-20
 49.7527924   4.185515482E-20
 49.8796387   4.185405945E-20
 50.0064812   4.184917068E-20
 50.1333237   4.184133509E-20
 50.26017   4.183166418E-20
 50.3870125   4.18206685E-20
 50.513855   4.180862914E-20
 50.6407013   4.179682243E-20
 50.7675438   4.178623387E-20
 50.8943863   4.17770638E-20
 51.0212288   4.177018786E-20
 51.1480751   4.176560605E-20
 51.2749176   4.176380629E-20
 51.4017601   4.176380306E-20
 51.5286064   4.176548004E-20
 51.6554489   4.176726042E-20
 51.7822914   4.176920235E-20
 51.9091377   4.176932837E-20
 52.0359802   4.176768693E-20
 52.1628227   4.176329576E-20
 52.2896652   4.17561064E-20
 52.4165115   4.174639349E-20
 52.543354   4.173387915E-20
 52.6701965   4.17192904E-20
 52.7970428   4.170296005E-20
 52.9238853   4.168565065E-20
 53.0507278   4.166901656E-20
 53.1775742   4.165360063E-20
 53.3044167   4.163971951E-20
 53.4312592   4.162836839E-20
 53.5581017   4.16203163E-20
 53.684948   4.161577004E-20
 53.8117905   4.161438064E-20
 53.938633   4.161554063E-20
 54.0654793   4.161916601E-20
 54.1923218   4.162424218E-20
 54.3191643   4.162977718E-20
 54.4460106   4.163421358E-20
 54.5728531   4.163751261E-20
 54.6996956   4.163808776E-20
 54.8265381   4.16352831E-20
 54.9533844   4.162969317E-20
 55.0802269   4.162098193E-20
 55.2070694   4.160947895E-20
 55.3339157   4.15948288E-20
 55.4607582   4.157904451E-20
 55.5876007   4.156209701E-20
 55.7144432   4.154576988E-20
 55.8412895   4.153083216E-20
 55.968132   4.151807226E-20
 56.0949745   4.150838843E-20
 56.2218208   4.150249153E-20
 56.3486633   4.150101489E-20
 56.4755058   4.150415559E-20
 56.6023521   4.151114785E-20
 56.7291946   4.152229217E-20
 56.8560371   4.153642209E-20
 56.9828796   4.15530788E-20
 57.109726   4.157084703E-20
 57.2365685   4.158956522E-20
 57.3634109   4.160682292E-20
 57.4902573   4.162250058E-20
 57.6170998   4.163522817E-20
 57.7439423   4.164432716E-20
 57.8707886   4.164888958E-20
 57.9976311   4.164911899E-20
 58.1244736   4.164596536E-20
 58.2513161   4.163989076E-20
 58.3781624   4.163170296E-20
 58.5050049   4.162245211E-20
 58.6318474   4.161347268E-20
 58.7586937   4.160498438E-20
 58.8855362   4.159829585E-20
 59.0123787   4.159357187E-20
 59.139225   4.159101278E-20
 59.2660675   4.159088354E-20
 59.39291   4.159235372E-20
 59.5197525   4.159515515E-20
 59.6465988   4.159843479E-20
 59.7734413   4.160153026E-20
 59.9002838   4.160349481E-20
 60.0271301   4.160368868E-20
 60.1539726   4.160147856E-20
 60.2808151   4.159730388E-20
 60.4076614   4.159074137E-20
 60.5345039   4.158196873E-20
 60.6613464   4.157140602E-20
 60.7881889   4.155988042E-20
 60.9150352   4.154833543E-20
 61.0418777   4.153739145E-20
 61.1687202   4.15281406E-20
 61.2955666   4.152082845E-20
 61.4224091   4.15171126E-20
 61.5492516   4.151670224E-20
 61.6760979   4.152033085E-20
 61.8029404   4.152796288E-20
 61.9297829   4.153879055E-20
 62.0566254   4.155226777E-20
 62.1834717   4.156757708E-20
 62.3103142   4.158308671E-20
 62.4371567   4.159868036E-20
 62.564003   4.161222867E-20
 62.6908455   4.162381567E-20
 62.817688   4.16326917E-20
 62.9445343   4.163825901E-20
 63.0713768   4.164085688E-20
 63.1982193   4.164053376E-20
 63.3250618   4.163893433E-20
 63.4519081   4.163540912E-20
 63.5787506   4.163058821E-20
 63.7055931   4.1624617E-20
 63.8324394   4.161824189E-20
 63.9592819   4.161161152E-20
 64.0861282   4.160444154E-20
 64.2129669   4.159697107E-20
 64.3398132   4.158892545E-20
 64.4666595   4.158001387E-20
 64.5934982   4.157017494E-20
 64.7203445   4.156021323E-20
 64.8471909   4.154907537E-20
 64.9740295   4.153807323E-20
 65.1008759   4.152795319E-20
 65.2277145   4.151814334E-20
 65.3545609   4.150961627E-20
 65.4814072   4.15029859E-20
 65.6082458   4.149887585E-20
 65.7350922   4.149742828E-20
 65.8619385   4.149917635E-20
 65.9887772   4.150325732E-20
 66.1156235   4.150906697E-20
 66.2424698   4.15173097E-20
 66.3693085   4.152706785E-20
 66.4961548   4.153677106E-20
 66.6230011   4.154742424E-20
 66.7498398   4.155705961E-20
 66.8766861   4.156567392E-20
 67.0035324   4.157254662E-20
 67.1303711   4.157739338E-20
 67.2572174   4.158047916E-20
 67.3840637   4.158158422E-20
 67.5109024   4.158128695E-20
 67.6377487   4.158016573E-20
 67.7645874   4.157891527E-20
 67.8914337   4.157811394E-20
 68.01828   4.157804608E-20
 68.1451187   4.157922546E-20
 68.271965   4.158242755E-20
 68.3988113   4.158741649E-20
 68.52565   4.159441521E-20
 68.6524963   4.160299398E-20
 68.7793427   4.161259057E-20
 68.9061813   4.162222916E-20
 69.0330276   4.163168357E-20
 69.159874   4.16404239E-20
 69.2867126   4.164777805E-20
 69.413559   4.165388174E-20
 69.5404053   4.165765898E-20
 69.667244   4.165928103E-20
 69.7940903   4.165846032E-20
 69.920929   4.165620819E-20
 70.0477753   4.16517427E-20
 70.1746216   4.164541607E-20
 70.3014603   4.163710872E-20
 70.4283066   4.162769307E-20
 70.5551529   4.161649706E-20
 70.6819916   4.160413135E-20
 70.8088379   4.159121312E-20
 70.9356842   4.157740631E-20
 71.0625229   4.15631536E-20
 71.1893692   4.15486844E-20
 71.3162155   4.153420228E-20
 71.4430542   4.151992695E-20
 71.5699005   4.150630432E-20
 71.6967468   4.149322129E-20
 71.8235855   4.148065526E-20
 71.9504318   4.146850604E-20
 72.0772781   4.145680273E-20
 72.2041168   4.144447257E-20
 72.3309631   4.14317062E-20
 72.4578018   4.141750196E-20
 72.5846481   4.140115222E-20
 72.7114944   4.13822143E-20
 72.8383331   4.136069791E-20
 72.9651794   4.13362767E-20
 73.0920258   4.130956781E-20
 73.2188644   4.128048401E-20
 73.3457108   4.125063119E-20
 73.4725571   4.122072991E-20
 73.5993958   4.119229234E-20
 73.7262421   4.116627816E-20
 73.8530884   4.114464868E-20
 73.9799271   4.112812768E-20
 74.1067734   4.111726448E-20
 74.2336197   4.111280869E-20
 74.3604584   4.111421102E-20
 74.4873047   4.112161687E-20
 74.614151   4.113341388E-20
 74.7409897   4.114799941E-20
 74.867836   4.116364475E-20
 74.9946747   4.117902191E-20
 75.121521   4.119189814E-20
 75.2483673   4.120010532E-20
 75.375206   4.12032751E-20
 75.5020523   4.120026042E-20
 75.6288986   4.119164288E-20
 75.7557373   4.117742571E-20
 75.8825836   4.115779956E-20
 76.0094299   4.113489376E-20
 76.1362686   4.110947735E-20
 76.2631149   4.108332422E-20
 76.3899612   4.105807259E-20
 76.5167999   4.103493092E-20
 76.6436462   4.101558265E-20
 76.7704926   4.100092605E-20
 76.8973312   4.099187876E-20
 77.0241776   4.098813383E-20
 77.1510239   4.098947153E-20
 77.2778625   4.099580787E-20
 77.4047089   4.100596345E-20
 77.5315475   4.101871366E-20
 77.6583939   4.103320871E-20
 77.7852402   4.104790409E-20
 77.9120789   4.10621568E-20
 78.0389252   4.107519459E-20
 78.1657715   4.108608364E-20
 78.2926102   4.109417774E-20
 78.4194565   4.109993569E-20
 78.5463028   4.110199071E-20
 78.6731415   4.110120231E-20
 78.7999878   4.109684022E-20
 78.9268341   4.108893031E-20
 79.0536728   4.107843545E-20
 79.1805191   4.10650907E-20
 79.3073654   4.104914163E-20
 79.4342041   4.103143479E-20
 79.5610504   4.101237087E-20
 79.6878967   4.099212433E-20
 79.8147354   4.097144158E-20
 79.9415817   4.095041956E-20
 80.0684204   4.093003085E-20
 80.1952667   4.091078275E-20
 80.322113   4.089277864E-20
 80.4489517   4.087556941E-20
 80.575798   4.085929398E-20
 80.7026443   4.084342892E-20
 80.829483   4.08276931E-20
 80.9563293   4.081062604E-20
 81.0831757   4.079224389E-20
 81.2100143   4.077233016E-20
 81.3368607   4.075081054E-20
 81.463707   4.072763333E-20
 81.5905457   4.07025788E-20
 81.717392   4.067656462E-20
 81.8442383   4.065009484E-20
 81.971077   4.062478182E-20
 82.0979233   4.060067726E-20
 82.224762   4.057961646E-20
 82.3516083   4.05619581E-20
 82.4784546   4.054986381E-20
 82.6052933   4.054313328E-20
 82.7321396   4.054169863E-20
 82.8589859   4.054559543E-20
 82.9858246   4.055469442E-20
 83.1126709   4.05676385E-20
 83.2395172   4.0583859E-20
 83.3663559   4.060200527E-20
 83.4932022   4.062011923E-20
 83.6200485   4.063787777E-20
 83.7468872   4.06539367E-20
 83.8737335   4.066775644E-20
 84.0005798   4.067768907E-20
 84.1274185   4.068409325E-20
 84.2542648   4.068733089E-20
 84.3811111   4.068759908E-20
 84.5079498   4.068628399E-20
 84.6347961   4.068345348E-20
 84.7616348   4.068011568E-20
 84.8884811   4.067780862E-20
 85.0153275   4.067687804E-20
 85.1421661   4.067775692E-20
 85.2690125   4.067977964E-20
 85.3958588   4.068264246E-20
 85.5226974   4.068566683E-20
 85.6495438   4.06874149E-20
 85.7763901   4.068774125E-20
 85.9032288   4.068501414E-20
 86.0300751   4.067979579E-20
 86.1569214   4.067062895E-20
 86.2837601   4.065778826E-20
 86.4106064   4.064141913E-20
 86.5374527   4.062229058E-20
 86.6642914   4.060125564E-20
 86.7911377   4.05798071E-20
 86.917984   4.055862353E-20
 87.0448227   4.053993764E-20
 87.171669   4.052363637E-20
 87.2985077   4.051210431E-20
 87.425354   4.050482447E-20
 87.5522003   4.050355462E-20
 87.679039   4.050705398E-20
 87.8058853   4.051522885E-20
 87.9327316   4.052756871E-20
 88.0595703   4.054237072E-20
 88.1864166   4.055835211E-20
 88.3132629   4.057472447E-20
 88.4401016   4.058953617E-20
 88.5669479   4.060175001E-20
 88.6937943   4.061073913E-20
 88.8206329   4.06168299E-20
 88.9474792   4.062066853E-20
 89.0743256   4.062172836E-20
 89.2011642   4.062139878E-20
 89.3280106   4.062125661E-20
 89.4548569   4.06211726E-20
 89.5816956   4.062261693E-20
 89.7085419   4.062718258E-20
 89.8353806   4.063394543E-20
 89.9622269   4.064370357E-20
 90.0890732   4.065517101E-20
 90.2159119   4.066753025E-20
 90.3427582   4.067935635E-20
 90.4696045   4.069026803E-20
 90.5964432   4.06985463E-20
 90.7232895   4.07030861E-20
 90.8501358   4.070311518E-20
 90.9769745   4.069745416E-20
 91.1038208   4.068660064E-20
 91.2306671   4.067121702E-20
 91.3575058   4.065208847E-20
 91.4843521   4.063036852E-20
 91.6111984   4.060731086E-20
 91.7380371   4.058454401E-20
 91.8648834   4.056331519E-20
 91.9917297   4.054645169E-20
 92.1185684   4.053396643E-20
 92.2454147   4.05269871E-20
 92.3722534   4.052608883E-20
 92.4990997   4.053209882E-20
 92.625946   4.054368581E-20
 92.7527847   4.056148311E-20
 92.879631   4.058352942E-20
 93.0064774   4.060828667E-20
 93.133316   4.063433317E-20
 93.2601624   4.066009209E-20
 93.3870087   4.068504645E-20
 93.5138474   4.07071703E-20
 93.6406937   4.072605328E-20
 93.76754   4.07414369E-20
 93.8943787   4.075338579E-20
 94.021225   4.076191609E-20
 94.1480713   4.076761265E-20
 94.27491   4.077185518E-20
 94.4017563   4.07744692E-20
 94.528595   4.077634328E-20
 94.6554413   4.077849847E-20
 94.7822876   4.078203015E-20
 94.9091263   4.078672181E-20
 95.0359726   4.079268656E-20
 95.1628189   4.079985653E-20
 95.2896576   4.080820912E-20
 95.4165039   4.081668449E-20
 95.5433502   4.08246978E-20
 95.6701889   4.083177407E-20
 95.7970352   4.083723153E-20
 95.9238815   4.084052409E-20
 96.0507202   4.084035607E-20
 96.1775665   4.083825258E-20
 96.3044128   4.083321841E-20
 96.4312515   4.082493368E-20
 96.5580978   4.081411571E-20
 96.6849442   4.080126856E-20
 96.8117828   4.078620159E-20
 96.9386292   4.077015235E-20
 97.0654678   4.075393832E-20
 97.1923141   4.073839314E-20
 97.3191605   4.07233811E-20
 97.4459991   4.070986833E-20
 97.5728455   4.069789037E-20
 97.6996918   4.068757969E-20
 97.8265305   4.067966654E-20
 97.9533768   4.067318158E-20
 98.0802231   4.066869994E-20
 98.2070618   4.066563679E-20
 98.3339081   4.066445418E-20
 98.4607544   4.066471913E-20
 98.5875931   4.066555924E-20
 98.7144394   4.066703912E-20
 98.8412857   4.066880334E-20
 98.9681244   4.067174047E-20
 99.0949707   4.067390536E-20
 99.221817   4.06760444E-20
 99.3486557   4.067729486E-20
 99.475502   4.067740149E-20
 99.6023407   4.067723024E-20
 99.729187   4.067580852E-20
 99.8560333   4.067326559E-20
 99.982872   4.067098115E-20
 100.109718   4.06687064E-20
 100.236565   4.06671102E-20
 100.363403   4.066638642E-20
 100.49025   4.066769827E-20
 100.617096   4.067143674E-20
 100.743935   4.067710745E-20
 100.870781   4.068486873E-20
 100.997627   4.069319224E-20
 101.124466   4.070192287E-20
 101.251312   4.070997173E-20
 101.378159   4.071566183E-20
 101.504997   4.071772655E-20
 101.631844   4.071629837E-20
 101.75869   4.070891836E-20
 101.885529   4.069612291E-20
 102.012375   4.067850978E-20
 102.139214   4.06569837E-20
 102.26606   4.063220706E-20
 102.392906   4.060590207E-20
 102.519745   4.05803047E-20
 102.646591   4.055650064E-20
 102.773438   4.053738502E-20
 102.900276   4.052390779E-20
 103.027122   4.051749391E-20
 103.153969   4.051879607E-20
 103.280807   4.05277852E-20
 103.407654   4.0544038E-20
 103.5345   4.056689533E-20
 103.661339   4.059439262E-20
 103.788185   4.062583841E-20
 103.915031   4.06589838E-20
 104.04187   4.069213888E-20
 104.168716   4.072368806E-20
 104.295563   4.075204162E-20
 104.422401   4.077649514E-20
 104.549248   4.079503562E-20
 104.676086   4.080839653E-20
 104.802933   4.08154728E-20
 104.929779   4.081599948E-20
 105.056618   4.080916878E-20
 105.183464   4.07953232E-20
 105.31031   4.07744692E-20
 105.437149   4.074536601E-20
 105.563995   4.070649822E-20
 105.690842   4.065837957E-20
 105.81768   4.060107469E-20
 105.944527   4.053390827E-20
 106.071373   4.045796922E-20
 106.198212   4.037507021E-20
 106.325058   4.028739229E-20
 106.451904   4.019882581E-20
 106.578743   4.011295089E-20
 106.705589   4.003486956E-20
 106.832428   3.997071137E-20
 106.959274   3.992493855E-20
 107.086121   3.99030635E-20
 107.212959   3.990950646E-20
 107.339806   3.994833872E-20
 107.466652   4.002269127E-20
 107.593491   4.013435096E-20
 107.720337   4.028261016E-20
 107.847183   4.046600191E-20
 107.974022   4.068171188E-20
 108.100868   4.092427613E-20
 108.227715   4.118730018E-20
 108.354553   4.146367221E-20
 108.4814   4.174380532E-20
 108.608246   4.201785414E-20
 108.735085   4.227554998E-20
 108.861931   4.250628167E-20
 108.988777   4.270039446E-20
 109.115616   4.284705423E-20
 109.242462   4.293648344E-20
 109.369301   4.296037475E-20
 109.496147   4.291248228E-20
 109.622993   4.278677668E-20
 109.749832   4.257997183E-20
 109.876678   4.229159922E-20
 110.003525   4.192225985E-20
 110.130363   4.147753394E-20
 110.25721   4.096331841E-20
 110.384056   4.039095143E-20
 110.510895   3.977312506E-20
 110.637741   3.912676742E-20
 110.764587   3.84714562E-20
 110.891426   3.782853007E-20
 111.018272   3.722255888E-20
 111.145119   3.667780228E-20
 111.271957   3.622035848E-20
 111.398804   3.58757699E-20
 111.52565   3.566726546E-20
 111.652489   3.561576377E-20
 111.779335   3.573836421E-20
 111.906174   3.604716108E-20
 112.03302   3.654845515E-20
 112.159866   3.724171328E-20
 112.286705   3.81190611E-20
 112.413551   3.916465617E-20
 112.540398   4.035490768E-20
 112.667236   4.165688673E-20
 112.794083   4.303101468E-20
 112.920929   4.443062689E-20
 113.047768   4.580270304E-20
 113.174614   4.709027106E-20
 113.30146   4.823333126E-20
 113.428299   4.917131854E-20
 113.555145   4.984571954E-20
 113.681992   5.020060587E-20
 113.80883   5.018804306E-20
 113.935677   4.976789347E-20
 114.062523   4.891128332E-20
 114.189362   4.760316504E-20
 114.316208   4.584355478E-20
 114.443047   4.364815927E-20
 114.569893   4.105150362E-20
 114.696739   3.810572282E-20
 114.823578   3.487966027E-20
 114.950424   3.146015377E-20
 115.077271   2.794802567E-20
 115.204109   2.445837685E-20
 115.330956   2.111335216E-20
 115.457802   1.804483682E-20
 115.584641   1.538308108E-20
 115.711487   1.3258542E-20
 115.838333   1.179242818E-20
 115.965172   1.10940761E-20
 116.092018   1.125482783E-20
 116.218864   1.234208565E-20
 116.345703   1.439691054E-20
 116.472549   1.742846609E-20
 116.599396   2.141061534E-20
 116.726234   2.628048449E-20
 116.853081   3.193682307E-20
 116.979919   3.824087314E-20
 117.106766   4.501604458E-20
 117.233612   5.205389111E-20
 117.360451   5.911689232E-20
 117.487297   6.594459619E-20
 117.614143   7.226209765E-20
 117.740982   7.778814235E-20
 117.867828   8.224464253E-20
 117.994675   8.536738505E-20
 118.121513   8.691584131E-20
 118.24836   8.668658949E-20
 118.375206   8.452249114E-20
 118.502045   8.032257851E-20
 118.628891   7.405095973E-20
 118.755737   6.574586605E-20
 118.882576   5.552127391E-20
 119.009422   4.357374856E-20
 119.136261   3.017919028E-20
 119.263107   1.569165338E-20
 119.389954   5.373575084E-22
 119.516792   -1.47958507E-20
 119.643639   -2.976966802E-20
 119.770485   -4.381270359E-20
 119.897324   -5.633598865E-20
 120.02417   -6.675659029E-20
 120.151016   -7.451608081E-20