 -7.19999981   4.072848636E-20
 -7.07296753   4.071467632E-20
 -6.94593477   4.06883681E-20
 -6.81890202   4.065064414E-20
 -6.69186926   4.060429617E-20
 -6.56483698   4.055124999E-20
 -6.43780422   4.049452995E-20
 -6.31077147   4.043748034E-20
 -6.18373871   4.038245667E-20
 -6.05670643   4.033226038E-20
 -5.92967367   4.028954426E-20
 -5.80264091   4.025532612E-20
 -5.67560816   4.023076597E-20
 -5.5485754   4.021628707E-20
 -5.42154312   4.021096856E-20
 -5.29451036   4.021419327E-20
 -5.16747761   4.022334073E-20
 -5.04044485   4.023614264E-20
 -4.91341257   4.025063446E-20
 -4.78637981   4.026384673E-20
 -4.65934706   4.027310727E-20
 -4.5323143   4.02760541E-20
 -4.40528202   4.027097147E-20
 -4.27824926   4.025664121E-20
 -4.15121651   4.023181287E-20
 -4.02418375   4.019776275E-20
 -3.89715123   4.015466858E-20
 -3.77011847   4.010316043E-20
 -3.64308596   4.004634023E-20
 -3.5160532   3.998569109E-20
 -3.38902068   3.992356853E-20
 -3.26198792   3.986254458E-20
 -3.13495541   3.980565006E-20
 -3.00792265   3.975500787E-20
 -2.88089013   3.971263102E-20
 -2.75385737   3.967931761E-20
 -2.62682486   3.965562987E-20
 -2.4997921   3.964252746E-20
 -2.37275958   3.963864036E-20
 -2.24572682   3.964348389E-20
 -2.11869431   3.965513227E-20
 -1.99166155   3.967114597E-20
 -1.86462891   3.968927932E-20
 -1.73759627   3.970735774E-20
 -1.61056364   3.972231485E-20
 -1.483531   3.973203745E-20
 -1.35649836   3.973517492E-20
 -1.22946572   3.973013752E-20
 -1.10243309   3.971644703E-20
 -0.975400388   3.96933506E-20
 -0.848367751   3.966135874E-20
 -0.721335113   3.962162822E-20
 -0.594302475   3.957528349E-20
 -0.467269808   3.952496765E-20
 -0.34023717   3.947244814E-20
 -0.213204518   3.942038746E-20
 -8.617187291E-2   3.937142548E-20
 4.086076841E-2   3.932784663E-20
 0.16789341   3.92912245E-20
 0.294926047   3.92635915E-20
 0.421958715   3.924590728E-20
 0.548991323   3.923760639E-20
 0.67602402   3.923941908E-20
 0.803056657   3.925063126E-20
 0.930089295   3.926885508E-20
 1.05712187   3.929256221E-20
 1.18415463   3.931956513E-20
 1.31118727   3.934717874E-20
 1.4382199   3.937351281E-20
 1.56525254   3.939505828E-20
 1.69228518   3.941051622E-20
 1.81931782   3.941813533E-20
 1.94635046   3.941631941E-20
 2.07338309   3.940585041E-20
 2.20041585   3.938609824E-20
 2.32744837   3.935770268E-20
 2.45448112   3.932303218E-20
 2.58151364   3.928393174E-20
 2.7085464   3.924296691E-20
 2.83557892   3.920246414E-20
 2.96261168   3.916525071E-20
 3.08964419   3.913374999E-20
 3.21667695   3.911015596E-20
 3.34370947   3.909619405E-20
 3.47074223   3.909292087E-20
 3.59777474   3.910078878E-20
 3.7248075   3.911919678E-20
 3.85184002   3.914636773E-20
 3.97887278   3.918154875E-20
 4.10590553   3.922233263E-20
 4.23293829   3.926575638E-20
 4.35997057   3.93088344E-20
 4.48700333   3.934990262E-20
 4.61403608   3.93864472E-20
 4.74106884   3.94155924E-20
 4.86810112   3.943650779E-20
 4.99513388   3.944830804E-20
 5.12216663   3.945059894E-20
 5.24919939   3.944500578E-20
 5.37623167   3.94320003E-20
 5.50326443   3.941333381E-20
 5.63029718   3.939150722E-20
 5.75732994   3.936880499E-20
 5.88436222   3.934712705E-20
 6.01139498   3.932900985E-20
 6.13842773   3.931784291E-20
 6.26546049   3.9314224E-20
 6.39249325   3.931947142E-20
 6.51952553   3.933459655E-20
 6.64655828   3.935904362E-20
 6.77359104   3.939267045E-20
 6.9006238   3.943421042E-20
 7.02765608   3.948129833E-20
 7.15468884   3.953225071E-20
 7.28172159   3.958473791E-20
 7.40875435   3.963656271E-20
 7.53578663   3.968591567E-20
 7.66281939   3.972997919E-20
 7.78985214   3.976711508E-20
 7.9168849   3.979594684E-20
 8.04391766   3.98158121E-20
 8.17094994   3.982726015E-20
 8.29798317   3.983045902E-20
 8.42501545   3.982630373E-20
 8.55204773   3.981614168E-20
 8.67908096   3.980164664E-20
 8.80611324   3.978533567E-20
 8.93314552   3.976941244E-20
 9.06017876   3.975663638E-20
 9.18721104   3.974905927E-20
 9.31424427   3.974775388E-20
 9.44127655   3.975382203E-20
 9.56830883   3.976808443E-20
 9.69534206   3.979046354E-20
 9.82237434   3.982092059E-20
 9.94940662   3.985882226E-20
 10.0764399   3.990170641E-20
 10.2034721   3.994870707E-20
 10.3305054   3.999749134E-20
 10.4575377   4.00463887E-20
 10.5845699   4.009305009E-20
 10.7116032   4.013507151E-20
 10.8386354   4.01712025E-20
 10.9656687   4.019987917E-20
 11.092701   4.022182531E-20
 11.2197332   4.023508928E-20
 11.3467665   4.024142561E-20
 11.4737988   4.024138684E-20
 11.600831   4.023676303E-20
 11.7278643   4.022823273E-20
 11.8548965   4.021894956E-20
 11.9819298   4.021029325E-20
 12.1089621   4.020483579E-20
 12.2359943   4.020361441E-20
 12.3630276   4.02089103E-20
 12.4900599   4.022169929E-20
 12.6170931   4.024192321E-20
 12.7441254   4.026924602E-20
 12.8711576   4.030392298E-20
 12.9981909   4.034482965E-20
 13.1252232   4.039043444E-20
 13.2522554   4.043962261E-20
 13.3792887   4.049097566E-20
 13.506321   4.054126243E-20
 13.6333542   4.059005962E-20
 13.7603865   4.063537361E-20
 13.8874187   4.067550802E-20
 14.014452   4.070979401E-20
 14.1414843   4.073788261E-20
 14.2685175   4.076045559E-20
 14.3955498   4.077657915E-20
 14.5225821   4.078716771E-20
 14.6496153   4.079420521E-20
 14.7766476   4.079852206E-20
 14.9036798   4.08022476E-20
 15.0307131   4.08057502E-20
 15.1577454   4.081090069E-20
 15.2847786   4.081954085E-20
 15.4118109   4.083247201E-20
 15.5388432   4.085026285E-20
 15.6658764   4.087478746E-20
 15.7929087   4.090435917E-20
 15.9199409   4.093887781E-20
 16.0469742   4.097845E-20
 16.1740074   4.102247152E-20
 16.3010387   4.1068687E-20
 16.428072   4.111605279E-20
 16.5551052   4.116300498E-20
 16.6821365   4.120745947E-20
 16.8091698   4.124907377E-20
 16.936203   4.128644553E-20
 17.0632343   4.131763929E-20
 17.1902676   4.134238685E-20
 17.3173008   4.135942806E-20
 17.444334   4.136989707E-20
 17.5713654   4.137367108E-20
 17.6983986   4.137258217E-20
 17.8254318   4.13672055E-20
 17.9524632   4.135942806E-20
 18.0794964   4.135126935E-20
 18.2065296   4.134463575E-20
 18.3335609   4.134042553E-20
 18.4605942   4.134102652E-20
 18.5876274   4.134745979E-20
 18.7146587   4.136125691E-20
 18.841692   4.138242756E-20
 18.9687252   4.141076819E-20
 19.0957584   4.144624002E-20
 19.2227898   4.148684619E-20
 19.349823   4.153190168E-20
 19.4768562   4.157893789E-20
 19.6038876   4.162606456E-20
 19.7309208   4.167069677E-20
 19.857954   4.171184578E-20
 19.9849854   4.174800262E-20
 20.1120186   4.177673745E-20
 20.2390518   4.179784025E-20
 20.3660831   4.181108483E-20
 20.4931164   4.181674585E-20
 20.6201496   4.181482976E-20
 20.7471828   4.180737544E-20
 20.8742142   4.179481587E-20
 21.0012474   4.177909944E-20
 21.1282806   4.176335069E-20
 21.255312   4.174923046E-20
 21.3823452   4.173861282E-20
 21.5093784   4.173265454E-20
 21.6364098   4.173316506E-20
 21.763443   4.174017348E-20
 21.8904762   4.175355701E-20
 22.0175076   4.177392956E-20
 22.1445408   4.179939768E-20
 22.271574   4.183014876E-20
 22.3986073   4.186402762E-20
 22.5256386   4.18989857E-20
 22.6526718   4.193311013E-20
 22.779705   4.196497274E-20
 22.9067364   4.199173655E-20
 23.0337696   4.20126164E-20
 23.1608028   4.202747011E-20
 23.2878342   4.203472733E-20
 23.4148674   4.203449468E-20
 23.5419006   4.202706945E-20
 23.668932   4.201274242E-20
 23.7959652   4.199328752E-20
 23.9229984   4.197036234E-20
 24.0500298   4.194593466E-20
 24.177063   4.192145205E-20
 24.3040962   4.189831361E-20
 24.4311295   4.187781827E-20
 24.5581608   4.186110018E-20
 24.685194   4.18498977E-20
 24.8122272   4.184345474E-20
 24.9392586   4.184214934E-20
 25.0662918   4.184529651E-20
 25.193325   4.185202058E-20
 25.3203564   4.186147176E-20
 25.4473896   4.187221542E-20
 25.5744228   4.188299462E-20
 25.7014542   4.189252335E-20
 25.8284874   4.18982296E-20
 25.9555206   4.190000352E-20
 26.0825539   4.189626828E-20
 26.2095852   4.188676863E-20
 26.3366184   4.187136562E-20
 26.4636517   4.185005603E-20
 26.590683   4.182410323E-20
 26.7177162   4.179418902E-20
 26.8447495   4.176220363E-20
 26.9717808   4.172947506E-20
 27.098814   4.169697268E-20
 27.2258472   4.166722326E-20
 27.3528786   4.164138356E-20
 27.4799118   4.162048109E-20
 27.606945   4.160574048E-20
 27.7339783   4.15971197E-20
 27.8610096   4.159382714E-20
 27.9880428   4.159647993E-20
 28.1150761   4.160416043E-20
 28.2421074   4.16152789E-20
 28.3691406   4.162820683E-20
 28.4961739   4.164125431E-20
 28.6232052   4.165410146E-20
 28.7502384   4.166500344E-20
 28.8772717   4.167231236E-20
 29.004303   4.167622854E-20
 29.1313362   4.167575679E-20
 29.2583694   4.167018948E-20
 29.3854027   4.166060905E-20
 29.512434   4.164745171E-20
 29.6394672   4.163158018E-20
 29.7665005   4.161457451E-20
 29.8935318   4.159650578E-20
 30.020565   4.157977153E-20
 30.1475983   4.156522155E-20
 30.2746296   4.155439389E-20
 30.4016628   4.154734993E-20
 30.5286961   4.154453557E-20
 30.6557274   4.154648074E-20
 30.7827606   4.155261674E-20
 30.9097939   4.156262369E-20
 31.0368271   4.157589412E-20
 31.1638584   4.159037947E-20
 31.2908916   4.160535597E-20
 31.4179249   4.161920155E-20
 31.5449562   4.163077885E-20
 31.6719894   4.163854659E-20
 31.7990227   4.164304115E-20
 31.926054   4.164274388E-20
 32.0530891   4.163832687E-20
 32.1801186   4.162988058E-20
 32.3071518   4.161741148E-20
 32.434185   4.160282919E-20
 32.5612183   4.158634697E-20
 32.6882515   4.156916358E-20
 32.8152847   4.155321774E-20
 32.9423141   4.153876147E-20
 33.0693474   4.152731341E-20
 33.1963806   4.151853755E-20
 33.3234138   4.151418192E-20
 33.4504471   4.151354861E-20
 33.5774803   4.151622402E-20
 33.7045135   4.152271868E-20
 33.831543   4.153161088E-20
 33.9585762   4.154216389E-20
 34.0856094   4.155248103E-20
 34.2126427   4.156276909E-20
 34.3396759   4.157139309E-20
 34.4667091   4.157789422E-20
 34.5937386   4.158164238E-20
 34.7207718   4.158238555E-20
 34.847805   4.158098322E-20
 34.9748383   4.157791683E-20
 35.1018715   4.157364845E-20
 35.2289047   4.156930899E-20
 35.355938   4.156665942E-20
 35.4829674   4.156609074E-20
 35.6100006   4.156877584E-20
 35.7370338   4.15746275E-20
 35.8640671   4.158388804E-20
 35.9911003   4.159639592E-20
 36.1181335   4.161126578E-20
 36.245163   4.162761876E-20
 36.3721962   4.164440471E-20
 36.4992294   4.166102587E-20
 36.6262627   4.167609283E-20
 36.7532959   4.168930834E-20
 36.8803291   4.169915372E-20
 37.0073624   4.170580671E-20
 37.1343918   4.170894418E-20
 37.261425   4.170913805E-20
 37.3884583   4.170713473E-20
 37.5154915   4.170343503E-20
 37.6425247   4.169930882E-20
 37.769558   4.169537971E-20
 37.8965874   4.169297249E-20
 38.0236206   4.169356379E-20
 38.1506538   4.169767385E-20
 38.2776871   4.17055773E-20
 38.4047203   4.171847938E-20
 38.5317535   4.173569507E-20
 38.6587868   4.175632612E-20
 38.7858162   4.178050177E-20
 38.9128494   4.180654503E-20
 39.0398827   4.183304389E-20
 39.1669159   4.185802087E-20
 39.2939491   4.188085235E-20
 39.4209824   4.189985165E-20
 39.5480118   4.19146989E-20
 39.675045   4.192502573E-20
 39.8020782   4.193122635E-20
 39.9291115   4.193398255E-20
 40.0561447   4.193341386E-20
 40.1831779   4.193091939E-20
 40.3102074   4.192760098E-20
 40.4372406   4.192490618E-20
 40.5642738   4.192365894E-20
 40.6913071   4.19249708E-20
 40.8183403   4.192922303E-20
 40.9453735   4.193587924E-20
 41.0724068   4.194576018E-20
 41.1994362   4.195791585E-20
 41.3264694   4.197153202E-20
 41.4535027   4.1986082E-20
 41.5805359   4.200048334E-20
 41.7075691   4.201331111E-20
 41.8346024   4.202400629E-20
 41.9616318   4.203151554E-20
 42.088665   4.203581947E-20
 42.2156982   4.203597456E-20
 42.3427315   4.203274339E-20
 42.4697647   4.20260387E-20
 42.5967979   4.201712066E-20
 42.7238312   4.200696831E-20
 42.8508606   4.199737818E-20
 42.9778938   4.198947473E-20
 43.1049271   4.198368447E-20
 43.2319603   4.198192671E-20
 43.3589935   4.198390096E-20
 43.4860268   4.199035038E-20
 43.6130562   4.199985973E-20
 43.7400894   4.201184415E-20
 43.8671227   4.202525676E-20
 43.9941559   4.203925097E-20
 44.1211891   4.20514745E-20
 44.2482224   4.206095154E-20
 44.3752556   4.206689044E-20
 44.502285   4.206932997E-20
 44.6293182   4.206643161E-20
 44.7563515   4.205967522E-20
 44.8833847   4.204931285E-20
 45.0104179   4.203713132E-20
 45.1374512   4.202357008E-20
 45.2644806   4.200980851E-20
 45.3915138   4.199763345E-20
 45.5185471   4.198770082E-20
 45.6455803   4.198116092E-20
 45.7726135   4.197852105E-20
 45.8996468   4.197987491E-20
 46.02668   4.198584936E-20
 46.1537094   4.199525853E-20
 46.2807426   4.200769856E-20
 46.4077759   4.202167985E-20
 46.5348091   4.203517646E-20
 46.6618423   4.204733214E-20
 46.7888756   4.205590768E-20
 46.915905   4.206016636E-20
 47.0429382   4.205829874E-20
 47.1699715   4.205071841E-20
 47.2970047   4.203709255E-20
 47.4240379   4.201745993E-20
 47.5510712   4.199301933E-20
 47.6781044   4.196503413E-20
 47.8051338   4.193521685E-20
 47.9321671   4.190515078E-20
 48.0592003   4.18764838E-20
 48.1862335   4.185101568E-20
 48.3132668   4.182997105E-20
 48.4403   4.181413506E-20
 48.5673294   4.180431875E-20
 48.6943626   4.180016023E-20
 48.8213959   4.180158841E-20
 48.9484291   4.180818001E-20
 49.0754623   4.181802863E-20
 49.2024956   4.182980949E-20
 49.3295288   4.184163882E-20
 49.4565582   4.185280575E-20
 49.5835915   4.18607706E-20
 49.7106247   4.186564644E-20
 49.8376579   4.18653104E-20
 49.9646912   4.186069628E-20
 50.0917244   4.185170069E-20
 50.2187538   4.183953209E-20
 50.345787   4.182383181E-20
 50.4728203   4.180690046E-20
 50.5998535   4.178989156E-20
 50.7268867   4.177393602E-20
 50.85392   4.176021322E-20
 50.9809532   4.175020951E-20
 51.1079826   4.174419953E-20
 51.2350159   4.174111052E-20
 51.3620491   4.174205403E-20
 51.4890823   4.17450784E-20
 51.6161156   4.174985731E-20
 51.7431488   4.17549561E-20
 51.8701782   4.175877858E-20
 51.9972115   4.176030693E-20
 52.1242447   4.175899184E-20
 52.2512779   4.175356347E-20
 52.3783112   4.17451818E-20
 52.5053444   4.173284518E-20
 52.6323776   4.171787192E-20
 52.759407   4.170060129E-20
 52.8864403   4.168227407E-20
 53.0134735   4.166399855E-20
 53.1405067   4.164726753E-20
 53.26754   4.163328947E-20
 53.3945732   4.16227106E-20
 53.5216026   4.161610931E-20
 53.6486359   4.161433863E-20
 53.7756691   4.161638396E-20
 53.9027023   4.162195128E-20
 54.0297356   4.163025863E-20
 54.1567688   4.16402785E-20
 54.283802   4.165065703E-20
 54.4108315   4.165956861E-20
 54.5378647   4.16656109E-20
 54.6648979   4.166757546E-20
 54.7919312   4.166534272E-20
 54.9189644   4.165774946E-20
 55.0459976   4.1645513E-20
 55.173027   4.162895969E-20
 55.3000603   4.160884563E-20
 55.4270935   4.158689627E-20
 55.5541267   4.156436852E-20
 55.68116   4.15430977E-20
 55.8081932   4.152455722E-20
 55.9352264   4.150917683E-20
 56.0622559   4.149901479E-20
 56.1892891   4.149431666E-20
 56.3163223   4.149495644E-20
 56.4433556   4.150121845E-20
 56.5703888   4.151272789E-20
 56.697422   4.152745236E-20
 56.8244514   4.154569557E-20
 56.9514847   4.156542512E-20
 57.0785179   4.158567812E-20
 57.2055511   4.160414105E-20
 57.3325844   4.161973792E-20
 57.4596176   4.163298251E-20
 57.5866508   4.164255324E-20
 57.7136803   4.16481044E-20
 57.8407135   4.164924824E-20
 57.9677467   4.164660837E-20
 58.09478   4.164092473E-20
 58.2218132   4.163238797E-20
 58.3488464   4.162219685E-20
 58.4758759   4.161200572E-20
 58.6029091   4.160226696E-20
 58.7299423   4.159355895E-20
 58.8569756   4.158644067E-20
 58.9840088   4.158160684E-20
 59.111042   4.157913499E-20
 59.2380753   4.157925131E-20
 59.3651047   4.158168438E-20
 59.4921379   4.158614664E-20
 59.6191711   4.15910354E-20
 59.7462044   4.159623759E-20
 59.8732376   4.160068692E-20
 60.0002708   4.160377915E-20
 60.1273003   4.16048099E-20
 60.2543335   4.160370161E-20
 60.3813667   4.159954308E-20
 60.5084   4.159330046E-20
 60.6354332   4.158419178E-20
 60.7624664   4.157301837E-20
 60.8894997   4.156060097E-20
 61.0165291   4.154709466E-20
 61.1435623   4.153433153E-20
 61.2705956   4.152226955E-20
 61.3976288   4.151269558E-20
 61.524662   4.150635925E-20
 61.6516953   4.150301175E-20
 61.7787247   4.150348674E-20
 61.9057579   4.150820102E-20
 62.0327911   4.151667639E-20
 62.1598244   4.152795319E-20
 62.2868576   4.154225113E-20
 62.4138908   4.15578157E-20
 62.5409203   4.157506048E-20
 62.6679535   4.159241188E-20
 62.7949867   4.160837065E-20
 62.92202   4.16222227E-20
 63.0490532   4.16338937E-20
 63.1760864   4.164170021E-20
 63.3031197   4.16462077E-20
 63.4301491   4.164808502E-20
 63.5571823   4.164670854E-20
 63.6842155   4.164319625E-20
 63.8112488   4.163725412E-20
 63.938282   4.162968994E-20
 64.0653152   4.162070404E-20
 64.1923447   4.161176015E-20
 64.3193817   4.160221203E-20
 64.4464111   4.159253467E-20
 64.5734482   4.158227246E-20
 64.7004776   4.157297637E-20
 64.827507   4.156368028E-20
 64.9545441   4.155523399E-20
 65.0815735   4.1547295E-20
 65.2086105   4.153999577E-20
 65.33564   4.153382423E-20
 65.4626694   4.152848633E-20
 65.5897064   4.152471555E-20
 65.7167358   4.152220493E-20
 65.8437729   4.152156839E-20
 65.9708023   4.152193997E-20
 66.0978394   4.152373004E-20
 66.2248688   4.152669949E-20
 66.3518982   4.153039272E-20
 66.4789352   4.153498745E-20
 66.6059647   4.153967266E-20
 66.7330017   4.154461958E-20
 66.8600311   4.15484873E-20
 66.9870682   4.155267167E-20
 67.1140976   4.155604179E-20
 67.241127   4.155885291E-20
 67.3681641   4.156174158E-20
 67.4951935   4.156416819E-20
 67.6222305   4.156664004E-20
 67.7492599   4.156916358E-20
 67.876297   4.157209426E-20
 68.0033264   4.157571641E-20
 68.1303558   4.158038545E-20
 68.2573929   4.158616279E-20
 68.3844223   4.159274146E-20
 68.5114594   4.160054475E-20
 68.6384888   4.160850959E-20
 68.7655182   4.161753749E-20
 68.8925552   4.162618412E-20
 69.0195847   4.163467564E-20
 69.1466217   4.164273419E-20
 69.2736511   4.164976523E-20
 69.4006882   4.165527438E-20
 69.5277176   4.165891914E-20
 69.654747   4.166044749E-20
 69.7817841   4.166013083E-20
 69.9088135   4.165785609E-20
 70.0358505   4.165351016E-20
 70.1628799   4.164729015E-20
 70.289917   4.163907327E-20
 70.4169464   4.162947991E-20
 70.5439758   4.161917247E-20
 70.6710129   4.160755963E-20
 70.7980423   4.159505175E-20
 70.9250793   4.158198811E-20
 71.0521088   4.156880492E-20
 71.1791458   4.155612256E-20
 71.3061752   4.154365993E-20
 71.4332047   4.153164642E-20
 71.5602417   4.151901576E-20
 71.6872711   4.150694086E-20
 71.8143082   4.149536033E-20
 71.9413376   4.148334683E-20
 72.068367   4.147079048E-20
 72.1954041   4.145721632E-20
 72.3224335   4.144204919E-20
 72.4494705   4.142497889E-20
 72.5764999   4.140566617E-20
 72.703537   4.138368126E-20
 72.8305664   4.135969625E-20
 72.9575958   4.133351404E-20
 73.0846329   4.130578734E-20
 73.2116623   4.127649997E-20
 73.3386993   4.124734832E-20
 73.4657288   4.12187395E-20
 73.5927658   4.11916041E-20
 73.7197952   4.116755124E-20
 73.8468246   4.114692342E-20
 73.9738617   4.113060276E-20
 74.1008911   4.111870881E-20
 74.2279282   4.111230462E-20
 74.3549576   4.111082151E-20
 74.481987   4.111440166E-20
 74.609024   4.112138745E-20
 74.7360535   4.11309905E-20
 74.8630905   4.11425258E-20
 74.9901199   4.115428727E-20
 75.117157   4.116428452E-20
 75.2441864   4.117163868E-20
 75.3712158   4.117642081E-20
 75.4982529   4.117698304E-20
 75.6252823   4.117255956E-20
 75.7523193   4.116440085E-20
 75.8793488   4.115222901E-20
 76.0063858   4.113679692E-20
 76.1334152   4.111893499E-20
 76.2604446   4.110017156E-20
 76.3874817   4.108049694E-20
 76.5145111   4.106142332E-20
 76.6415482   4.104427548E-20
 76.7685776   4.102944116E-20
 76.8956146   4.101732426E-20
 77.022644   4.10086744E-20
 77.1496735   4.100385672E-20
 77.2767105   4.100270319E-20
 77.4037399   4.100482607E-20
 77.530777   4.100985701E-20
 77.6578064   4.101702699E-20
 77.7848358   4.102643617E-20
 77.9118729   4.103677916E-20
 78.0389023   4.104724493E-20
 78.1659393   4.10575136E-20
 78.2929688   4.106734283E-20
 78.4200058   4.107541754E-20
 78.5470352   4.108200913E-20
 78.6740646   4.108588008E-20
 78.8011017   4.10867525E-20
 78.9281311   4.108502705E-20
 79.0551682   4.107937896E-20
 79.1821976   4.107066771E-20
 79.3092346   4.10584571E-20
 79.436264   4.104348384E-20
 79.5632935   4.102592564E-20
 79.6903305   4.100550139E-20
 79.8173599   4.098323537E-20
 79.944397   4.096112444E-20
 80.0714264   4.093870332E-20
 80.1984634   4.091666348E-20
 80.3254929   4.089620046E-20
 80.4525223   4.087709129E-20
 80.5795593   4.085958802E-20
 80.7065887   4.084336753E-20
 80.8336258   4.082813577E-20
 80.9606552   4.081315282E-20
 81.0876846   4.079728129E-20
 81.2147217   4.078012052E-20
 81.3417511   4.076116645E-20
 81.4687881   4.074033184E-20
 81.5958176   4.071826292E-20
 81.7228546   4.069417129E-20
 81.849884   4.066936879E-20
 81.9769135   4.064467939E-20
 82.1039505   4.062157972E-20
 82.2309799   4.060124594E-20
 82.358017   4.058383315E-20
 82.4850464   4.056993264E-20
 82.6120834   4.056126986E-20
 82.7391129   4.055701763E-20
 82.8661423   4.055723735E-20
 82.9931793   4.056126663E-20
 83.1202087   4.056882111E-20
 83.2472458   4.057964878E-20
 83.3742752   4.059170752E-20
 83.5013123   4.060507489E-20
 83.6283417   4.061769908E-20
 83.7553711   4.063045253E-20
 83.8824081   4.064210414E-20
 84.0094376   4.06521531E-20
 84.1364746   4.066029889E-20
 84.263504   4.06668194E-20
 84.3905334   4.067126872E-20
 84.5175705   4.067437388E-20
 84.6445999   4.067635136E-20
 84.771637   4.067729809E-20
 84.8986664   4.067819959E-20
 85.0257034   4.067894599E-20
 85.1527328   4.067922064E-20
 85.2797623   4.067917217E-20
 85.4067993   4.067861641E-20
 85.5338287   4.067672618E-20
 85.6608658   4.067387305E-20
 85.7878952   4.066890027E-20
 85.9149323   4.066160428E-20
 86.0419617   4.065224034E-20
 86.1689911   4.064037223E-20
 86.2960281   4.062647818E-20
 86.4230576   4.061124643E-20
 86.5500946   4.059479652E-20
 86.677124   4.057829168E-20
 86.8041611   4.056309547E-20
 86.9311905   4.05499252E-20
 87.0582199   4.054017029E-20
 87.185257   4.05336627E-20
 87.3122864   4.053118116E-20
 87.4393234   4.053285168E-20
 87.5663528   4.053760797E-20
 87.6933823   4.054533694E-20
 87.8204193   4.055523402E-20
 87.9474487   4.056616832E-20
 88.0744858   4.057758082E-20
 88.2015152   4.058773641E-20
 88.3285522   4.059638303E-20
 88.4555817   4.060269028E-20
 88.5826111   4.060706852E-20
 88.7096481   4.060931742E-20
 88.8366776   4.061011552E-20
 88.9637146   4.06094402E-20
 89.090744   4.060912355E-20
 89.2177811   4.060972131E-20
 89.3448105   4.061222224E-20
 89.4718399   4.0617027E-20
 89.598877   4.062483352E-20
 89.7259064   4.063562887E-20
 89.8529434   4.064858911E-20
 89.9799728   4.066302923E-20
 90.1070099   4.067821898E-20
 90.2340393   4.069307915E-20
 90.3610687   4.070564195E-20
 90.4881058   4.071473771E-20
 90.6151352   4.07192969E-20
 90.7421722   4.071876052E-20
 90.8692017   4.071202675E-20
 90.9962311   4.06993444E-20
 91.1232681   4.0681434E-20
 91.2502975   4.065894502E-20
 91.3773346   4.063336059E-20
 91.504364   4.06062995E-20
 91.6314011   4.05795066E-20
 91.7584305   4.055455871E-20
 91.8854599   4.053253826E-20
 92.0124969   4.051553259E-20
 92.1395264   4.050443996E-20
 92.2665634   4.049991955E-20
 92.3935928   4.050319596E-20
 92.5206299   4.051333216E-20
 92.6476593   4.052959142E-20
 92.7746887   4.055134046E-20
 92.9017258   4.057698629E-20
 93.0287552   4.060571143E-20
 93.1557922   4.063520236E-20
 93.2828217   4.066379502E-20
 93.4098587   4.069042312E-20
 93.5368881   4.071466016E-20
 93.6639175   4.0735498E-20
 93.7909546   4.07525586E-20
 93.917984   4.076550269E-20
 94.0450211   4.077509928E-20
 94.1720505   4.078145823E-20
 94.2990799   4.078565875E-20
 94.4261169   4.078814353E-20
 94.5531464   4.078984959E-20
 94.6801834   4.079071877E-20
 94.8072128   4.079220834E-20
 94.9342499   4.07947739E-20
 95.0612793   4.079828618E-20
 95.1883087   4.080203435E-20
 95.3153458   4.080698774E-20
 95.4423752   4.081270368E-20
 95.5694122   4.081913049E-20
 95.6964417   4.082477858E-20
 95.8234787   4.083006155E-20
 95.9505081   4.083351891E-20
 96.0775375   4.083477583E-20
 96.2045746   4.083303423E-20
 96.331604   4.082873031E-20
 96.4586411   4.082112089E-20
 96.5856705   4.081043863E-20
 96.7126999   4.079686124E-20
 96.8397369   4.078130313E-20
 96.9667664   4.076401312E-20
 97.0938034   4.074629659E-20
 97.2208328   4.072907766E-20
 97.3478699   4.071236926E-20
 97.4748993   4.069743477E-20
 97.6019287   4.068475887E-20
 97.7289658   4.067481978E-20
 97.8559952   4.066723945E-20
 97.9830322   4.066239269E-20
 98.1100616   4.065948786E-20
 98.2370987   4.065884163E-20
 98.3641281   4.0659378E-20
 98.4911575   4.066121331E-20
 98.6181946   4.066348805E-20
 98.745224   4.066657383E-20
 98.872261   4.066985024E-20
 98.9992905   4.067401199E-20
 99.1263275   4.067817051E-20
 99.2533569   4.06824809E-20
 99.3803864   4.068625814E-20
 99.5074234   4.068976073E-20
 99.6344528   4.069320516E-20
 99.7614899   4.069626509E-20
 99.8885193   4.069886941E-20
 100.015549   4.070038483E-20
 100.142586   4.070178716E-20
 100.269615   4.070231061E-20
 100.396652   4.070279529E-20
 100.523682   4.070251418E-20
 100.650719   4.07025271E-20
 100.777748   4.070220398E-20
 100.904778   4.070107631E-20
 101.031815   4.069927331E-20
 101.158844   4.069633294E-20
 101.285881   4.069252016E-20
 101.41291   4.068689791E-20
 101.539948   4.068008337E-20
 101.666977   4.067128488E-20
 101.794006   4.066117453E-20
 101.921043   4.064930966E-20
 102.048073   4.063663377E-20
 102.17511   4.062277203E-20
 102.302139   4.060849024E-20
 102.429176   4.059500978E-20
 102.556206   4.058273132E-20
 102.683235   4.057195535E-20
 102.810272   4.056443318E-20
 102.937302   4.055951856E-20
 103.064339   4.055835534E-20
 103.191368   4.056087888E-20
 103.318398   4.056742201E-20
 103.445435   4.057783932E-20
 103.572464   4.059253793E-20
 103.699501   4.061095562E-20
 103.82653   4.063278867E-20
 103.953568   4.065711941E-20
 104.080597   4.068317883E-20
 104.207626   4.071044671E-20
 104.334663   4.07380054E-20
 104.461693   4.076504063E-20
 104.58873   4.07896848E-20
 104.715759   4.081048063E-20
 104.842796   4.082658481E-20
 104.969826   4.083623956E-20
 105.096855   4.083850138E-20
 105.223892   4.083105029E-20
 105.350922   4.081365042E-20
 105.477959   4.078425966E-20
 105.604988   4.074234163E-20
 105.732025   4.068846826E-20
 105.859055   4.062174775E-20
 105.986084   4.054377628E-20
 106.113121   4.045510963E-20
 106.24015   4.035913406E-20
 106.367188   4.025939417E-20
 106.494217   4.016000325E-20
 106.621246   4.006564004E-20
 106.748283   3.998205602E-20
 106.875313   3.991553584E-20
 107.00235   3.987138507E-20
 107.129379   3.985476391E-20
 107.256416   3.987072591E-20
 107.383446   3.99230677E-20
 107.510475   4.001355674E-20
 107.637512   4.014332716E-20
 107.764542   4.031147101E-20
 107.891579   4.051525147E-20
 108.018608   4.075000275E-20
 108.145645   4.100905891E-20
 108.272675   4.128588977E-20
 108.399704   4.157159666E-20
 108.526741   4.185714199E-20
 108.65377   4.21312005E-20
 108.780807   4.238385571E-20
 108.907837   4.260358848E-20
 109.034874   4.278060836E-20
 109.161903   4.290454975E-20
 109.288933   4.296670785E-20
 109.41597   4.295905966E-20
 109.542999   4.287601525E-20
 109.670036   4.271312529E-20
 109.797066   4.246869019E-20
 109.924095   4.214295874E-20
 110.051132   4.173857405E-20
 110.178162   4.126212771E-20
 110.305199   4.072175259E-20
 110.432228   4.012989517E-20
 110.559265   3.950032671E-20
 110.686295   3.885090269E-20
 110.813324   3.820249649E-20
 110.940361   3.757707039E-20
 111.06739   3.699795349E-20
 111.194427   3.648994504E-20
 111.321457   3.607849054E-20
 111.448494   3.578859928E-20
 111.575523   3.564067289E-20
 111.702553   3.56558271E-20
 111.82959   3.584935182E-20
 111.956619   3.623092765E-20
 112.083656   3.680516548E-20
 112.210686   3.756957084E-20
 112.337723   3.851255027E-20
 112.464752   3.961570548E-20
 112.591782   4.08524859E-20
 112.718819   4.218675085E-20
 112.845848   4.357674386E-20
 112.972885   4.497320244E-20
 113.099915   4.632030485E-20
 113.226944   4.755985438E-20
 113.353981   4.86306623E-20
 113.48101   4.947295512E-20
 113.608047   5.002817748E-20
 113.735077   5.024290517E-20
 113.862114   5.007103901E-20
 113.989143   4.947594072E-20
 114.116173   4.843502762E-20
 114.24321   4.693738481E-20
 114.370239   4.498997547E-20
 114.497276   4.261664889E-20
 114.624306   3.985824388E-20
 114.751343   3.677552269E-20
 114.878372   3.344558435E-20
 115.005402   2.996209091E-20
 115.132439   2.643380532E-20
 115.259468   2.297975758E-20
 115.386505   1.97292512E-20
 115.513535   1.681316489E-20
 115.640572   1.436459072E-20
 115.767601   1.251045164E-20
 115.89463   1.136885031E-20
 116.021667   1.104120278E-20
 116.148697   1.160966004E-20
 116.275734   1.313001235E-20
 116.402763   1.563045171E-20
 116.529793   1.910320795E-20
 116.65683   2.350620149E-20
 116.783859   2.875906334E-20
 116.910896   3.474301391E-20
 117.037926   4.130126693E-20
 117.164963   4.824051416E-20
 117.291992   5.533822788E-20
 117.419022   6.234316813E-20
 117.546059   6.898709573E-20
 117.673088   7.498795503E-20
 117.800125   8.006307645E-20
 117.927155   8.393765506E-20
 118.054192   8.635541998E-20
 118.181221   8.709086109E-20
 118.30825   8.595952358E-20
 118.435287   8.282924596E-20
 118.562317   7.762898117E-20
 118.689354   7.035701022E-20
 118.816383   6.108739163E-20
 118.943413   4.997564505E-20
 119.07045   3.725737801E-20
 119.197479   2.324910503E-20
 119.324516   8.344207047E-21
 119.451546   -6.997601439E-21
 119.578583   -2.225879213E-20
 119.705612   -3.687953742E-20
 119.832642   -5.027403753E-20
 119.959679   -6.185075009E-20
 120.086708   -7.103340486E-20
 120.213745   -7.728366558E-20