 -7.19999981   -9.031687323E-19
 -7.07315636   -9.031763838E-19
 -6.9463129   -9.031925138E-19
 -6.81946898   -9.032158816E-19
 -6.69262552   -9.032450398E-19
 -6.56578159   -9.032777134E-19
 -6.43893814   -9.03312455E-19
 -6.31209469   -9.033483339E-19
 -6.18525076   -9.033827653E-19
 -6.05840731   -9.034145084E-19
 -5.93156338   -9.034413918E-19
 -5.80471992   -9.034630018E-19
 -5.67787647   -9.034787183E-19
 -5.55103254   -9.034880241E-19
 -5.42418909   -9.034912294E-19
 -5.29734564   -9.034893682E-19
 -5.17050171   -9.034839916E-19
 -5.04365826   -9.034758231E-19
 -4.91681433   -9.034668276E-19
 -4.78997087   -9.034593829E-19
 -4.66312742   -9.034532825E-19
 -4.53628349   -9.034512145E-19
 -4.40944004   -9.034546266E-19
 -4.28259611   -9.03464346E-19
 -4.15575266   -9.034801658E-19
 -4.02890921   -9.035018793E-19
 -3.90206528   -9.035291763E-19
 -3.77522182   -9.035616431E-19
 -3.64837813   -9.035973153E-19
 -3.52153444   -9.036345384E-19
 -3.39469075   -9.036715548E-19
 -3.2678473   -9.037069167E-19
 -3.14100361   -9.037381428E-19
 -3.01415992   -9.037640956E-19
 -2.88731623   -9.037838445E-19
 -2.76047254   -9.03795942E-19
 -2.63362908   -9.038002847E-19
 -2.50678539   -9.037972862E-19
 -2.3799417   -9.037872566E-19
 -2.25309801   -9.037714368E-19
 -2.12625432   -9.037523083E-19
 -1.99941075   -9.03730905E-19
 -1.87256718   -9.037095017E-19
 -1.74572349   -9.036897527E-19
 -1.61887991   -9.036738295E-19
 -1.49203622   -9.03662249E-19
 -1.36519253   -9.036560451E-19
 -1.23834896   -9.036558383E-19
 -1.11150527   -9.036623524E-19
 -0.984661698   -9.036743465E-19
 -0.857818007   -9.036924411E-19
 -0.730974376   -9.037141546E-19
 -0.604130745   -9.037390734E-19
 -0.477287114   -9.037643024E-19
 -0.350443482   -9.037893246E-19
 -0.223599836   -9.038123823E-19
 -9.675619751E-2   -9.038320278E-19
 3.008744121E-2   -9.038472272E-19
 0.156931072   -9.03856533E-19
 0.283774734   -9.038600485E-19
 0.410618365   -9.038572568E-19
 0.537461996   -9.038486748E-19
 0.664305627   -9.038350263E-19
 0.791149259   -9.038168284E-19
 0.91799289   -9.037957352E-19
 1.04483652   -9.03773298E-19
 1.17168021   -9.037506539E-19
 1.29852378   -9.037296642E-19
 1.42536747   -9.037105356E-19
 1.55221117   -9.036943022E-19
 1.67905474   -9.036828251E-19
 1.80589843   -9.036750703E-19
 1.932742   -9.036716582E-19
 2.05958557   -9.036726921E-19
 2.18642926   -9.036780688E-19
 2.31327295   -9.036857202E-19
 2.44011664   -9.03695543E-19
 2.56696033   -9.037062963E-19
 2.69380379   -9.037162225E-19
 2.82064748   -9.037242875E-19
 2.94749117   -9.03729871E-19
 3.07433486   -9.037325593E-19
 3.20117831   -9.037302846E-19
 3.328022   -9.037239773E-19
 3.45486569   -9.037128104E-19
 3.58170938   -9.036973008E-19
 3.70855308   -9.036776552E-19
 3.83539653   -9.036540806E-19
 3.96224022   -9.03628438E-19
 4.08908367   -9.036004172E-19
 4.2159276   -9.035721897E-19
 4.34277105   -9.035438588E-19
 4.46961498   -9.035171822E-19
 4.59645844   -9.034928837E-19
 4.72330189   -9.034712737E-19
 4.85014582   -9.034524553E-19
 4.97698927   -9.034369457E-19
 5.1038332   -9.034237108E-19
 5.23067665   -9.034140948E-19
 5.3575201   -9.0340634E-19
 5.48436403   -9.033999293E-19
 5.61120749   -9.033942425E-19
 5.73805141   -9.033870046E-19
 5.86489487   -9.033781124E-19
 5.99173832   -9.033671523E-19
 6.11858225   -9.033528834E-19
 6.2454257   -9.033339617E-19
 6.37226963   -9.033106972E-19
 6.49911308   -9.032826765E-19
 6.62595654   -9.032494859E-19
 6.75280046   -9.032117457E-19
 6.87964392   -9.031706969E-19
 7.00648737   -9.031269597E-19
 7.1333313   -9.03081258E-19
 7.26017475   -9.030353495E-19
 7.38701868   -9.029897511E-19
 7.51386213   -9.029461174E-19
 7.64070559   -9.029047583E-19
 7.76754951   -9.028669148E-19
 7.89439297   -9.0283238E-19
 8.02123642   -9.028015676E-19
 8.14808083   -9.027744774E-19
 8.27492428   -9.027499722E-19
 8.40176773   -9.027281553E-19
 8.52861118   -9.027069588E-19
 8.65545464   -9.026857623E-19
 8.78229809   -9.02663842E-19
 8.90914249   -9.026400605E-19
 9.03598595   -9.026131772E-19
 9.1628294   -9.025829851E-19
 9.28967285   -9.025487605E-19
 9.4165163   -9.025116407E-19
 9.54336071   -9.024717293E-19
 9.67020416   -9.024289227E-19
 9.79704762   -9.023857025E-19
 9.92389107   -9.023415517E-19
 10.0507345   -9.022984349E-19
 10.1775789   -9.022568691E-19
 10.3044224   -9.022174746E-19
 10.4312658   -9.021813889E-19
 10.5581093   -9.021488186E-19
 10.6849527   -9.021195571E-19
 10.8117971   -9.020943281E-19
 10.9386406   -9.020718909E-19
 11.065484   -9.020523487E-19
 11.1923275   -9.020344609E-19
 11.319171   -9.020175037E-19
 11.4460154   -9.020003397E-19
 11.5728588   -9.019825553E-19
 11.6997023   -9.019620826E-19
 11.8265457   -9.019391284E-19
 11.9533892   -9.019133824E-19
 12.0802336   -9.018852582E-19
 12.207077   -9.018544457E-19
 12.3339205   -9.018214619E-19
 12.4607639   -9.017874441E-19
 12.5876074   -9.017525991E-19
 12.7144518   -9.017171338E-19
 12.8412952   -9.016823922E-19
 12.9681387   -9.016483744E-19
 13.0949821   -9.016158041E-19
 13.2218256   -9.015845781E-19
 13.34867   -9.0155542E-19
 13.4755135   -9.015273992E-19
 13.6023569   -9.015007226E-19
 13.7292004   -9.014744597E-19
 13.8560438   -9.014481967E-19
 13.9828882   -9.014225541E-19
 14.1097317   -9.013973251E-19
 14.2365751   -9.013719927E-19
 14.3634186   -9.013459365E-19
 14.490262   -9.013198803E-19
 14.6171055   -9.012938241E-19
 14.7439499   -9.012676645E-19
 14.8707933   -9.012420219E-19
 14.9976368   -9.012169997E-19
 15.1244802   -9.011924945E-19
 15.2513237   -9.0116923E-19
 15.3781681   -9.011476199E-19
 15.5050116   -9.011279744E-19
 15.631855   -9.011098798E-19
 15.7586985   -9.01093543E-19
 15.8855419   -9.010789639E-19
 16.0123863   -9.010655222E-19
 16.1392288   -9.010530111E-19
 16.2660732   -9.01042051E-19
 16.3929176   -9.010321248E-19
 16.5197601   -9.010230258E-19
 16.6466045   -9.010138235E-19
 16.773447   -9.010050347E-19
 16.9002914   -9.009964527E-19
 17.0271358   -9.009871469E-19
 17.1539783   -9.009775309E-19
 17.2808228   -9.009685353E-19
 17.4076653   -9.009598499E-19
 17.5345097   -9.009518883E-19
 17.6613541   -9.009452709E-19
 17.7881966   -9.009393772E-19
 17.915041   -9.009342073E-19
 18.0418835   -9.009303816E-19
 18.1687279   -9.009271763E-19
 18.2955723   -9.009249015E-19
 18.4224148   -9.009230404E-19
 18.5492592   -9.009216962E-19
 18.6761017   -9.009195249E-19
 18.8029461   -9.009171467E-19
 18.9297905   -9.009132176E-19
 19.056633   -9.009084613E-19
 19.1834774   -9.009020507E-19
 19.3103199   -9.008936755E-19
 19.4371643   -9.008837493E-19
 19.5640087   -9.008718586E-19
 19.6908512   -9.008591407E-19
 19.8176956   -9.008447684E-19
 19.9445381   -9.008296724E-19
 20.0713825   -9.008132322E-19
 20.1982269   -9.007960682E-19
 20.3250694   -9.007789042E-19
 20.4519138   -9.007612232E-19
 20.5787563   -9.007434388E-19
 20.7056007   -9.007263782E-19
 20.8324451   -9.00709938E-19
 20.9592876   -9.006945317E-19
 21.086132   -9.006799527E-19
 21.2129745   -9.00666511E-19
 21.339819   -9.006543101E-19
 21.4666634   -9.006431431E-19
 21.5935059   -9.006323898E-19
 21.7203503   -9.006227738E-19
 21.8471928   -9.006136748E-19
 21.9740372   -9.006055064E-19
 22.1008816   -9.005975448E-19
 22.2277241   -9.005899968E-19
 22.3545685   -9.00582759E-19
 22.481411   -9.005759347E-19
 22.6082554   -9.005698343E-19
 22.7350998   -9.00564561E-19
 22.8619423   -9.005591843E-19
 22.9887867   -9.005546348E-19
 23.1156292   -9.005512227E-19
 23.2424736   -9.005481208E-19
 23.369318   -9.005471902E-19
 23.4961605   -9.005467766E-19
 23.6230049   -9.00547397E-19
 23.7498474   -9.005494649E-19
 23.8766918   -9.005528771E-19
 24.0035343   -9.005571164E-19
 24.1303787   -9.005618726E-19
 24.2572231   -9.005671459E-19
 24.3840656   -9.00571592E-19
 24.51091   -9.005753143E-19
 24.6377525   -9.005770721E-19
 24.7645969   -9.005772789E-19
 24.8914413   -9.005749007E-19
 25.0182838   -9.005704546E-19
 25.1451283   -9.005634236E-19
 25.2719707   -9.00553911E-19
 25.3988152   -9.005412965E-19
 25.5256596   -9.005269243E-19
 25.6525021   -9.005112078E-19
 25.7793465   -9.00494871E-19
 25.906189   -9.00478224E-19
 26.0330334   -9.004625076E-19
 26.1598778   -9.004478251E-19
 26.2867203   -9.004346936E-19
 26.4135647   -9.004240437E-19
 26.5404072   -9.004162889E-19
 26.6672516   -9.004107054E-19
 26.794096   -9.004066729E-19
 26.9209385   -9.004047083E-19
 27.0477829   -9.004029506E-19
 27.1746254   -9.004013996E-19
 27.3014698   -9.003990215E-19
 27.4283142   -9.003950924E-19
 27.5551567   -9.003880613E-19
 27.6820011   -9.003779284E-19
 27.8088436   -9.003649003E-19
 27.935688   -9.003479431E-19
 28.0625324   -9.003281941E-19
 28.1893749   -9.003063772E-19
 28.3162193   -9.002825958E-19
 28.4430618   -9.002587109E-19
 28.5699062   -9.002355499E-19
 28.6967506   -9.002149738E-19
 28.8235931   -9.00197603E-19
 28.9504375   -9.001839545E-19
 29.07728   -9.001745453E-19
 29.2041245   -9.001690653E-19
 29.3309689   -9.001680313E-19
 29.4578114   -9.00169789E-19
 29.5846558   -9.001741317E-19
 29.7114983   -9.001793016E-19
 29.8383427   -9.001838511E-19
 29.9651871   -9.001868496E-19
 30.0920296   -9.00186953E-19
 30.218874   -9.001828171E-19
 30.3457165   -9.001746487E-19
 30.4725609   -9.001621376E-19
 30.5994053   -9.001448702E-19
 30.7262478   -9.001238805E-19
 30.8530922   -9.001005127E-19
 30.9799347   -9.000752836E-19
 31.1067791   -9.00049641E-19
 31.2336235   -9.000248256E-19
 31.360466   -9.000015612E-19
 31.4873104   -8.999813986E-19
 31.6141529   -8.999642347E-19
 31.7409973   -8.999500692E-19
 31.8678417   -8.999382819E-19
 31.9946842   -8.999282523E-19
 32.1215286   -8.999190499E-19
 32.2483711   -8.999090203E-19
 32.3752136   -8.998974398E-19
 32.5020599   -8.99882654E-19
 32.6289024   -8.99863939E-19
 32.7557449   -8.998410881E-19
 32.8825912   -8.998132742E-19
 33.0094337   -8.997813243E-19
 33.1362762   -8.997455488E-19
 33.2631226   -8.997077053E-19
 33.3899651   -8.996688278E-19
 33.5168076   -8.996304673E-19
 33.6436501   -8.995956223E-19
 33.7704964   -8.995647064E-19
 33.8973389   -8.995389604E-19
 34.0241814   -8.995198319E-19
 34.1510277   -8.995072174E-19
 34.2778702   -8.995012203E-19
 34.4047127   -8.995007033E-19
 34.531559   -8.995044256E-19
 34.6584015   -8.995100091E-19
 34.785244   -8.995161096E-19
 34.9120865   -8.995195217E-19
 35.0389328   -8.995189013E-19
 35.1657753   -8.995122838E-19
 35.2926178   -8.994982218E-19
 35.4194641   -8.994765083E-19
 35.5463066   -8.994464196E-19
 35.6731491   -8.994098168E-19
 35.7999954   -8.99367217E-19
 35.9268379   -8.993208949E-19
 36.0536804   -8.992731252E-19
 36.1805229   -8.992271133E-19
 36.3073692   -8.991848237E-19
 36.4342117   -8.991495651E-19
 36.5610542   -8.991216478E-19
 36.6879005   -8.991031396E-19
 36.814743   -8.990934203E-19
 36.9415855   -8.990917659E-19
 37.0684319   -8.99097246E-19
 37.1952744   -8.991082061E-19
 37.3221169   -8.991211308E-19
 37.4489594   -8.991331249E-19
 37.5758057   -8.991416035E-19
 37.7026482   -8.991443953E-19
 37.8294907   -8.99139122E-19
 37.956337   -8.991241293E-19
 38.0831795   -8.990993139E-19
 38.210022   -8.990648825E-19
 38.3368683   -8.990219725E-19
 38.4637108   -8.989722383E-19
 38.5905533   -8.989184716E-19
 38.7173958   -8.988626369E-19
 38.8442421   -8.988083531E-19
 38.9710846   -8.987587223E-19
 39.0979271   -8.987151919E-19
 39.2247734   -8.986802435E-19
 39.3516159   -8.986548077E-19
 39.4784584   -8.986384709E-19
 39.6053047   -8.986304059E-19
 39.7321472   -8.986285448E-19
 39.8589897   -8.986314399E-19
 39.9858322   -8.98635369E-19
 40.1126785   -8.986382641E-19
 40.239521   -8.986365064E-19
 40.3663635   -8.986286482E-19
 40.4932098   -8.986117944E-19
 40.6200523   -8.98584911E-19
 40.7468948   -8.985469641E-19
 40.8737411   -8.984986774E-19
 41.0005836   -8.984406714E-19
 41.1274261   -8.983755309E-19
 41.2542686   -8.983053239E-19
 41.381115   -8.982319117E-19
 41.5079575   -8.981591198E-19
 41.6348   -8.980890162E-19
 41.7616463   -8.980243927E-19
 41.8884888   -8.979668003E-19
 42.0153313   -8.979176864E-19
 42.1421776   -8.978770512E-19
 42.2690201   -8.978452047E-19
 42.3958626   -8.978205961E-19
 42.5227051   -8.978018811E-19
 42.6495514   -8.977865783E-19
 42.7763939   -8.977725162E-19
 42.9032364   -8.977577304E-19
 43.0300827   -8.977405664E-19
 43.1569252   -8.977181291E-19
 43.2837677   -8.97690005E-19
 43.4106102   -8.976555736E-19
 43.5374565   -8.976152485E-19
 43.664299   -8.975687196E-19
 43.7911415   -8.97518882E-19
 43.9179878   -8.97466356E-19
 44.0448303   -8.974132096E-19
 44.1716728   -8.973610973E-19
 44.2985191   -8.973125004E-19
 44.4253616   -8.972685564E-19
 44.5522041   -8.972295755E-19
 44.6790466   -8.971965917E-19
 44.8058929   -8.971681574E-19
 44.9327354   -8.971436522E-19
 45.0595779   -8.971217319E-19
 45.1864243   -8.971010524E-19
 45.3132668   -8.970797525E-19
 45.4401093   -8.970555574E-19
 45.5669556   -8.970274333E-19
 45.6937981   -8.969938291E-19
 45.8206406   -8.96953504E-19
 45.9474831   -8.969072853E-19
 46.0743294   -8.968560001E-19
 46.2011719   -8.967997518E-19
 46.3280144   -8.967397812E-19
 46.4548607   -8.966782597E-19
 46.5817032   -8.966174619E-19
 46.7085457   -8.965587321E-19
 46.835392   -8.965050687E-19
 46.9622345   -8.964564719E-19
 47.089077   -8.964148026E-19
 47.2159195   -8.963801645E-19
 47.3427658   -8.963532811E-19
 47.4696083   -8.963334288E-19
 47.5964508   -8.963191599E-19
 47.7232971   -8.963091303E-19
 47.8501396   -8.963013755E-19
 47.9769821   -8.962948615E-19
 48.1038284   -8.962876236E-19
 48.2306709   -8.962780076E-19
 48.3575134   -8.96265083E-19
 48.4843559   -8.962483325E-19
 48.6112022   -8.962275496E-19
 48.7380447   -8.96202941E-19
 48.8648872   -8.961747135E-19
 48.9917336   -8.961445214E-19
 49.118576   -8.961127783E-19
 49.2454185   -8.960813455E-19
 49.3722649   -8.960511534E-19
 49.4991074   -8.960228224E-19
 49.6259499   -8.959963527E-19
 49.7527924   -8.95971744E-19
 49.8796387   -8.959494102E-19
 50.0064812   -8.959279035E-19
 50.1333237   -8.959075341E-19
 50.26017   -8.958860274E-19
 50.3870125   -8.958635902E-19
 50.513855   -8.958392917E-19
 50.6407013   -8.95812822E-19
 50.7675438   -8.957833536E-19
 50.8943863   -8.95751714E-19
 51.0212288   -8.957175928E-19
 51.1480751   -8.956832648E-19
 51.2749176   -8.956481096E-19
 51.4017601   -8.956145054E-19
 51.5286064   -8.955828657E-19
 51.6554489   -8.955556722E-19
 51.7822914   -8.955328213E-19
 51.9091377   -8.955161743E-19
 52.0359802   -8.95505421E-19
 52.1628227   -8.955003545E-19
 52.2896652   -8.955004579E-19
 52.4165115   -8.955053176E-19
 52.543354   -8.955127622E-19
 52.6701965   -8.95521034E-19
 52.7970428   -8.95529616E-19
 52.9238853   -8.955360266E-19
 53.0507278   -8.955398524E-19
 53.1775742   -8.955394388E-19
 53.3044167   -8.955343723E-19
 53.4312592   -8.955252733E-19
 53.5581017   -8.955123486E-19
 53.684948   -8.954961152E-19
 53.8117905   -8.954783308E-19
 53.938633   -8.954608566E-19
 54.0654793   -8.954442096E-19
 54.1923218   -8.954298373E-19
 54.3191643   -8.954183602E-19
 54.4460106   -8.954096748E-19
 54.5728531   -8.954039879E-19
 54.6996956   -8.954010928E-19
 54.8265381   -8.953999554E-19
 54.9533844   -8.953994384E-19
 55.0802269   -8.953985079E-19
 55.2070694   -8.953957161E-19
 55.3339157   -8.953902361E-19
 55.4607582   -8.953810337E-19
 55.5876007   -8.953666614E-19
 55.7144432   -8.953475329E-19
 55.8412895   -8.95324165E-19
 55.968132   -8.952959375E-19
 56.0949745   -8.952645046E-19
 56.2218208   -8.952310038E-19
 56.3486633   -8.951962622E-19
 56.4755058   -8.951635886E-19
 56.6023521   -8.951333965E-19
 56.7291946   -8.951084777E-19
 56.8560371   -8.950898661E-19
 56.9828796   -8.950788026E-19
 57.109726   -8.95075804E-19
 57.2365685   -8.950800433E-19
 57.3634109   -8.950903831E-19
 57.4902573   -8.951068233E-19
 57.6170998   -8.95126262E-19
 57.7439423   -8.951461144E-19
 57.8707886   -8.95164209E-19
 57.9976311   -8.95178271E-19
 58.1244736   -8.95186336E-19
 58.2513161   -8.9518737E-19
 58.3781624   -8.951801322E-19
 58.5050049   -8.951645191E-19
 58.6318474   -8.951402207E-19
 58.7586937   -8.95109098E-19
 58.8855362   -8.950727021E-19
 59.0123787   -8.95032377E-19
 59.139225   -8.949906044E-19
 59.2660675   -8.94949659E-19
 59.39291   -8.94912746E-19
 59.5197525   -8.948805894E-19
 59.6465988   -8.94855257E-19
 59.7734413   -8.948376794E-19
 59.9002838   -8.948283736E-19
 60.0271301   -8.948266159E-19
 60.1539726   -8.94831579E-19
 60.2808151   -8.948411949E-19
 60.4076614   -8.948546366E-19
 60.5345039   -8.948685953E-19
 60.6613464   -8.948811064E-19
 60.7881889   -8.948897918E-19
 60.9150352   -8.948926869E-19
 61.0418777   -8.948884476E-19
 61.1687202   -8.948767637E-19
 61.2955666   -8.948578419E-19
 61.4224091   -8.948323027E-19
 61.5492516   -8.948012835E-19
 61.6760979   -8.947676792E-19
 61.8029404   -8.947319037E-19
 61.9297829   -8.946975757E-19
 62.0566254   -8.946656258E-19
 62.1834717   -8.946386391E-19
 62.3103142   -8.946182698E-19
 62.4371567   -8.946047247E-19
 62.564003   -8.945979004E-19
 62.6908455   -8.945976936E-19
 62.817688   -8.946028635E-19
 62.9445343   -8.946117557E-19
 63.0713768   -8.946232328E-19
 63.1982193   -8.9463471E-19
 63.3250618   -8.946437056E-19
 63.4519081   -8.946485652E-19
 63.5787506   -8.946471177E-19
 63.7055931   -8.946381221E-19
 63.8324394   -8.946216819E-19
 63.9592819   -8.945970732E-19
 64.0861282   -8.945649166E-19
 64.2129669   -8.945274867E-19
 64.3398132   -8.94487265E-19
 64.4666595   -8.944463196E-19
 64.5934982   -8.944064081E-19
 64.7203445   -8.943704258E-19
 64.8471909   -8.943404405E-19
 64.9740295   -8.943173828E-19
 65.1008759   -8.943023902E-19
 65.2277145   -8.942951523E-19
 65.3545609   -8.942955659E-19
 65.4814072   -8.943011494E-19
 65.6082458   -8.943104552E-19
 65.7350922   -8.943214153E-19
 65.8619385   -8.943317551E-19
 65.9887772   -8.943382691E-19
 66.1156235   -8.943388895E-19
 66.2424698   -8.943324788E-19
 66.3693085   -8.943181066E-19
 66.4961548   -8.942952557E-19
 66.6230011   -8.942647534E-19
 66.7498398   -8.942272201E-19
 66.8766861   -8.941839999E-19
 67.0035324   -8.941367472E-19
 67.1303711   -8.940876334E-19
 67.2572174   -8.940377958E-19
 67.3840637   -8.939902329E-19
 67.5109024   -8.939447379E-19
 67.6377487   -8.939027585E-19
 67.7645874   -8.93865432E-19
 67.8914337   -8.938318278E-19
 68.01828   -8.938023595E-19
 68.1451187   -8.937757863E-19
 68.271965   -8.937512811E-19
 68.3988113   -8.937278098E-19
 68.52565   -8.937043386E-19
 68.6524963   -8.936795232E-19
 68.7793427   -8.936527432E-19
 68.9061813   -8.936234817E-19
 69.0330276   -8.93591842E-19
 69.159874   -8.935577208E-19
 69.2867126   -8.935204977E-19
 69.413559   -8.934811032E-19
 69.5404053   -8.934398476E-19
 69.667244   -8.933978682E-19
 69.7940903   -8.933544412E-19
 69.920929   -8.933110142E-19
 70.0477753   -8.93268311E-19
 70.1746216   -8.93226435E-19
 70.3014603   -8.931862133E-19
 70.4283066   -8.931475426E-19
 70.5551529   -8.931111467E-19
 70.6819916   -8.930767153E-19
 70.8088379   -8.93044662E-19
 70.9356842   -8.930146767E-19
 71.0625229   -8.929870696E-19
 71.1893692   -8.92961427E-19
 71.3162155   -8.929375421E-19
 71.4430542   -8.929146913E-19
 71.5699005   -8.928928744E-19
 71.6967468   -8.928728153E-19
 71.8235855   -8.928526527E-19
 71.9504318   -8.928333174E-19
 72.0772781   -8.92814499E-19
 72.2041168   -8.927960943E-19
 72.3309631   -8.927777929E-19
 72.4578018   -8.927594915E-19
 72.5846481   -8.927410867E-19
 72.7114944   -8.927212344E-19
 72.8383331   -8.927007617E-19
 72.9651794   -8.926791516E-19
 73.0920258   -8.926561973E-19
 73.2188644   -8.926316921E-19
 73.3457108   -8.926061529E-19
 73.4725571   -8.925796831E-19
 73.5993958   -8.925527998E-19
 73.7262421   -8.9252633E-19
 73.8530884   -8.924999636E-19
 73.9799271   -8.924745278E-19
 74.1067734   -8.924505396E-19
 74.2336197   -8.924273785E-19
 74.3604584   -8.924057684E-19
 74.4873047   -8.923858127E-19
 74.614151   -8.923663739E-19
 74.7409897   -8.923474522E-19
 74.867836   -8.923285304E-19
 74.9946747   -8.923088849E-19
 75.121521   -8.922871714E-19
 75.2483673   -8.922630798E-19
 75.375206   -8.92236093E-19
 75.5020523   -8.922053839E-19
 75.6288986   -8.921710559E-19
 75.7557373   -8.921330056E-19
 75.8825836   -8.920903024E-19
 76.0094299   -8.920450143E-19
 76.1362686   -8.919970378E-19
 76.2631149   -8.919480273E-19
 76.3899612   -8.918984999E-19
 76.5167999   -8.918495928E-19
 76.6436462   -8.918028571E-19
 76.7704926   -8.917590166E-19
 76.8973312   -8.917190017E-19
 77.0241776   -8.916841567E-19
 77.1510239   -8.916541714E-19
 77.2778625   -8.916300798E-19
 77.4047089   -8.916108478E-19
 77.5315475   -8.915952348E-19
 77.6583939   -8.915828271E-19
 77.7852402   -8.915732111E-19
 77.9120789   -8.915648359E-19
 78.0389252   -8.915562539E-19
 78.1657715   -8.915462244E-19
 78.2926102   -8.915338166E-19
 78.4194565   -8.9151779E-19
 78.5463028   -8.914980411E-19
 78.6731415   -8.914740528E-19
 78.7999878   -8.914460321E-19
 78.9268341   -8.914151162E-19
 79.0536728   -8.913806848E-19
 79.1805191   -8.913450127E-19
 79.3073654   -8.913090303E-19
 79.4342041   -8.912731514E-19
 79.5610504   -8.912391336E-19
 79.6878967   -8.912080109E-19
 79.8147354   -8.911800935E-19
 79.9415817   -8.911560019E-19
 80.0684204   -8.911355292E-19
 80.1952667   -8.91117538E-19
 80.322113   -8.911018216E-19
 80.4489517   -8.910877595E-19
 80.575798   -8.910727668E-19
 80.7026443   -8.910570504E-19
 80.829483   -8.910383355E-19
 80.9563293   -8.910160016E-19
 81.0831757   -8.909890148E-19
 81.2100143   -8.909577887E-19
 81.3368607   -8.909224268E-19
 81.463707   -8.908832391E-19
 81.5905457   -8.908420869E-19
 81.717392   -8.907987633E-19
 81.8442383   -8.907549227E-19
 81.971077   -8.907122195E-19
 82.0979233   -8.906714809E-19
 82.224762   -8.906331204E-19
 82.3516083   -8.905978618E-19
 82.4784546   -8.905651881E-19
 82.6052933   -8.905352028E-19
 82.7321396   -8.905070787E-19
 82.8589859   -8.904796784E-19
 82.9858246   -8.904524848E-19
 83.1126709   -8.904236369E-19
 83.2395172   -8.903926176E-19
 83.3663559   -8.903592202E-19
 83.4932022   -8.90322514E-19
 83.6200485   -8.902829128E-19
 83.7468872   -8.902396926E-19
 83.8737335   -8.90194818E-19
 84.0005798   -8.901474619E-19
 84.1274185   -8.900995889E-19
 84.2542648   -8.90051509E-19
 84.3811111   -8.900041529E-19
 84.5079498   -8.899578308E-19
 84.6347961   -8.89912646E-19
 84.7616348   -8.898694259E-19
 84.8884811   -8.898280668E-19
 85.0153275   -8.897877418E-19
 85.1421661   -8.897488643E-19
 85.2690125   -8.897110208E-19
 85.3958588   -8.89673901E-19
 85.5226974   -8.896367813E-19
 85.6495438   -8.895993514E-19
 85.7763901   -8.895623351E-19
 85.9032288   -8.895245949E-19
 86.0300751   -8.89485614E-19
 86.1569214   -8.894460128E-19
 86.2837601   -8.894063081E-19
 86.4106064   -8.893660865E-19
 86.5374527   -8.893257614E-19
 86.6642914   -8.892867805E-19
 86.7911377   -8.892483166E-19
 86.917984   -8.892109901E-19
 87.0448227   -8.891764553E-19
 87.171669   -8.891447122E-19
 87.2985077   -8.891158643E-19
 87.425354   -8.890898081E-19
 87.5522003   -8.890661301E-19
 87.679039   -8.890444166E-19
 87.8058853   -8.890243575E-19
 87.9327316   -8.890056425E-19
 88.0595703   -8.889864105E-19
 88.1864166   -8.889668684E-19
 88.3132629   -8.889461889E-19
 88.4401016   -8.889229244E-19
 88.5669479   -8.888967649E-19
 88.6937943   -8.888678135E-19
 88.8206329   -8.888355535E-19
 88.9474792   -8.888008119E-19
 89.0743256   -8.887636922E-19
 89.2011642   -8.887251249E-19
 89.3280106   -8.886852134E-19
 89.4548569   -8.886453019E-19
 89.5816956   -8.886057007E-19
 89.7085419   -8.885677538E-19
 89.8353806   -8.885317714E-19
 89.9622269   -8.884986842E-19
 90.0890732   -8.884691125E-19
 90.2159119   -8.884427461E-19
 90.3427582   -8.88419585E-19
 90.4696045   -8.883985953E-19
 90.5964432   -8.883796736E-19
 90.7232895   -8.88360028E-19
 90.8501358   -8.883397621E-19
 90.9769745   -8.883174282E-19
 91.1038208   -8.882914754E-19
 91.2306671   -8.882614901E-19
 91.3575058   -8.882270587E-19
 91.4843521   -8.881869405E-19
 91.6111984   -8.881426863E-19
 91.7380371   -8.880943997E-19
 91.8648834   -8.880425975E-19
 91.9917297   -8.879892443E-19
 92.1185684   -8.879352708E-19
 92.2454147   -8.87881504E-19
 92.3722534   -8.878299087E-19
 92.4990997   -8.877815186E-19
 92.625946   -8.877367474E-19
 92.7527847   -8.876964224E-19
 92.879631   -8.876606468E-19
 93.0064774   -8.876293174E-19
 93.133316   -8.876027442E-19
 93.2601624   -8.875793763E-19
 93.3870087   -8.875592138E-19
 93.5138474   -8.875419464E-19
 93.6406937   -8.875260232E-19
 93.76754   -8.875108237E-19
 93.8943787   -8.874952107E-19
 94.021225   -8.874790807E-19
 94.1480713   -8.874621235E-19
 94.27491   -8.874430983E-19
 94.4017563   -8.874224188E-19
 94.528595   -8.873999815E-19
 94.6554413   -8.873752695E-19
 94.7822876   -8.873487997E-19
 94.9091263   -8.87320262E-19
 95.0359726   -8.872900699E-19
 95.1628189   -8.872590506E-19
 95.2896576   -8.872273076E-19
 95.4165039   -8.871954611E-19
 95.5433502   -8.871634079E-19
 95.6701889   -8.87132492E-19
 95.7970352   -8.871035407E-19
 95.9238815   -8.870773811E-19
 96.0507202   -8.870541166E-19
 96.1775665   -8.870333337E-19
 96.3044128   -8.870156527E-19
 96.4312515   -8.870010737E-19
 96.5580978   -8.869885626E-19
 96.6849442   -8.869782228E-19
 96.8117828   -8.869688136E-19
 96.9386292   -8.869594045E-19
 97.0654678   -8.869491681E-19
 97.1923141   -8.869375876E-19
 97.3191605   -8.869239391E-19
 97.4459991   -8.869070853E-19
 97.5728455   -8.868869228E-19
 97.6996918   -8.868640719E-19
 97.8265305   -8.868377055E-19
 97.9533768   -8.868081338E-19
 98.0802231   -8.867771145E-19
 98.2070618   -8.867440273E-19
 98.3339081   -8.867096993E-19
 98.4607544   -8.866749577E-19
 98.5875931   -8.866399059E-19
 98.7144394   -8.866057847E-19
 98.8412857   -8.865722839E-19
 98.9681244   -8.865402307E-19
 99.0949707   -8.865094182E-19
 99.221817   -8.864809839E-19
 99.3486557   -8.864538937E-19
 99.475502   -8.864281477E-19
 99.6023407   -8.864034357E-19
 99.729187   -8.863800678E-19
 99.8560333   -8.863570102E-19
 99.982872   -8.863340559E-19
 100.109718   -8.863105847E-19
 100.236565   -8.862869066E-19
 100.363403   -8.862626082E-19
 100.49025   -8.862369656E-19
 100.617096   -8.862100822E-19
 100.743935   -8.861809241E-19
 100.870781   -8.861504218E-19
 100.997627   -8.861181618E-19
 101.124466   -8.860844542E-19
 101.251312   -8.860505398E-19
 101.378159   -8.860163152E-19
 101.504997   -8.859834347E-19
 101.631844   -8.859529324E-19
 101.75869   -8.859257389E-19
 101.885529   -8.85902371E-19
 102.012375   -8.858838629E-19
 102.139214   -8.858705246E-19
 102.26606   -8.858618392E-19
 102.392906   -8.858580135E-19
 102.519745   -8.858572897E-19
 102.646591   -8.858590474E-19
 102.773438   -8.858609086E-19
 102.900276   -8.858617358E-19
 103.027122   -8.858586339E-19
 103.153969   -8.858509824E-19
 103.280807   -8.858361966E-19
 103.407654   -8.858137593E-19
 103.5345   -8.857823264E-19
 103.661339   -8.857415878E-19
 103.788185   -8.856926807E-19
 103.915031   -8.856359155E-19
 104.04187   -8.855720158E-19
 104.168716   -8.855030496E-19
 104.295563   -8.854306713E-19
 104.422401   -8.853573624E-19
 104.549248   -8.852850875E-19
 104.676086   -8.852157077E-19
 104.802933   -8.851508774E-19
 104.929779   -8.850919408E-19
 105.056618   -8.850390013E-19
 105.183464   -8.849932995E-19
 105.31031   -8.849538017E-19
 105.437149   -8.849199907E-19
 105.563995   -8.848915563E-19
 105.690842   -8.848677749E-19
 105.81768   -8.848478191E-19
 105.944527   -8.848312755E-19
 106.071373   -8.848170067E-19
 106.198212   -8.848054261E-19
 106.325058   -8.847970509E-19
 106.451904   -8.847917777E-19
 106.578743   -8.847898131E-19
 106.705589   -8.847925014E-19
 106.832428   -8.848006699E-19
 106.959274   -8.848148353E-19
 107.086121   -8.848356182E-19
 107.212959   -8.848629152E-19
 107.339806   -8.84896933E-19
 107.466652   -8.849375682E-19
 107.593491   -8.849828564E-19
 107.720337   -8.8503166E-19
 107.847183   -8.850811875E-19
 107.974022   -8.851297843E-19
 108.100868   -8.851740385E-19
 108.227715   -8.852114684E-19
 108.354553   -8.852392824E-19
 108.4814   -8.852540682E-19
 108.608246   -8.852524139E-19
 108.735085   -8.852321479E-19
 108.861931   -8.851920297E-19
 108.988777   -8.851304047E-19
 109.115616   -8.850462391E-19
 109.242462   -8.849401532E-19
 109.369301   -8.848128708E-19
 109.496147   -8.84665736E-19
 109.622993   -8.845001965E-19
 109.749832   -8.843183202E-19
 109.876678   -8.841219682E-19
 110.003525   -8.83914139E-19
 110.130363   -8.836958667E-19
 110.25721   -8.834692193E-19
 110.384056   -8.832357475E-19
 110.510895   -8.829948312E-19
 110.637741   -8.827474008E-19
 110.764587   -8.824915952E-19
 110.891426   -8.822260702E-19
 111.018272   -8.819488613E-19
 111.145119   -8.816564529E-19
 111.271957   -8.813457432E-19
 111.398804   -8.810130098E-19
 111.52565   -8.806532897E-19
 111.652489   -8.802644114E-19
 111.779335   -8.798429629E-19
 111.906174   -8.793861524E-19
 112.03302   -8.788918085E-19
 112.159866   -8.783590008E-19
 112.286705   -8.77787419E-19
 112.413551   -8.771766495E-19
 112.540398   -8.765274162E-19
 112.667236   -8.758402359E-19
 112.794083   -8.751147985E-19
 112.920929   -8.743523447E-19
 113.047768   -8.735515305E-19
 113.174614   -8.72712149E-19
 113.30146   -8.71831305E-19
 113.428299   -8.709066205E-19
 113.555145   -8.699359241E-19
 113.681992   -8.689145628E-19
 113.80883   -8.67838194E-19
 113.935677   -8.667023199E-19
 114.062523   -8.655029081E-19
 114.189362   -8.642350987E-19
 114.316208   -8.628955314E-19
 114.443047   -8.614813627E-19
 114.569893   -8.599910934E-19
 114.696739   -8.584259126E-19
 114.823578   -8.567885603E-19
 114.950424   -8.550843614E-19
 115.077271   -8.533211743E-19
 115.204109   -8.515120786E-19
 115.330956   -8.496712398E-19
 115.457802   -8.478168043E-19
 115.584641   -8.459702787E-19
 115.711487   -8.441552893E-19
 115.838333   -8.423975305E-19
 115.965172   -8.407241441E-19