 -7.19999981   1.099779803E-17
 -7.07296753   1.099779803E-17
 -6.94593477   1.09977972E-17
 -6.81890202   1.099779638E-17
 -6.69186926   1.099779555E-17
 -6.56483698   1.099779472E-17
 -6.43780422   1.099779472E-17
 -6.31077147   1.099779472E-17
 -6.18373871   1.099779555E-17
 -6.05670643   1.099779638E-17
 -5.92967367   1.099779803E-17
 -5.80264091   1.099780134E-17
 -5.67560816   1.099780382E-17
 -5.5485754   1.099780713E-17
 -5.42154312   1.099781044E-17
 -5.29451036   1.099781375E-17
 -5.16747761   1.099781623E-17
 -5.04044485   1.099781871E-17
 -4.91341257   1.099782037E-17
 -4.78637981   1.099782119E-17
 -4.65934706   1.099782367E-17
 -4.5323143   1.099782616E-17
 -4.40528202   1.099783029E-17
 -4.27824926   1.099783443E-17
 -4.15121651   1.099784022E-17
 -4.02418375   1.099784518E-17
 -3.89715123   1.09978518E-17
 -3.77011847   1.099785759E-17
 -3.64308596   1.099786503E-17
 -3.5160532   1.099787165E-17
 -3.38902068   1.099787744E-17
 -3.26198792   1.09978824E-17
 -3.13495541   1.099788737E-17
 -3.00792265   1.099789316E-17
 -2.88089013   1.099789978E-17
 -2.75385737   1.099790722E-17
 -2.62682486   1.099791466E-17
 -2.4997921   1.099792211E-17
 -2.37275958   1.099792955E-17
 -2.24572682   1.0997937E-17
 -2.11869431   1.099794279E-17
 -1.99166155   1.099794775E-17
 -1.86462891   1.099795106E-17
 -1.73759627   1.099795437E-17
 -1.61056364   1.099795602E-17
 -1.483531   1.099795685E-17
 -1.35649836   1.099795851E-17
 -1.22946572   1.099796016E-17
 -1.10243309   1.09979643E-17
 -0.975400388   1.099796926E-17
 -0.848367751   1.099797588E-17
 -0.721335113   1.099798497E-17
 -0.594302475   1.099799325E-17
 -0.467269808   1.099800235E-17
 -0.34023717   1.099801144E-17
 -0.213204518   1.099801889E-17
 -8.617187291E-2   1.099802551E-17
 4.086076841E-2   1.099803047E-17
 0.16789341   1.099803626E-17
 0.294926047   1.099804122E-17
 0.421958715   1.099804619E-17
 0.548991323   1.099805198E-17
 0.67602402   1.099805859E-17
 0.803056657   1.099806521E-17
 0.930089295   1.099807183E-17
 1.05712187   1.099807762E-17
 1.18415463   1.099808424E-17
 1.31118727   1.09980892E-17
 1.4382199   1.099809251E-17
 1.56525254   1.099809499E-17
 1.69228518   1.099809664E-17
 1.81931782   1.09980983E-17
 1.94635046   1.099809913E-17
 2.07338309   1.099810161E-17
 2.20041585   1.099810657E-17
 2.32744837   1.099811402E-17
 2.45448112   1.099812311E-17
 2.58151364   1.099813469E-17
 2.7085464   1.09981471E-17
 2.83557892   1.099816034E-17
 2.96261168   1.099817274E-17
 3.08964419   1.099818433E-17
 3.21667695   1.099819342E-17
 3.34370947   1.099820087E-17
 3.47074223   1.099820583E-17
 3.59777474   1.099820997E-17
 3.7248075   1.099821245E-17
 3.85184002   1.099821493E-17
 3.97887278   1.099821741E-17
 4.10590553   1.099822072E-17
 4.23293829   1.099822486E-17
 4.35997057   1.099822899E-17
 4.48700333   1.099823147E-17
 4.61403608   1.099823396E-17
 4.74106884   1.099823644E-17
 4.86810112   1.099823809E-17
 4.99513388   1.099823809E-17
 5.12216663   1.099823809E-17
 5.24919939   1.099823727E-17
 5.37623167   1.099823809E-17
 5.50326443   1.099823975E-17
 5.63029718   1.099824388E-17
 5.75732994   1.099824967E-17
 5.88436222   1.099825794E-17
 6.01139498   1.099826704E-17
 6.13842773   1.099827697E-17
 6.26546049   1.099828524E-17
 6.39249325   1.099829269E-17
 6.51952553   1.099829765E-17
 6.64655828   1.09982993E-17
 6.77359104   1.099830013E-17
 6.9006238   1.099829848E-17
 7.02765608   1.099829599E-17
 7.15468884   1.099829351E-17
 7.28172159   1.099829103E-17
 7.40875435   1.09982902E-17
 7.53578663   1.099829103E-17
 7.66281939   1.099829434E-17
 7.78985214   1.099829765E-17
 7.9168849   1.099830179E-17
 8.04391766   1.099830592E-17
 8.17094994   1.099831088E-17
 8.29798317   1.099831419E-17
 8.42501545   1.099831916E-17
 8.55204773   1.099832412E-17
 8.67908096   1.099832991E-17
 8.80611324   1.099833818E-17
 8.93314552   1.099834893E-17
 9.06017876   1.099836134E-17
 9.18721104   1.099837623E-17
 9.31424427   1.099839195E-17
 9.44127655   1.099840766E-17
 9.56830883   1.09984209E-17
 9.69534206   1.099843248E-17
 9.82237434   1.099844075E-17
 9.94940662   1.099844571E-17
 10.0764399   1.09984482E-17
 10.2034721   1.099844737E-17
 10.3305054   1.099844489E-17
 10.4575377   1.099844158E-17
 10.5845699   1.099843992E-17
 10.7116032   1.09984391E-17
 10.8386354   1.099843992E-17
 10.9656687   1.099844406E-17
 11.092701   1.099844985E-17
 11.2197332   1.099845647E-17
 11.3467665   1.099846474E-17
 11.4737988   1.099847384E-17
 11.600831   1.099848211E-17
 11.7278643   1.099849038E-17
 11.8548965   1.099849865E-17
 11.9819298   1.099850775E-17
 12.1089621   1.099851602E-17
 12.2359943   1.099852678E-17
 12.3630276   1.09985367E-17
 12.4900599   1.099854828E-17
 12.6170931   1.099856069E-17
 12.7441254   1.099857145E-17
 12.8711576   1.099858137E-17
 12.9981909   1.099858964E-17
 13.1252232   1.099859461E-17
 13.2522554   1.099859709E-17
 13.3792887   1.099859709E-17
 13.506321   1.099859543E-17
 13.6333542   1.099859378E-17
 13.7603865   1.099859213E-17
 13.8874187   1.099859295E-17
 14.014452   1.099859626E-17
 14.1414843   1.099860371E-17
 14.2685175   1.099861363E-17
 14.3955498   1.099862769E-17
 14.5225821   1.099864424E-17
 14.6496153   1.099866244E-17
 14.7766476   1.099868063E-17
 14.9036798   1.0998698E-17
 15.0307131   1.099871455E-17
 15.1577454   1.099873026E-17
 15.2847786   1.099874433E-17
 15.4118109   1.099875756E-17
 15.5388432   1.099877162E-17
 15.6658764   1.099878651E-17
 15.7929087   1.099880306E-17
 15.9199409   1.099882125E-17
 16.0469742   1.099884111E-17
 16.1740074   1.099886344E-17
 16.3010387   1.099888577E-17
 16.428072   1.099890728E-17
 16.5551052   1.099892879E-17
 16.6821365   1.099894947E-17
 16.8091698   1.099897015E-17
 16.936203   1.099899E-17
 17.0632343   1.099900985E-17
 17.1902676   1.099903219E-17
 17.3173008   1.099905617E-17
 17.444334   1.099908347E-17
 17.5713654   1.099911242E-17
 17.6983986   1.099914386E-17
 17.8254318   1.099917612E-17
 17.9524632   1.099920755E-17
 18.0794964   1.099923733E-17
 18.2065296   1.099926462E-17
 18.3335609   1.099928778E-17
 18.4605942   1.099930846E-17
 18.5876274   1.099932666E-17
 18.7146587   1.099934321E-17
 18.841692   1.099936058E-17
 18.9687252   1.099937877E-17
 19.0957584   1.099939945E-17
 19.2227898   1.099942261E-17
 19.349823   1.099944495E-17
 19.4768562   1.099946728E-17
 19.6038876   1.099948796E-17
 19.7309208   1.099950533E-17
 19.857954   1.09995194E-17
 19.9849854   1.099953098E-17
 20.1120186   1.099953925E-17
 20.2390518   1.099954752E-17
 20.3660831   1.099955496E-17
 20.4931164   1.099956489E-17
 20.6201496   1.09995773E-17
 20.7471828   1.099959219E-17
 20.8742142   1.099960956E-17
 21.0012474   1.099962858E-17
 21.1282806   1.099964761E-17
 21.255312   1.099966581E-17
 21.3823452   1.099968235E-17
 21.5093784   1.099969558E-17
 21.6364098   1.099970717E-17
 21.763443   1.099971792E-17
 21.8904762   1.099972784E-17
 22.0175076   1.099973943E-17
 22.1445408   1.099975266E-17
 22.271574   1.09997692E-17
 22.3986073   1.09997874E-17
 22.5256386   1.099980808E-17
 22.6526718   1.099982876E-17
 22.779705   1.099984861E-17
 22.9067364   1.099986598E-17
 23.0337696   1.09998817E-17
 23.1608028   1.099989576E-17
 23.2878342   1.099990734E-17
 23.4148674   1.099991892E-17
 23.5419006   1.099993216E-17
 23.668932   1.09999487E-17
 23.7959652   1.099996855E-17
 23.9229984   1.099999254E-17
 24.0500298   1.100001984E-17
 24.177063   1.100005127E-17
 24.3040962   1.100008353E-17
 24.4311295   1.100011579E-17
 24.5581608   1.100014805E-17
 24.685194   1.100017866E-17
 24.8122272   1.100020844E-17
 24.9392586   1.100023821E-17
 25.0662918   1.100026799E-17
 25.193325   1.100029943E-17
 25.3203564   1.100033334E-17
 25.4473896   1.100036891E-17
 25.5744228   1.100040613E-17
 25.7014542   1.100044336E-17
 25.8284874   1.100048058E-17
 25.9555206   1.100051532E-17
 26.0825539   1.100054758E-17
 26.2095852   1.10005757E-17
 26.3366184   1.100059969E-17
 26.4636517   1.100062203E-17
 26.590683   1.100064271E-17
 26.7177162   1.100066421E-17
 26.8447495   1.100068903E-17
 26.9717808   1.100071715E-17
 27.098814   1.100075107E-17
 27.2258472   1.100078994E-17
 27.3528786   1.100083379E-17
 27.4799118   1.100088093E-17
 27.606945   1.100093057E-17
 27.7339783   1.100098102E-17
 27.8610096   1.100102983E-17
 27.9880428   1.100107615E-17
 28.1150761   1.100111916E-17
 28.2421074   1.100115969E-17
 28.3691406   1.100119692E-17
 28.4961739   1.100123166E-17
 28.6232052   1.100126392E-17
 28.7502384   1.100129535E-17
 28.8772717   1.100132596E-17
 29.004303   1.100135408E-17
 29.1313362   1.100138055E-17
 29.2583694   1.100140537E-17
 29.3854027   1.100142936E-17
 29.512434   1.100145252E-17
 29.6394672   1.100147485E-17
 29.7665005   1.100149884E-17
 29.8935318   1.100152448E-17
 30.020565   1.10015526E-17
 30.1475983   1.100158404E-17
 30.2746296   1.100161878E-17
 30.4016628   1.1001656E-17
 30.5286961   1.100169571E-17
 30.6557274   1.100173707E-17
 30.7827606   1.100177677E-17
 30.9097939   1.100181482E-17
 31.0368271   1.100185039E-17
 31.1638584   1.1001881E-17
 31.2908916   1.100190829E-17
 31.4179249   1.100193063E-17
 31.5449562   1.100195048E-17
 31.6719894   1.100196868E-17
 31.7990227   1.100198605E-17
 31.926054   1.100200342E-17
 32.0530891   1.100202162E-17
 32.1801186   1.100204064E-17
 32.3071518   1.100206298E-17
 32.434185   1.100208696E-17
 32.5612183   1.100211343E-17
 32.6882515   1.100214073E-17
 32.8152847   1.100217051E-17
 32.9423141   1.100219946E-17
 33.0693474   1.100222924E-17
 33.1963806   1.100225819E-17
 33.3234138   1.100228714E-17
 33.4504471   1.100231444E-17
 33.5774803   1.100233925E-17
 33.7045135   1.100236324E-17
 33.831543   1.100238475E-17
 33.9585762   1.100240377E-17
 34.0856094   1.100242114E-17
 34.2126427   1.100243603E-17
 34.3396759   1.10024501E-17
 34.4667091   1.100246416E-17
 34.5937386   1.100247822E-17
 34.7207718   1.100249394E-17
 34.847805   1.100251131E-17
 34.9748383   1.100253199E-17
 35.1018715   1.100255432E-17
 35.2289047   1.100257996E-17
 35.355938   1.100260809E-17
 35.4829674   1.100263787E-17
 35.6100006   1.100266764E-17
 35.7370338   1.100269742E-17
 35.8640671   1.100272555E-17
 35.9911003   1.100275119E-17
 36.1181335   1.100277352E-17
 36.245163   1.100279255E-17
 36.3721962   1.100280661E-17
 36.4992294   1.100281654E-17
 36.6262627   1.100282233E-17
 36.7532959   1.100282398E-17
 36.8803291   1.100282398E-17
 37.0073624   1.100282233E-17
 37.1343918   1.100282067E-17
 37.261425   1.100282067E-17
 37.3884583   1.100282315E-17
 37.5154915   1.100282977E-17
 37.6425247   1.10028397E-17
 37.769558   1.100285376E-17
 37.8965874   1.10028703E-17
 38.0236206   1.100288933E-17
 38.1506538   1.100290918E-17
 38.2776871   1.100292986E-17
 38.4047203   1.100295054E-17
 38.5317535   1.100297039E-17
 38.6587868   1.100298942E-17
 38.7858162   1.100300762E-17
 38.9128494   1.100302499E-17
 39.0398827   1.10030407E-17
 39.1669159   1.100305559E-17
 39.2939491   1.1003068E-17
 39.4209824   1.100307958E-17
 39.5480118   1.100308868E-17
 39.675045   1.100309447E-17
 39.8020782   1.100309695E-17
 39.9291115   1.100309612E-17
 40.0561447   1.100309282E-17
 40.1831779   1.100308785E-17
 40.3102074   1.100308289E-17
 40.4372406   1.100307875E-17
 40.5642738   1.10030771E-17
 40.6913071   1.100307875E-17
 40.8183403   1.100308454E-17
 40.9453735   1.100309199E-17
 41.0724068   1.100310109E-17
 41.1994362   1.100310936E-17
 41.3264694   1.100311432E-17
 41.4535027   1.100311515E-17
 41.5805359   1.100310853E-17
 41.7075691   1.100309612E-17
 41.8346024   1.100307875E-17
 41.9616318   1.100305642E-17
 42.088665   1.10030316E-17
 42.2156982   1.100300762E-17
 42.3427315   1.100298694E-17
 42.4697647   1.100297039E-17
 42.5967979   1.100295964E-17
 42.7238312   1.100295385E-17
 42.8508606   1.100295302E-17
 42.9778938   1.100295385E-17
 43.1049271   1.10029555E-17
 43.2319603   1.100295716E-17
 43.3589935   1.100295633E-17
 43.4860268   1.100295385E-17
 43.6130562   1.100294971E-17
 43.7400894   1.100294475E-17
 43.8671227   1.100294061E-17
 43.9941559   1.100293648E-17
 44.1211891   1.1002934E-17
 44.2482224   1.100293152E-17
 44.3752556   1.100292903E-17
 44.502285   1.10029249E-17
 44.6293182   1.100291911E-17
 44.7563515   1.100291084E-17
 44.8833847   1.100290008E-17
 45.0104179   1.100288767E-17
 45.1374512   1.100287361E-17
 45.2644806   1.10028612E-17
 45.3915138   1.100285128E-17
 45.5185471   1.100284549E-17
 45.6455803   1.100284466E-17
 45.7726135   1.10028488E-17
 45.8996468   1.100285624E-17
 46.02668   1.100286534E-17
 46.1537094   1.100287361E-17
 46.2807426   1.100287858E-17
 46.4077759   1.100288023E-17
 46.5348091   1.100287609E-17
 46.6618423   1.100286617E-17
 46.7888756   1.100285293E-17
 46.915905   1.100283722E-17
 47.0429382   1.100282067E-17
 47.1699715   1.100280496E-17
 47.2970047   1.100279255E-17
 47.4240379   1.100278345E-17
 47.5510712   1.100277931E-17
 47.6781044   1.100277766E-17
 47.8051338   1.100277849E-17
 47.9321671   1.10027818E-17
 48.0592003   1.100278759E-17
 48.1862335   1.100279338E-17
 48.3132668   1.100279999E-17
 48.4403   1.100280827E-17
 48.5673294   1.100281819E-17
 48.6943626   1.100282977E-17
 48.8213959   1.100284466E-17
 48.9484291   1.10028612E-17
 49.0754623   1.100287858E-17
 49.2024956   1.100289595E-17
 49.3295288   1.100291084E-17
 49.4565582   1.100292242E-17
 49.5835915   1.100293069E-17
 49.7106247   1.1002934E-17
 49.8376579   1.1002934E-17
 49.9646912   1.100293234E-17
 50.0917244   1.100292986E-17
 50.2187538   1.100293069E-17
 50.345787   1.100293482E-17
 50.4728203   1.100294475E-17
 50.5998535   1.100295964E-17
 50.7268867   1.100297866E-17
 50.85392   1.1003001E-17
 50.9809532   1.100302581E-17
 51.1079826   1.10030498E-17
 51.2350159   1.100307214E-17
 51.3620491   1.100309199E-17
 51.4890823   1.10031077E-17
 51.6161156   1.100311846E-17
 51.7431488   1.100312756E-17
 51.8701782   1.100313417E-17
 51.9972115   1.100313914E-17
 52.1242447   1.100314493E-17
 52.2512779   1.100315155E-17
 52.3783112   1.100316064E-17
 52.5053444   1.100316974E-17
 52.6323776   1.100318132E-17
 52.759407   1.100319539E-17
 52.8864403   1.100321027E-17
 53.0134735   1.100322847E-17
 53.1405067   1.100324915E-17
 53.26754   1.100327314E-17
 53.3945732   1.100329961E-17
 53.5216026   1.100332856E-17
 53.6486359   1.100336082E-17
 53.7756691   1.100339474E-17
 53.9027023   1.100342948E-17
 54.0297356   1.100346257E-17
 54.1567688   1.1003494E-17
 54.283802   1.100352129E-17
 54.4108315   1.100354446E-17
 54.5378647   1.100356183E-17
 54.6648979   1.100357589E-17
 54.7919312   1.100358747E-17
 54.9189644   1.100359574E-17
 55.0459976   1.100360484E-17
 55.173027   1.100361477E-17
 55.3000603   1.1003628E-17
 55.4270935   1.10036462E-17
 55.5541267   1.100366853E-17
 55.68116   1.100369666E-17
 55.8081932   1.100372892E-17
 55.9352264   1.100376366E-17
 56.0622559   1.100380088E-17
 56.1892891   1.100383893E-17
 56.3163223   1.100387616E-17
 56.4433556   1.100391255E-17
 56.5703888   1.100394564E-17
 56.697422   1.100397707E-17
 56.8244514   1.10040052E-17
 56.9514847   1.100403084E-17
 57.0785179   1.100405483E-17
 57.2055511   1.100407799E-17
 57.3325844   1.100410115E-17
 57.4596176   1.100412514E-17
 57.5866508   1.100415078E-17
 57.7136803   1.100417808E-17
 57.8407135   1.100420868E-17
 57.9677467   1.100424011E-17
 58.09478   1.100427403E-17
 58.2218132   1.100430877E-17
 58.3488464   1.100434351E-17
 58.4758759   1.100437825E-17
 58.6029091   1.100441051E-17
 58.7299423   1.100444277E-17
 58.8569756   1.100447255E-17
 58.9840088   1.10045015E-17
 59.111042   1.100452715E-17
 59.2380753   1.100455196E-17
 59.3651047   1.100457595E-17
 59.4921379   1.100459663E-17
 59.6191711   1.100461731E-17
 59.7462044   1.100463716E-17
 59.8732376   1.100465701E-17
 60.0002708   1.100467604E-17
 60.1273003   1.100469672E-17
 60.2543335   1.100471823E-17
 60.3813667   1.100474221E-17
 60.5084   1.100476868E-17
 60.6354332   1.100479929E-17
 60.7624664   1.100483238E-17
 60.8894997   1.10048696E-17
 61.0165291   1.10049093E-17
 61.1435623   1.100495232E-17
 61.2705956   1.100499616E-17
 61.3976288   1.100504E-17
 61.524662   1.100508301E-17
 61.6516953   1.100512437E-17
 61.7787247   1.100516325E-17
 61.9057579   1.100519964E-17
 62.0327911   1.100523356E-17
 62.1598244   1.100526582E-17
 62.2868576   1.10052956E-17
 62.4138908   1.100532538E-17
 62.5409203   1.100535433E-17
 62.6679535   1.100538411E-17
 62.7949867   1.100541471E-17
 62.92202   1.100544697E-17
 63.0490532   1.100548006E-17
 63.1760864   1.100551397E-17
 63.3031197   1.100554954E-17
 63.4301491   1.100558594E-17
 63.5571823   1.100562316E-17
 63.6842155   1.100566204E-17
 63.8112488   1.100570092E-17
 63.938282   1.100574145E-17
 64.0653152   1.100578198E-17
 64.1923447   1.100582334E-17
 64.3193817   1.100586387E-17
 64.4464111   1.100590523E-17
 64.5734482   1.100594576E-17
 64.7004776   1.100598464E-17
 64.827507   1.100602186E-17
 64.9545441   1.100605743E-17
 65.0815735   1.100609052E-17
 65.2086105   1.100612361E-17
 65.33564   1.100615504E-17
 65.4626694   1.10061873E-17
 65.5897064   1.100622039E-17
 65.7167358   1.100625347E-17
 65.8437729   1.100628904E-17
 65.9708023   1.100632461E-17
 66.0978394   1.100636183E-17
 66.2248688   1.100639823E-17
 66.3518982   1.100643297E-17
 66.4789352   1.100646606E-17
 66.6059647   1.100649501E-17
 66.7330017   1.100652148E-17
 66.8600311   1.100654216E-17
 66.9870682   1.100656036E-17
 67.1140976   1.100657442E-17
 67.241127   1.1006586E-17
 67.3681641   1.100659675E-17
 67.4951935   1.100660668E-17
 67.6222305   1.100661826E-17
 67.7492599   1.100663149E-17
 67.876297   1.100664721E-17
 68.0033264   1.100666624E-17
 68.1303558   1.100668857E-17
 68.2573929   1.100671338E-17
 68.3844223   1.100674068E-17
 68.5114594   1.100676963E-17
 68.6384888   1.100680024E-17
 68.7655182   1.10068325E-17
 68.8925552   1.100686476E-17
 69.0195847   1.100689785E-17
 69.1466217   1.100693093E-17
 69.2736511   1.100696402E-17
 69.4006882   1.100699628E-17
 69.5277176   1.100702854E-17
 69.654747   1.100705832E-17
 69.7817841   1.100708562E-17
 69.9088135   1.100711209E-17
 70.0358505   1.100713607E-17
 70.1628799   1.100715924E-17
 70.289917   1.100718074E-17
 70.4169464   1.100720225E-17
 70.5439758   1.100722458E-17
 70.6710129   1.100724857E-17
 70.7980423   1.100727339E-17
 70.9250793   1.100730151E-17
 71.0521088   1.100733046E-17
 71.1791458   1.100736107E-17
 71.3061752   1.100739167E-17
 71.4332047   1.100742145E-17
 71.5602417   1.10074504E-17
 71.6872711   1.100747687E-17
 71.8143082   1.100750086E-17
 71.9413376   1.100752237E-17
 72.068367   1.100754139E-17
 72.1954041   1.100755959E-17
 72.3224335   1.100757779E-17
 72.4494705   1.100759847E-17
 72.5764999   1.10076208E-17
 72.703537   1.100764644E-17
 72.8305664   1.10076754E-17
 72.9575958   1.100770766E-17
 73.0846329   1.10077424E-17
 73.2116623   1.100777879E-17
 73.3386993   1.100781767E-17
 73.4657288   1.100785655E-17
 73.5927658   1.100789625E-17
 73.7197952   1.100793678E-17
 73.8468246   1.100797649E-17
 73.9738617   1.100801785E-17
 74.1008911   1.100805921E-17
 74.2279282   1.100810057E-17
 74.3549576   1.100814275E-17
 74.481987   1.100818411E-17
 74.609024   1.100822547E-17
 74.7360535   1.100826435E-17
 74.8630905   1.100830074E-17
 74.9901199   1.100833466E-17
 75.117157   1.100836444E-17
 75.2441864   1.100839339E-17
 75.3712158   1.100841986E-17
 75.4982529   1.100844467E-17
 75.6252823   1.100846949E-17
 75.7523193   1.100849513E-17
 75.8793488   1.100852243E-17
 76.0063858   1.100855221E-17
 76.1334152   1.100858364E-17
 76.2604446   1.100861673E-17
 76.3874817   1.100864981E-17
 76.5145111   1.100868373E-17
 76.6415482   1.100871764E-17
 76.7685776   1.100875073E-17
 76.8956146   1.100878382E-17
 77.022644   1.100881856E-17
 77.1496735   1.100885578E-17
 77.2767105   1.100889631E-17
 77.4037399   1.100894181E-17
 77.530777   1.100899144E-17
 77.6578064   1.100904769E-17
 77.7848358   1.10091089E-17
 77.9118729   1.100917342E-17
 78.0389023   1.100924125E-17
 78.1659393   1.100931156E-17
 78.2929688   1.100938104E-17
 78.4200058   1.100945135E-17
 78.5470352   1.100952166E-17
 78.6740646   1.100959115E-17
 78.8011017   1.100966063E-17
 78.9281311   1.100972929E-17
 79.0551682   1.100979877E-17
 79.1821976   1.100986825E-17
 79.3092346   1.100993608E-17
 79.436264   1.101000143E-17
 79.5632935   1.101006347E-17
 79.6903305   1.101012054E-17
 79.8173599   1.101017265E-17
 79.944397   1.101021815E-17
 80.0714264   1.101025703E-17
 80.1984634   1.101029177E-17
 80.3254929   1.101032237E-17
 80.4525223   1.101035133E-17
 80.5795593   1.101038028E-17
 80.7065887   1.101040923E-17
 80.8336258   1.101044149E-17
 80.9606552   1.10104754E-17
 81.0876846   1.10105118E-17
 81.2147217   1.101054902E-17
 81.3417511   1.101058624E-17
 81.4687881   1.101062264E-17
 81.5958176   1.101065821E-17
 81.7228546   1.101069212E-17
 81.849884   1.101072521E-17
 81.9769135   1.101075913E-17
 82.1039505   1.101079469E-17
 82.2309799   1.101083192E-17
 82.358017   1.101087245E-17
 82.4850464   1.101091712E-17
 82.6120834   1.101096509E-17
 82.7391129   1.101101555E-17
 82.8661423   1.101106766E-17
 82.9931793   1.101111895E-17
 83.1202087   1.101116941E-17
 83.2472458   1.101121738E-17
 83.3742752   1.101126288E-17
 83.5013123   1.101130506E-17
 83.6283417   1.101134642E-17
 83.7553711   1.10113853E-17
 83.8824081   1.101142501E-17
 84.0094376   1.101146471E-17
 84.1364746   1.101150441E-17
 84.263504   1.101154412E-17
 84.3905334   1.1011583E-17
 84.5175705   1.101162105E-17
 84.6445999   1.101165579E-17
 84.771637   1.101168722E-17
 84.8986664   1.101171617E-17
 85.0257034   1.101174099E-17
 85.1527328   1.101176415E-17
 85.2797623   1.101178566E-17
 85.4067993   1.101180634E-17
 85.5338287   1.101182702E-17
 85.6608658   1.101184852E-17
 85.7878952   1.101187003E-17
 85.9149323   1.101189154E-17
 86.0419617   1.101191221E-17
 86.1689911   1.101192959E-17
 86.2960281   1.101194282E-17
 86.4230576   1.101195275E-17
 86.5500946   1.101195936E-17
 86.677124   1.101196185E-17
 86.8041611   1.10119635E-17
 86.9311905   1.10119635E-17
 87.0582199   1.101196598E-17
 87.185257   1.101197012E-17
 87.3122864   1.101197922E-17
 87.4393234   1.101199162E-17
 87.5663528   1.101200734E-17
 87.6933823   1.101202471E-17
 87.8204193   1.101204291E-17
 87.9474487   1.101206028E-17
 88.0744858   1.101207517E-17
 88.2015152   1.101208592E-17
 88.3285522   1.101209254E-17
 88.4555817   1.101209419E-17
 88.5826111   1.101209254E-17
 88.7096481   1.101208923E-17
 88.8366776   1.101208344E-17
 88.9637146   1.101207848E-17
 89.090744   1.101207352E-17
 89.2177811   1.101206938E-17
 89.3448105   1.101206524E-17
 89.4718399   1.101206028E-17
 89.598877   1.101205366E-17
 89.7259064   1.101204456E-17
 89.8529434   1.101203381E-17
 89.9799728   1.10120214E-17
 90.1070099   1.101200817E-17
 90.2340393   1.101199659E-17
 90.3610687   1.101198666E-17
 90.4881058   1.10119817E-17
 90.6151352   1.101198004E-17
 90.7421722   1.101198335E-17
 90.8692017   1.101198997E-17
 90.9962311   1.101199824E-17
 91.1232681   1.101200651E-17
 91.2502975   1.101201313E-17
 91.3773346   1.101201644E-17
 91.504364   1.101201727E-17
 91.6314011   1.101201396E-17
 91.7584305   1.101200817E-17
 91.8854599   1.101200072E-17
 92.0124969   1.101199411E-17
 92.1395264   1.101198914E-17
 92.2665634   1.101198666E-17
 92.3935928   1.101198666E-17
 92.5206299   1.101198997E-17
 92.6476593   1.101199411E-17
 92.7746887   1.10119999E-17
 92.9017258   1.101200238E-17
 93.0287552   1.10120032E-17
 93.1557922   1.101199907E-17
 93.2828217   1.101199162E-17
 93.4098587   1.101198087E-17
 93.5368881   1.101196764E-17
 93.6639175   1.10119544E-17
 93.7909546   1.101194199E-17
 93.917984   1.101193289E-17
 94.0450211   1.101192545E-17
 94.1720505   1.101191966E-17
 94.2990799   1.101191552E-17
 94.4261169   1.101190973E-17
 94.5531464   1.101190146E-17
 94.6801834   1.101189071E-17
 94.8072128   1.101187582E-17
 94.9342499   1.101185679E-17
 95.0612793   1.101183694E-17
 95.1883087   1.101181626E-17
 95.3153458   1.101179806E-17
 95.4423752   1.101178235E-17
 95.5694122   1.101177159E-17
 95.6964417   1.101176415E-17
 95.8234787   1.101176001E-17
 95.9505081   1.101175836E-17
 96.0775375   1.101175588E-17
 96.2045746   1.101175257E-17
 96.331604   1.101174761E-17
 96.4586411   1.101174016E-17
 96.5856705   1.101173024E-17
 96.7126999   1.101172031E-17
 96.8397369   1.101171038E-17
 96.9667664   1.101170211E-17
 97.0938034   1.10116988E-17
 97.2208328   1.10116988E-17
 97.3478699   1.101170294E-17
 97.4748993   1.101171121E-17
 97.6019287   1.101172114E-17
 97.7289658   1.101173106E-17
 97.8559952   1.101174182E-17
 97.9830322   1.101175009E-17
 98.1100616   1.101175505E-17
 98.2370987   1.101175836E-17
 98.3641281   1.101175919E-17
 98.4911575   1.101175836E-17
 98.6181946   1.101175919E-17
 98.745224   1.101176001E-17
 98.872261   1.101176332E-17
 98.9992905   1.101176663E-17
 99.1263275   1.101177077E-17
 99.2533569   1.101177325E-17
 99.3803864   1.101177325E-17
 99.5074234   1.101176994E-17
 99.6344528   1.10117625E-17
 99.7614899   1.101175091E-17
 99.8885193   1.101173603E-17
 100.015549   1.101172031E-17
 100.142586   1.101170459E-17
 100.269615   1.10116897E-17
 100.396652   1.101167812E-17
 100.523682   1.101166902E-17
 100.650719   1.101166241E-17
 100.777748   1.101165579E-17
 100.904778   1.101165083E-17
 101.031815   1.101164504E-17
 101.158844   1.101163676E-17
 101.285881   1.101162518E-17
 101.41291   1.101161112E-17
 101.539948   1.101159458E-17
 101.666977   1.101157638E-17
 101.794006   1.101155735E-17
 101.921043   1.101153833E-17
 102.048073   1.101152013E-17
 102.17511   1.101150276E-17
 102.302139   1.101148704E-17
 102.429176   1.101147215E-17
 102.556206   1.101145561E-17
 102.683235   1.101143741E-17
 102.810272   1.101141756E-17
 102.937302   1.10113944E-17
 103.064339   1.101136793E-17
 103.191368   1.101133815E-17
 103.318398   1.101130672E-17
 103.445435   1.101127363E-17
 103.572464   1.101123889E-17
 103.699501   1.101120332E-17
 103.82653   1.101116775E-17
 103.953568   1.10111297E-17
 104.080597   1.101109082E-17
 104.207626   1.101104781E-17
 104.334663   1.101100149E-17
 104.461693   1.101095103E-17
 104.58873   1.101089561E-17
 104.715759   1.10108344E-17
 104.842796   1.101077071E-17
 104.969826   1.101070536E-17
 105.096855   1.101063918E-17
 105.223892   1.101057549E-17
 105.350922   1.101051676E-17
 105.477959   1.101046382E-17
 105.604988   1.10104175E-17
 105.732025   1.101038028E-17
 105.859055   1.101035133E-17
 105.986084   1.10103323E-17
 106.113121   1.101032237E-17
 106.24015   1.101032237E-17
 106.367188   1.101033313E-17
 106.494217   1.101035712E-17
 106.621246   1.101039351E-17
 106.748283   1.101044232E-17
 106.875313   1.101050601E-17
 107.00235   1.101058211E-17
 107.129379   1.101066896E-17
 107.256416   1.101076574E-17
 107.383446   1.101086831E-17
 107.510475   1.101097254E-17
 107.637512   1.101107428E-17
 107.764542   1.101116858E-17
 107.891579   1.10112513E-17
 108.018608   1.101131582E-17
 108.145645   1.101135883E-17
 108.272675   1.10113762E-17
 108.399704   1.101136545E-17
 108.526741   1.101132326E-17
 108.65377   1.101124799E-17
 108.780807   1.10111388E-17
 108.907837   1.10109957E-17
 109.034874   1.101081786E-17
 109.161903   1.101060858E-17
 109.288933   1.101036952E-17
 109.41597   1.1010104E-17
 109.542999   1.100981614E-17
 109.670036   1.100951422E-17
 109.797066   1.100920403E-17
 109.924095   1.100889549E-17
 110.051132   1.100859605E-17
 110.178162   1.100831646E-17
 110.305199   1.100806417E-17
 110.432228   1.10078491E-17
 110.559265   1.100767622E-17
 110.686295   1.100754966E-17
 110.813324   1.100747191E-17
 110.940361   1.100744379E-17
 111.06739   1.100746116E-17
 111.194427   1.100751823E-17
 111.321457   1.100760591E-17
 111.448494   1.100771179E-17
 111.575523   1.100782181E-17
 111.702553   1.100792024E-17
 111.82959   1.100798559E-17
 111.956619   1.100799882E-17
 112.083656   1.100793678E-17
 112.210686   1.100777714E-17
 112.337723   1.10074959E-17
 112.464752   1.100707238E-17
 112.591782   1.100648508E-17
 112.718819   1.100571663E-17
 112.845848   1.100475379E-17
 112.972885   1.100358747E-17
 113.099915   1.100221435E-17
 113.226944   1.10006394E-17
 113.353981   1.099887337E-17
 113.48101   1.099693528E-17
 113.608047   1.099484913E-17
 113.735077   1.099265049E-17
 113.862114   1.099037574E-17
 113.989143   1.098807122E-17
 114.116173   1.098578489E-17
 114.24321   1.098357053E-17
 114.370239   1.098147941E-17
 114.497276   1.097956532E-17
 114.624306   1.097787952E-17
 114.751343   1.097646587E-17
 114.878372   1.097536572E-17
 115.005402   1.097460968E-17
 115.132439   1.097421925E-17
 115.259468   1.097420353E-17
 115.386505   1.097455591E-17
 115.513535   1.097525819E-17
 115.640572   1.097627479E-17
 115.767601   1.097755527E-17
 115.89463   1.097903179E-17
 116.021667   1.098062411E-17
 116.148697   1.098223959E-17
 116.275734   1.098377484E-17
 116.402763   1.098512066E-17
 116.529793   1.098616456E-17
 116.65683   1.098679488E-17
 116.783859   1.098690655E-17
 116.910896   1.098640527E-17
 117.037926   1.098521E-17
 117.164963   1.098325868E-17
 117.291992   1.098051161E-17
 117.419022   1.097695804E-17
 117.546059   1.097261369E-17
 117.673088   1.096752818E-17
 117.800125   1.096178011E-17
 117.927155   1.095548361E-17
 118.054192   1.094878262E-17
 118.181221   1.094184919E-17
 118.30825   1.093488185E-17
 118.435287   1.092810228E-17
 118.562317   1.092174043E-17
 118.689354   1.091603536E-17
 118.816383   1.091122365E-17
 118.943413   1.090752947E-17
 119.07045   1.09051538E-17
 119.197479   1.090426707E-17
 119.324516   1.090499995E-17
 119.451546   1.090743269E-17
 119.578583   1.091159092E-17
 119.705612   1.091743744E-17
 119.832642   1.092486965E-17
 119.959679   1.093371718E-17
 120.086708   1.094374426E-17
 120.213745   1.095464981E-17
 120.340775   1.096607648E-17