 -7.19999981   -9.031687323E-19
 -7.07296753   -9.031763838E-19
 -6.94593477   -9.031924104E-19
 -6.81890202   -9.032158816E-19
 -6.69186926   -9.032449364E-19
 -6.56483698   -9.032778168E-19
 -6.43780422   -9.033133856E-19
 -6.31077147   -9.033493679E-19
 -6.18373871   -9.033837993E-19
 -6.05670643   -9.034155424E-19
 -5.92967367   -9.034425291E-19
 -5.80264091   -9.034636222E-19
 -5.67560816   -9.034786149E-19
 -5.5485754   -9.034874037E-19
 -5.42154312   -9.034905056E-19
 -5.29451036   -9.03488541E-19
 -5.16747761   -9.034831644E-19
 -5.04044485   -9.034752028E-19
 -4.91341257   -9.034661038E-19
 -4.78637981   -9.034580388E-19
 -4.65934706   -9.034529723E-19
 -4.5323143   -9.034515247E-19
 -4.40528202   -9.03455247E-19
 -4.27824926   -9.034644494E-19
 -4.15121651   -9.03480476E-19
 -4.02418375   -9.035022929E-19
 -3.89715123   -9.035299001E-19
 -3.77011847   -9.035622635E-19
 -3.64308596   -9.035980391E-19
 -3.5160532   -9.036353656E-19
 -3.38902068   -9.036725887E-19
 -3.26198792   -9.037078473E-19
 -3.13495541   -9.037392802E-19
 -3.00792265   -9.037651296E-19
 -2.88089013   -9.037843615E-19
 -2.75385737   -9.037962522E-19
 -2.62682486   -9.038003881E-19
 -2.4997921   -9.037970794E-19
 -2.37275958   -9.037874634E-19
 -2.24572682   -9.037723674E-19
 -2.11869431   -9.03753032E-19
 -1.99166155   -9.037323525E-19
 -1.86462891   -9.037113628E-19
 -1.73759627   -9.036919241E-19
 -1.61056364   -9.036756907E-19
 -1.483531   -9.036635931E-19
 -1.35649836   -9.036575961E-19
 -1.22946572   -9.036574927E-19
 -1.10243309   -9.036636965E-19
 -0.975400388   -9.036761043E-19
 -0.848367751   -9.036935784E-19
 -0.721335113   -9.037149817E-19
 -0.594302475   -9.0373897E-19
 -0.467269808   -9.037639922E-19
 -0.34023717   -9.03788911E-19
 -0.213204518   -9.038111415E-19
 -8.617187291E-2   -9.038298564E-19
 4.086076841E-2   -9.038440219E-19
 0.16789341   -9.038529141E-19
 0.294926047   -9.038553957E-19
 0.421958715   -9.038525005E-19
 0.548991323   -9.038440219E-19
 0.67602402   -9.038303734E-19
 0.803056657   -9.038132094E-19
 0.930089295   -9.037931503E-19
 1.05712187   -9.037710232E-19
 1.18415463   -9.037487927E-19
 1.31118727   -9.037282166E-19
 1.4382199   -9.037096051E-19
 1.56525254   -9.03694509E-19
 1.69228518   -9.036829285E-19
 1.81931782   -9.036755873E-19
 1.94635046   -9.036730023E-19
 2.07338309   -9.036745533E-19
 2.20041585   -9.036797232E-19
 2.32744837   -9.036875814E-19
 2.45448112   -9.036967838E-19
 2.58151364   -9.037068133E-19
 2.7085464   -9.037166361E-19
 2.83557892   -9.037252181E-19
 2.96261168   -9.037308016E-19
 3.08964419   -9.037330763E-19
 3.21667695   -9.037306982E-19
 3.34370947   -9.037243909E-19
 3.47074223   -9.03713741E-19
 3.59777474   -9.036983347E-19
 3.7248075   -9.036784824E-19
 3.85184002   -9.036551145E-19
 3.97887278   -9.036290584E-19
 4.10590553   -9.03600624E-19
 4.23293829   -9.035715693E-19
 4.35997057   -9.035430316E-19
 4.48700333   -9.035159414E-19
 4.61403608   -9.034905056E-19
 4.74106884   -9.034674479E-19
 4.86810112   -9.034483194E-19
 4.99513388   -9.034322928E-19
 5.12216663   -9.034195749E-19
 5.24919939   -9.034096487E-19
 5.37623167   -9.034023075E-19
 5.50326443   -9.03396207E-19
 5.63029718   -9.033906235E-19
 5.75732994   -9.033841095E-19
 5.88436222   -9.033759411E-19
 6.01139498   -9.033642572E-19
 6.13842773   -9.033492645E-19
 6.26546049   -9.033302394E-19
 6.39249325   -9.033057341E-19
 6.51952553   -9.032766794E-19
 6.64655828   -9.032426616E-19
 6.77359104   -9.032044045E-19
 6.9006238   -9.031626319E-19
 7.02765608   -9.031181709E-19
 7.15468884   -9.030728828E-19
 7.28172159   -9.030276981E-19
 7.40875435   -9.029831337E-19
 7.53578663   -9.029402237E-19
 7.66281939   -9.029006224E-19
 7.78985214   -9.028638129E-19
 7.9168849   -9.028309325E-19
 8.04391766   -9.028009472E-19
 8.17094994   -9.027739604E-19
 8.29798317   -9.027497654E-19
 8.42501545   -9.027269145E-19
 8.55204773   -9.02705201E-19
 8.67908096   -9.026834875E-19
 8.80611324   -9.026604299E-19
 8.93314552   -9.026350975E-19
 9.06017876   -9.026069733E-19
 9.18721104   -9.025754371E-19
 9.31424427   -9.025405921E-19
 9.44127655   -9.025026452E-19
 9.56830883   -9.024623201E-19
 9.69534206   -9.024198237E-19
 9.82237434   -9.023760865E-19
 9.94940662   -9.02332246E-19
 10.0764399   -9.022889224E-19
 10.2034721   -9.022478735E-19
 10.3305054   -9.022103402E-19
 10.4575377   -9.021749782E-19
 10.5845699   -9.021438556E-19
 10.7116032   -9.021160416E-19
 10.8386354   -9.020923636E-19
 10.9656687   -9.020709603E-19
 11.092701   -9.020519351E-19
 11.2197332   -9.020343575E-19
 11.3467665   -9.020175037E-19
 11.4737988   -9.019998227E-19
 11.600831   -9.019811078E-19
 11.7278643   -9.019603249E-19
 11.8548965   -9.019366468E-19
 11.9819298   -9.019100736E-19
 12.1089621   -9.018806053E-19
 12.2359943   -9.018487589E-19
 12.3630276   -9.018147411E-19
 12.4900599   -9.017793791E-19
 12.6170931   -9.017429832E-19
 12.7441254   -9.01706277E-19
 12.8711576   -9.016694675E-19
 12.9981909   -9.016343123E-19
 13.1252232   -9.016006047E-19
 13.2522554   -9.015690684E-19
 13.3792887   -9.015389797E-19
 13.506321   -9.015112692E-19
 13.6333542   -9.014850062E-19
 13.7603865   -9.014601908E-19
 13.8874187   -9.014360992E-19
 14.014452   -9.014132483E-19
 14.1414843   -9.013900872E-19
 14.2685175   -9.013667194E-19
 14.3955498   -9.013425243E-19
 14.5225821   -9.013179157E-19
 14.6496153   -9.012923765E-19
 14.7766476   -9.012665271E-19
 14.9036798   -9.012401607E-19
 15.0307131   -9.01214208E-19
 15.1577454   -9.011886688E-19
 15.2847786   -9.011639567E-19
 15.4118109   -9.011405889E-19
 15.5388432   -9.01118772E-19
 15.6658764   -9.010987129E-19
 15.7929087   -9.010811353E-19
 15.9199409   -9.010659358E-19
 16.0469742   -9.010524941E-19
 16.1740074   -9.01041017E-19
 16.3010387   -9.010312976E-19
 16.428072   -9.010230258E-19
 16.5551052   -9.010153744E-19
 16.6821365   -9.01008757E-19
 16.8091698   -9.010020361E-19
 16.936203   -9.009955221E-19
 17.0632343   -9.009891114E-19
 17.1902676   -9.009821838E-19
 17.3173008   -9.009753596E-19
 17.444334   -9.009691557E-19
 17.5713654   -9.00962745E-19
 17.6983986   -9.009568514E-19
 17.8254318   -9.009515781E-19
 17.9524632   -9.009472354E-19
 18.0794964   -9.009427893E-19
 18.2065296   -9.009387568E-19
 18.3335609   -9.009353447E-19
 18.4605942   -9.009312088E-19
 18.5876274   -9.009271763E-19
 18.7146587   -9.009226268E-19
 18.841692   -9.009166297E-19
 18.9687252   -9.009094953E-19
 19.0957584   -9.009017405E-19
 19.2227898   -9.008928483E-19
 19.349823   -9.008826119E-19
 19.4768562   -9.008711348E-19
 19.6038876   -9.008583135E-19
 19.7309208   -9.008444582E-19
 19.857954   -9.00830086E-19
 19.9849854   -9.008155069E-19
 20.1120186   -9.007998939E-19
 20.2390518   -9.007846944E-19
 20.3660831   -9.007688746E-19
 20.4931164   -9.00753365E-19
 20.6201496   -9.007382689E-19
 20.7471828   -9.007232763E-19
 20.8742142   -9.00708904E-19
 21.0012474   -9.006955657E-19
 21.1282806   -9.006825376E-19
 21.255312   -9.006701299E-19
 21.3823452   -9.00657412E-19
 21.5093784   -9.006459349E-19
 21.6364098   -9.006347679E-19
 21.763443   -9.006233942E-19
 21.8904762   -9.006123307E-19
 22.0175076   -9.006016807E-19
 22.1445408   -9.005910308E-19
 22.271574   -9.00581208E-19
 22.3986073   -9.005716954E-19
 22.5256386   -9.005633202E-19
 22.6526718   -9.005558756E-19
 22.779705   -9.005495683E-19
 22.9067364   -9.00544812E-19
 23.0337696   -9.005418135E-19
 23.1608028   -9.005403659E-19
 23.2878342   -9.005405727E-19
 23.4148674   -9.005426407E-19
 23.5419006   -9.005451222E-19
 23.668932   -9.005490513E-19
 23.7959652   -9.00554428E-19
 23.9229984   -9.005598047E-19
 24.0500298   -9.005658018E-19
 24.177063   -9.005712818E-19
 24.3040962   -9.005759347E-19
 24.4311295   -9.005790366E-19
 24.5581608   -9.005804842E-19
 24.685194   -9.005797604E-19
 24.8122272   -9.005766585E-19
 24.9392586   -9.005712818E-19
 25.0662918   -9.005638372E-19
 25.193325   -9.00553394E-19
 25.3203564   -9.005409863E-19
 25.4473896   -9.005270277E-19
 25.5744228   -9.005119316E-19
 25.7014542   -9.004961118E-19
 25.8284874   -9.004804988E-19
 25.9555206   -9.004650925E-19
 26.0825539   -9.004515474E-19
 26.2095852   -9.004394499E-19
 26.3366184   -9.004300407E-19
 26.4636517   -9.004232165E-19
 26.590683   -9.004184602E-19
 26.7177162   -9.004162889E-19
 26.8447495   -9.004161855E-19
 26.9717808   -9.004168058E-19
 27.098814   -9.004174262E-19
 27.2258472   -9.004173228E-19
 27.3528786   -9.004150481E-19
 27.4799118   -9.004101884E-19
 27.606945   -9.00401503E-19
 27.7339783   -9.003884749E-19
 27.8610096   -9.003715177E-19
 27.9880428   -9.003506314E-19
 28.1150761   -9.003269534E-19
 28.2421074   -9.003008972E-19
 28.3691406   -9.002736002E-19
 28.4961739   -9.002471304E-19
 28.6232052   -9.002224184E-19
 28.7502384   -9.002008083E-19
 28.8772717   -9.001837477E-19
 29.004303   -9.001706162E-19
 29.1313362   -9.001630682E-19
 29.2583694   -9.001602765E-19
 29.3854027   -9.001618274E-19
 29.512434   -9.001666871E-19
 29.6394672   -9.001733046E-19
 29.7665005   -9.001810594E-19
 29.8935318   -9.00186953E-19
 30.020565   -9.001907787E-19
 30.1475983   -9.00190055E-19
 30.2746296   -9.001842647E-19
 30.4016628   -9.001727876E-19
 30.5286961   -9.00155727E-19
 30.6557274   -9.001341169E-19
 30.7827606   -9.001085777E-19
 30.9097939   -9.000806603E-19
 31.0368271   -9.00051709E-19
 31.1638584   -9.000243086E-19
 31.2908916   -8.999989762E-19
 31.4179249   -8.99977056E-19
 31.5449562   -8.999590648E-19
 31.6719894   -8.999454163E-19
 31.7990227   -8.999354901E-19
 31.926054   -8.999286659E-19
 32.0530891   -8.999233926E-19
 32.1801186   -8.999185329E-19
 32.3071518   -8.999122257E-19
 32.434185   -8.999030233E-19
 32.5612183   -8.998897884E-19
 32.6882515   -8.998717972E-19
 32.8152847   -8.998479124E-19
 32.9423141   -8.998181339E-19
 33.0693474   -8.997839093E-19
 33.1963806   -8.997456522E-19
 33.3234138   -8.997047067E-19
 33.4504471   -8.996627273E-19
 33.5774803   -8.996219887E-19
 33.7045135   -8.995840418E-19
 33.831543   -8.995513681E-19
 33.9585762   -8.995248983E-19
 34.0856094   -8.995059766E-19
 34.2126427   -8.994935689E-19
 34.3396759   -8.994886058E-19
 34.4667091   -8.994893296E-19
 34.5937386   -8.994938791E-19
 34.7207718   -8.995012203E-19
 34.847805   -8.995080445E-19
 34.9748383   -8.99512077E-19
 35.1018715   -8.995115601E-19
 35.2289047   -8.995043222E-19
 35.355938   -8.994888126E-19
 35.4829674   -8.994654447E-19
 35.6100006   -8.994342187E-19
 35.7370338   -8.993959616E-19
 35.8640671   -8.993528448E-19
 35.9911003   -8.993067295E-19
 36.1181335   -8.992600972E-19
 36.245163   -8.992154294E-19
 36.3721962   -8.991758281E-19
 36.4992294   -8.991423273E-19
 36.6262627   -8.991163745E-19
 36.7532959   -8.990984867E-19
 36.8803291   -8.990890776E-19
 37.0073624   -8.9908763E-19
 37.1343918   -8.990910421E-19
 37.261425   -8.990980732E-19
 37.3884583   -8.991064484E-19
 37.5154915   -8.991134794E-19
 37.6425247   -8.991173051E-19
 37.769558   -8.991156507E-19
 37.8965874   -8.991059314E-19
 38.0236206   -8.990883538E-19
 38.1506538   -8.990619874E-19
 38.2776871   -8.990273492E-19
 38.4047203   -8.9898568E-19
 38.5317535   -8.989391511E-19
 38.6587868   -8.988896236E-19
 38.7858162   -8.988393724E-19
 38.9128494   -8.987913959E-19
 39.0398827   -8.987477622E-19
 39.1669159   -8.987101254E-19
 39.2939491   -8.986802435E-19
 39.4209824   -8.986579097E-19
 39.5480118   -8.986432272E-19
 39.675045   -8.986356792E-19
 39.8020782   -8.98633301E-19
 39.9291115   -8.986341282E-19
 40.0561447   -8.986349554E-19
 40.1831779   -8.986336112E-19
 40.3102074   -8.986280278E-19
 40.4372406   -8.986160337E-19
 40.5642738   -8.985950439E-19
 40.6913071   -8.985648519E-19
 40.8183403   -8.985249404E-19
 40.9453735   -8.984760333E-19
 41.0724068   -8.984186477E-19
 41.1994362   -8.983553684E-19
 41.3264694   -8.982875395E-19
 41.4535027   -8.982180564E-19
 41.5805359   -8.981494004E-19
 41.7075691   -8.980844667E-19
 41.8346024   -8.980240825E-19
 41.9616318   -8.979700056E-19
 42.088665   -8.979229597E-19
 42.2156982   -8.978829448E-19
 42.3427315   -8.978498576E-19
 42.4697647   -8.978220437E-19
 42.5967979   -8.977977452E-19
 42.7238312   -8.977760317E-19
 42.8508606   -8.977543182E-19
 42.9778938   -8.97730847E-19
 43.1049271   -8.977042738E-19
 43.2319603   -8.976734613E-19
 43.3589935   -8.976382028E-19
 43.4860268   -8.975981879E-19
 43.6130562   -8.975541405E-19
 43.7400894   -8.975062675E-19
 43.8671227   -8.974575672E-19
 43.9941559   -8.974079364E-19
 44.1211891   -8.973602701E-19
 44.2482224   -8.973148785E-19
 44.3752556   -8.972733127E-19
 44.502285   -8.972357794E-19
 44.6293182   -8.972030024E-19
 44.7563515   -8.97174568E-19
 44.8833847   -8.971491322E-19
 45.0104179   -8.971262814E-19
 45.1374512   -8.971046713E-19
 45.2644806   -8.97082751E-19
 45.3915138   -8.970593831E-19
 45.5185471   -8.970324998E-19
 45.6455803   -8.970024111E-19
 45.7726135   -8.969673593E-19
 45.8996468   -8.969268274E-19
 46.02668   -8.968807121E-19
 46.1537094   -8.968302541E-19
 46.2807426   -8.967757636E-19
 46.4077759   -8.967187915E-19
 46.5348091   -8.966605787E-19
 46.6618423   -8.96602676E-19
 46.7888756   -8.965469447E-19
 46.915905   -8.964948324E-19
 47.0429382   -8.964473729E-19
 47.1699715   -8.964061172E-19
 47.2970047   -8.963714791E-19
 47.4240379   -8.963437685E-19
 47.5510712   -8.963221584E-19
 47.6781044   -8.963060284E-19
 47.8051338   -8.962941377E-19
 47.9321671   -8.962846251E-19
 48.0592003   -8.962768703E-19
 48.1862335   -8.962684951E-19
 48.3132668   -8.962583621E-19
 48.4403   -8.962454374E-19
 48.5673294   -8.962288938E-19
 48.6943626   -8.962086279E-19
 48.8213959   -8.961843294E-19
 48.9484291   -8.961571359E-19
 49.0754623   -8.961273574E-19
 49.2024956   -8.960962347E-19
 49.3295288   -8.960646984E-19
 49.4565582   -8.960334724E-19
 49.5835915   -8.960031769E-19
 49.7106247   -8.959747426E-19
 49.8376579   -8.959491E-19
 49.9646912   -8.959254219E-19
 50.0917244   -8.959038118E-19
 50.2187538   -8.958831323E-19
 50.345787   -8.958629698E-19
 50.4728203   -8.958428072E-19
 50.5998535   -8.958211972E-19
 50.7268867   -8.957974157E-19
 50.85392   -8.957719799E-19
 50.9809532   -8.957439592E-19
 51.1079826   -8.957132501E-19
 51.2350159   -8.956817138E-19
 51.3620491   -8.956500742E-19
 51.4890823   -8.956192617E-19
 51.6161156   -8.955910342E-19
 51.7431488   -8.955657017E-19
 51.8701782   -8.955442984E-19
 51.9972115   -8.955273412E-19
 52.1242447   -8.955154505E-19
 52.2512779   -8.955076957E-19
 52.3783112   -8.9550387E-19
 52.5053444   -8.955031462E-19
 52.6323776   -8.955037666E-19
 52.759407   -8.955055244E-19
 52.8864403   -8.955067651E-19
 53.0134735   -8.955072821E-19
 53.1405067   -8.955060413E-19
 53.26754   -8.955030428E-19
 53.3945732   -8.954972525E-19
 53.5216026   -8.954897045E-19
 53.6486359   -8.954802953E-19
 53.7756691   -8.954701624E-19
 53.9027023   -8.954598226E-19
 54.0297356   -8.954499999E-19
 54.1567688   -8.954406941E-19
 54.283802   -8.954328359E-19
 54.4108315   -8.954265286E-19
 54.5378647   -8.954218757E-19
 54.6648979   -8.954184636E-19
 54.7919312   -8.954154651E-19
 54.9189644   -8.954121563E-19
 55.0459976   -8.954072967E-19
 55.173027   -8.954000588E-19
 55.3000603   -8.953900293E-19
 55.4270935   -8.953767944E-19
 55.5541267   -8.953593202E-19
 55.68116   -8.953384339E-19
 55.8081932   -8.953137219E-19
 55.9352264   -8.952855977E-19
 56.0622559   -8.952559226E-19
 56.1892891   -8.952249033E-19
 56.3163223   -8.951948146E-19
 56.4433556   -8.951658633E-19
 56.5703888   -8.951405309E-19
 56.697422   -8.95119748E-19
 56.8244514   -8.95104135E-19
 56.9514847   -8.950947258E-19
 57.0785179   -8.95091934E-19
 57.2055511   -8.95095553E-19
 57.3325844   -8.951040316E-19
 57.4596176   -8.951166461E-19
 57.5866508   -8.951313285E-19
 57.7136803   -8.951463212E-19
 57.8407135   -8.951600731E-19
 57.9677467   -8.951698958E-19
 58.09478   -8.951742385E-19
 58.2218132   -8.95171757E-19
 58.3488464   -8.95161624E-19
 58.4758759   -8.95143426E-19
 58.6029091   -8.951174732E-19
 58.7299423   -8.950857302E-19
 58.8569756   -8.950491275E-19
 58.9840088   -8.950105602E-19
 59.111042   -8.949719929E-19
 59.2380753   -8.949369411E-19
 59.3651047   -8.949064388E-19
 59.4921379   -8.948824506E-19
 59.6191711   -8.948661137E-19
 59.7462044   -8.948582555E-19
 59.8732376   -8.948573249E-19
 60.0002708   -8.94862805E-19
 60.1273003   -8.948731448E-19
 60.2543335   -8.948862763E-19
 60.3813667   -8.949002349E-19
 60.5084   -8.949121257E-19
 60.6354332   -8.949196737E-19
 60.7624664   -8.949212246E-19
 60.8894997   -8.949155378E-19
 61.0165291   -8.949018893E-19
 61.1435623   -8.948802792E-19
 61.2705956   -8.948518449E-19
 61.3976288   -8.948173101E-19
 61.524662   -8.947794666E-19
 61.6516953   -8.947401755E-19
 61.7787247   -8.947020218E-19
 61.9057579   -8.946670734E-19
 62.0327911   -8.946380187E-19
 62.1598244   -8.946157882E-19
 62.2868576   -8.946018295E-19
 62.4138908   -8.945965563E-19
 62.5409203   -8.945987276E-19
 62.6679535   -8.946076198E-19
 62.7949867   -8.946215785E-19
 62.92202   -8.946378119E-19
 63.0490532   -8.946542521E-19
 63.1760864   -8.946682108E-19
 63.3031197   -8.946777234E-19
 63.4301491   -8.946801015E-19
 63.5571823   -8.946748282E-19
 63.6842155   -8.946601458E-19
 63.8112488   -8.946362609E-19
 63.938282   -8.946035873E-19
 64.0653152   -8.945646064E-19
 64.1923447   -8.945203522E-19
 64.3193817   -8.944744437E-19
 64.4464111   -8.944283284E-19
 64.5734482   -8.94384798E-19
 64.7004776   -8.943465409E-19
 64.827507   -8.943160386E-19
 64.9545441   -8.942941183E-19
 65.0815735   -8.942817106E-19
 65.2086105   -8.942782985E-19
 65.33564   -8.942830548E-19
 65.4626694   -8.94294015E-19
 65.5897064   -8.943097314E-19
 65.7167358   -8.943266886E-19
 65.8437729   -8.943417846E-19
 65.9708023   -8.94352021E-19
 66.0978394   -8.943552263E-19
 66.2248688   -8.943496428E-19
 66.3518982   -8.943340298E-19
 66.4789352   -8.94309111E-19
 66.6059647   -8.94274266E-19
 66.7330017   -8.942314594E-19
 66.8600311   -8.94182449E-19
 66.9870682   -8.941300264E-19
 67.1140976   -8.940759495E-19
 67.241127   -8.940224929E-19
 67.3681641   -8.939720349E-19
 67.4951935   -8.939263332E-19
 67.6222305   -8.938861115E-19
 67.7492599   -8.938519903E-19
 67.876297   -8.938232458E-19
 68.0033264   -8.937996711E-19
 68.1303558   -8.937800256E-19
 68.2573929   -8.937628616E-19
 68.3844223   -8.93746835E-19
 68.5114594   -8.937292574E-19
 68.6384888   -8.937094051E-19
 68.7655182   -8.93685727E-19
 68.8925552   -8.936578097E-19
 69.0195847   -8.936250326E-19
 69.1466217   -8.935868789E-19
 69.2736511   -8.935450029E-19
 69.4006882   -8.934993012E-19
 69.5277176   -8.934504975E-19
 69.654747   -8.934008667E-19
 69.7817841   -8.933517528E-19
 69.9088135   -8.933028458E-19
 70.0358505   -8.932564203E-19
 70.1628799   -8.932132001E-19
 70.289917   -8.931730818E-19
 70.4169464   -8.931366859E-19
 70.5439758   -8.931035987E-19
 70.6710129   -8.930730964E-19
 70.7980423   -8.930452824E-19
 70.9250793   -8.930200534E-19
 71.0521088   -8.929958584E-19
 71.1791458   -8.929731109E-19
 71.3061752   -8.929509838E-19
 71.4332047   -8.929297873E-19
 71.5602417   -8.929086942E-19
 71.6872711   -8.928878079E-19
 71.8143082   -8.928673352E-19
 71.9413376   -8.928467591E-19
 72.068367   -8.928266999E-19
 72.1954041   -8.92806434E-19
 72.3224335   -8.927857545E-19
 72.4494705   -8.927651784E-19
 72.5764999   -8.927437751E-19
 72.703537   -8.927227854E-19
 72.8305664   -8.927017957E-19
 72.9575958   -8.926799788E-19
 73.0846329   -8.926573347E-19
 73.2116623   -8.926340703E-19
 73.3386993   -8.926109092E-19
 73.4657288   -8.925866108E-19
 73.5927658   -8.925612784E-19
 73.7197952   -8.925356358E-19
 73.8468246   -8.925097864E-19
 73.9738617   -8.924837302E-19
 74.1008911   -8.924579842E-19
 74.2279282   -8.924330654E-19
 74.3549576   -8.924082499E-19
 74.481987   -8.923848821E-19
 74.609024   -8.92363272E-19
 74.7360535   -8.923423857E-19
 74.8630905   -8.923223266E-19
 74.9901199   -8.923019572E-19
 75.117157   -8.922807607E-19
 75.2441864   -8.922579099E-19
 75.3712158   -8.922324741E-19
 75.4982529   -8.922037295E-19
 75.6252823   -8.921712627E-19
 75.7523193   -8.921345566E-19
 75.8793488   -8.920934043E-19
 76.0063858   -8.920487366E-19
 76.1334152   -8.920016907E-19
 76.2604446   -8.919524734E-19
 76.3874817   -8.919032562E-19
 76.5145111   -8.918548661E-19
 76.6415482   -8.918086474E-19
 76.7685776   -8.917660476E-19
 76.8956146   -8.917277905E-19
 77.022644   -8.916951169E-19
 77.1496735   -8.916674063E-19
 77.2767105   -8.91645486E-19
 77.4037399   -8.916282186E-19
 77.530777   -8.916149837E-19
 77.6578064   -8.91604644E-19
 77.7848358   -8.915959586E-19
 77.9118729   -8.915875834E-19
 78.0389023   -8.91577864E-19
 78.1659393   -8.915660767E-19
 78.2929688   -8.915508772E-19
 78.4200058   -8.915320589E-19
 78.5470352   -8.915093114E-19
 78.6740646   -8.914826348E-19
 78.8011017   -8.914518224E-19
 78.9281311   -8.914178046E-19
 79.0551682   -8.913812018E-19
 79.1821976   -8.913440821E-19
 79.3092346   -8.913064454E-19
 79.436264   -8.912696358E-19
 79.5632935   -8.912346875E-19
 79.6903305   -8.912017036E-19
 79.8173599   -8.911722353E-19
 79.944397   -8.911457655E-19
 80.0714264   -8.911230181E-19
 80.1984634   -8.911026487E-19
 80.3254929   -8.91084244E-19
 80.4525223   -8.91066563E-19
 80.5795593   -8.91048882E-19
 80.7065887   -8.910302704E-19
 80.8336258   -8.910088671E-19
 80.9606552   -8.909846721E-19
 81.0876846   -8.909573752E-19
 81.2147217   -8.909266661E-19
 81.3417511   -8.908918211E-19
 81.4687881   -8.90854081E-19
 81.5958176   -8.908138593E-19
 81.7228546   -8.907722935E-19
 81.849884   -8.907301073E-19
 81.9769135   -8.906880245E-19
 82.1039505   -8.906473892E-19
 82.2309799   -8.906086151E-19
 82.358017   -8.90571909E-19
 82.4850464   -8.905376844E-19
 82.6120834   -8.905067685E-19
 82.7391129   -8.904776104E-19
 82.8661423   -8.904503134E-19
 82.9931793   -8.904238437E-19
 83.1202087   -8.903979943E-19
 83.2472458   -8.903708007E-19
 83.3742752   -8.903418494E-19
 83.5013123   -8.903104165E-19
 83.6283417   -8.902759851E-19
 83.7553711   -8.902378314E-19
 83.8824081   -8.901964724E-19
 84.0094376   -8.901523216E-19
 84.1364746   -8.901064131E-19
 84.263504   -8.900592638E-19
 84.3905334   -8.900123213E-19
 84.5175705   -8.89966206E-19
 84.6445999   -8.899213314E-19
 84.771637   -8.898790418E-19
 84.8986664   -8.898394406E-19
 85.0257034   -8.898018038E-19
 85.1527328   -8.897661317E-19
 85.2797623   -8.897314935E-19
 85.4067993   -8.896972689E-19
 85.5338287   -8.896631477E-19
 85.6608658   -8.896277857E-19
 85.7878952   -8.895915966E-19
 85.9149323   -8.895539598E-19
 86.0419617   -8.895148756E-19
 86.1689911   -8.894740335E-19
 86.2960281   -8.894316405E-19
 86.4230576   -8.893884203E-19
 86.5500946   -8.893449933E-19
 86.677124   -8.89301463E-19
 86.8041611   -8.892595869E-19
 86.9311905   -8.892188483E-19
 87.0582199   -8.891801776E-19
 87.185257   -8.891441953E-19
 87.3122864   -8.891109012E-19
 87.4393234   -8.890800888E-19
 87.5663528   -8.890524816E-19
 87.6933823   -8.890277696E-19
 87.8204193   -8.890054357E-19
 87.9474487   -8.889850664E-19
 88.0744858   -8.88965214E-19
 88.2015152   -8.889466025E-19
 88.3285522   -8.889275773E-19
 88.4555817   -8.889075182E-19
 88.5826111   -8.888859081E-19
 88.7096481   -8.888623335E-19
 88.8366776   -8.888357603E-19
 88.9637146   -8.888063954E-19
 89.090744   -8.887745489E-19
 89.2177811   -8.887396005E-19
 89.3448105   -8.887028944E-19
 89.4718399   -8.886645339E-19
 89.598877   -8.886251394E-19
 89.7259064   -8.885860551E-19
 89.8529434   -8.885475912E-19
 89.9799728   -8.885107817E-19
 90.1070099   -8.884764537E-19
 90.2340393   -8.884440903E-19
 90.3610687   -8.884143118E-19
 90.4881058   -8.883875318E-19
 90.6151352   -8.883627164E-19
 90.7421722   -8.883397621E-19
 90.8692017   -8.883172214E-19
 90.9962311   -8.882937502E-19
 91.1232681   -8.882690382E-19
 91.2502975   -8.882412242E-19
 91.3773346   -8.882098947E-19
 91.504364   -8.881744294E-19
 91.6314011   -8.881341043E-19
 91.7584305   -8.880898502E-19
 91.8854599   -8.880410465E-19
 92.0124969   -8.879889341E-19
 92.1395264   -8.879349606E-19
 92.2665634   -8.878795395E-19
 92.3935928   -8.878246354E-19
 92.5206299   -8.877708686E-19
 92.6476593   -8.877203072E-19
 92.7746887   -8.876741919E-19
 92.9017258   -8.876332465E-19
 93.0287552   -8.875971607E-19
 93.1557922   -8.875664516E-19
 93.2828217   -8.87541843E-19
 93.4098587   -8.875211635E-19
 93.5368881   -8.875052403E-19
 93.6639175   -8.874928326E-19
 93.7909546   -8.874821826E-19
 93.917984   -8.874718428E-19
 94.0450211   -8.874612963E-19
 94.1720505   -8.874493022E-19
 94.2990799   -8.874353435E-19
 94.4261169   -8.874184897E-19
 94.5531464   -8.873987408E-19
 94.6801834   -8.873758899E-19
 94.8072128   -8.873494201E-19
 94.9342499   -8.87320262E-19
 95.0612793   -8.872887257E-19
 95.1883087   -8.872556385E-19
 95.3153458   -8.872220343E-19
 95.4423752   -8.871880165E-19
 95.5694122   -8.871559633E-19
 95.6964417   -8.871255644E-19
 95.8234787   -8.870978538E-19
 95.9505081   -8.870727282E-19
 96.0775375   -8.870517385E-19
 96.2045746   -8.870334371E-19
 96.331604   -8.870189615E-19
 96.4586411   -8.870071741E-19
 96.5856705   -8.869978684E-19
 96.7126999   -8.869893898E-19
 96.8397369   -8.869815315E-19
 96.9667664   -8.869736733E-19
 97.0938034   -8.869643675E-19
 97.2208328   -8.869532006E-19
 97.3478699   -8.869399657E-19
 97.4748993   -8.869239391E-19
 97.6019287   -8.869040868E-19
 97.7289658   -8.868806155E-19
 97.8559952   -8.868526982E-19
 97.9830322   -8.868216789E-19
 98.1100616   -8.867863169E-19
 98.2370987   -8.867479564E-19
 98.3641281   -8.86707528E-19
 98.4911575   -8.866652384E-19
 98.6181946   -8.866226386E-19
 98.745224   -8.865809693E-19
 98.872261   -8.865407477E-19
 98.9992905   -8.86503111E-19
 99.1263275   -8.864684728E-19
 99.2533569   -8.864383841E-19
 99.3803864   -8.864120177E-19
 99.5074234   -8.863902008E-19
 99.6344528   -8.86371796E-19
 99.7614899   -8.863569068E-19
 99.8885193   -8.863438787E-19
 100.015549   -8.86331988E-19
 100.142586   -8.863199938E-19
 100.269615   -8.863063454E-19
 100.396652   -8.862903187E-19
 100.523682   -8.862716038E-19
 100.650719   -8.862486495E-19
 100.777748   -8.862207322E-19
 100.904778   -8.861884721E-19
 101.031815   -8.86151766E-19
 101.158844   -8.861122681E-19
 101.285881   -8.860700819E-19
 101.41291   -8.860270685E-19
 101.539948   -8.859845721E-19
 101.666977   -8.859444538E-19
 101.794006   -8.859077477E-19
 101.921043   -8.858759013E-19
 102.048073   -8.858498451E-19
 102.17511   -8.858300961E-19
 102.302139   -8.858169646E-19
 102.429176   -8.858102438E-19
 102.556206   -8.858081758E-19
 102.683235   -8.858107608E-19
 102.810272   -8.858150001E-19
 102.937302   -8.85818619E-19
 103.064339   -8.858198598E-19
 103.191368   -8.858166544E-19
 103.318398   -8.858069351E-19
 103.445435   -8.857894609E-19
 103.572464   -8.857629911E-19
 103.699501   -8.857277325E-19
 103.82653   -8.856835818E-19
 103.953568   -8.85630849E-19
 104.080597   -8.85570775E-19
 104.207626   -8.85504187E-19
 104.334663   -8.854332562E-19
 104.461693   -8.853602575E-19
 104.58873   -8.852866385E-19
 104.715759   -8.852142602E-19
 104.842796   -8.85145811E-19
 104.969826   -8.85082635E-19
 105.096855   -8.850253528E-19
 105.223892   -8.849749982E-19
 105.350922   -8.849318814E-19
 105.477959   -8.848955888E-19
 105.604988   -8.848664307E-19
 105.732025   -8.848431663E-19
 105.859055   -8.848255887E-19
 105.986084   -8.84813181E-19
 106.113121   -8.848056329E-19
 106.24015   -8.848024276E-19
 106.367188   -8.848029446E-19
 106.494217   -8.848072873E-19
 106.621246   -8.848156625E-19
 106.748283   -8.848284838E-19
 106.875313   -8.848460614E-19
 107.00235   -8.848679817E-19
 107.129379   -8.84894865E-19
 107.256416   -8.849269183E-19
 107.383446   -8.849624871E-19
 107.510475   -8.850018815E-19
 107.637512   -8.850430338E-19
 107.764542   -8.850850132E-19
 107.891579   -8.851261654E-19
 108.018608   -8.851640089E-19
 108.145645   -8.85196786E-19
 108.272675   -8.852217048E-19
 108.399704   -8.852355601E-19
 108.526741   -8.852362838E-19
 108.65377   -8.85221498E-19
 108.780807   -8.851892379E-19
 108.907837   -8.851379527E-19
 109.034874   -8.850669186E-19
 109.161903   -8.849749982E-19
 109.288933   -8.84863122E-19
 109.41597   -8.847314969E-19
 109.542999   -8.845820874E-19
 109.670036   -8.844151003E-19
 109.797066   -8.842335341E-19
 109.924095   -8.840383195E-19
 110.051132   -8.83831938E-19
 110.178162   -8.836154234E-19
 110.305199   -8.833900167E-19
 110.432228   -8.831558212E-19
 110.559265   -8.829136641E-19
 110.686295   -8.826623046E-19
 110.813324   -8.824007087E-19
 110.940361   -8.821272221E-19
 111.06739   -8.818390531E-19
 111.194427   -8.815338234E-19
 111.321457   -8.812080177E-19
 111.448494   -8.808589474E-19
 111.575523   -8.804828905E-19
 111.702553   -8.800764346E-19
 111.82959   -8.796377187E-19
 111.956619   -8.791638476E-19
 112.083656   -8.786539941E-19
 112.210686   -8.78105987E-19
 112.337723   -8.775201363E-19
 112.464752   -8.768963387E-19
 112.591782   -8.762345942E-19
 112.718819   -8.755349028E-19
 112.845848   -8.747972645E-19
 112.972885   -8.740210589E-19
 113.099915   -8.732061826E-19
 113.226944   -8.723508779E-19
 113.353981   -8.714530767E-19
 113.48101   -8.705094704E-19
 113.608047   -8.695167503E-19
 113.735077   -8.684714008E-19
 113.862114   -8.673683554E-19
 113.989143   -8.662035817E-19
 114.116173   -8.649729438E-19
 114.24321   -8.63671737E-19
 114.370239   -8.622959288E-19
 114.497276   -8.608447438E-19
 114.624306   -8.593179752E-19
 114.751343   -8.577174841E-19
 114.878372   -8.560462691E-19
 115.005402   -8.543131706E-19
 115.132439   -8.525267707E-19
 115.259468   -8.507009246E-19
 115.386505   -8.488525378E-19
 115.513535   -8.469999634E-19
 115.640572   -8.451667761E-19
 115.767601   -8.433768606E-19
 115.89463   -8.416564801E-19
 116.021667   -8.400337585E-19
 116.148697   -8.38535114E-19