-7.200000 -1.6258475E-18
-7.057088 -1.6414761E-18
-6.914176 -1.6717555E-18
-6.771265 -1.7150978E-18
-6.628353 -1.7693718E-18
-6.485441 -1.8319993E-18
-6.342530 -1.9000663E-18
-6.199618 -1.9704590E-18
-6.056706 -2.0400067E-18
-5.913795 -2.1056340E-18
-5.770883 -2.1645123E-18
-5.627971 -2.2141960E-18
-5.485059 -2.2527476E-18
-5.342147 -2.2788352E-18
-5.199236 -2.2917998E-18
-5.056324 -2.2916838E-18
-4.913413 -2.2792257E-18
-4.770501 -2.2558129E-18
-4.627589 -2.2234028E-18
-4.484677 -2.1844090E-18
-4.341765 -2.1415696E-18
-4.198854 -2.0977954E-18
-4.055942 -2.0560155E-18
-3.913030 -2.0190240E-18
-3.770118 -1.9893417E-18
-3.627207 -1.9690902E-18
-3.484295 -1.9598971E-18
-3.341383 -1.9628274E-18
-3.198472 -1.9783453E-18
-3.055560 -2.0063065E-18
-2.912648 -2.0459781E-18
-2.769737 -2.0960883E-18
-2.626825 -2.1548946E-18
-2.483913 -2.2202698E-18
-2.341001 -2.2898032E-18
-2.198090 -2.3609089E-18
-2.055178 -2.4309411E-18
-1.912266 -2.4973069E-18
-1.769354 -2.5575798E-18
-1.626443 -2.6096072E-18
-1.483531 -2.6516060E-18
-1.340619 -2.6822506E-18
-1.197708 -2.7007379E-18
-1.054796 -2.7068342E-18
-0.9118841 -2.7008986E-18
-0.7689723 -2.6838777E-18
-0.6260606 -2.6572691E-18
-0.4831489 -2.6230561E-18
-0.3402372 -2.5836172E-18
-0.1973254 -2.5416051E-18
-5.4413714E-02 -2.4998124E-18
8.8498011E-02 -2.4610244E-18
0.2314097 -2.4278715E-18
0.3743215 -2.4026836E-18
0.5172332 -2.3873702E-18
0.6601449 -2.3833146E-18
0.8030567 -2.3913035E-18
0.9459684 -2.4114889E-18
1.088880 -2.4433857E-18
1.231792 -2.4859017E-18
1.374704 -2.5374036E-18
1.517615 -2.5958063E-18
1.660527 -2.6586859E-18
1.803439 -2.7234035E-18
1.946350 -2.7872430E-18
2.089262 -2.8475434E-18
2.232174 -2.9018304E-18
2.375086 -2.9479360E-18
2.517997 -2.9840991E-18
2.660909 -3.0090527E-18
2.803821 -3.0220791E-18
2.946733 -3.0230519E-18
3.089644 -3.0124390E-18
3.232556 -2.9912847E-18
3.375468 -2.9611664E-18
3.518379 -2.9241209E-18
3.661291 -2.8825520E-18
3.804203 -2.8391132E-18
3.947115 -2.7965804E-18
4.090026 -2.7577116E-18
4.232938 -2.7251039E-18
4.375850 -2.7010561E-18
4.518762 -2.6874438E-18
4.661673 -2.6856118E-18
4.804585 -2.6962988E-18
4.947497 -2.7195875E-18
5.090408 -2.7548986E-18
5.233320 -2.8010180E-18
5.376232 -2.8561604E-18
5.519144 -2.9180676E-18
5.662055 -2.9841339E-18
5.804967 -3.0515425E-18
5.947879 -3.1174223E-18
6.090790 -3.1789951E-18
6.233702 -3.2337181E-18
6.376614 -3.2794063E-18
6.519526 -3.3143367E-18
6.662437 -3.3373208E-18
6.805349 -3.3477513E-18
6.948261 -3.3456188E-18
7.091173 -3.3315013E-18
7.234084 -3.3065269E-18
7.376996 -3.2723182E-18
7.519908 -3.2309152E-18
7.662819 -3.1846824E-18
7.805731 -3.1362067E-18
7.948643 -3.0881847E-18
8.091555 -3.0433087E-18
8.234467 -3.0041438E-18
8.377378 -2.9730180E-18
8.520289 -2.9519104E-18
8.663201 -2.9423561E-18
8.806113 -2.9453660E-18
8.949025 -2.9613666E-18
9.091937 -2.9901688E-18
9.234848 -3.0309616E-18
9.377760 -3.0823382E-18
9.520672 -3.1423537E-18
9.663584 -3.2086135E-18
9.806496 -3.2783866E-18
9.949407 -3.3487396E-18
10.09232 -3.4166861E-18
10.23523 -3.4793404E-18
10.37814 -3.5340671E-18
10.52105 -3.5786195E-18
10.66397 -3.6112547E-18
10.80688 -3.6308253E-18
10.94979 -3.6368303E-18
11.09270 -3.6294382E-18
11.23561 -3.6094700E-18
11.37852 -3.5783519E-18
11.52144 -3.5380343E-18
11.66435 -3.4908920E-18
11.80726 -3.4396019E-18
11.95017 -3.3870143E-18
12.09308 -3.3360155E-18
12.23599 -3.2893958E-18
12.37891 -3.2497223E-18
12.52182 -3.2192227E-18
12.66473 -3.1996874E-18
12.80764 -3.1923843E-18
12.95055 -3.1980012E-18
13.09346 -3.2166101E-18
13.23638 -3.2476548E-18
13.37929 -3.2899732E-18
13.52220 -3.3418411E-18
13.66511 -3.4010519E-18
13.80802 -3.4650143E-18
13.95094 -3.5308779E-18
14.09385 -3.5956760E-18
14.23676 -3.6564754E-18
14.37967 -3.7105292E-18
14.52258 -3.7554231E-18
14.66549 -3.7892060E-18
14.80841 -3.8104931E-18
14.95132 -3.8185407E-18
15.09423 -3.8132865E-18
15.23714 -3.7953470E-18
15.38005 -3.7659800E-18
15.52296 -3.7270099E-18
15.66588 -3.6807271E-18
15.80879 -3.6297558E-18
15.95170 -3.5769147E-18
16.09461 -3.5250686E-18
16.23752 -3.4769788E-18
16.38043 -3.4351682E-18
16.52335 -3.4018053E-18
16.66626 -3.3786037E-18
16.80917 -3.3667535E-18
16.95208 -3.3668786E-18
17.09499 -3.3790202E-18
17.23791 -3.4026461E-18
17.38082 -3.4366892E-18
17.52373 -3.4796006E-18
17.66664 -3.5294271E-18
17.80955 -3.5838977E-18
17.95246 -3.6405307E-18
18.09538 -3.6967409E-18
18.23829 -3.7499571E-18
18.38120 -3.7977409E-18
18.52411 -3.8378984E-18
18.66702 -3.8685905E-18
18.80993 -3.8884226E-18
18.95285 -3.8965232E-18
19.09576 -3.8925928E-18
19.23867 -3.8769298E-18
19.38158 -3.8504236E-18
19.52449 -3.8145173E-18
19.66740 -3.7711383E-18
19.81032 -3.7226023E-18
19.95323 -3.6714953E-18
20.09614 -3.6205373E-18
20.23905 -3.5724392E-18
20.38196 -3.5297633E-18
20.52488 -3.4947885E-18
20.66779 -3.4693932E-18
20.81070 -3.4549628E-18
20.95361 -3.4523231E-18
21.09652 -3.4617074E-18
21.23943 -3.4827488E-18
21.38235 -3.5145072E-18
21.52526 -3.5555246E-18
21.66817 -3.6038981E-18
21.81108 -3.6573783E-18
21.95399 -3.7134781E-18
22.09690 -3.7695936E-18
22.23981 -3.8231242E-18
22.38273 -3.8715932E-18
22.52564 -3.9127653E-18
22.66855 -3.9447507E-18
22.81146 -3.9660953E-18
22.95437 -3.9758535E-18
23.09729 -3.9736371E-18
23.24020 -3.9596433E-18
23.38311 -3.9346529E-18
23.52602 -3.9000023E-18
23.66893 -3.8575254E-18
23.81184 -3.8094703E-18
23.95476 -3.7583915E-18
24.09767 -3.7070232E-18
24.24058 -3.6581368E-18
24.38349 -3.6143975E-18
24.52640 -3.5782183E-18
24.66932 -3.5516307E-18
24.81223 -3.5361698E-18
24.95514 -3.5327920E-18
25.09805 -3.5418224E-18
25.24096 -3.5629399E-18
25.38387 -3.5951978E-18
25.52678 -3.6370813E-18
25.66970 -3.6865968E-18
25.81261 -3.7413818E-18
25.95552 -3.7988390E-18
26.09843 -3.8562693E-18
26.24134 -3.9110158E-18
26.38426 -3.9605912E-18
26.52717 -4.0027973E-18
26.67008 -4.0358229E-18
26.81299 -4.0583189E-18
26.95590 -4.0694527E-18
27.09881 -4.0689333E-18
27.24173 -4.0570165E-18
27.38464 -4.0344849E-18
27.52755 -4.0026066E-18
27.67046 -3.9630773E-18
27.81337 -3.9179406E-18
27.95629 -3.8694980E-18
28.09920 -3.8202075E-18
28.24211 -3.7725689E-18
28.38502 -3.7290121E-18
28.52793 -3.6917807E-18
28.67084 -3.6628236E-18
28.81376 -3.6436992E-18
28.95667 -3.6354923E-18
29.09958 -3.6387568E-18
29.24249 -3.6534802E-18
29.38540 -3.6790814E-18
29.52831 -3.7144318E-18
29.67122 -3.7579101E-18
29.81414 -3.8074822E-18
29.95705 -3.8608043E-18
30.09996 -3.9153407E-18
30.24287 -3.9684966E-18
30.38578 -4.0177490E-18
30.52870 -4.0607769E-18
30.67161 -4.0955776E-18
30.81452 -4.1205675E-18
30.95743 -4.1346557E-18
31.10034 -4.1372969E-18
31.24325 -4.1285110E-18
31.38617 -4.1088778E-18
31.52908 -4.0795055E-18
31.67199 -4.0419709E-18
31.81490 -3.9982433E-18
31.95781 -3.9505902E-18
32.10072 -3.9014730E-18
32.24364 -3.8534292E-18
32.38655 -3.8089583E-18
32.52946 -3.7704038E-18
32.67237 -3.7398424E-18
32.81528 -3.7189842E-18
32.95819 -3.7090849E-18
33.10111 -3.7108799E-18
33.24402 -3.7245375E-18
33.38693 -3.7496420E-18
33.52984 -3.7852062E-18
33.67275 -3.8297102E-18
33.81567 -3.8811728E-18
33.95858 -3.9372474E-18
34.10149 -3.9953411E-18
34.24440 -4.0527499E-18
34.38731 -4.1068008E-18
34.53022 -4.1549932E-18
34.67313 -4.1951321E-18
34.81605 -4.2254474E-18
34.95896 -4.2446814E-18
35.10187 -4.2521559E-18
35.24478 -4.2478020E-18
35.38770 -4.2321534E-18
35.53061 -4.2063131E-18
35.67352 -4.1718846E-18
35.81643 -4.1308784E-18
35.95934 -4.0856006E-18
36.10225 -4.0385298E-18
36.24516 -3.9921870E-18
36.38808 -3.9490095E-18
36.53099 -3.9112342E-18
36.67390 -3.8807981E-18
36.81681 -3.8592542E-18
36.95972 -3.8477075E-18
37.10263 -3.8467819E-18
37.24555 -3.8566002E-18
37.38846 -3.8767879E-18
37.53137 -3.9064986E-18
37.67428 -3.9444550E-18
37.81719 -3.9890036E-18
37.96011 -4.0381886E-18
38.10302 -4.0898316E-18
38.24593 -4.1416280E-18
38.38884 -4.1912423E-18
38.53175 -4.2364192E-18
38.67466 -4.2750870E-18
38.81758 -4.3054606E-18
38.96049 -4.3261331E-18
39.10340 -4.3361552E-18
39.24631 -4.3350910E-18
39.38922 -4.3230514E-18
39.53214 -4.3006981E-18
39.67505 -4.2692177E-18
39.81796 -4.2302703E-18
39.96087 -4.1859057E-18
40.10378 -4.1384640E-18
40.24669 -4.0904528E-18
40.38961 -4.0444235E-18
40.53252 -4.0028366E-18
40.67543 -3.9679358E-18
40.81834 -3.9416356E-18
40.96125 -3.9254261E-18
41.10416 -3.9202988E-18
41.24707 -3.9266983E-18
41.38999 -3.9445088E-18
41.53290 -3.9730597E-18
41.67581 -4.0111655E-18
41.81872 -4.0571857E-18
41.96163 -4.1091065E-18
42.10455 -4.1646410E-18
42.24746 -4.2213351E-18
42.39037 -4.2766863E-18
42.53328 -4.3282565E-18
42.67619 -4.3737895E-18
42.81910 -4.4113137E-18
42.96202 -4.4392364E-18
43.10493 -4.4564244E-18
43.24784 -4.4622630E-18
43.39075 -4.4566907E-18
43.53366 -4.4402137E-18
43.67657 -4.4138866E-18
43.81948 -4.3792683E-18
43.96240 -4.3383497E-18
44.10531 -4.2934545E-18
44.24822 -4.2471187E-18
44.39113 -4.2019576E-18
44.53405 -4.1605253E-18
44.67696 -4.1251733E-18
44.81987 -4.0979251E-18
44.96278 -4.0803678E-18
45.10569 -4.0735663E-18
45.24860 -4.0780161E-18
45.39151 -4.0936213E-18
45.53443 -4.1197127E-18
45.67734 -4.1550945E-18
45.82025 -4.1981145E-18
45.96316 -4.2467639E-18
46.10608 -4.2987832E-18
46.24899 -4.3517815E-18
46.39190 -4.4033541E-18
46.53481 -4.4511962E-18
46.67772 -4.4932083E-18
46.82063 -4.5275830E-18
46.96354 -4.5528803E-18
47.10646 -4.5680843E-18
47.24937 -4.5726371E-18
47.39228 -4.5664605E-18
47.53519 -4.5499533E-18
47.67810 -4.5239757E-18
47.82101 -4.4898156E-18
47.96392 -4.4491382E-18
48.10684 -4.4039195E-18
48.24975 -4.3563678E-18
48.39266 -4.3088322E-18
48.53557 -4.2636967E-18
48.67849 -4.2232748E-18
48.82140 -4.1896917E-18
48.96431 -4.1647795E-18
49.10722 -4.1499771E-18
49.25013 -4.1462490E-18
49.39304 -4.1540233E-18
49.53595 -4.1731626E-18
49.67887 -4.2029626E-18
49.82178 -4.2421850E-18
49.96469 -4.2891205E-18
50.10760 -4.3416800E-18
50.25051 -4.3975064E-18
50.39342 -4.4540988E-18
50.53634 -4.5089454E-18
50.67925 -4.5596520E-18
50.82216 -4.6040588E-18
50.96507 -4.6403463E-18
51.10798 -4.6671139E-18
51.25090 -4.6834404E-18
51.39381 -4.6889142E-18
51.53672 -4.6836443E-18
51.67963 -4.6682430E-18
51.82254 -4.6437899E-18
51.96545 -4.6117755E-18
52.10837 -4.5740280E-18
52.25128 -4.5326284E-18
52.39419 -4.4898119E-18
52.53710 -4.4478680E-18
52.68001 -4.4090307E-18
52.82293 -4.3753727E-18
52.96584 -4.3487064E-18
53.10875 -4.3304899E-18
53.25166 -4.3217515E-18
53.39457 -4.3230324E-18
53.53748 -4.3343524E-18
53.68040 -4.3552035E-18
53.82331 -4.3845701E-18
53.96622 -4.4209813E-18
54.10913 -4.4625873E-18
54.25204 -4.5072592E-18
54.39495 -4.5527074E-18
54.53786 -4.5966087E-18
54.68078 -4.6367345E-18
54.82369 -4.6710744E-18
54.96660 -4.6979438E-18
55.10951 -4.7160710E-18
55.25242 -4.7246584E-18
55.39534 -4.7234184E-18
55.53825 -4.7125737E-18
55.68116 -4.6928400E-18
55.82407 -4.6653760E-18
55.96698 -4.6317197E-18
56.10989 -4.5937062E-18
56.25281 -4.5533774E-18
56.39572 -4.5128861E-18
56.53863 -4.4743953E-18
56.68154 -4.4399829E-18
56.82445 -4.4115502E-18
56.96737 -4.3907347E-18
57.11028 -4.3788353E-18
57.25319 -4.3767470E-18
57.39610 -4.3849138E-18
57.53901 -4.4032962E-18
57.68192 -4.4313592E-18
57.82484 -4.4680864E-18
57.96775 -4.5120142E-18
58.11066 -4.5612919E-18
58.25357 -4.6137653E-18
58.39648 -4.6670804E-18
58.53939 -4.7187986E-18
58.68230 -4.7665253E-18
58.82522 -4.8080374E-18
58.96813 -4.8414042E-18
59.11104 -4.8650934E-18
59.25395 -4.8780582E-18
59.39687 -4.8797973E-18
59.53978 -4.8703820E-18
59.68269 -4.8504552E-18
59.82560 -4.8211982E-18
59.96851 -4.7842667E-18
60.11142 -4.7417070E-18
60.25433 -4.6958493E-18
60.39725 -4.6491918E-18
60.54016 -4.6042763E-18
60.68307 -4.5635650E-18
60.82598 -4.5293226E-18
60.96889 -4.5035083E-18
61.11180 -4.4876827E-18
61.25471 -4.4829314E-18
61.39763 -4.4898106E-18
61.54054 -4.5083134E-18
61.68345 -4.5378624E-18
61.82636 -4.5773255E-18
61.96928 -4.6250592E-18
62.11219 -4.6789773E-18
62.25510 -4.7366426E-18
62.39801 -4.7953819E-18
62.54092 -4.8524131E-18
62.68383 -4.9049887E-18
62.82674 -4.9505391E-18
62.96966 -4.9868097E-18
63.11257 -5.0119911E-18
63.25548 -5.0248178E-18
63.39839 -5.0246462E-18
63.54131 -5.0114944E-18
63.68422 -4.9860437E-18
63.82713 -4.9496060E-18
63.97004 -4.9040519E-18
64.11295 -4.8517084E-18
64.25586 -4.7952359E-18
64.39877 -4.7374875E-18
64.54169 -4.6813613E-18
64.68460 -4.6296546E-18
64.82751 -4.5849310E-18
64.97042 -4.5494016E-18
65.11333 -4.5248256E-18
65.25625 -4.5124411E-18
65.39915 -4.5129142E-18
65.54207 -4.5263203E-18
65.68498 -4.5521478E-18
65.82789 -4.5893263E-18
65.97080 -4.6362750E-18
66.11372 -4.6909735E-18
66.25663 -4.7510496E-18
66.39954 -4.8138797E-18
66.54245 -4.8767062E-18
66.68536 -4.9367566E-18
66.82828 -4.9913753E-18
66.97118 -5.0381449E-18
67.11410 -5.0750087E-18
67.25701 -5.1003733E-18
67.39992 -5.1131950E-18
67.54283 -5.1130383E-18
67.68575 -5.1001053E-18
67.82866 -5.0752316E-18
67.97157 -5.0398456E-18
68.11448 -4.9958988E-18
68.25739 -4.9457613E-18
68.40031 -4.8920983E-18
68.54321 -4.8377294E-18
68.68613 -4.7854781E-18
68.82904 -4.7380285E-18
68.97195 -4.6977878E-18
69.11486 -4.6667681E-18
69.25777 -4.6464944E-18
69.40069 -4.6379384E-18
69.54359 -4.6414808E-18
69.68651 -4.6569086E-18
69.82942 -4.6834371E-18
69.97233 -4.7197582E-18
70.11524 -4.7641116E-18
70.25816 -4.8143727E-18
70.40107 -4.8681552E-18
70.54398 -4.9229220E-18
70.68689 -4.9761027E-18
70.82980 -5.0252111E-18
70.97272 -5.0679623E-18
71.11562 -5.1023817E-18
71.25854 -5.1269002E-18
71.40145 -5.1404403E-18
71.54436 -5.1424723E-18
71.68727 -5.1330523E-18
71.83018 -5.1128290E-18
71.97310 -5.0830166E-18
72.11600 -5.0453393E-18
72.25892 -5.0019409E-18
72.40183 -4.9552718E-18
72.54475 -4.9079533E-18
72.68765 -4.8626288E-18
72.83057 -4.8218132E-18
72.97348 -4.7877499E-18
73.11639 -4.7622848E-18
73.25930 -4.7467644E-18
73.40221 -4.7419680E-18
73.54513 -4.7480734E-18
73.68803 -4.7646600E-18
73.83095 -4.7907485E-18
73.97386 -4.8248651E-18
74.11678 -4.8651372E-18
74.25968 -4.9094009E-18
74.40260 -4.9553160E-18
74.54551 -5.0004921E-18
74.68842 -5.0425989E-18
74.83133 -5.0794775E-18
74.97424 -5.1092349E-18
75.11716 -5.1303259E-18
75.26006 -5.1416190E-18
75.40298 -5.1424470E-18
75.54589 -5.1326383E-18
75.68880 -5.1125341E-18
75.83171 -5.0829785E-18
75.97462 -5.0452980E-18
76.11754 -5.0012494E-18
76.26044 -4.9529528E-18
76.40336 -4.9027963E-18
76.54627 -4.8533267E-18
76.68919 -4.8071208E-18
76.83209 -4.7666469E-18
76.97501 -4.7341267E-18
77.11792 -4.7113995E-18
77.26083 -4.6998086E-18
77.40374 -4.7001056E-18
77.54665 -4.7123963E-18
77.68957 -4.7361152E-18
77.83247 -4.7700516E-18
77.97539 -4.8124102E-18
78.11830 -4.8609095E-18
78.26122 -4.9129148E-18
78.40412 -4.9655884E-18
78.54704 -5.0160530E-18
78.68995 -5.0615562E-18
78.83286 -5.0996198E-18
78.97577 -5.1281765E-18
79.11868 -5.1456722E-18
79.26160 -5.1511436E-18
79.40450 -5.1442569E-18
79.54742 -5.1253161E-18
79.69033 -5.0952332E-18
79.83324 -5.0554793E-18
79.97615 -5.0079979E-18
80.11906 -4.9551109E-18
80.26198 -4.8993999E-18
80.40488 -4.8435821E-18
80.54780 -4.7903816E-18
80.69071 -4.7423973E-18
80.83363 -4.7019820E-18
80.97653 -4.6711274E-18
81.11945 -4.6513673E-18
81.26236 -4.6437006E-18
81.40527 -4.6485396E-18
81.54818 -4.6656845E-18
81.69109 -4.6943286E-18
81.83401 -4.7330948E-18
81.97691 -4.7800997E-18
82.11983 -4.8330447E-18
82.26274 -4.8893285E-18
82.40565 -4.9461765E-18
82.54856 -5.0007779E-18
82.69147 -5.0504277E-18
82.83439 -5.0926574E-18
82.97730 -5.1253567E-18
83.12021 -5.1468799E-18
83.26312 -5.1561207E-18
83.40604 -5.1525664E-18
83.54894 -5.1363189E-18
83.69186 -5.1080901E-18
83.83477 -5.0691650E-18
83.97768 -5.0213408E-18
84.12059 -4.9668420E-18
84.26350 -4.9082160E-18
84.40642 -4.8482123E-18
84.54933 -4.7896529E-18
84.69224 -4.7352984E-18
84.83515 -4.6877124E-18
84.97807 -4.6491355E-18
85.12097 -4.6213729E-18
85.26389 -4.6056941E-18
85.40680 -4.6027700E-18
85.54971 -4.6126254E-18
85.69262 -4.6346355E-18
85.83553 -4.6675511E-18
85.97845 -4.7095594E-18
86.12135 -4.7583805E-18
86.26427 -4.8113808E-18
86.40718 -4.8657208E-18
86.55009 -4.9185011E-18
86.69300 -4.9669210E-18
86.83591 -5.0084231E-18
86.97883 -5.0408271E-18
87.12174 -5.0624392E-18
87.26465 -5.0721317E-18
87.40756 -5.0693954E-18
87.55048 -5.0543515E-18
87.69338 -5.0277411E-18
87.83630 -4.9908765E-18
87.97921 -4.9455702E-18
88.12212 -4.8940439E-18
88.26503 -4.8388167E-18
88.40794 -4.7825879E-18
88.55086 -4.7281065E-18
88.69377 -4.6780480E-18
88.83668 -4.6348849E-18
88.97959 -4.6007724E-18
89.12251 -4.5774434E-18
89.26541 -4.5661226E-18
89.40833 -4.5674577E-18
89.55124 -4.5814784E-18
89.69415 -4.6075825E-18
89.83706 -4.6445521E-18
89.97997 -4.6905988E-18
90.12289 -4.7434436E-18
90.26580 -4.8004190E-18
90.40871 -4.8586000E-18
90.55162 -4.9149492E-18
90.69453 -4.9664759E-18
90.83744 -5.0103959E-18
90.98035 -5.0442826E-18
91.12327 -5.0662066E-18
91.26618 -5.0748465E-18
91.40909 -5.0695716E-18
91.55200 -5.0504848E-18
91.69492 -5.0184287E-18
91.83783 -4.9749459E-18
91.98074 -4.9222061E-18
92.12365 -4.8628935E-18
92.26656 -4.8000658E-18
92.40947 -4.7369958E-18
92.55238 -4.6769917E-18
92.69530 -4.6232258E-18
92.83821 -4.5785597E-18
92.98112 -4.5453910E-18
93.12403 -4.5255204E-18
93.26694 -4.5200536E-18
93.40986 -4.5293366E-18
93.55276 -4.5529353E-18
93.69568 -4.5896517E-18
93.83859 -4.6375885E-18
93.98150 -4.6942458E-18
94.12441 -4.7566583E-18
94.26733 -4.8215531E-18
94.41024 -4.8855264E-18
94.55315 -4.9452261E-18
94.69606 -4.9975341E-18
94.83897 -5.0397290E-18
94.98188 -5.0696262E-18
95.12479 -5.0856892E-18
95.26771 -5.0870962E-18
95.41062 -5.0737766E-18
95.55353 -5.0463961E-18
95.69644 -5.0063138E-18
95.83936 -4.9554984E-18
95.98227 -4.8964208E-18
96.12518 -4.8319243E-18
96.26809 -4.7650860E-18
96.41100 -4.6990638E-18
96.55391 -4.6369532E-18
96.69682 -4.5816467E-18
96.83974 -4.5357001E-18
96.98265 -4.5012241E-18
97.12556 -4.4797864E-18
97.26847 -4.4723402E-18
97.41138 -4.4791781E-18
97.55430 -4.4999097E-18
97.69720 -4.5334763E-18
97.84012 -4.5781866E-18
97.98303 -4.6317904E-18
98.12594 -4.6915774E-18
98.26885 -4.7545035E-18
98.41177 -4.8173411E-18
98.55468 -4.8768393E-18
98.69759 -4.9298959E-18
98.84050 -4.9737258E-18
98.98341 -5.0060135E-18
99.12633 -5.0250486E-18
99.26923 -5.0298243E-18
99.41215 -5.0200992E-18
99.55506 -4.9964145E-18
99.69797 -4.9600624E-18
99.84088 -4.9130132E-18
99.98380 -4.8577993E-18
100.1267 -4.7973659E-18
100.2696 -4.7349026E-18
100.4125 -4.6736594E-18
100.5554 -4.6167655E-18
100.6984 -4.5670614E-18
100.8413 -4.5269519E-18
100.9842 -4.4982884E-18
101.1271 -4.4822870E-18
101.2700 -4.4794849E-18
101.4129 -4.4897333E-18
101.5558 -4.5122247E-18
101.6987 -4.5455552E-18
101.8416 -4.5878067E-18
101.9846 -4.6366567E-18
102.1275 -4.6894966E-18
102.2704 -4.7435619E-18
102.4133 -4.7960660E-18
102.5562 -4.8443311E-18
102.6991 -4.8859102E-18
102.8420 -4.9187046E-18
102.9849 -4.9410563E-18
103.1279 -4.9518291E-18
103.2708 -4.9504617E-18
103.4137 -4.9369977E-18
103.5566 -4.9120834E-18
103.6995 -4.8769398E-18
103.8424 -4.8333057E-18
103.9853 -4.7833543E-18
104.1282 -4.7295826E-18
104.2711 -4.6746855E-18
104.4141 -4.6214188E-18
104.5570 -4.5724530E-18
104.6999 -4.5302333E-18
104.8428 -4.4968495E-18
104.9857 -4.4739250E-18
105.1286 -4.4625302E-18
105.2715 -4.4631299E-18
105.4144 -4.4755567E-18
105.5574 -4.4990296E-18
105.7003 -4.5321958E-18
105.8432 -4.5732099E-18
105.9861 -4.6198339E-18
106.1290 -4.6695578E-18
106.2719 -4.7197313E-18
106.4148 -4.7677020E-18
106.5577 -4.8109478E-18
106.7006 -4.8472039E-18
106.8436 -4.8745753E-18
106.9865 -4.8916269E-18
107.1294 -4.8974552E-18
107.2723 -4.8917311E-18
107.4152 -4.8747151E-18
107.5581 -4.8472428E-18
107.7010 -4.8106864E-18
107.8439 -4.7668793E-18
107.9869 -4.7180273E-18
108.1298 -4.6665895E-18
108.2727 -4.6151517E-18
108.4156 -4.5662897E-18
108.5585 -4.5224317E-18
108.7014 -4.4857289E-18
108.8443 -4.4579427E-18
108.9872 -4.4403502E-18
109.1301 -4.4336790E-18
109.2731 -4.4380701E-18
109.4160 -4.4530735E-18
109.5589 -4.4776734E-18
109.7018 -4.5103454E-18
109.8447 -4.5491373E-18
109.9876 -4.5917726E-18
110.1305 -4.6357704E-18
110.2734 -4.6785737E-18
110.4164 -4.7176848E-18
110.5593 -4.7507952E-18
110.7022 -4.7759039E-18
110.8451 -4.7914247E-18
110.9880 -4.7962703E-18
111.1309 -4.7899080E-18
111.2738 -4.7723925E-18
111.4167 -4.7443598E-18
111.5596 -4.7069964E-18
111.7026 -4.6619738E-18
111.8455 -4.6113611E-18
111.9884 -4.5575121E-18
112.1313 -4.5029388E-18
112.2742 -4.4501779E-18
112.4171 -4.4016534E-18
112.5600 -4.3595504E-18
112.7029 -4.3256980E-18
112.8458 -4.3014794E-18
112.9888 -4.2877606E-18
113.1317 -4.2848535E-18
113.2746 -4.2925053E-18
113.4175 -4.3099224E-18
113.5604 -4.3358210E-18
113.7033 -4.3685029E-18
113.8462 -4.4059506E-18
113.9891 -4.4459403E-18
114.1321 -4.4861628E-18
114.2750 -4.5243438E-18
114.4179 -4.5583636E-18
114.5608 -4.5863695E-18
114.7037 -4.6068641E-18
114.8466 -4.6187859E-18
114.9895 -4.6215561E-18
115.1324 -4.6151086E-18
115.2754 -4.5998869E-18
115.4183 -4.5768135E-18
115.5612 -4.5472381E-18
115.7041 -4.5128555E-18
115.8470 -4.4756067E-18
115.9899 -4.4375676E-18
116.1328 -4.4008221E-18
116.2757 -4.3673461E-18
116.4186 -4.3388915E-18
116.5616 -4.3168877E-18
116.7045 -4.3023641E-18
116.8474 -4.2959017E-18
116.9903 -4.2976119E-18
117.1332 -4.3071452E-18
117.2761 -4.3237277E-18
117.4190 -4.3462245E-18
117.5619 -4.3732137E-18
117.7048 -4.4030820E-18
117.8478 -4.4341137E-18
117.9907 -4.4645878E-18
118.1336 -4.4928592E-18
118.2765 -4.5174352E-18
118.4194 -4.5370356E-18
118.5623 -4.5506382E-18
118.7052 -4.5575100E-18
118.8481 -4.5572296E-18
118.9911 -4.5496935E-18
119.1340 -4.5351145E-18
119.2769 -4.5140115E-18
119.4198 -4.4871905E-18
119.5627 -4.4557159E-18
119.7056 -4.4208684E-18
119.8485 -4.3841007E-18
119.9914 -4.3469739E-18
120.1343 -4.3110900E-18
120.2773 -4.2780139E-18
120.4202 -4.2491929E-18
120.5631 -4.2258772E-18
120.7060 -4.2090444E-18
120.8489 -4.1993387E-18
120.9918 -4.1970255E-18
121.1347 -4.2019696E-18
121.2776 -4.2136365E-18
121.4206 -4.2311190E-18
121.5635 -4.2531890E-18
121.7064 -4.2783684E-18
121.8493 -4.3050148E-18
121.9922 -4.3314159E-18
122.1351 -4.3558868E-18
122.2780 -4.3768641E-18
122.4209 -4.3929887E-18
122.5639 -4.4031771E-18
122.7068 -4.4066715E-18
122.8497 -4.4030774E-18
122.9926 -4.3923808E-18
123.1355 -4.3749430E-18
123.2784 -4.3514854E-18
123.4213 -4.3230498E-18
123.5642 -4.2909486E-18
123.7071 -4.2567000E-18
123.8501 -4.2219497E-18
123.9930 -4.1883877E-18
124.1359 -4.1576542E-18
124.2788 -4.1312485E-18
124.4217 -4.1104424E-18
124.5646 -4.0962017E-18
124.7075 -4.0891239E-18
124.8504 -4.0894023E-18
124.9933 -4.0968089E-18
125.1363 -4.1107096E-18
125.2792 -4.1301041E-18
125.4221 -4.1536936E-18
125.5650 -4.1799624E-18
125.7079 -4.2072797E-18
125.8508 -4.2339980E-18
125.9937 -4.2585545E-18
126.1366 -4.2795591E-18
126.2795 -4.2958678E-18
126.4225 -4.3066311E-18
126.5654 -4.3113266E-18
126.7083 -4.3097653E-18
126.8512 -4.3020828E-18
126.9941 -4.2887106E-18
127.1370 -4.2703369E-18
127.2799 -4.2478665E-18
127.4228 -4.2223662E-18
127.5658 -4.1950192E-18
127.7087 -4.1670725E-18
127.8516 -4.1397879E-18
127.9945 -4.1143935E-18
128.1374 -4.0920340E-18
128.2803 -4.0737222E-18
128.4232 -4.0602930E-18
128.5661 -4.0523553E-18
128.7090 -4.0502584E-18
128.8520 -4.0540556E-18
128.9949 -4.0634933E-18
129.1378 -4.0780062E-18
129.2807 -4.0967402E-18
129.4236 -4.1185910E-18
129.5665 -4.1422616E-18
129.7094 -4.1663396E-18
129.8523 -4.1893861E-18
129.9953 -4.2100288E-18
130.1382 -4.2270513E-18
130.2811 -4.2394777E-18
130.4240 -4.2466324E-18
130.5669 -4.2481825E-18
130.7098 -4.2441541E-18
130.8527 -4.2349182E-18
130.9956 -4.2211540E-18
131.1385 -4.2037898E-18
131.2815 -4.1839333E-18
131.4244 -4.1627877E-18
131.5673 -4.1415759E-18
131.7102 -4.1214617E-18
131.8531 -4.1034908E-18
131.9960 -4.0885408E-18
132.1389 -4.0772870E-18
132.2818 -4.0701848E-18
132.4248 -4.0674634E-18
132.5677 -4.0691285E-18
132.7106 -4.0749754E-18
132.8535 -4.0846001E-18
132.9964 -4.0974210E-18
133.1393 -4.1127002E-18
133.2822 -4.1295693E-18
133.4251 -4.1470634E-18
133.5681 -4.1641587E-18
133.7110 -4.1798197E-18
133.8539 -4.1930542E-18
133.9968 -4.2029713E-18
134.1397 -4.2088401E-18
134.2826 -4.2101504E-18
134.4255 -4.2066568E-18
134.5684 -4.1984119E-18
134.7113 -4.1857796E-18
134.8542 -4.1694237E-18
134.9972 -4.1502741E-18
135.1401 -4.1294697E-18
135.2830 -4.1082847E-18
135.4259 -4.0880395E-18
135.5688 -4.0700111E-18
135.7117 -4.0553415E-18
135.8546 -4.0449620E-18
135.9975 -4.0395295E-18
136.1405 -4.0393901E-18
136.2834 -4.0445592E-18
136.4263 -4.0547310E-18
136.5692 -4.0693072E-18
136.7121 -4.0874398E-18
136.8550 -4.1080920E-18
136.9979 -4.1301008E-18
137.1408 -4.1522440E-18
137.2838 -4.1733061E-18
137.4267 -4.1921377E-18
137.5696 -4.2077090E-18
137.7125 -4.2191580E-18
137.8554 -4.2258275E-18
137.9983 -4.2272974E-18
138.1412 -4.2234080E-18
138.2841 -4.2142743E-18
138.4270 -4.2002896E-18
138.5700 -4.1821197E-18
138.7129 -4.1606788E-18
138.8558 -4.1370946E-18
138.9987 -4.1126539E-18
139.1416 -4.0887376E-18
139.2845 -4.0667404E-18
139.4274 -4.0479870E-18
139.5703 -4.0336437E-18
139.7133 -4.0246394E-18
139.8562 -4.0215962E-18
139.9991 -4.0247813E-18
140.1420 -4.0340809E-18
140.2849 -4.0490048E-18
140.4278 -4.0687128E-18
140.5707 -4.0920720E-18
140.7136 -4.1177307E-18
140.8566 -4.1442092E-18
140.9995 -4.1699966E-18
141.1424 -4.1936485E-18
141.2853 -4.2138768E-18
141.4282 -4.2296210E-18
141.5711 -4.2401088E-18
141.7140 -4.2448899E-18
141.8569 -4.2438472E-18
141.9998 -4.2371922E-18
142.1427 -4.2254383E-18
142.2857 -4.2093608E-18
142.4286 -4.1899481E-18
142.5715 -4.1683463E-18
142.7144 -4.1457986E-18
142.8573 -4.1235913E-18
143.0002 -4.1029945E-18
143.1431 -4.0852114E-18
143.2860 -4.0713276E-18
143.4290 -4.0622650E-18
143.5719 -4.0587412E-18
143.7148 -4.0612297E-18
143.8577 -4.0699329E-18
144.0006 -4.0847593E-18
144.1435 -4.1053143E-18
144.2864 -4.1309077E-18
144.4293 -4.1605729E-18
144.5723 -4.1931059E-18
144.7152 -4.2271254E-18
144.8581 -4.2611361E-18
145.0010 -4.2936141E-18
145.1439 -4.3230866E-18
145.2868 -4.3482184E-18
145.4297 -4.3678846E-18
145.5726 -4.3812341E-18
145.7155 -4.3877353E-18
145.8585 -4.3872022E-18
146.0014 -4.3797989E-18
146.1443 -4.3660264E-18
146.2872 -4.3466894E-18
146.4301 -4.3228508E-18
146.5730 -4.2957731E-18
146.7159 -4.2668557E-18
146.8588 -4.2375631E-18
147.0018 -4.2093588E-18
147.1447 -4.1836384E-18
147.2876 -4.1616664E-18
147.4305 -4.1445223E-18
147.5734 -4.1330493E-18
147.7163 -4.1278178E-18
147.8592 -4.1290954E-18
148.0021 -4.1368279E-18
148.1451 -4.1506368E-18
148.2880 -4.1698270E-18
148.4309 -4.1934132E-18
148.5738 -4.2201601E-18
148.7167 -4.2486387E-18
148.8596 -4.2772976E-18
149.0025 -4.3045441E-18
149.1454 -4.3288359E-18
149.2883 -4.3487693E-18
149.4312 -4.3631685E-18
149.5742 -4.3711603E-18
149.7171 -4.3722339E-18
149.8600 -4.3662749E-18
150.0029 -4.3535752E-18
150.1458 -4.3348201E-18
150.2887 -4.3110408E-18
150.4316 -4.2835527E-18
150.5745 -4.2538706E-18
150.7175 -4.2236181E-18
150.8604 -4.1944311E-18
151.0033 -4.1678637E-18
151.1462 -4.1453065E-18
151.2891 -4.1279154E-18
151.4320 -4.1165603E-18
151.5749 -4.1117903E-18
151.7178 -4.1138157E-18
151.8607 -4.1225102E-18
152.0037 -4.1374271E-18
152.1466 -4.1578283E-18
152.2895 -4.1827240E-18
152.4324 -4.2109226E-18
152.5753 -4.2410853E-18
152.7182 -4.2717877E-18
152.8611 -4.3015807E-18
153.0040 -4.3290601E-18
153.1470 -4.3529284E-18
153.2899 -4.3720586E-18
153.4328 -4.3855540E-18
153.5757 -4.3927993E-18
153.7186 -4.3934983E-18
153.8615 -4.3877068E-18
154.0044 -4.3758367E-18
154.1473 -4.3586479E-18
154.2903 -4.3372186E-18
154.4332 -4.3128883E-18
154.5761 -4.2871894E-18
154.7190 -4.2617540E-18
154.8619 -4.2382191E-18
155.0048 -4.2181190E-18
155.1477 -4.2027885E-18
155.2906 -4.1932759E-18
155.4335 -4.1902728E-18
155.5765 -4.1940704E-18
155.7194 -4.2045413E-18
155.8623 -4.2211482E-18
156.0052 -4.2429820E-18
156.1481 -4.2688190E-18
156.2910 -4.2972012E-18
156.4339 -4.3265227E-18
156.5768 -4.3551278E-18
156.7197 -4.3814037E-18
156.8627 -4.4038707E-18
157.0056 -4.4212609E-18
157.1485 -4.4325809E-18
157.2914 -4.4371614E-18
157.4343 -4.4346857E-18
157.5772 -4.4252000E-18
157.7201 -4.4091051E-18
157.8630 -4.3871352E-18
158.0060 -4.3603143E-18
158.1489 -4.3299083E-18
158.2918 -4.2973588E-18
158.4347 -4.2642186E-18
158.5776 -4.2320748E-18
158.7205 -4.2024770E-18
158.8634 -4.1768617E-18
159.0063 -4.1564850E-18
159.1492 -4.1423547E-18
159.2922 -4.1351793E-18
159.4351 -4.1353220E-18
159.5780 -4.1427711E-18
159.7209 -4.1571298E-18
159.8638 -4.1776194E-18
160.0067 -4.2031107E-18
160.1496 -4.2321679E-18
160.2925 -4.2631205E-18
160.4355 -4.2941464E-18
160.5784 -4.3233703E-18
160.7213 -4.3489707E-18
160.8642 -4.3692850E-18
161.0071 -4.3829108E-18
161.1500 -4.3887937E-18
161.2929 -4.3862956E-18
161.4358 -4.3752399E-18
161.5788 -4.3559306E-18
161.7217 -4.3291411E-18
161.8646 -4.2960767E-18
162.0075 -4.2583130E-18
162.1504 -4.2177116E-18
162.2933 -4.1763199E-18
162.4362 -4.1362650E-18
162.5791 -4.0996378E-18
162.7220 -4.0683882E-18
162.8650 -4.0442221E-18
163.0079 -4.0285139E-18
163.1508 -4.0222389E-18
163.2937 -4.0259232E-18
163.4366 -4.0396118E-18
163.5795 -4.0628626E-18
163.7224 -4.0947628E-18
163.8653 -4.1339600E-18
164.0083 -4.1787204E-18
164.1512 -4.2269984E-18
164.2941 -4.2765291E-18
164.4370 -4.3249271E-18
164.5799 -4.3698033E-18
164.7228 -4.4088756E-18
164.8657 -4.4400921E-18
165.0086 -4.4617403E-18
165.1515 -4.4725453E-18
165.2944 -4.4717525E-18
165.4374 -4.4591847E-18
165.5803 -4.4352701E-18
165.7232 -4.4010438E-18
165.8661 -4.3581164E-18
166.0090 -4.3086118E-18
166.1519 -4.2550795E-18
166.2948 -4.2003830E-18
166.4377 -4.1475709E-18
166.5807 -4.0997362E-18
166.7236 -4.0598649E-18
166.8665 -4.0306878E-18
167.0094 -4.0145371E-18
167.1523 -4.0132119E-18
167.2952 -4.0278638E-18
167.4381 -4.0589008E-18
167.5810 -4.1059236E-18
167.7240 -4.1676957E-18
167.8669 -4.2421482E-18
168.0098 -4.3264288E-18
168.1527 -4.4169948E-18
168.2956 -4.5097449E-18
168.4385 -4.6001925E-18
168.5814 -4.6836699E-18
168.7243 -4.7555594E-18
168.8672 -4.8115367E-18
169.0102 -4.8478169E-18
169.1531 -4.8613839E-18
169.2960 -4.8502008E-18
169.4389 -4.8133739E-18
169.5818 -4.7512713E-18
169.7247 -4.6655774E-18
169.8676 -4.5592855E-18
170.0105 -4.4366175E-18
170.1535 -4.3028806E-18
170.2964 -4.1642592E-18
170.4393 -4.0275498E-18
170.5822 -3.8998592E-18
170.7251 -3.7882659E-18