-7.200000 1.0908415E-17
-7.057088 1.0919953E-17
-6.914176 1.0941161E-17
-6.771265 1.0968843E-17
-6.628353 1.0998983E-17
-6.485441 1.1027383E-17
-6.342530 1.1050322E-17
-6.199618 1.1065134E-17
-6.056706 1.1070601E-17
-5.913795 1.1067104E-17
-5.770883 1.1056524E-17
-5.627971 1.1041893E-17
-5.485059 1.1026873E-17
-5.342147 1.1015155E-17
-5.199236 1.1009843E-17
-5.056324 1.1012969E-17
-4.913413 1.1025179E-17
-4.770501 1.1045639E-17
-4.627589 1.1072182E-17
-4.484677 1.1101669E-17
-4.341765 1.1130484E-17
-4.198854 1.1155112E-17
-4.055942 1.1172695E-17
-3.913030 1.1181479E-17
-3.770118 1.1181094E-17
-3.627207 1.1172615E-17
-3.484295 1.1158403E-17
-3.341383 1.1141737E-17
-3.198472 1.1126310E-17
-3.055560 1.1115641E-17
-2.912648 1.1112521E-17
-2.769737 1.1118558E-17
-2.626825 1.1133909E-17
-2.483913 1.1157236E-17
-2.341001 1.1185910E-17
-2.198090 1.1216405E-17
-2.055178 1.1244875E-17
-1.912266 1.1267764E-17
-1.769354 1.1282386E-17
-1.626443 1.1287376E-17
-1.483531 1.1282914E-17
-1.340619 1.1270707E-17
-1.197708 1.1253714E-17
-1.054796 1.1235661E-17
-0.9118841 1.1220420E-17
-0.7689723 1.1211374E-17
-0.6260606 1.1210857E-17
-0.4831489 1.1219761E-17
-0.3402372 1.1237404E-17
-0.1973254 1.1261639E-17
-5.4413714E-02 1.1289220E-17
8.8498011E-02 1.1316349E-17
0.2314097 1.1339302E-17
0.3743215 1.1355047E-17
0.5172332 1.1361735E-17
0.6601449 1.1359005E-17
0.8030567 1.1348028E-17
0.9459684 1.1331320E-17
1.088880 1.1312327E-17
1.231792 1.1294873E-17
1.374704 1.1282556E-17
1.517615 1.1278170E-17
1.660527 1.1283277E-17
1.803439 1.1297961E-17
1.946350 1.1320815E-17
2.089262 1.1349161E-17
2.232174 1.1379461E-17
2.375086 1.1407860E-17
2.517997 1.1430778E-17
2.660909 1.1445456E-17
2.803821 1.1450382E-17
2.946733 1.1445529E-17
3.089644 1.1432352E-17
3.232556 1.1413576E-17
3.375468 1.1392773E-17
3.518379 1.1373805E-17
3.661291 1.1360220E-17
3.804203 1.1354689E-17
3.947115 1.1358587E-17
4.090026 1.1371759E-17
4.232938 1.1392551E-17
4.375850 1.1418073E-17
4.518762 1.1444661E-17
4.661673 1.1468483E-17
4.804585 1.1486166E-17
4.947497 1.1495355E-17
5.090408 1.1495101E-17
5.233320 1.1486026E-17
5.376232 1.1470212E-17
5.519144 1.1450860E-17
5.662055 1.1431749E-17
5.804967 1.1416605E-17
5.947879 1.1408478E-17
6.090790 1.1409233E-17
6.233702 1.1419242E-17
6.376614 1.1437324E-17
6.519526 1.1460944E-17
6.662437 1.1486634E-17
6.805349 1.1510565E-17
6.948261 1.1529168E-17
7.091173 1.1539716E-17
7.234084 1.1540754E-17
7.376996 1.1532327E-17
7.519908 1.1515965E-17
7.662819 1.1494430E-17
7.805731 1.1471273E-17
7.948643 1.1450273E-17
8.091555 1.1434853E-17
8.234467 1.1427540E-17
8.377378 1.1429590E-17
8.520289 1.1440797E-17
8.663201 1.1459542E-17
8.806113 1.1483048E-17
8.949025 1.1507824E-17
9.091937 1.1530210E-17
9.234848 1.1546956E-17
9.377760 1.1555731E-17
9.520672 1.1555496E-17
9.663584 1.1546667E-17
9.806496 1.1531063E-17
9.949407 1.1511612E-17
10.09232 1.1491890E-17
10.23523 1.1475544E-17
10.37814 1.1465700E-17
10.52105 1.1464440E-17
10.66397 1.1472452E-17
10.80688 1.1488898E-17
10.94979 1.1511533E-17
11.09270 1.1537054E-17
11.23561 1.1561636E-17
11.37852 1.1581552E-17
11.52144 1.1593788E-17
11.66435 1.1596548E-17
11.80726 1.1589549E-17
11.95017 1.1574082E-17
12.09308 1.1552806E-17
12.23599 1.1529317E-17
12.37891 1.1507563E-17
12.52182 1.1491211E-17
12.66473 1.1483055E-17
12.80764 1.1484572E-17
12.95055 1.1495705E-17
13.09346 1.1514888E-17
13.23638 1.1539312E-17
13.37929 1.1565403E-17
13.52220 1.1589390E-17
13.66511 1.1607918E-17
13.80802 1.1618567E-17
13.95094 1.1620219E-17
14.09385 1.1613212E-17
14.23676 1.1599259E-17
14.37967 1.1581154E-17
14.52258 1.1562308E-17
14.66549 1.1546201E-17
14.80841 1.1535818E-17
14.95132 1.1533187E-17
15.09423 1.1539050E-17
15.23714 1.1552759E-17
15.38005 1.1572373E-17
15.52296 1.1594972E-17
15.66588 1.1617121E-17
15.80879 1.1635427E-17
15.95170 1.1647074E-17
16.09461 1.1650295E-17
16.23752 1.1644666E-17
16.38043 1.1631191E-17
16.52335 1.1612168E-17
16.66626 1.1590826E-17
16.80917 1.1570825E-17
16.95208 1.1555665E-17
17.09499 1.1548122E-17
17.23791 1.1549786E-17
17.38082 1.1560793E-17
17.52373 1.1579790E-17
17.66664 1.1604140E-17
17.80955 1.1630352E-17
17.95246 1.1654631E-17
18.09538 1.1673500E-17
18.23829 1.1684367E-17
18.38120 1.1685935E-17
18.52411 1.1678410E-17
18.66702 1.1663456E-17
18.80993 1.1643910E-17
18.95285 1.1623307E-17
19.09576 1.1605295E-17
19.23867 1.1593042E-17
19.38158 1.1588720E-17
19.52449 1.1593173E-17
19.66740 1.1605791E-17
19.81032 1.1624639E-17
19.95323 1.1646780E-17
20.09614 1.1668780E-17
20.23905 1.1687262E-17
20.38196 1.1699461E-17
20.52488 1.1703661E-17
20.66779 1.1699467E-17
20.81070 1.1687865E-17
20.95361 1.1671052E-17
21.09652 1.1652083E-17
21.23943 1.1634387E-17
21.38235 1.1621218E-17
21.52526 1.1615139E-17
21.66817 1.1617612E-17
21.81108 1.1628763E-17
21.95399 1.1647354E-17
22.09690 1.1670963E-17
22.23981 1.1696355E-17
22.38273 1.1719986E-17
22.52564 1.1738556E-17
22.66855 1.1749519E-17
22.81146 1.1751499E-17
22.95437 1.1744500E-17
23.09729 1.1729917E-17
23.24020 1.1710313E-17
23.38311 1.1689014E-17
23.52602 1.1669574E-17
23.66893 1.1655204E-17
23.81184 1.1648257E-17
23.95476 1.1649848E-17
24.09767 1.1659683E-17
24.24058 1.1676118E-17
24.38349 1.1696444E-17
24.52640 1.1717348E-17
24.66932 1.1735476E-17
24.81223 1.1748001E-17
24.95514 1.1753101E-17
25.09805 1.1750264E-17
25.24096 1.1740375E-17
25.38387 1.1725566E-17
25.52678 1.1708859E-17
25.66970 1.1693653E-17
25.81261 1.1683161E-17
25.95552 1.1679870E-17
26.09843 1.1685127E-17
26.24134 1.1698907E-17
26.38426 1.1719812E-17
26.52717 1.1745281E-17
26.67008 1.1771998E-17
26.81299 1.1796401E-17
26.95590 1.1815246E-17
27.09881 1.1826100E-17
27.24173 1.1827720E-17
27.38464 1.1820228E-17
27.52755 1.1805097E-17
27.67046 1.1784910E-17
27.81337 1.1762964E-17
27.95629 1.1742764E-17
28.09920 1.1727488E-17
28.24211 1.1719510E-17
28.38502 1.1720043E-17
28.52793 1.1728970E-17
28.67084 1.1744870E-17
28.81376 1.1765258E-17
28.95667 1.1786976E-17
29.09958 1.1806707E-17
29.24249 1.1821492E-17
29.38540 1.1829208E-17
29.52831 1.1828906E-17
29.67122 1.1820959E-17
29.81414 1.1806997E-17
29.95705 1.1789644E-17
30.09996 1.1772076E-17
30.24287 1.1757506E-17
30.38578 1.1748636E-17
30.52870 1.1747221E-17
30.67161 1.1753758E-17
30.81452 1.1767409E-17
30.95743 1.1786127E-17
31.10034 1.1807003E-17
31.24325 1.1826740E-17
31.38617 1.1842200E-17
31.52908 1.1850925E-17
31.67199 1.1851540E-17
31.81490 1.1843977E-17
31.95781 1.1829483E-17
32.10072 1.1810409E-17
32.24364 1.1789828E-17
32.38655 1.1771040E-17
32.52946 1.1757035E-17
32.67237 1.1750034E-17
32.81528 1.1751145E-17
32.95819 1.1760211E-17
33.10111 1.1775851E-17
33.24402 1.1795703E-17
33.38693 1.1816807E-17
33.52984 1.1836075E-17
33.67275 1.1850778E-17
33.81567 1.1858954E-17
33.95858 1.1859711E-17
34.10149 1.1853342E-17
34.24440 1.1841266E-17
34.38731 1.1825795E-17
34.53022 1.1809763E-17
34.67313 1.1796077E-17
34.81605 1.1787256E-17
34.95896 1.1785028E-17
35.10187 1.1790060E-17
35.24478 1.1801836E-17
35.38770 1.1818735E-17
35.53061 1.1838286E-17
35.67352 1.1857560E-17
35.81643 1.1873641E-17
35.95934 1.1884110E-17
36.10225 1.1887454E-17
36.24516 1.1883324E-17
36.38808 1.1872621E-17
36.53099 1.1857369E-17
36.67390 1.1840395E-17
36.81681 1.1824878E-17
36.95972 1.1813830E-17
37.10263 1.1809596E-17
37.24555 1.1813467E-17
37.38846 1.1825448E-17
37.53137 1.1844258E-17
37.67428 1.1867517E-17
37.81719 1.1892132E-17
37.96011 1.1914777E-17
38.10302 1.1932420E-17
38.24593 1.1942798E-17
38.38884 1.1944744E-17
38.53175 1.1938359E-17
38.67466 1.1924968E-17
38.81758 1.1906887E-17
38.96049 1.1887046E-17
39.10340 1.1868528E-17
39.24631 1.1854090E-17
39.38922 1.1845754E-17
39.53214 1.1844517E-17
39.67505 1.1850227E-17
39.81796 1.1861633E-17
39.96087 1.1876612E-17
40.10378 1.1892512E-17
40.24669 1.1906586E-17
40.38961 1.1916432E-17
40.53252 1.1920378E-17
40.67543 1.1917763E-17
40.81834 1.1909044E-17
40.96125 1.1895750E-17
41.10416 1.1880241E-17
41.24707 1.1865344E-17
41.38999 1.1853897E-17
41.53290 1.1848280E-17
41.67581 1.1850007E-17
41.81872 1.1859446E-17
41.96163 1.1875725E-17
42.10455 1.1896833E-17
42.24746 1.1919922E-17
42.39037 1.1941738E-17
42.53328 1.1959157E-17
42.67619 1.1969681E-17
42.81910 1.1971860E-17
42.96202 1.1965540E-17
43.10493 1.1951892E-17
43.24784 1.1933240E-17
43.39075 1.1912679E-17
43.53366 1.1893575E-17
43.67657 1.1879027E-17
43.81948 1.1871364E-17
43.96240 1.1871781E-17
44.10531 1.1880162E-17
44.24822 1.1895111E-17
44.39113 1.1914205E-17
44.53405 1.1934396E-17
44.67696 1.1952514E-17
44.81987 1.1965781E-17
44.96278 1.1972258E-17
45.10569 1.1971157E-17
45.24860 1.1962957E-17
45.39151 1.1949332E-17
45.53443 1.1932875E-17
45.67734 1.1916695E-17
45.82025 1.1903910E-17
45.96316 1.1897151E-17
46.10608 1.1898130E-17
46.24899 1.1907345E-17
46.39190 1.1923972E-17
46.53481 1.1945968E-17
46.67772 1.1970365E-17
46.82063 1.1993716E-17
46.96354 1.2012641E-17
47.10646 1.2024359E-17
47.24937 1.2027152E-17
47.39228 1.2020662E-17
47.53519 1.2005974E-17
47.67810 1.1985467E-17
47.82101 1.1962454E-17
47.96392 1.1940654E-17
48.10684 1.1923594E-17
48.24975 1.1914035E-17
48.39266 1.1913513E-17
48.53557 1.1922090E-17
48.67849 1.1938346E-17
48.82140 1.1959616E-17
48.96431 1.1982442E-17
49.10722 1.2003155E-17
49.25013 1.2018499E-17
49.39304 1.2026171E-17
49.53595 1.2025207E-17
49.67887 1.2016131E-17
49.82178 1.2000864E-17
49.96469 1.1982378E-17
50.10760 1.1964193E-17
50.25051 1.1949774E-17
50.39342 1.1941939E-17
50.53634 1.1942380E-17
50.67925 1.1951374E-17
50.82216 1.1967726E-17
50.96507 1.1988953E-17
51.10798 1.2011695E-17
51.25090 1.2032254E-17
51.39381 1.2047215E-17
51.53672 1.2054002E-17
51.67963 1.2051329E-17
51.82254 1.2039430E-17
51.96545 1.2020050E-17
52.10837 1.1996193E-17
52.25128 1.1971656E-17
52.39419 1.1950430E-17
52.53710 1.1936056E-17
52.68001 1.1931046E-17
52.82293 1.1936459E-17
52.96584 1.1951708E-17
53.10875 1.1974635E-17
53.25166 1.2001842E-17
53.39457 1.2029240E-17
53.53748 1.2052706E-17
53.68040 1.2068762E-17
53.82331 1.2075148E-17
53.96622 1.2071194E-17
54.10913 1.2057934E-17
54.25204 1.2037922E-17
54.39495 1.2014806E-17
54.53786 1.1992696E-17
54.68078 1.1975483E-17
54.82369 1.1966165E-17
54.96660 1.1966354E-17
55.10951 1.1976004E-17
55.25242 1.1993435E-17
55.39534 1.2015633E-17
55.53825 1.2038773E-17
55.68116 1.2058890E-17
55.82407 1.2072556E-17
55.96698 1.2077484E-17
56.10989 1.2072911E-17
56.25281 1.2059747E-17
56.39572 1.2040414E-17
56.53863 1.2018454E-17
56.68154 1.1997924E-17
56.82445 1.1982722E-17
56.96737 1.1975927E-17
57.11028 1.1979272E-17
57.25319 1.1992846E-17
57.39610 1.2015064E-17
57.53901 1.2042910E-17
57.68192 1.2072425E-17
57.82484 1.2099346E-17
57.96775 1.2119801E-17
58.11066 1.2130940E-17
58.25357 1.2131402E-17
58.39648 1.2121531E-17
58.53939 1.2103313E-17
58.68230 1.2080041E-17
58.82522 1.2055753E-17
58.96813 1.2034561E-17
59.11104 1.2019948E-17
59.25395 1.2014188E-17
59.39687 1.2017971E-17
59.53978 1.2030292E-17
59.68269 1.2048644E-17
59.82560 1.2069458E-17
59.96851 1.2088743E-17
60.11142 1.2102786E-17
60.25433 1.2108823E-17
60.39725 1.2105525E-17
60.54016 1.2093259E-17
60.68307 1.2074036E-17
60.82598 1.2051191E-17
60.96889 1.2028814E-17
61.11180 1.2011062E-17
61.25471 1.2001442E-17
61.39763 1.2002214E-17
61.54054 1.2013986E-17
61.68345 1.2035601E-17
61.82636 1.2064303E-17
61.96928 1.2096181E-17
62.11219 1.2126799E-17
62.25510 1.2151906E-17
62.39801 1.2168129E-17
62.54092 1.2173494E-17
62.68383 1.2167738E-17
62.82674 1.2152330E-17
62.96966 1.2130202E-17
63.11257 1.2105256E-17
63.25548 1.2081716E-17
63.39839 1.2063426E-17
63.54131 1.2053228E-17
63.68422 1.2052515E-17
63.82713 1.2061020E-17
63.97004 1.2076897E-17
64.11295 1.2097057E-17
64.25586 1.2117713E-17
64.39877 1.2135046E-17
64.54169 1.2145857E-17
64.68460 1.2148128E-17
64.82751 1.2141360E-17
64.97042 1.2126671E-17
65.11333 1.2106593E-17
65.25625 1.2084646E-17
65.39915 1.2064726E-17
65.54207 1.2050446E-17
65.68498 1.2044502E-17
65.82789 1.2048219E-17
65.97080 1.2061311E-17
66.11372 1.2081930E-17
66.25663 1.2106974E-17
66.39954 1.2132605E-17
66.54245 1.2154896E-17
66.68536 1.2170480E-17
66.82828 1.2177112E-17
66.97118 1.2174022E-17
67.11410 1.2162034E-17
67.25701 1.2143406E-17
67.39992 1.2121431E-17
67.54283 1.2099881E-17
67.68575 1.2082367E-17
67.82866 1.2071750E-17
67.97157 1.2069676E-17
68.11448 1.2076327E-17
68.25739 1.2090420E-17
68.40031 1.2109448E-17
68.54321 1.2130126E-17
68.68613 1.2148951E-17
68.82904 1.2162801E-17
68.97195 1.2169446E-17
69.11486 1.2167914E-17
69.25777 1.2158638E-17
69.40069 1.2143363E-17
69.54359 1.2124837E-17
69.68651 1.2106330E-17
69.82942 1.2091086E-17
69.97233 1.2081760E-17
70.11524 1.2079980E-17
70.25816 1.2086073E-17
70.40107 1.2099014E-17
70.54398 1.2116607E-17
70.68689 1.2135865E-17
70.82980 1.2153519E-17
70.97272 1.2166569E-17
71.11562 1.2172802E-17
71.25854 1.2171152E-17
71.40145 1.2161883E-17
71.54436 1.2146529E-17
71.68727 1.2127627E-17
71.83018 1.2108273E-17
71.97310 1.2091592E-17
72.11600 1.2080209E-17
72.25892 1.2075805E-17
72.40183 1.2078851E-17
72.54475 1.2088544E-17
72.68765 1.2102974E-17
72.83057 1.2119466E-17
72.97348 1.2135058E-17
73.11639 1.2147016E-17
73.25930 1.2153294E-17
73.40221 1.2152880E-17
73.54513 1.2145932E-17
73.68803 1.2133741E-17
73.83095 1.2118470E-17
73.97386 1.2102763E-17
74.11678 1.2089288E-17
74.25968 1.2080262E-17
74.40260 1.2077088E-17
74.54551 1.2080121E-17
74.68842 1.2088628E-17
74.83133 1.2100930E-17
74.97424 1.2114706E-17
75.11716 1.2127394E-17
75.26006 1.2136637E-17
75.40298 1.2140681E-17
75.54589 1.2138667E-17
75.68880 1.2130772E-17
75.83171 1.2118171E-17
75.97462 1.2102831E-17
76.11754 1.2087175E-17
76.26044 1.2073670E-17
76.40336 1.2064409E-17
76.54627 1.2060769E-17
76.68919 1.2063176E-17
76.83209 1.2071047E-17
76.97501 1.2082900E-17
77.11792 1.2096616E-17
77.26083 1.2109805E-17
77.40374 1.2120228E-17
77.54665 1.2126174E-17
77.68957 1.2126751E-17
77.83247 1.2122025E-17
77.97539 1.2112995E-17
78.11830 1.2101398E-17
78.26122 1.2089380E-17
78.40412 1.2079112E-17
78.54704 1.2072386E-17
78.68995 1.2070304E-17
78.83286 1.2073076E-17
78.97577 1.2079995E-17
79.11868 1.2089573E-17
79.26160 1.2099813E-17
79.40450 1.2108573E-17
79.54742 1.2113958E-17
79.69033 1.2114646E-17
79.83324 1.2110124E-17
79.97615 1.2100768E-17
80.11906 1.2087773E-17
80.26198 1.2072931E-17
80.40488 1.2058318E-17
80.54780 1.2045938E-17
80.69071 1.2037390E-17
80.83363 1.2033605E-17
80.97653 1.2034724E-17
81.11945 1.2040089E-17
81.26236 1.2048395E-17
81.40527 1.2057929E-17
81.54818 1.2066879E-17
81.69109 1.2073638E-17
81.83401 1.2077082E-17
81.97691 1.2076731E-17
82.11983 1.2072816E-17
82.26274 1.2066208E-17
82.40565 1.2058240E-17
82.54856 1.2050463E-17
82.69147 1.2044353E-17
82.83439 1.2041049E-17
82.97730 1.2041151E-17
83.12021 1.2044612E-17
83.26312 1.2050747E-17
83.40604 1.2058359E-17
83.54894 1.2065951E-17
83.69186 1.2071995E-17
83.83477 1.2075202E-17
83.97768 1.2074760E-17
84.12059 1.2070474E-17
84.26350 1.2062811E-17
84.40642 1.2052814E-17
84.54933 1.2041917E-17
84.69224 1.2031695E-17
84.83515 1.2023590E-17
84.97807 1.2018655E-17
85.12097 1.2017387E-17
85.26389 1.2019654E-17
85.40680 1.2024742E-17
85.54971 1.2031511E-17
85.69262 1.2038617E-17
85.83553 1.2044778E-17
85.97845 1.2049007E-17
86.12135 1.2050786E-17
86.26427 1.2050136E-17
86.40718 1.2047590E-17
86.55009 1.2044056E-17
86.69300 1.2040609E-17
86.83591 1.2038266E-17
86.97883 1.2037770E-17
87.12174 1.2039437E-17
87.26465 1.2043093E-17
87.40756 1.2048115E-17
87.55048 1.2053549E-17
87.69338 1.2058307E-17
87.83630 1.2061377E-17
87.97921 1.2062024E-17
88.12212 1.2059928E-17
88.26503 1.2055255E-17
88.40794 1.2048623E-17
88.55086 1.2040999E-17
88.69377 1.2033515E-17
88.83668 1.2027278E-17
88.97959 1.2023165E-17
89.12251 1.2021674E-17
89.26541 1.2022840E-17
89.40833 1.2026236E-17
89.55124 1.2031049E-17
89.69415 1.2036241E-17
89.83706 1.2040730E-17
89.97997 1.2043603E-17
90.12289 1.2044283E-17
90.26580 1.2042649E-17
90.40871 1.2039066E-17
90.55162 1.2034338E-17
90.69453 1.2029563E-17
90.83744 1.2025937E-17
90.98035 1.2024529E-17
91.12327 1.2026060E-17
91.26618 1.2030743E-17
91.40909 1.2038204E-17
91.55200 1.2047501E-17
91.69492 1.2057252E-17
91.83783 1.2065851E-17
91.98074 1.2071734E-17
92.12365 1.2073646E-17
92.26656 1.2070876E-17
92.40947 1.2063404E-17
92.55238 1.2051921E-17
92.69530 1.2037755E-17
92.83821 1.2022661E-17
92.98112 1.2008549E-17
93.12403 1.1997191E-17
93.26694 1.1989937E-17
93.40986 1.1987522E-17
93.55276 1.1989970E-17
93.69568 1.1996618E-17
93.83859 1.2006265E-17
93.98150 1.2017394E-17
94.12441 1.2028439E-17
94.26733 1.2038045E-17
94.41024 1.2045278E-17
94.55315 1.2049736E-17
94.69606 1.2051572E-17
94.83897 1.2051401E-17
94.98188 1.2050142E-17
95.12479 1.2048804E-17
95.26771 1.2048274E-17
95.41062 1.2049142E-17
95.55353 1.2051587E-17
95.69644 1.2055345E-17
95.83936 1.2059772E-17
95.98227 1.2063967E-17
96.12518 1.2066950E-17
96.26809 1.2067854E-17
96.41100 1.2066094E-17
96.55391 1.2061495E-17
96.69682 1.2054342E-17
96.83974 1.2045360E-17
96.98265 1.2035613E-17
97.12556 1.2026340E-17
97.26847 1.2018762E-17
97.41138 1.2013884E-17
97.55430 1.2012327E-17
97.69720 1.2014216E-17
97.84012 1.2019157E-17
97.98303 1.2026293E-17
98.12594 1.2034441E-17
98.26885 1.2042295E-17
98.41177 1.2048642E-17
98.55468 1.2052579E-17
98.69759 1.2053673E-17
98.84050 1.2052038E-17
98.98341 1.2048312E-17
99.12633 1.2043549E-17
99.26923 1.2039017E-17
99.41215 1.2035959E-17
99.55506 1.2035357E-17
99.69797 1.2037730E-17
99.84088 1.2043020E-17
99.98380 1.2050585E-17
100.1267 1.2059292E-17
100.2696 1.2067712E-17
100.4125 1.2074367E-17
100.5554 1.2077992E-17
100.6984 1.2077768E-17
100.8413 1.2073471E-17
100.9842 1.2065530E-17
101.1271 1.2054965E-17
101.2700 1.2043232E-17
101.4129 1.2031989E-17
101.5558 1.2022838E-17
101.6987 1.2017076E-17
101.8416 1.2015498E-17
101.9846 1.2018280E-17
102.1275 1.2024971E-17
102.2704 1.2034572E-17
102.4133 1.2045705E-17
102.5562 1.2056833E-17
102.6991 1.2066495E-17
102.8420 1.2073529E-17
102.9849 1.2077241E-17
103.1279 1.2077501E-17
103.2708 1.2074748E-17
103.4137 1.2069911E-17
103.5566 1.2064251E-17
103.6995 1.2059158E-17
103.8424 1.2055923E-17
103.9853 1.2055520E-17
104.1282 1.2058455E-17
104.2711 1.2064658E-17
104.4141 1.2073497E-17
104.5570 1.2083859E-17
104.6999 1.2094327E-17
104.8428 1.2103402E-17
104.9857 1.2109749E-17
105.1286 1.2112416E-17
105.2715 1.2111002E-17
105.4144 1.2105731E-17
105.5574 1.2097426E-17
105.7003 1.2087387E-17
105.8432 1.2077179E-17
105.9861 1.2068394E-17
106.1290 1.2062386E-17
106.2719 1.2060065E-17
106.4148 1.2061752E-17
106.5577 1.2067137E-17
106.7006 1.2075345E-17
106.8436 1.2085081E-17
106.9865 1.2094852E-17
107.1294 1.2103202E-17
107.2723 1.2108941E-17
107.4152 1.2111324E-17
107.5581 1.2110143E-17
107.7010 1.2105749E-17
107.8439 1.2098962E-17
107.9869 1.2090930E-17
108.1298 1.2082941E-17
108.2727 1.2076216E-17
108.4156 1.2071729E-17
108.5585 1.2070071E-17
108.7014 1.2071373E-17
108.8443 1.2075314E-17
108.9872 1.2081187E-17
109.1301 1.2088025E-17
109.2731 1.2094759E-17
109.4160 1.2100392E-17
109.5589 1.2104157E-17
109.7018 1.2105629E-17
109.8447 1.2104790E-17
109.9876 1.2102025E-17
110.1305 1.2098054E-17
110.2734 1.2093806E-17
110.4164 1.2090260E-17
110.5593 1.2088279E-17
110.7022 1.2088452E-17
110.8451 1.2090992E-17
110.9880 1.2095678E-17
111.1309 1.2101895E-17
111.2738 1.2108720E-17
111.4167 1.2115080E-17
111.5596 1.2119937E-17
111.7026 1.2122467E-17
111.8455 1.2122210E-17
111.9884 1.2119164E-17
112.1313 1.2113789E-17
112.2742 1.2106939E-17
112.4171 1.2099720E-17
112.5600 1.2093295E-17
112.7029 1.2088681E-17
112.8458 1.2086567E-17
112.9888 1.2087181E-17
113.1317 1.2090235E-17
113.2746 1.2094966E-17
113.4175 1.2100249E-17
113.5604 1.2104780E-17
113.7033 1.2107294E-17
113.8462 1.2106777E-17
113.9891 1.2102640E-17
114.1321 1.2094836E-17
114.2750 1.2083873E-17
114.4179 1.2070764E-17
114.5608 1.2056873E-17
114.7037 1.2043717E-17
114.8466 1.2032743E-17
114.9895 1.2025098E-17
115.1324 1.2021463E-17
115.2754 1.2021941E-17
115.4183 1.2026036E-17
115.5612 1.2032726E-17
115.7041 1.2040610E-17
115.8470 1.2048123E-17
115.9899 1.2053775E-17
116.1328 1.2056377E-17
116.2757 1.2055234E-17
116.4186 1.2050252E-17
116.5616 1.2041962E-17
116.7045 1.2031435E-17
116.8474 1.2020113E-17
116.9903 1.2009576E-17
117.1332 1.2001280E-17
117.2761 1.1996307E-17
117.4190 1.1995176E-17
117.5619 1.1997739E-17
117.7048 1.2003193E-17
117.8478 1.2010195E-17
117.9907 1.2017087E-17
118.1336 1.2022169E-17
118.2765 1.2023998E-17
118.4194 1.2021645E-17
118.5623 1.2014876E-17
118.7052 1.2004220E-17
118.8481 1.1990908E-17
118.9911 1.1976684E-17
119.1340 1.1963534E-17
119.2769 1.1953358E-17
119.4198 1.1947651E-17
119.5627 1.1947247E-17
119.7056 1.1952158E-17
119.8485 1.1961564E-17
119.9914 1.1973919E-17
120.1343 1.1987192E-17
120.2773 1.1999183E-17
120.4202 1.2007870E-17
120.5631 1.2011725E-17
120.7060 1.2009964E-17
120.8489 1.2002653E-17
120.9918 1.1990699E-17
121.1347 1.1975701E-17
121.2776 1.1959675E-17
121.4206 1.1944738E-17
121.5635 1.1932759E-17
121.7064 1.1925062E-17
121.8493 1.1922216E-17
121.9922 1.1923952E-17
122.1351 1.1929219E-17
122.2780 1.1936359E-17
122.4209 1.1943402E-17
122.5639 1.1948388E-17
122.7068 1.1949710E-17
122.8497 1.1946387E-17
122.9926 1.1938239E-17
123.1355 1.1925929E-17
123.2784 1.1910859E-17
123.4213 1.1894947E-17
123.5642 1.1880307E-17
123.7071 1.1868887E-17
123.8501 1.1862135E-17
123.9930 1.1860739E-17
124.1359 1.1864491E-17
124.2788 1.1872301E-17
124.4217 1.1882355E-17
124.5646 1.1892415E-17
124.7075 1.1900170E-17
124.8504 1.1903639E-17
124.9933 1.1901489E-17
125.1363 1.1893279E-17
125.2792 1.1879535E-17
125.4221 1.1861671E-17
125.5650 1.1841755E-17
125.7079 1.1822168E-17
125.8508 1.1805206E-17
125.9937 1.1792692E-17
126.1366 1.1785683E-17
126.2795 1.1784290E-17
126.4225 1.1787676E-17
126.5654 1.1794212E-17
126.7083 1.1801766E-17
126.8512 1.1808075E-17
126.9941 1.1811145E-17
127.1370 1.1809587E-17
127.2799 1.1802865E-17
127.4228 1.1791370E-17
127.5658 1.1776359E-17
127.7087 1.1759719E-17
127.8516 1.1743645E-17
127.9945 1.1730248E-17
128.1374 1.1721186E-17
128.2803 1.1717368E-17
128.4232 1.1718790E-17
128.5661 1.1724519E-17
128.7090 1.1732844E-17
128.8520 1.1741548E-17
128.9949 1.1748282E-17
129.1378 1.1750961E-17
129.2807 1.1748115E-17
129.4236 1.1739155E-17
129.5665 1.1724484E-17
129.7094 1.1705461E-17
129.8523 1.1684184E-17
129.9953 1.1663168E-17
130.1382 1.1644936E-17
130.2811 1.1631604E-17
130.4240 1.1624529E-17
130.5669 1.1624071E-17
130.7098 1.1629527E-17
130.8527 1.1639232E-17
130.9956 1.1650822E-17
131.1385 1.1661627E-17
131.2815 1.1669109E-17
131.4244 1.1671288E-17
131.5673 1.1667072E-17
131.7102 1.1656451E-17
131.8531 1.1640488E-17
131.9960 1.1621143E-17
132.1389 1.1600927E-17
132.2818 1.1582472E-17
132.4248 1.1568069E-17
132.5677 1.1559264E-17
132.7106 1.1556589E-17
132.8535 1.1559452E-17
132.9964 1.1566244E-17
133.1393 1.1574606E-17
133.2822 1.1581836E-17
133.4251 1.1585354E-17
133.5681 1.1583152E-17
133.7110 1.1574147E-17
133.8539 1.1558374E-17
133.9968 1.1536998E-17
134.1397 1.1512132E-17
134.2826 1.1486503E-17
134.4255 1.1463005E-17
134.5684 1.1444241E-17
134.7113 1.1432100E-17
134.8542 1.1427463E-17
134.9972 1.1430063E-17
135.1401 1.1438541E-17
135.2830 1.1450669E-17
135.4259 1.1463717E-17
135.5688 1.1474890E-17
135.7117 1.1481778E-17
135.8546 1.1482733E-17
135.9975 1.1477118E-17
136.1405 1.1465395E-17
136.2834 1.1449025E-17
136.4263 1.1430206E-17
136.5692 1.1411489E-17
136.7121 1.1395339E-17
136.8550 1.1383711E-17
136.9979 1.1377706E-17
137.1408 1.1377390E-17
137.2838 1.1381767E-17
137.4267 1.1388959E-17
137.5696 1.1396523E-17
137.7125 1.1401879E-17
137.8554 1.1402762E-17
137.9983 1.1397627E-17
138.1412 1.1385940E-17
138.2841 1.1368283E-17
138.4270 1.1346286E-17
138.5700 1.1322366E-17
138.7129 1.1299342E-17
138.8558 1.1279963E-17
138.9987 1.1266463E-17
139.1416 1.1260192E-17
139.2845 1.1261398E-17
139.4274 1.1269193E-17
139.5703 1.1281699E-17
139.7133 1.1296371E-17
139.8562 1.1310406E-17
139.9991 1.1321192E-17
140.1420 1.1326717E-17
140.2849 1.1325874E-17
140.4278 1.1318598E-17
140.5707 1.1305838E-17
140.7136 1.1289365E-17
140.8566 1.1271446E-17
140.9995 1.1254450E-17
141.1424 1.1240448E-17
141.2853 1.1230874E-17
141.4282 1.1226303E-17
141.5711 1.1226374E-17
141.7140 1.1229880E-17
141.8569 1.1234995E-17
141.9998 1.1239607E-17
142.1427 1.1241695E-17
142.2857 1.1239694E-17
142.4286 1.1232779E-17
142.5715 1.1221028E-17
142.7144 1.1205419E-17
142.8573 1.1187695E-17
143.0002 1.1170072E-17
143.1431 1.1154880E-17
143.2860 1.1144168E-17
143.4290 1.1139355E-17
143.5719 1.1140985E-17
143.7148 1.1148621E-17
143.8577 1.1160901E-17
144.0006 1.1175757E-17
144.1435 1.1190740E-17
144.2864 1.1203419E-17
144.4293 1.1211767E-17
144.5723 1.1214485E-17
144.7152 1.1211186E-17
144.8581 1.1202447E-17
145.0010 1.1189682E-17
145.1439 1.1174879E-17
145.2868 1.1160261E-17
145.4297 1.1147897E-17
145.5726 1.1139363E-17
145.7155 1.1135491E-17
145.8585 1.1136247E-17
146.0014 1.1140764E-17
146.1443 1.1147513E-17
146.2872 1.1154583E-17
146.4301 1.1160024E-17
146.5730 1.1162178E-17
146.7159 1.1159973E-17
146.8588 1.1153097E-17
147.0018 1.1142053E-17
147.1447 1.1128071E-17
147.2876 1.1112903E-17
147.4305 1.1098530E-17
147.5734 1.1086836E-17
147.7163 1.1079289E-17
147.8592 1.1076709E-17
148.0021 1.1079127E-17
148.1451 1.1085782E-17
148.2880 1.1095246E-17
148.4309 1.1105663E-17
148.5738 1.1115053E-17
148.7167 1.1121638E-17
148.8596 1.1124136E-17
149.0025 1.1121966E-17
149.1454 1.1115345E-17
149.2883 1.1105241E-17
149.4312 1.1093205E-17
149.5742 1.1081105E-17
149.7171 1.1070814E-17
149.8600 1.1063891E-17
150.0029 1.1061322E-17
150.1458 1.1063372E-17
150.2887 1.1069541E-17
150.4316 1.1078665E-17
150.5745 1.1089121E-17
150.7175 1.1099109E-17
150.8604 1.1106953E-17
151.0033 1.1111370E-17
151.1462 1.1111679E-17
151.2891 1.1107891E-17
151.4320 1.1100680E-17
151.5749 1.1091260E-17
151.7178 1.1081151E-17
151.8607 1.1071927E-17
152.0037 1.1064954E-17
152.1466 1.1061162E-17
152.2895 1.1060920E-17
152.4324 1.1063990E-17
152.5753 1.1069593E-17
152.7182 1.1076561E-17
152.8611 1.1083544E-17
153.0040 1.1089253E-17
153.1470 1.1092663E-17
153.2899 1.1093193E-17
153.4328 1.1090778E-17
153.5757 1.1085871E-17
153.7186 1.1079347E-17
153.8615 1.1072339E-17
154.0044 1.1066028E-17
154.1473 1.1061434E-17
154.2903 1.1059234E-17
154.4332 1.1059641E-17
154.5761 1.1062374E-17
154.7190 1.1066705E-17
154.8619 1.1071598E-17
155.0048 1.1075898E-17
155.1477 1.1078539E-17
155.2906 1.1078751E-17
155.4335 1.1076196E-17
155.5765 1.1071044E-17
155.7194 1.1063949E-17
155.8623 1.1055946E-17
156.0052 1.1048264E-17
156.1481 1.1042131E-17
156.2910 1.1038552E-17
156.4339 1.1038138E-17
156.5768 1.1041009E-17
156.7197 1.1046771E-17
156.8627 1.1054586E-17
157.0056 1.1063316E-17
157.1485 1.1071712E-17
157.2914 1.1078622E-17
157.4343 1.1083175E-17
157.5772 1.1084907E-17
157.7201 1.1083823E-17
157.8630 1.1080375E-17
158.0060 1.1075364E-17
158.1489 1.1069788E-17
158.2918 1.1064666E-17
158.4347 1.1060855E-17
158.5776 1.1058911E-17
158.7205 1.1058990E-17
158.8634 1.1060835E-17
159.0063 1.1063814E-17
159.1492 1.1067031E-17
159.2922 1.1069481E-17
159.4351 1.1070209E-17
159.5780 1.1068472E-17
159.7209 1.1063863E-17
159.8638 1.1056378E-17
160.0067 1.1046421E-17
160.1496 1.1034750E-17
160.2925 1.1022355E-17
160.4355 1.1010314E-17
160.5784 1.0999629E-17
160.7213 1.0991075E-17
160.8642 1.0985083E-17
161.0071 1.0981688E-17
161.1500 1.0980531E-17
161.2929 1.0980924E-17
161.4358 1.0981972E-17
161.5788 1.0982717E-17
161.7217 1.0982294E-17
161.8646 1.0980067E-17
162.0075 1.0975719E-17
162.1504 1.0969284E-17
162.2933 1.0961120E-17
162.4362 1.0951827E-17
162.5791 1.0942122E-17
162.7220 1.0932691E-17
162.8650 1.0924061E-17
163.0079 1.0916496E-17
163.1508 1.0909947E-17
163.2937 1.0904063E-17
163.4366 1.0898253E-17
163.5795 1.0891812E-17
163.7224 1.0884054E-17
163.8653 1.0874460E-17
164.0083 1.0862798E-17
164.1512 1.0849194E-17
164.2941 1.0834156E-17
164.4370 1.0818524E-17
164.5799 1.0803372E-17
164.7228 1.0789868E-17
164.8657 1.0779120E-17
165.0086 1.0772021E-17
165.1515 1.0769126E-17
165.2944 1.0770584E-17
165.4374 1.0776111E-17
165.5803 1.0785037E-17
165.7232 1.0796387E-17
165.8661 1.0809010E-17
166.0090 1.0821712E-17
166.1519 1.0833393E-17
166.2948 1.0843146E-17
166.4377 1.0850327E-17
166.5807 1.0854578E-17
166.7236 1.0855789E-17
166.8665 1.0854046E-17
167.0094 1.0849536E-17
167.1523 1.0842468E-17
167.2952 1.0832997E-17
167.4381 1.0821190E-17
167.5810 1.0807032E-17
167.7240 1.0790481E-17
167.8669 1.0771553E-17
168.0098 1.0750440E-17
168.1527 1.0727609E-17
168.2956 1.0703887E-17
168.4385 1.0680488E-17
168.5814 1.0658972E-17
168.7243 1.0641135E-17
168.8672 1.0628841E-17
169.0102 1.0623793E-17
169.1531 1.0627313E-17
169.2960 1.0640128E-17
169.4389 1.0662219E-17
169.5818 1.0692756E-17
169.7247 1.0730122E-17
169.8676 1.0772043E-17
170.0105 1.0815798E-17
170.1535 1.0858472E-17
170.2964 1.0897239E-17
170.4393 1.0929607E-17
170.5822 1.0953618E-17
170.7251 1.0967963E-17
170.8680 1.0972007E-17
171.0109 1.0965737E-17
171.1538 1.0949650E-17
171.2968 1.0924607E-17
171.4397 1.0891683E-17
171.5826 1.0852062E-17
171.7255 1.0806958E-17
171.8684 1.0757624E-17
172.0113 1.0705392E-17
172.1542 1.0651773E-17
172.2971 1.0598549E-17
172.4400 1.0547861E-17
172.5829 1.0502231E-17
172.7259 1.0464520E-17
172.8688 1.0437790E-17
173.0117 1.0425078E-17
173.1546 1.0429105E-17
173.2975 1.0451938E-17
173.4404 1.0494668E-17
173.5833 1.0557121E-17
173.7262 1.0637685E-17
173.8692 1.0733247E-17
174.0121 1.0839295E-17
174.1550 1.0950166E-17
174.2979 1.1059419E-17
174.4408 1.1160307E-17
174.5837 1.1246286E-17
174.7266 1.1311515E-17
174.8695 1.1351267E-17
175.0125 1.1362254E-17
175.1554 1.1342799E-17
175.2983 1.1292874E-17
175.4412 1.1214022E-17
175.5841 1.1109180E-17
175.7270 1.0982451E-17
175.8699 1.0838882E-17
176.0128 1.0684235E-17
176.1557 1.0524818E-17
176.2987 1.0367338E-17
176.4416 1.0218773E-17
176.5845 1.0086245E-17
176.7274 9.9768305E-18
176.8703 9.8973236E-18
177.0132 9.8539073E-18
177.1561 9.8517443E-18
177.2990 9.8945219E-18
177.4420 9.9839798E-18
177.5849 1.0119494E-17
177.7278 1.0297757E-17
177.8707 1.0512637E-17
178.0136 1.0755234E-17
178.1565 1.1014180E-17
178.2994 1.1276158E-17
178.4423 1.1526625E-17
178.5853 1.1750687E-17