-7.200000 1.0695414E-17
-7.057088 1.0714734E-17
-6.914176 1.0750693E-17
-6.771265 1.0798713E-17
-6.628353 1.0852997E-17
-6.485441 1.0907361E-17
-6.342530 1.0956127E-17
-6.199618 1.0994914E-17
-6.056706 1.1021215E-17
-5.913795 1.1034675E-17
-5.770883 1.1037030E-17
-5.627971 1.1031733E-17
-5.485059 1.1023323E-17
-5.342147 1.1016637E-17
-5.199236 1.1016008E-17
-5.056324 1.1024551E-17
-4.913413 1.1043666E-17
-4.770501 1.1072817E-17
-4.627589 1.1109620E-17
-4.484677 1.1150233E-17
-4.341765 1.1189957E-17
-4.198854 1.1223994E-17
-4.055942 1.1248200E-17
-3.913030 1.1259747E-17
-3.770118 1.1257582E-17
-3.627207 1.1242614E-17
-3.484295 1.1217602E-17
-3.341383 1.1186772E-17
-3.198472 1.1155206E-17
-3.055560 1.1128108E-17
-2.912648 1.1110065E-17
-2.769737 1.1104387E-17
-2.626825 1.1112654E-17
-2.483913 1.1134509E-17
-2.341001 1.1167733E-17
-2.198090 1.1208585E-17
-2.055178 1.1252355E-17
-1.912266 1.1294040E-17
-1.769354 1.1329060E-17
-1.626443 1.1353882E-17
-1.483531 1.1366506E-17
-1.340619 1.1366709E-17
-1.197708 1.1356041E-17
-1.054796 1.1337567E-17
-0.9118841 1.1315397E-17
-0.7689723 1.1294076E-17
-0.6260606 1.1277909E-17
-0.4831489 1.1270330E-17
-0.3402372 1.1273411E-17
-0.1973254 1.1287554E-17
-5.4413714E-02 1.1311438E-17
8.8498011E-02 1.1342233E-17
0.2314097 1.1376011E-17
0.3743215 1.1408350E-17
0.5172332 1.1435006E-17
0.6601449 1.1452560E-17
0.8030567 1.1458955E-17
0.9459684 1.1453827E-17
1.088880 1.1438582E-17
1.231792 1.1416212E-17
1.374704 1.1390858E-17
1.517615 1.1367196E-17
1.660527 1.1349734E-17
1.803439 1.1342126E-17
1.946350 1.1346599E-17
2.089262 1.1363604E-17
2.232174 1.1391716E-17
2.375086 1.1427834E-17
2.517997 1.1467618E-17
2.660909 1.1506143E-17
2.803821 1.1538625E-17
2.946733 1.1561145E-17
3.089644 1.1571244E-17
3.232556 1.1568297E-17
3.375468 1.1553612E-17
3.518379 1.1530234E-17
3.661291 1.1502482E-17
3.804203 1.1475281E-17
3.947115 1.1453418E-17
4.090026 1.1440792E-17
4.232938 1.1439823E-17
4.375850 1.1451082E-17
4.518762 1.1473209E-17
4.661673 1.1503133E-17
4.804585 1.1536571E-17
4.947497 1.1568697E-17
5.090408 1.1594910E-17
5.233320 1.1611553E-17
5.376232 1.1616480E-17
5.519144 1.1609386E-17
5.662055 1.1591838E-17
5.804967 1.1567005E-17
5.947879 1.1539152E-17
6.090790 1.1512955E-17
6.233702 1.1492765E-17
6.376614 1.1481935E-17
6.519526 1.1482317E-17
6.662437 1.1493997E-17
6.805349 1.1515325E-17
6.948261 1.1543206E-17
7.091173 1.1573620E-17
7.234084 1.1602274E-17
7.376996 1.1625281E-17
7.519908 1.1639748E-17
7.662819 1.1644203E-17
7.805731 1.1638767E-17
7.948643 1.1625076E-17
8.091555 1.1605960E-17
8.234467 1.1584942E-17
8.377378 1.1565650E-17
8.520289 1.1551251E-17
8.663201 1.1543977E-17
8.806113 1.1544846E-17
8.949025 1.1553601E-17
9.091937 1.1568868E-17
9.234848 1.1588475E-17
9.377760 1.1609890E-17
9.520672 1.1630655E-17
9.663584 1.1648764E-17
9.806496 1.1662907E-17
9.949407 1.1672542E-17
10.09232 1.1677810E-17
10.23523 1.1679320E-17
10.37814 1.1677862E-17
10.52105 1.1674102E-17
10.66397 1.1668345E-17
10.80688 1.1660406E-17
10.94979 1.1649631E-17
11.09270 1.1635107E-17
11.23561 1.1616049E-17
11.37852 1.1592353E-17
11.52144 1.1565242E-17
11.66435 1.1537881E-17
11.80726 1.1515780E-17
11.95017 1.1506740E-17
12.09308 1.1520103E-17
12.23599 1.1565121E-17
12.37891 1.1648442E-17
12.52182 1.1770975E-17
12.66473 1.1924729E-17
12.80764 1.2090568E-17
12.95055 1.2237968E-17
13.09346 1.2327855E-17
13.23638 1.2319101E-17
13.37929 1.2178452E-17
13.52220 1.1892501E-17
13.66511 1.1479120E-17
13.80802 1.0994814E-17
13.95094 1.0534206E-17
14.09385 1.0218677E-17
14.23676 1.0173182E-17
14.37967 1.0493391E-17
14.52258 1.1208923E-17
14.66549 1.2251802E-17
14.80841 1.3441108E-17
14.95132 1.4494132E-17
15.09423 1.5070435E-17
15.23714 1.4848036E-17
15.38005 1.3621419E-17
15.52296 1.1401290E-17
15.66588 8.4884232E-18
15.80879 5.4917596E-18
15.95170 3.2663170E-18
16.09461 2.7605819E-18
16.23752 4.7846339E-18
16.38043 9.7358529E-18
16.52335 1.7342798E-17
16.66626 2.6502731E-17
16.80917 3.5287462E-17
16.95208 4.1171145E-17
17.09499 4.1491896E-17
17.23791 3.4101355E-17
17.38082 1.8093251E-17
17.52373 -5.5516012E-18
17.66664 -3.3594137E-17
17.80955 -6.0616814E-17
17.95246 -7.9670086E-17
18.09538 -8.3493202E-17
18.23829 -6.6177222E-17
18.38120 -2.4992217E-17
18.52411 3.8015762E-17
18.66702 1.1510463E-16
18.80993 1.9299705E-16
18.95285 2.5437591E-16
19.09576 2.8071948E-16
19.23867 2.5616934E-16
19.38158 1.7180717E-16
19.52449 2.9468736E-17
19.66740 -1.5588187E-16
19.81032 -3.5610035E-16
19.95323 -5.3269801E-16
20.09614 -6.4261319E-16
20.23905 -6.4632579E-16
20.38196 -5.1707237E-16
20.52488 -2.4941205E-16
20.66779 1.3483997E-16
20.81070 5.8513163E-16
20.95361 1.0263836E-15
21.09652 1.3691546E-15
21.23943 1.5248159E-15
21.38235 1.4235523E-15
21.52526 1.0320100E-15
21.66817 3.6690810E-16
21.81108 -4.9888266E-16
21.95399 -1.4403401E-15
22.09690 -2.2952814E-15
22.23981 -2.8891675E-15
22.38273 -3.0663766E-15
22.52564 -2.7227857E-15
22.66855 -1.8334782E-15
22.81146 -4.6947791E-16
22.95437 1.2012670E-15
23.09729 2.9309623E-15
23.24020 4.4261901E-15
23.38311 5.3949197E-15
23.52602 5.5989619E-15
23.66893 4.9026834E-15
23.81184 3.3085342E-15
23.95476 9.7152583E-16
24.09767 -1.8119485E-15
24.24058 -4.6411396E-15
24.38349 -7.0691777E-15
24.52640 -8.6736199E-15
24.66932 -9.1275694E-15
24.81223 -8.2588880E-15
24.95514 -6.0866343E-15
25.09805 -2.8276111E-15
25.24096 1.1288265E-15
25.38387 5.2738474E-15
25.52678 9.0512026E-15
25.66970 1.1936031E-14
25.81261 1.3507276E-14
25.95552 1.3502321E-14
26.09843 1.1846370E-14
26.24134 8.6543974E-15
26.38426 4.2088847E-15
26.52717 -1.0792478E-15
26.67008 -6.7169755E-15
26.81299 -1.2173848E-14
26.95590 -1.6919014E-14
27.09881 -2.0449117E-14
27.24173 -2.2310297E-14
27.38464 -2.2120872E-14
27.52755 -1.9602042E-14
27.67046 -1.4621488E-14
27.81337 -7.2492053E-15
27.95629 2.1824507E-15
28.09920 1.3029714E-14
28.24211 2.4319454E-14
28.38502 3.4782713E-14
28.52793 4.2954640E-14
28.67084 4.7344300E-14
28.81376 4.6662283E-14
28.95667 4.0076642E-14
29.09958 2.7453183E-14
29.24249 9.5277849E-15
29.38540 -1.2039750E-14
29.52831 -3.4767670E-14
29.67122 -5.5623163E-14
29.81414 -7.1443299E-14
29.95705 -7.9453093E-14
30.09996 -7.7798160E-14
30.24287 -6.5991815E-14
30.38578 -4.5176086E-14
30.52870 -1.8116364E-14
30.67161 1.1111203E-14
30.81452 3.7726204E-14
30.95743 5.7071054E-14
31.10034 6.5531077E-14
31.24325 6.1382099E-14
31.38617 4.5389331E-14
31.52908 2.1002524E-14
31.67199 -5.9524978E-15
31.81490 -2.8105527E-14
31.95781 -3.7819506E-14
32.10072 -2.8741796E-14
32.24364 2.6195087E-15
32.38655 5.5584430E-14
32.52946 1.2453985E-13
32.67237 1.9895651E-13
32.81528 2.6430854E-13
32.95819 3.0388149E-13
33.10111 3.0130108E-13
33.24402 2.4347061E-13
33.38693 1.2349434E-13
33.52984 -5.6889647E-14
33.67275 -2.8583136E-13
33.81567 -5.4121871E-13
33.95858 -7.9207420E-13
34.10149 -1.0015107E-12
34.24440 -1.1310292E-12
34.38731 -1.1457194E-12
34.53022 -1.0197409E-12
34.67313 -7.4135224E-13
34.81605 -3.1672936E-13
34.95896 2.2810191E-13
35.10187 8.4771833E-13
35.24478 1.4803696E-12
35.38770 2.0535793E-12
35.53061 2.4918427E-12
35.67352 2.7256660E-12
35.81643 2.7009313E-12
35.95934 2.3874143E-12
36.10225 1.7852626E-12
36.24516 9.2836904E-13
36.38808 -1.1613655E-13
36.53099 -1.2526360E-12
36.67390 -2.3658605E-12
36.81681 -3.3331048E-12
36.95972 -4.0385846E-12
37.10263 -4.3882801E-12
37.24555 -4.3233689E-12
37.38846 -3.8303236E-12
37.53137 -2.9460152E-12
37.67428 -1.7566506E-12
37.81719 -3.9011979E-13
37.96011 9.9782335E-13
38.10302 2.2422103E-12
38.24593 3.1902048E-12
38.38884 3.7224351E-12
38.53175 3.7713522E-12
38.67466 3.3338258E-12
38.81758 2.4757531E-12
38.96049 1.3274203E-12
39.10340 6.9563895E-14
39.24631 -1.0886052E-12
39.38922 -1.9369252E-12
39.53214 -2.2939216E-12
39.67505 -2.0346075E-12
39.81796 -1.1125468E-12
39.96087 4.2714543E-13
40.10378 2.4460677E-12
40.24669 4.7228241E-12
40.38961 6.9744943E-12
40.53252 8.8869129E-12
40.67543 1.0150179E-11
40.81834 1.0495125E-11
40.96125 9.7263161E-12
41.10416 7.7477165E-12
41.24707 4.5780814E-12
41.38999 3.5457574E-13
41.53290 -4.6754441E-12
41.67581 -1.0173136E-11
41.81872 -1.5734943E-11
41.96163 -2.0924354E-11
42.10455 -2.5305445E-11
42.24746 -2.8475231E-11
42.39037 -3.0092547E-11
42.53328 -2.9901921E-11
42.67619 -2.7751631E-11
42.81910 -2.3605786E-11
42.96202 -1.7550522E-11
43.10493 -9.7945211E-12
43.24784 -6.6382072E-13
43.39075 9.4093301E-12
43.53366 1.9903978E-11
43.67657 3.0234749E-11
43.81948 3.9782920E-11
43.96240 4.7933629E-11
44.10531 5.4117572E-11
44.24822 5.7854485E-11
44.39113 5.8794747E-11
44.53405 5.6754657E-11
44.67696 5.1740872E-11
44.81987 4.3959978E-11
44.96278 3.3810208E-11
45.10569 2.1854121E-11
45.24860 8.7732634E-12
45.39151 -4.6920120E-12
45.53443 -1.7812070E-11
45.67734 -2.9939759E-11
45.82025 -4.0576199E-11
45.96316 -4.9422230E-11
46.10608 -5.6407941E-11
46.24899 -6.1694407E-11
46.39190 -6.5644441E-11
46.53481 -6.8762329E-11
46.67772 -7.1606283E-11
46.82063 -7.4681199E-11
46.96354 -7.8322848E-11
47.10646 -8.2587347E-11
47.24937 -8.7161847E-11
47.39228 -9.1312125E-11
47.53519 -9.3881437E-11
47.67810 -9.3350931E-11
47.82101 -8.7966037E-11
47.96392 -7.5925530E-11
48.10684 -5.5620973E-11
48.24975 -2.5905361E-11
48.39266 1.3638543E-11
48.53557 6.2464978E-11
48.67849 1.1890397E-10
48.82140 1.8010610E-10
48.96431 2.4211919E-10
49.10722 3.0010971E-10
49.25013 3.4872530E-10
49.39304 3.8257450E-10
49.53595 3.9678305E-10
49.67887 3.8756834E-10
49.82178 3.5276546E-10
49.96469 2.9223537E-10
50.10760 2.0809371E-10
50.25051 1.0471390E-10
50.39342 -1.1515939E-11
50.53634 -1.3267583E-10
50.67925 -2.4999763E-10
50.82216 -3.5468453E-10
50.96507 -4.3877937E-10
51.10798 -4.9598459E-10
51.25090 -5.2233745E-10
51.39381 -5.1665855E-10
51.53672 -4.8071497E-10
51.67963 -4.1907347E-10
51.82254 -3.3865361E-10
51.96545 -2.4802743E-10
52.10837 -1.5654009E-10
52.25128 -7.3346398E-11
52.39419 -6.4664463E-12
52.53710 3.8041539E-11
52.68001 5.6707888E-11
52.82293 4.9019046E-11
52.96584 1.7495927E-11
53.10875 -3.2516309E-11
53.25166 -9.3319887E-11
53.39457 -1.5554795E-10
53.53748 -2.0899615E-10
53.68040 -2.4353153E-10
53.82331 -2.5000704E-10
53.96622 -2.2111608E-10
54.10913 -1.5212752E-10
54.25204 -4.1453670E-11
54.39495 1.0898818E-10
54.53786 2.9364863E-10
54.68078 5.0347154E-10
54.82369 7.2627787E-10
54.96660 9.4740082E-10
55.10951 1.1505473E-09
55.25242 1.3188466E-09
55.39534 1.4360202E-09
55.53825 1.4875989E-09
55.68116 1.4620903E-09
55.82407 1.3519992E-09
55.96698 1.1546037E-09
56.10989 8.7240876E-10
56.25281 5.1321664E-10
56.39572 8.9798766E-11
56.53863 -3.8081224E-10
56.68154 -8.7834967E-10
56.82445 -1.3805591E-09
56.96737 -1.8645419E-09
57.11028 -2.3080602E-09
57.25319 -2.6906795E-09
57.39610 -2.9946401E-09
57.53901 -3.2054017E-09
57.68192 -3.3118370E-09
57.82484 -3.3061192E-09
57.96775 -3.1833824E-09
58.11066 -2.9412830E-09
58.25357 -2.5795905E-09
58.39648 -2.0999584E-09
58.53939 -1.5059741E-09
58.68230 -8.0356122E-10
58.82522 -1.7306951E-12
58.96813 8.8638225E-10
59.11104 1.8423401E-09
59.25395 2.8412837E-09
59.39687 3.8511221E-09
59.53978 4.8322981E-09
59.68269 5.7383822E-09
59.82560 6.5177153E-09
59.96851 7.1162294E-09
60.11142 7.4814848E-09
60.25433 7.5678370E-09
60.39725 7.3425044E-09
60.54016 6.7922019E-09
60.68307 5.9298633E-09
60.82598 4.8009148E-09
60.96889 3.4885068E-09
61.11180 2.1171049E-09
61.25471 8.5391105E-10
61.39763 -9.2326161E-11
61.54054 -4.7540871E-10
61.68345 -1.8799594E-11
61.82636 1.5743377E-09
61.96928 4.6084665E-09
62.11219 9.3808552E-09
62.25510 1.6165258E-08
62.39801 2.5194902E-08
62.54092 3.6645648E-08
62.68383 5.0620251E-08
62.82674 6.7134700E-08
62.96966 8.6107484E-08
63.11257 1.0735265E-07
63.25548 1.3057739E-07
63.39839 1.5538494E-07
63.54131 1.8128306E-07
63.68422 2.0769876E-07
63.82713 2.3399934E-07
63.97004 2.5951985E-07
64.11295 2.8359656E-07
64.25586 3.0560625E-07
64.39877 3.2500986E-07
64.54169 3.4140007E-07
64.68460 3.5455014E-07
64.82751 3.6446227E-07
64.97042 3.7141297E-07
65.11333 3.7599187E-07
65.25625 3.7913068E-07
65.39915 3.8211900E-07
65.54207 3.8660252E-07
65.68498 3.9456052E-07
65.82789 4.0825907E-07
65.97080 4.3017687E-07
66.11372 4.6290174E-07
66.25663 5.0899649E-07
66.39954 5.7083383E-07
66.54245 6.5040115E-07
66.68536 7.4907848E-07
66.82828 8.6739169E-07
66.97118 1.0047474E-06
67.11410 1.1591565E-06
67.25701 1.3269508E-06
67.39992 1.5025068E-06
67.54283 1.6779819E-06
67.68575 1.8430740E-06
67.82866 1.9848183E-06
67.97157 2.0874268E-06
68.11448 2.1321864E-06
68.25739 2.0974201E-06
68.40031 1.9585220E-06
68.54321 1.6880761E-06
68.68613 1.2560563E-06
68.82904 6.3011976E-07
68.97195 -2.2401001E-07
69.11486 -1.3420748E-06
69.25777 -2.7607252E-06
69.40069 -4.5168895E-06
69.54359 -6.6470730E-06
69.68651 -9.1866068E-06
69.82942 -1.2168852E-05
69.97233 -1.5624384E-05
70.11524 -1.9580184E-05
70.25816 -2.4058822E-05
70.40107 -2.9077708E-05
70.54398 -3.4648379E-05
70.68689 -4.0775885E-05
70.82980 -4.7458263E-05
70.97272 -5.4686119E-05
71.11562 -6.2442370E-05
71.25854 -7.0702103E-05
71.40145 -7.9432604E-05
71.54436 -8.8593530E-05
71.68727 -9.8137236E-05
71.83018 -1.0800928E-04
71.97310 -1.1814907E-04
72.11600 -1.2849057E-04
72.25892 -1.3896333E-04
72.40183 -1.4949328E-04
72.54475 -1.6000401E-04
72.68765 -1.7041776E-04
72.83057 -1.8065664E-04
72.97348 -1.9064386E-04
73.11639 -2.0030470E-04
73.25930 -2.0956779E-04
73.40221 -2.1836605E-04
73.54513 -2.2663763E-04
73.68803 -2.3432670E-04
73.83095 -2.4138420E-04
73.97386 -2.4776833E-04
74.11678 -2.5344494E-04
74.25968 -2.5838776E-04
74.40260 -2.6257843E-04
74.54551 -2.6600633E-04
74.68842 -2.6866863E-04
74.83133 -2.7056952E-04
74.97424 -2.7172003E-04
75.11716 -2.7213720E-04
75.26006 -2.7184360E-04
75.40298 -2.7086653E-04
75.54589 -2.6923709E-04
75.68880 -2.6698972E-04
75.83171 -2.6416115E-04
75.97462 -2.6078979E-04
76.11754 -2.5691505E-04
76.26044 -2.5257681E-04
76.40336 -2.4781469E-04
76.54627 -2.4266787E-04
76.68919 -2.3717449E-04
76.83209 -2.3137167E-04
76.97501 -2.2529511E-04
77.11792 -2.1897920E-04
77.26083 -2.1245699E-04
77.40374 -2.0576020E-04
77.54665 -1.9891940E-04
77.68957 -1.9196412E-04
77.83247 -1.8492309E-04
77.97539 -1.7782423E-04
78.11830 -1.7069501E-04
78.26122 -1.6356249E-04
78.40412 -1.5645336E-04
78.54704 -1.4939407E-04
78.68995 -1.4241075E-04
78.83286 -1.3552916E-04
78.97577 -1.2877453E-04
79.11868 -1.2217133E-04
79.26160 -1.1574307E-04
79.40450 -1.0951194E-04
79.54742 -1.0349835E-04
79.69033 -9.7720746E-05
79.83324 -9.2194954E-05
79.97615 -8.6933884E-05
80.11906 -8.1947117E-05
80.26198 -7.7240526E-05
80.40488 -7.2815921E-05
80.54780 -6.8670866E-05
80.69071 -6.4798405E-05
80.83363 -6.1187107E-05
80.97653 -5.7821006E-05
81.11945 -5.4679749E-05
81.26236 -5.1738873E-05
81.40527 -4.8970098E-05
81.54818 -4.6341716E-05
81.69109 -4.3819156E-05
81.83401 -4.1365573E-05
81.97691 -3.8942337E-05
82.11983 -3.6509813E-05
82.26274 -3.4027908E-05
82.40565 -3.1456781E-05
82.54856 -2.8757398E-05
82.69147 -2.5892206E-05
82.83439 -2.2825545E-05
82.97730 -1.9524150E-05
83.12021 -1.5957612E-05
83.26312 -1.2098596E-05
83.40604 -7.9231831E-06
83.54894 -3.4109903E-06
83.69186 1.4546526E-06
83.83477 6.6867174E-06
83.97768 1.2294438E-05
84.12059 1.8283374E-05
84.26350 2.4655439E-05
84.40642 3.1409050E-05
84.54933 3.8539230E-05
84.69224 4.6037814E-05
84.83515 5.3893451E-05
84.97807 6.2091814E-05
85.12097 7.0615752E-05
85.26389 7.9445301E-05
85.40680 8.8557863E-05
85.54971 9.7928169E-05
85.69262 1.0752848E-04
85.83553 1.1732848E-04
85.97845 1.2729544E-04
86.12135 1.3739418E-04
86.26427 1.4758712E-04
86.40718 1.5783444E-04
86.55009 1.6809397E-04
86.69300 1.7832153E-04
86.83591 1.8847086E-04
86.97883 1.9849402E-04
87.12174 2.0834144E-04
87.26465 2.1796238E-04
87.40756 2.2730515E-04
87.55048 2.3631753E-04
87.69338 2.4494724E-04
87.83630 2.5314238E-04
87.97921 2.6085202E-04
88.12212 2.6802660E-04
88.26503 2.7461874E-04
88.40794 2.8058363E-04
88.55086 2.8587974E-04
88.69377 2.9046941E-04
88.83668 2.9431941E-04
88.97959 2.9740142E-04
89.12251 2.9969274E-04
89.26541 3.0117648E-04
89.40833 3.0184220E-04
89.55124 3.0168597E-04
89.69415 3.0071079E-04
89.83706 2.9892664E-04
89.97997 2.9635048E-04
90.12289 2.9300625E-04
90.26580 2.8892461E-04
90.40871 2.8414285E-04
90.55162 2.7870428E-04
90.69453 2.7265804E-04
90.83744 2.6605843E-04
90.98035 2.5896422E-04
91.12327 2.5143806E-04
91.26618 2.4354570E-04
91.40909 2.3535510E-04
91.55200 2.2693552E-04
91.69492 2.1835668E-04
91.83783 2.0968770E-04
91.98074 2.0099606E-04
92.12365 1.9234666E-04
92.26656 1.8380090E-04
92.40947 1.7541565E-04
92.55238 1.6724238E-04
92.69530 1.5932645E-04
92.83821 1.5170636E-04
92.98112 1.4441331E-04
93.12403 1.3747069E-04
93.26694 1.3089400E-04
93.40986 1.2469063E-04
93.55276 1.1886017E-04
93.69568 1.1339458E-04
93.83859 1.0827868E-04
93.98150 1.0349088E-04
94.12441 9.9003882E-05
94.26733 9.4785712E-05
94.41024 9.0800713E-05
94.55315 8.7010696E-05
94.69606 8.3376181E-05
94.83897 7.9857615E-05
94.98188 7.6416698E-05
95.12479 7.3017552E-05
95.26771 6.9627968E-05
95.41062 6.6220484E-05
95.55353 6.2773317E-05
95.69644 5.9271224E-05
95.83936 5.5706063E-05
95.98227 5.2077197E-05
96.12518 4.8391623E-05
96.26809 4.4663870E-05
96.41100 4.0915584E-05
96.55391 3.7174948E-05
96.69682 3.3475757E-05
96.83974 2.9856374E-05
96.98265 2.6358461E-05
97.12556 2.3025621E-05
97.26847 1.9901943E-05
97.41138 1.7030536E-05
97.55430 1.4452094E-05
97.69720 1.2203567E-05
97.84012 1.0316930E-05
97.98303 8.8181487E-06
98.12594 7.7263448E-06
98.26885 7.0531905E-06
98.41177 6.8025365E-06
98.55468 6.9703028E-06
98.69759 7.5446046E-06
98.84050 8.5061292E-06
98.98341 9.8287437E-06
99.12633 1.1480283E-05
99.26923 1.3423542E-05
99.41215 1.5617397E-05
99.55506 1.8018029E-05
99.69797 2.0580228E-05
99.84088 2.3258674E-05
99.98380 2.6009197E-05
100.1267 2.8789969E-05
100.2696 3.1562511E-05
100.4125 3.4292549E-05
100.5554 3.6950642E-05
100.6984 3.9512604E-05
100.8413 4.1959604E-05
100.9842 4.4278091E-05
101.1271 4.6459416E-05
101.2700 4.8499303E-05
101.4129 5.0397080E-05
101.5558 5.2154832E-05
101.6987 5.3776406E-05
101.8416 5.5266461E-05
101.9846 5.6629426E-05
102.1275 5.7868634E-05
102.2704 5.8985439E-05
102.4133 5.9978604E-05
102.5562 6.0843744E-05
102.6991 6.1573061E-05
102.8420 6.2155203E-05
102.9849 6.2575447E-05
103.1279 6.2816041E-05
103.2708 6.2856743E-05
103.4137 6.2675645E-05
103.5566 6.2250088E-05
103.6995 6.1557745E-05
103.8424 6.0577815E-05
103.9853 5.9292259E-05
104.1282 5.7686997E-05
104.2711 5.5753113E-05
104.4141 5.3487867E-05
104.5570 5.0895611E-05
104.6999 4.7988440E-05
104.8428 4.4786604E-05
104.9857 4.1318668E-05
105.1286 3.7621339E-05
105.2715 3.3739023E-05
105.4144 2.9723085E-05
105.5574 2.5630838E-05
105.7003 2.1524289E-05
105.8432 1.7468708E-05
105.9861 1.3531015E-05
106.1290 9.7780830E-06
106.2719 6.2749991E-06
106.4148 3.0833355E-06
106.5577 2.5948785E-07
106.7006 -2.1468543E-06
106.8436 -4.0940531E-06
106.9865 -5.5496630E-06
107.1294 -6.4912811E-06
107.2723 -6.9071198E-06
107.4152 -6.7962701E-06
107.5581 -6.1686192E-06
107.7010 -5.0444819E-06
107.8439 -3.4538903E-06
107.9869 -1.4356309E-06
108.1298 9.6398128E-07
108.2727 3.6925012E-06
108.4156 6.6929592E-06
108.5585 9.9055014E-06
108.7014 1.3269109E-05
108.8443 1.6723299E-05
108.9872 2.0209733E-05
109.1301 2.3673740E-05
109.2731 2.7065640E-05
109.4160 3.0341909E-05
109.5589 3.3466065E-05
109.7018 3.6409376E-05
109.8447 3.9151262E-05
109.9876 4.1679472E-05
110.1305 4.3990018E-05
110.2734 4.6086894E-05
110.4164 4.7981612E-05
110.5593 4.9692539E-05
110.7022 5.1244151E-05
110.8451 5.2666153E-05
110.9880 5.3992560E-05
111.1309 5.5260720E-05
111.2738 5.6510362E-05
111.4167 5.7782643E-05
111.5596 5.9119247E-05
111.7026 6.0561528E-05
111.8455 6.2149753E-05
111.9884 6.3922431E-05
112.1313 6.5915709E-05
112.2742 6.8162932E-05
112.4171 7.0694266E-05
112.5600 7.3536488E-05
112.7029 7.6712844E-05
112.8458 8.0243051E-05
112.9888 8.4143365E-05
113.1317 8.8426750E-05
113.2746 9.3103088E-05
113.4175 9.8179429E-05
113.5604 1.0366023E-04
113.7033 1.0954760E-04
113.8462 1.1584152E-04
113.9891 1.2253995E-04
114.1321 1.2963895E-04
114.2750 1.3713272E-04
114.4179 1.4501353E-04
114.5608 1.5327167E-04
114.7037 1.6189532E-04
114.8466 1.7087047E-04
114.9895 1.8018065E-04
115.1324 1.8980692E-04
115.2754 1.9972760E-04
115.4183 2.0991819E-04
115.5612 2.2035130E-04
115.7041 2.3099652E-04
115.8470 2.4182032E-04
115.9899 2.5278618E-04
116.1328 2.6385454E-04
116.2757 2.7498291E-04
116.4186 2.8612616E-04
116.5616 2.9723669E-04
116.7045 3.0826495E-04
116.8474 3.1915982E-04
116.9903 3.2986916E-04
117.1332 3.4034057E-04
117.2761 3.5052211E-04
117.4190 3.6036299E-04
117.5619 3.6981443E-04
117.7048 3.7883045E-04
117.8478 3.8736858E-04
117.9907 3.9539050E-04
118.1336 4.0286276E-04
118.2765 4.0975705E-04
118.4194 4.1605069E-04
118.5623 4.2172684E-04
118.7052 4.2677458E-04
118.8481 4.3118885E-04
118.9911 4.3497037E-04
119.1340 4.3812534E-04
119.2769 4.4066497E-04
119.4198 4.4260520E-04
119.5627 4.4396590E-04
119.7056 4.4477044E-04
119.8485 4.4504483E-04
119.9914 4.4481701E-04
120.1343 4.4411613E-04
120.2773 4.4297177E-04
120.4202 4.4141323E-04
120.5631 4.3946871E-04
120.7060 4.3716491E-04
120.8489 4.3452633E-04
120.9918 4.3157506E-04
121.1347 4.2833036E-04
121.2776 4.2480874E-04
121.4206 4.2102381E-04
121.5635 4.1698667E-04
121.7064 4.1270626E-04
121.8493 4.0818981E-04
121.9922 4.0344364E-04
122.1351 3.9847379E-04
122.2780 3.9328681E-04
122.4209 3.8789082E-04
122.5639 3.8229610E-04
122.7068 3.7651623E-04
122.8497 3.7056860E-04
122.9926 3.6447521E-04
123.1355 3.5826312E-04
123.2784 3.5196499E-04
123.4213 3.4561910E-04
123.5642 3.3926946E-04
123.7071 3.3296563E-04
123.8501 3.2676238E-04
123.9930 3.2071909E-04
124.1359 3.1489911E-04
124.2788 3.0936871E-04
124.4217 3.0419626E-04
124.5646 2.9945080E-04
124.7075 2.9520091E-04
124.8504 2.9151325E-04
124.9933 2.8845115E-04
125.1363 2.8607299E-04
125.2792 2.8443107E-04
125.4221 2.8356985E-04
125.5650 2.8352509E-04
125.7079 2.8432242E-04
125.8508 2.8597657E-04
125.9937 2.8849064E-04
126.1366 2.9185545E-04
126.2795 2.9604972E-04
126.4225 3.0103952E-04
126.5654 3.0677894E-04
126.7083 3.1321042E-04
126.8512 3.2026536E-04
126.9941 3.2786524E-04
127.1370 3.3592220E-04
127.2799 3.4434046E-04
127.4228 3.5301765E-04
127.5658 3.6184586E-04
127.7087 3.7071301E-04
127.8516 3.7950437E-04
127.9945 3.8810386E-04
128.1374 3.9639525E-04
128.2803 4.0426379E-04
128.4232 4.1159737E-04
128.5661 4.1828814E-04
128.7090 4.2423344E-04
128.8520 4.2933715E-04
128.9949 4.3351096E-04
129.1378 4.3667536E-04
129.2807 4.3876065E-04
129.4236 4.3970809E-04
129.5665 4.3947046E-04
129.7094 4.3801262E-04
129.8523 4.3531237E-04
129.9953 4.3136047E-04
130.1382 4.2616128E-04
130.2811 4.1973221E-04
130.4240 4.1210413E-04
130.5669 4.0332068E-04
130.7098 3.9343807E-04
130.8527 3.8252436E-04
130.9956 3.7065844E-04
131.1385 3.5792930E-04
131.2815 3.4443475E-04
131.4244 3.3028005E-04
131.5673 3.1557650E-04
131.7102 3.0043983E-04
131.8531 2.8498826E-04
131.9960 2.6934090E-04
132.1389 2.5361576E-04
132.2818 2.3792779E-04
132.4248 2.2238708E-04
132.5677 2.0709714E-04
132.7106 1.9215314E-04
132.8535 1.7764042E-04
132.9964 1.6363345E-04
133.1393 1.5019457E-04
133.2822 1.3737350E-04
133.4251 1.2520699E-04
133.5681 1.1371853E-04
133.7110 1.0291865E-04
133.8539 9.2805392E-05
133.9968 8.3364881E-05
134.1397 7.4572396E-05
134.2826 6.6393201E-05
134.4255 5.8783884E-05
134.5684 5.1693241E-05
134.7113 4.5064124E-05
134.8542 3.8834063E-05
134.9972 3.2936983E-05
135.1401 2.7304019E-05
135.2830 2.1864829E-05
135.4259 1.6548413E-05
135.5688 1.1283601E-05
135.7117 6.0001685E-06
135.8546 6.2898943E-07
135.9975 -4.8976322E-06
136.1405 -1.0645825E-05
136.2834 -1.6680307E-05
136.4263 -2.3064635E-05
136.5692 -2.9861290E-05
136.7121 -3.7132209E-05
136.8550 -4.4939286E-05
136.9979 -5.3344564E-05
137.1408 -6.2410785E-05
137.2838 -7.2201634E-05
137.4267 -8.2781757E-05
137.5696 -9.4216783E-05
137.7125 -1.0657305E-04
137.8554 -1.1991739E-04
137.9983 -1.3431626E-04
138.1412 -1.4983493E-04
138.2841 -1.6653654E-04
138.4270 -1.8448073E-04
138.5700 -2.0372211E-04
138.7129 -2.2430879E-04
138.8558 -2.4628034E-04
138.9987 -2.6966631E-04
139.1416 -2.9448388E-04
139.2845 -3.2073632E-04
139.4274 -3.4841092E-04
139.5703 -3.7747732E-04
139.7133 -4.0788599E-04
139.8562 -4.3956691E-04
139.9991 -4.7242834E-04
140.1420 -5.0635624E-04
140.2849 -5.4121396E-04
140.4278 -5.7684176E-04
140.5707 -6.1305769E-04
140.7136 -6.4965780E-04
140.8566 -6.8641757E-04
140.9995 -7.2309340E-04
141.1424 -7.5942429E-04
141.2853 -7.9513440E-04
141.4282 -8.2993531E-04
141.5711 -8.6352910E-04
141.7140 -8.9561177E-04
141.8569 -9.2587672E-04
141.9998 -9.5401815E-04
142.1427 -9.7973540E-04
142.2857 -1.0027370E-03
142.4286 -1.0227445E-03
142.5715 -1.0394970E-03
142.7144 -1.0527550E-03
142.8573 -1.0623049E-03
143.0002 -1.0679621E-03
143.1431 -1.0695752E-03
143.2860 -1.0670294E-03
143.4290 -1.0602491E-03
143.5719 -1.0492001E-03
143.7148 -1.0338926E-03
143.8577 -1.0143815E-03
144.0006 -9.9076808E-04
144.1435 -9.6319924E-04
144.2864 -9.3186728E-04
144.4293 -8.9700823E-04
144.5723 -8.5890008E-04
144.7152 -8.1785966E-04
144.8581 -7.7423913E-04
145.0010 -7.2842231E-04
145.1439 -6.8081927E-04
145.2868 -6.3186121E-04
145.4297 -5.8199547E-04
145.5726 -5.3167896E-04
145.7155 -4.8137188E-04
145.8585 -4.3153288E-04
146.0014 -3.8261103E-04
146.1443 -3.3504001E-04
146.2872 -2.8923168E-04
146.4301 -2.4557163E-04
146.5730 -2.0441147E-04
146.7159 -1.6606573E-04
146.8588 -1.3080615E-04
147.0018 -9.8858218E-05
147.1447 -7.0397997E-05
147.2876 -4.5549914E-05
147.4305 -2.4385707E-05
147.5734 -6.9238381E-06
147.7163 6.8705740E-06
147.8592 1.7083090E-05
148.0021 2.3849214E-05
148.1451 2.7350294E-05
148.2880 2.7809763E-05
148.4309 2.5488916E-05
148.5738 2.0681675E-05
148.7167 1.3709509E-05
148.8596 4.9151267E-06
149.0025 -5.3428803E-06
149.1454 -1.6696664E-05
149.2883 -2.8774923E-05
149.4312 -4.1208958E-05
149.5742 -5.3638738E-05
149.7171 -6.5718450E-05
149.8600 -7.7121687E-05
150.0029 -8.7546701E-05
150.1458 -9.6720782E-05
150.2887 -1.0440391E-04
150.4316 -1.1039252E-04
150.5745 -1.1452192E-04
150.7175 -1.1666789E-04
150.8604 -1.1674835E-04
151.0033 -1.1472355E-04
151.1462 -1.1059528E-04
151.2891 -1.0440616E-04
151.4320 -9.6237476E-05
151.5749 -8.6206535E-05
151.7178 -7.4463467E-05
151.8607 -6.1188017E-05
152.0037 -4.6584435E-05
152.1466 -3.0877371E-05
152.2895 -1.4307419E-05
152.4324 2.8747827E-06
152.5753 2.0413534E-05
152.7182 3.8052938E-05
152.8611 5.5542994E-05
153.0040 7.2644601E-05
153.1470 8.9135363E-05
153.2899 1.0481416E-04
153.4328 1.1950678E-04
153.5757 1.3306955E-04
153.7186 1.4539408E-04
153.8615 1.5641026E-04
154.0044 1.6608890E-04
154.1473 1.7444420E-04
154.2903 1.8153388E-04
154.4332 1.8746027E-04
154.5761 1.9236842E-04
154.7190 1.9644476E-04
154.8619 1.9991450E-04
155.0048 2.0303778E-04
155.1477 2.0610518E-04
155.2906 2.0943237E-04
155.4335 2.1335475E-04
155.5765 2.1822072E-04
155.7194 2.2438506E-04
155.8623 2.3220172E-04
156.0052 2.4201679E-04
156.1481 2.5416087E-04
156.2910 2.6894180E-04
156.4339 2.8663728E-04
156.5768 3.0748799E-04
156.7197 3.3169112E-04
156.8627 3.5939383E-04
157.0056 3.9068828E-04
157.1485 4.2560662E-04
157.2914 4.6411747E-04
157.4343 5.0612283E-04
157.5772 5.5145659E-04
157.7201 5.9988385E-04
157.8630 6.5110158E-04
158.0060 7.0474029E-04
158.1489 7.6036667E-04
158.2918 8.1748754E-04
158.4347 8.7555469E-04
158.5776 9.3397038E-04
158.7205 9.9209370E-04
158.8634 1.0492478E-03
159.0063 1.1047268E-03
159.1492 1.1578042E-03
159.2922 1.2077416E-03
159.4351 1.2537962E-03
159.5780 1.2952305E-03
159.7209 1.3313206E-03
159.8638 1.3613657E-03
160.0067 1.3846958E-03
160.1496 1.4006813E-03
160.2925 1.4087411E-03
160.4355 1.4083501E-03
160.5784 1.3990469E-03
160.7213 1.3804401E-03
160.8642 1.3522150E-03
161.0071 1.3141381E-03
161.1500 1.2660617E-03
161.2929 1.2079268E-03
161.4358 1.1397661E-03
161.5788 1.0617047E-03
161.7217 9.7396103E-04
161.8646 8.7684597E-04
162.0075 7.7076152E-04
162.1504 6.5619848E-04
162.2933 5.3373305E-04
162.4362 4.0402269E-04
162.5791 2.6780178E-04
162.7220 1.2587510E-04
162.8650 -2.0887659E-05
163.0079 -1.7155953E-04
163.1508 -3.2516391E-04
163.2937 -4.8068186E-04
163.4366 -6.3706184E-04
163.5795 -7.9322775E-04
163.7224 -9.4808883E-04
163.8653 -1.1005483E-03
164.0083 -1.2495129E-03
164.1512 -1.3939033E-03
164.2941 -1.5326617E-03
164.4370 -1.6647631E-03
164.5799 -1.7892224E-03
164.7228 -1.9051047E-03
164.8657 -2.0115334E-03
165.0086 -2.1076971E-03
165.1515 -2.1928591E-03
165.2944 -2.2663623E-03
165.4374 -2.3276377E-03
165.5803 -2.3762083E-03
165.7232 -2.4116952E-03
165.8661 -2.4338206E-03
166.0090 -2.4424123E-03
166.1519 -2.4374044E-03
166.2948 -2.4188387E-03
166.4377 -2.3868654E-03
166.5807 -2.3417415E-03
166.7236 -2.2838279E-03
166.8665 -2.2135871E-03
167.0094 -2.1315785E-03
167.1523 -2.0384528E-03
167.2952 -1.9349451E-03
167.4381 -1.8218691E-03
167.5810 -1.7001067E-03
167.7240 -1.5706007E-03
167.8669 -1.4343444E-03
168.0098 -1.2923712E-03
168.1527 -1.1457440E-03
168.2956 -9.9554379E-04
168.4385 -8.4285927E-04
168.5814 -6.8877428E-04
168.7243 -5.3435791E-04
168.8672 -3.8065319E-04
169.0102 -2.2866708E-04
169.1531 -7.9360965E-05
169.2960 6.6357999E-05
169.4389 2.0764463E-04
169.5818 3.4372203E-04
169.7247 4.7388719E-04
169.8676 5.9751514E-04
170.0105 7.1406161E-04
170.1535 8.2306465E-04
170.2964 9.2414522E-04
170.4393 1.0170059E-03
170.5822 1.1014292E-03
170.7251 1.1772745E-03
170.8680 1.2444734E-03
171.0109 1.3030262E-03
171.1538 1.3529952E-03
171.2968 1.3944993E-03
171.4397 1.4277080E-03
171.5826 1.4528341E-03
171.7255 1.4701277E-03
171.8684 1.4798699E-03
172.0113 1.4823664E-03
172.1542 1.4779419E-03
172.2971 1.4669354E-03
172.4400 1.4496952E-03
172.5829 1.4265764E-03
172.7259 1.3979370E-03
172.8688 1.3641367E-03
173.0117 1.3255359E-03
173.1546 1.2824949E-03
173.2975 1.2353744E-03
173.4404 1.1845365E-03
173.5833 1.1303461E-03
173.7262 1.0731715E-03
173.8692 1.0133863E-03
174.0121 9.5137034E-04
174.1550 8.8751077E-04
174.2979 8.2220195E-04
174.4408 7.5584545E-04
174.5837 6.8884919E-04
174.7266 6.2162557E-04
174.8695 5.5458944E-04
175.0125 4.8815520E-04
175.1554 4.2273337E-04
175.2983 3.5872668E-04
175.4412 2.9652548E-04
175.5841 2.3650336E-04
175.7270 1.7901193E-04
175.8699 1.2437593E-04