   494.670013      -4.68965622E-12
   494.505005      -3.95740515E-12
   494.339996      -3.08461633E-12
   494.174988      -2.07610383E-12
   494.010010      -9.36828089E-13
   493.845001       3.26999902E-13
   493.679993       1.70673285E-12
   493.515015       3.19033363E-12
   493.350006       4.76204666E-12
   493.184998       6.40281838E-12
   493.019989       8.09136091E-12
   492.855011       9.80557389E-12
   492.690002       1.15237785E-11
   492.524994       1.32253904E-11
   492.359985       1.48907275E-11
   492.195007       1.65000270E-11
   492.029999       1.80320620E-11
   491.864990       1.94629469E-11
   491.700012       2.07656461E-11
   491.535004       2.19105133E-11
   491.369995       2.28666894E-11
   491.204987       2.36040944E-11
   491.040009       2.40953663E-11
   490.875000       2.43174370E-11
   490.709991       2.42523293E-11
   490.545013       2.38872255E-11
   490.380005       2.32138787E-11
   490.214996       2.22276451E-11
   490.049988       2.09262573E-11
   489.885010       1.93085947E-11
   489.720001       1.73737552E-11
   489.554993       1.51207848E-11
   489.390015       1.25492776E-11
   489.225006       9.66083030E-12
   489.059998       6.46095547E-12
   488.894989       2.96084056E-12
   488.730011      -8.21805352E-13
   488.565002      -4.86319318E-12
   488.399994      -9.13505990E-12
   488.234985      -1.36066228E-11
   488.070007      -1.82459031E-11
   487.904999      -2.30196175E-11
   487.739990      -2.78916317E-11
   487.575012      -3.28207635E-11
   487.410004      -3.77591639E-11
   487.244995      -4.26524788E-11
   487.079987      -4.74421509E-11
   486.915009      -5.20691511E-11
   486.750000      -5.64777218E-11
   486.584991      -6.06175041E-11
   486.420013      -6.44433187E-11
   486.255005      -6.79130086E-11
   486.089996      -7.09847597E-11
   485.924988      -7.36155234E-11
   485.760010      -7.57617719E-11
   485.595001      -7.73823783E-11
   485.429993      -7.84422458E-11
   485.265015      -7.89149857E-11
   485.100006      -7.87831397E-11
   484.934998      -7.80358556E-11
   484.769989      -7.66653269E-11
   484.605011      -7.46638029E-11
   484.440002      -7.20228321E-11
   484.274994      -6.87352258E-11
   484.109985      -6.47987705E-11
   483.945007      -6.02199332E-11
   483.779999      -5.50157558E-11
   483.614990      -4.92131995E-11
   483.450012      -4.28463653E-11
   483.285004      -3.59532820E-11
   483.119995      -2.85736747E-11
   482.954987      -2.07487031E-11
   482.790009      -1.25223044E-11
   482.625000      -3.94307677E-12
   482.459991       4.93457098E-12
   482.295013       1.40506452E-11
   482.130005       2.33408449E-11
   481.964996       3.27378229E-11
   481.799988       4.21714885E-11
   481.635010       5.15680589E-11
   481.470001       6.08487219E-11
   481.304993       6.99292013E-11
   481.140015       7.87213628E-11
   480.975006       8.71370406E-11
   480.809998       9.50931694E-11
   480.644989       1.02516134E-10
   480.480011       1.09343729E-10
   480.315002       1.15523889E-10
   480.149994       1.21010840E-10
   479.984985       1.25760680E-10
   479.820007       1.29728298E-10
   479.654999       1.32867384E-10
   479.489990       1.35133307E-10
   479.325012       1.36487599E-10
   479.160004       1.36902392E-10
   478.994995       1.36362838E-10
   478.829987       1.34867006E-10
   478.665009       1.32423877E-10
   478.500000       1.29050409E-10
   478.334991       1.24769237E-10
   478.170013       1.19607324E-10
   478.005005       1.13595723E-10
   477.839996       1.06769732E-10
   477.674988       9.91690757E-11
   477.510010       9.08378234E-11
   477.345001       8.18245124E-11
   477.179993       7.21828083E-11
   477.015015       6.19728088E-11
   476.850006       5.12624838E-11
   476.684998       4.01282028E-11
   476.519989       2.86536246E-11
   476.355011       1.69264949E-11
   476.190002       5.03439001E-12
   476.024994      -6.93929766E-12
   475.859985      -1.89173503E-11
   475.695007      -3.08278437E-11
   475.529999      -4.26006140E-11
   475.364990      -5.41627194E-11
   475.200012      -6.54350185E-11
   475.035004      -7.63316702E-11
   474.869995      -8.67632632E-11
   474.704987      -9.66424857E-11
   474.540009      -1.05890664E-10
   474.375000      -1.14442796E-10
   474.209991      -1.22249599E-10
   474.045013      -1.29276270E-10
   473.880005      -1.35498807E-10
   473.714996      -1.40899695E-10
   473.549988      -1.45464488E-10
   473.385010      -1.49180043E-10
   473.220001      -1.52034663E-10
   473.054993      -1.54019422E-10
   472.890015      -1.55129798E-10
   472.725006      -1.55367150E-10
   472.559998      -1.54739610E-10
   472.394989      -1.53262611E-10
   472.230011      -1.50958981E-10
   472.065002      -1.47858781E-10
   471.899994      -1.43998258E-10
   471.734985      -1.39418393E-10
   471.570007      -1.34162723E-10
   471.404999      -1.28275168E-10
   471.239990      -1.21798557E-10
   471.075012      -1.14774378E-10
   470.910004      -1.07243846E-10
   470.744995      -9.92498583E-11
   470.579987      -9.08388365E-11
   470.415009      -8.20615520E-11
   470.250000      -7.29723226E-11
   470.084991      -6.36268607E-11
   469.920013      -5.40793833E-11
   469.755005      -4.43801003E-11
   469.589996      -3.45739895E-11
   469.424988      -2.47010190E-11
   469.260010      -1.47976284E-11
   469.095001      -4.89864182E-12
   468.929993       4.96116256E-12
   468.765015       1.47465460E-11
   468.600006       2.44222507E-11
   468.434998       3.39541451E-11
   468.269989       4.33104663E-11
   468.105011       5.24625413E-11
   467.940002       6.13848902E-11
   467.774994       7.00544414E-11
   467.609985       7.84494344E-11
   467.445007       8.65481783E-11
   467.279999       9.43280801E-11
   467.114990       1.01765332E-10
   466.950012       1.08835101E-10
   466.785004       1.15512253E-10
   466.619995       1.21772592E-10
   466.454987       1.27594046E-10
   466.290009       1.32957770E-10
   466.125000       1.37848802E-10
   465.959991       1.42256068E-10
   465.795013       1.46171658E-10
   465.630005       1.49589549E-10
   465.464996       1.52503815E-10
   465.299988       1.54906810E-10
   465.135010       1.56787791E-10
   464.970001       1.58132230E-10
   464.804993       1.58922153E-10
   464.640015       1.59137301E-10
   464.475006       1.58757119E-10
   464.309998       1.57762636E-10
   464.144989       1.56138102E-10
   463.980011       1.53871471E-10
   463.815002       1.50954124E-10
   463.649994       1.47379539E-10
   463.484985       1.43141901E-10
   463.320007       1.38235007E-10
   463.154999       1.32652209E-10
   462.989990       1.26387636E-10
   462.825012       1.19438126E-10
   462.660004       1.11805808E-10
   462.494995       1.03500167E-10
   462.329987       9.45390710E-11
   462.165009       8.49485204E-11
   462.000000       7.47611070E-11
   461.834991       6.40136416E-11
   461.670013       5.27444997E-11
   461.505005       4.09914949E-11
   461.339996       2.87907320E-11
   461.174988       1.61769140E-11
   461.010010       3.18508197E-12
   460.845001      -1.01465962E-11
   460.679993      -2.37739186E-11
   460.515015      -3.76440407E-11
   460.350006      -5.16944612E-11
   460.184998      -6.58535657E-11
   460.019989      -8.00428196E-11
   459.855011      -9.41798028E-11
   459.690002      -1.08180902E-10
   459.524994      -1.21962995E-10
   459.359985      -1.35443629E-10
   459.195007      -1.48540069E-10
   459.029999      -1.61167940E-10
   458.864990      -1.73240533E-10
   458.700012      -1.84669419E-10
   458.535004      -1.95366293E-10
   458.369995      -2.05245362E-10
   458.204987      -2.14225526E-10
   458.040009      -2.22231664E-10
   457.875000      -2.29195177E-10
   457.709991      -2.35053754E-10
   457.545013      -2.39751274E-10
   457.380005      -2.43238596E-10
   457.214996      -2.45474252E-10
   457.049988      -2.46425436E-10
   456.885010      -2.46067888E-10
   456.720001      -2.44384624E-10
   456.554993      -2.41363901E-10
   456.390015      -2.36997172E-10
   456.225006      -2.31278524E-10
   456.059998      -2.24206015E-10
   455.894989      -2.15784654E-10
   455.730011      -2.06030318E-10
   455.565002      -1.94972941E-10
   455.399994      -1.82657736E-10
   455.234985      -1.69144448E-10
   455.070007      -1.54504784E-10
   454.904999      -1.38819498E-10
   454.739990      -1.22175756E-10
   454.575012      -1.04665769E-10
   454.410004      -8.63860650E-11
   454.244995      -6.74369310E-11
   454.079987      -4.79216007E-11
   453.915009      -2.79451774E-11
   453.750000      -7.61363108E-12
   453.584991       1.29660848E-11
   453.420013       3.36847251E-11
   453.255005       5.44285832E-11
   453.089996       7.50776663E-11
   452.924988       9.55057144E-11
   452.760010       1.15582321E-10
   452.595001       1.35177633E-10
   452.429993       1.54167290E-10
   452.265015       1.72437009E-10
   452.100006       1.89884178E-10
   451.934998       2.06417092E-10
   451.769989       2.21952068E-10
   451.605011       2.36410114E-10
   451.440002       2.49714943E-10
   451.274994       2.61792948E-10
   451.109985       2.72574852E-10
   450.945007       2.81997953E-10
   450.779999       2.90007851E-10
   450.614990       2.96559333E-10
   450.450012       3.01616204E-10
   450.285004       3.05151460E-10
   450.119995       3.07148140E-10
   449.954987       3.07600917E-10
   449.790009       3.06518116E-10
   449.625000       3.03922387E-10
   449.459991       2.99849146E-10
   449.295013       2.94342745E-10
   449.130005       2.87451535E-10
   448.964996       2.79222895E-10
   448.799988       2.69700845E-10
   448.635010       2.58926797E-10
   448.470001       2.46942827E-10
   448.304993       2.33796288E-10
   448.140015       2.19543828E-10
   447.975006       2.04253212E-10
   447.809998       1.88002627E-10
   447.644989       1.70878076E-10
   447.480011       1.52969998E-10
   447.315002       1.34370459E-10
   447.149994       1.15171241E-10
   446.984985       9.54628529E-11
   446.820007       7.53338780E-11
   446.654999       5.48705109E-11
   446.489990       3.41561258E-11
   446.325012       1.32712279E-11
   446.160004      -7.70521841E-12
   445.994995      -2.86938372E-11
   445.829987      -4.96120436E-11
   445.665009      -7.03721387E-11
   445.500000      -9.08813996E-11
   445.334991      -1.11044479E-10
   445.170013      -1.30767855E-10
   445.005005      -1.49964999E-10
   444.839996      -1.68560776E-10
   444.674988      -1.86493307E-10
   444.510010      -2.03713227E-10
   444.345001      -2.20180443E-10
   444.179993      -2.35859554E-10
   444.015015      -2.50715421E-10
   443.850006      -2.64709865E-10
   443.684998      -2.77799450E-10
   443.519989      -2.89935631E-10
   443.355011      -3.01065561E-10
   443.190002      -3.11134285E-10
   443.024994      -3.20087512E-10
   442.859985      -3.27874589E-10
   442.695007      -3.34451161E-10
   442.529999      -3.39781092E-10
   442.364990      -3.43836543E-10
   442.200012      -3.46596613E-10
   442.035004      -3.48044371E-10
   441.869995      -3.48163276E-10
   441.704987      -3.46934259E-10
   441.540009      -3.44334561E-10
   441.375000      -3.40338452E-10
   441.209991      -3.34920452E-10
   441.045013      -3.28059663E-10
   440.880005      -3.19744814E-10
   440.714996      -3.09977738E-10
   440.549988      -2.98775088E-10
   440.385010      -2.86167506E-10
   440.220001      -2.72196210E-10
   440.054993      -2.56908078E-10
   439.890015      -2.40350351E-10
   439.725006      -2.22566382E-10
   439.559998      -2.03593947E-10
   439.394989      -1.83466381E-10
   439.230011      -1.62216823E-10
   439.065002      -1.39884021E-10
   438.899994      -1.16518198E-10
   438.734985      -9.21854260E-11
   438.570007      -6.69690345E-11
   438.404999      -4.09680415E-11
   438.239990      -1.42931752E-11
   438.075012       1.29381280E-11
   437.910004       4.06066014E-11
   437.744995       6.85944981E-11
   437.579987       9.67870575E-11
   437.415009       1.25072092E-10
   437.250000       1.53337815E-10
   437.084991       1.81469451E-10
   436.920013       2.09345208E-10
   436.755005       2.36832526E-10
   436.589996       2.63785382E-10
   436.424988       2.90043989E-10
   436.260010       3.15437343E-10
   436.095001       3.39789308E-10
   435.929993       3.62926328E-10
   435.765015       3.84686200E-10
   435.600006       4.04924178E-10
   435.434998       4.23516222E-10
   435.269989       4.40356945E-10
   435.105011       4.55354088E-10
   434.940002       4.68421191E-10
   434.774994       4.79470519E-10
   434.609985       4.88408869E-10
   434.445007       4.95137209E-10
   434.279999       4.99554065E-10
   434.114990       5.01561903E-10
   433.950012       5.01074238E-10
   433.785004       4.98022290E-10
   433.619995       4.92359709E-10
   433.454987       4.84064899E-10
   433.290009       4.73140582E-10
   433.125000       4.59611127E-10
   432.959991       4.43517750E-10
   432.795013       4.24913688E-10
   432.630005       4.03859168E-10
   432.464996       3.80418419E-10
   432.299988       3.54659191E-10
   432.135010       3.26655591E-10
   431.970001       2.96493441E-10
   431.804993       2.64276739E-10
   431.640015       2.30133732E-10
   431.475006       1.94220098E-10
   431.309998       1.56718333E-10
   431.144989       1.17833951E-10
   430.980011       7.77881856E-11
   430.815002       3.68103291E-11
   430.649994      -4.86911639E-12
   430.484985      -4.70227954E-11
   430.320007      -8.94280344E-11
   430.154999      -1.31865227E-10
   429.989990      -1.74115292E-10
   429.825012      -2.15956017E-10
   429.660004      -2.57159377E-10
   429.494995      -2.97490005E-10
   429.329987      -3.36705636E-10
   429.165009      -3.74558967E-10
   429.000000      -4.10802198E-10
   428.834991      -4.45192300E-10
   428.670013      -4.77497875E-10
   428.505005      -5.07505371E-10
   428.339996      -5.35023581E-10
   428.174988      -5.59885527E-10
   428.010010      -5.81947102E-10
   427.845001      -6.01082351E-10
   427.679993      -6.17177753E-10
   427.515015      -6.30127228E-10
   427.350006      -6.39830189E-10
   427.184998      -6.46192710E-10
   427.019989      -6.49132359E-10
   426.855011      -6.48585519E-10
   426.690002      -6.44513720E-10
   426.524994      -6.36908193E-10
   426.359985      -6.25791918E-10
   426.195007      -6.11217632E-10
   426.029999      -5.93264771E-10
   425.864990      -5.72035030E-10
   425.700012      -5.47648205E-10
   425.535004      -5.20238963E-10
   425.369995      -4.89954410E-10
   425.204987      -4.56952282E-10
   425.040009      -4.21400609E-10
   424.875000      -3.83478665E-10
   424.709991      -3.43378964E-10
   424.545013      -3.01310227E-10
   424.380005      -2.57500105E-10
   424.214996      -2.12196025E-10
   424.049988      -1.65663219E-10
   423.885010      -1.18179355E-10
   423.720001      -7.00269148E-11
   423.554993      -2.14852650E-11
   423.390015       2.71750036E-11
   423.225006       7.56949503E-11
   423.059998       1.23826102E-10
   422.894989       1.71326661E-10
   422.730011       2.17957138E-10
   422.565002       2.63477240E-10
   422.399994       3.07645770E-10
   422.234985       3.50222407E-10
   422.070007       3.90971561E-10
   421.904999       4.29666802E-10
   421.739990       4.66094885E-10
   421.575012       5.00058772E-10
   421.410004       5.31380717E-10
   421.244995       5.59903290E-10
   421.079987       5.85490934E-10
   420.915009       6.08029349E-10
   420.750000       6.27423613E-10
   420.584991       6.43595566E-10
   420.420013       6.56481092E-10
   420.255005       6.66028011E-10
   420.089996       6.72197353E-10
   419.924988       6.74966028E-10
   419.760010       6.74331202E-10
   419.595001       6.70314304E-10
   419.429993       6.62962518E-10
   419.265015       6.52346954E-10
   419.100006       6.38558595E-10
   418.934998       6.21702911E-10
   418.769989       6.01895755E-10
   418.605011       5.79261805E-10
   418.440002       5.53935120E-10
   418.274994       5.26061694E-10
   418.109985       4.95800734E-10
   417.945007       4.63324906E-10
   417.779999       4.28818120E-10
   417.614990       3.92472471E-10
   417.450012       3.54485524E-10
   417.285004       3.15058646E-10
   417.119995       2.74396922E-10
   416.954987       2.32709935E-10
   416.790009       1.90211569E-10
   416.625000       1.47119178E-10
   416.459991       1.03650880E-10
   416.295013       6.00227368E-11
   416.130005       1.64470260E-11
   415.964996      -2.68691250E-11
   415.799988      -6.97231647E-11
   415.635010      -1.11917163E-10
   415.470001      -1.53258642E-10
   415.304993      -1.93562610E-10
   415.140015      -2.32654465E-10
   414.975006      -2.70371642E-10
   414.809998      -3.06563774E-10
   414.644989      -3.41089601E-10
   414.480011      -3.73813674E-10
   414.315002      -4.04602990E-10
   414.149994      -4.33326930E-10
   413.984985      -4.59860761E-10
   413.820007      -4.84091933E-10
   413.654999      -5.05926190E-10
   413.489990      -5.25292088E-10
   413.325012      -5.42140555E-10
   413.160004      -5.56441448E-10
   412.994995      -5.68176506E-10
   412.829987      -5.77333847E-10
   412.665009      -5.83904036E-10
   412.500000      -5.87880467E-10
   412.334991      -5.89262306E-10
   412.170013      -5.88058657E-10
   412.005005      -5.84292392E-10
   411.839996      -5.78001980E-10
   411.674988      -5.69242153E-10
   411.510010      -5.58082691E-10
   411.345001      -5.44606915E-10
   411.179993      -5.28910027E-10
   411.015015      -5.11096609E-10
   410.850006      -4.91277574E-10
   410.684998      -4.69566552E-10
   410.519989      -4.46076454E-10
   410.355011      -4.20917329E-10
   410.190002      -3.94196648E-10
   410.024994      -3.66022157E-10
   409.859985      -3.36506489E-10
   409.695007      -3.05771297E-10
   409.529999      -2.73949696E-10
   409.364990      -2.41185738E-10
   409.200012      -2.07630607E-10
   409.035004      -1.73437417E-10
   408.869995      -1.38756173E-10
   408.704987      -1.03730552E-10
   408.540009      -6.84972634E-11
   408.375000      -3.31876922E-11
   408.209991       2.06913046E-12
   408.045013       3.71436909E-11
   407.880005       7.19032403E-11
   407.714996       1.06210714E-10
   407.549988       1.39924239E-10
   407.385010       1.72897724E-10
   407.220001       2.04982267E-10
   407.054993       2.36028752E-10
   406.890015       2.65891420E-10
   406.725006       2.94431618E-10
   406.559998       3.21521892E-10
   406.394989       3.47048473E-10
   406.230011       3.70912023E-10
   406.065002       3.93026639E-10
   405.899994       4.13317103E-10
   405.734985       4.31716107E-10
   405.570007       4.48162091E-10
   405.404999       4.62598126E-10
   405.239990       4.74972395E-10
   405.075012       4.85239349E-10
   404.910004       4.93360963E-10
   404.744995       4.99307928E-10
   404.579987       5.03060649E-10
   404.415009       5.04609576E-10
   404.250000       5.03955988E-10
   404.084991       5.01112596E-10
   403.920013       4.96103325E-10
   403.755005       4.88962704E-10
   403.589996       4.79734585E-10
   403.424988       4.68470374E-10
   403.260010       4.55227384E-10
   403.095001       4.40068343E-10
   402.929993       4.23062418E-10
   402.765015       4.04286965E-10
   402.600006       3.83829912E-10
   402.434998       3.61791569E-10
   402.269989       3.38285122E-10
   402.105011       3.13435722E-10
   401.940002       2.87378205E-10
   401.774994       2.60254290E-10
   401.609985       2.32209516E-10
   401.445007       2.03390499E-10
   401.279999       1.73942610E-10
   401.114990       1.44008153E-10
   400.950012       1.13725425E-10
   400.785004       8.32288335E-11
   400.619995       5.26498775E-11
   400.454987       2.21190184E-11
   400.290009      -8.23206954E-12
   400.125000      -3.82691795E-11
   399.959991      -6.78554643E-11
   399.795013      -9.68534419E-11
   399.630005      -1.25128102E-10
   399.464996      -1.52550514E-10
   399.299988      -1.79000523E-10
   399.135010      -2.04367981E-10
   398.970001      -2.28552177E-10
   398.804993      -2.51460325E-10
   398.640015      -2.73005951E-10
   398.475006      -2.93108038E-10
   398.309998      -3.11691395E-10
   398.144989      -3.28687966E-10
   397.980011      -3.44038464E-10
   397.815002      -3.57693541E-10
   397.649994      -3.69614700E-10
   397.484985      -3.79774490E-10
   397.320007      -3.88156562E-10
   397.154999      -3.94755811E-10
   396.989990      -3.99578315E-10
   396.825012      -4.02640477E-10
   396.660004      -4.03967887E-10
   396.494995      -4.03592826E-10
   396.329987      -4.01552069E-10
   396.165009      -3.97884781E-10
   396.000000      -3.92631733E-10
   395.834991      -3.85836252E-10
   395.670013      -3.77546133E-10
   395.505005      -3.67815833E-10
   395.339996      -3.56708274E-10
   395.174988      -3.44294787E-10
   395.010010      -3.30653921E-10
   394.845001      -3.15869303E-10
   394.679993      -3.00027087E-10
   394.515015      -2.83214563E-10
   394.350006      -2.65519523E-10
   394.184998      -2.47030174E-10
   394.019989      -2.27835861E-10
   393.855011      -2.08027040E-10
   393.690002      -1.87694804E-10
   393.524994      -1.66930331E-10
   393.359985      -1.45824269E-10
   393.195007      -1.24466756E-10
   393.029999      -1.02947921E-10
   392.864990      -8.13583576E-11
   392.700012      -5.97895206E-11
   392.535004      -3.83328265E-11
   392.369995      -1.70779450E-11
   392.204987       3.88993482E-12
   392.040009       2.44923283E-11
   391.875000       4.46588808E-11
   391.709991       6.43271200E-11
   391.545013       8.34407821E-11
   391.380005       1.01947055E-10
   391.214996       1.19794133E-10
   391.049988       1.36929412E-10
   390.885010       1.53299609E-10
   390.720001       1.68852099E-10
   390.554993       1.83537255E-10
   390.390015       1.97311084E-10
   390.225006       2.10137116E-10
   390.059998       2.21987442E-10
   389.894989       2.32842634E-10
   389.730011       2.42690812E-10
   389.565002       2.51525994E-10
   389.399994       2.59346378E-10
   389.234985       2.66152461E-10
   389.070007       2.71945660E-10
   388.904999       2.76727030E-10
   388.739990       2.80496987E-10
   388.575012       2.83255697E-10
   388.410004       2.85004020E-10
   388.244995       2.85745372E-10
   388.079987       2.85487467E-10
   387.915009       2.84243629E-10
   387.750000       2.82033591E-10
   387.584991       2.78882917E-10
   387.420013       2.74821499E-10
   387.255005       2.69881006E-10
   387.089996       2.64092359E-10
   386.924988       2.57483562E-10
   386.760010       2.50078541E-10
   386.595001       2.41897835E-10
   386.429993       2.32960373E-10
   386.265015       2.23286417E-10
   386.100006       2.12900725E-10
   385.934998       2.01834688E-10
   385.769989       1.90127192E-10
   385.605011       1.77823964E-10
   385.440002       1.64975464E-10
   385.274994       1.51634413E-10
   385.109985       1.37853645E-10
   384.945007       1.23684729E-10
   384.779999       1.09177813E-10
   384.614990       9.43821826E-11
   384.450012       7.93472232E-11
   384.285004       6.41234635E-11
   384.119995       4.87633926E-11
   383.954987       3.33218696E-11
   383.790009       1.78564455E-11
   383.625000       2.42729751E-12
   383.459991      -1.29032687E-11
   383.295013      -2.80720325E-11
   383.130005      -4.30166319E-11
   382.964996      -5.76777341E-11
   382.799988      -7.20007665E-11
   382.635010      -8.59367716E-11
   382.470001      -9.94414967E-11
   382.304993      -1.12473399E-10
   382.140015      -1.24990490E-10
   381.975006      -1.36947786E-10
   381.809998      -1.48295820E-10
   381.644989      -1.58981189E-10
   381.480011      -1.68948841E-10
   381.315002      -1.78145498E-10
   381.149994      -1.86523172E-10
   380.984985      -1.94041630E-10
   380.820007      -2.00669231E-10
   380.654999      -2.06382050E-10
   380.489990      -2.11161755E-10
   380.325012      -2.14993121E-10
   380.160004      -2.17862034E-10
   379.994995      -2.19754631E-10
   379.829987      -2.20657659E-10
   379.665009      -2.20560278E-10
   379.500000      -2.19456425E-10
   379.334991      -2.17347501E-10
   379.170013      -2.14244442E-10
   379.005005      -2.10169077E-10
   378.839996      -2.05154074E-10
   378.674988      -1.99241887E-10
   378.510010      -1.92482419E-10
   378.345001      -1.84929974E-10
   378.179993      -1.76639883E-10
   378.015015      -1.67665645E-10
   377.850006      -1.58057137E-10
   377.684998      -1.47860918E-10
   377.519989      -1.37122369E-10
   377.355011      -1.25889466E-10
   377.190002      -1.14216595E-10
   377.024994      -1.02167524E-10
   376.859985      -8.98154259E-11
   376.695007      -7.72403461E-11
   376.529999      -6.45241430E-11
   376.364990      -5.17451117E-11
   376.200012      -3.89737825E-11
   376.035004      -2.62715561E-11
   375.869995      -1.36924205E-11
   375.704987      -1.28664050E-12
   375.540009       1.08950956E-11
   375.375000       2.27988947E-11
   375.209991       3.43669190E-11
   375.045013       4.55384341E-11
   374.880005       5.62518886E-11
   374.714996       6.64468133E-11
   374.549988       7.60653693E-11
   374.385010       8.50536655E-11
   374.220001       9.33636571E-11
   374.054993       1.00955792E-10
   373.890015       1.07802066E-10
   373.725006       1.13888066E-10
   373.559998       1.19212765E-10
   373.394989       1.23785551E-10
   373.230011       1.27620831E-10
   373.065002       1.30732383E-10
   372.899994       1.33129480E-10
   372.734985       1.34816255E-10
   372.570007       1.35794556E-10
   372.404999       1.36068587E-10
   372.239990       1.35649325E-10
   372.075012       1.34556907E-10
   371.910004       1.32820255E-10
   371.744995       1.30474784E-10
   371.579987       1.27559560E-10
   371.415009       1.24115287E-10
   371.250000       1.20183252E-10
   371.084991       1.15804935E-10
   370.920013       1.11021109E-10
   370.755005       1.05870201E-10
   370.589996       1.00386303E-10
   370.424988       9.45981418E-11
   370.260010       8.85301416E-11
   370.095001       8.22057908E-11
   369.929993       7.56522553E-11
   369.765015       6.89041810E-11
   369.600006       6.20047000E-11
   369.434998       5.50030126E-11
   369.269989       4.79492140E-11
   369.105011       4.08889381E-11
   368.940002       3.38598628E-11
   368.774994       2.68916105E-11
   368.609985       2.00085955E-11
   368.445007       1.32340371E-11
   368.279999       6.59294234E-12
   368.114990       1.12705262E-13
   367.950012      -6.17863313E-12
   367.785004      -1.22550399E-11
   367.619995      -1.80944443E-11
   367.454987      -2.36788714E-11
   367.290009      -2.89930926E-11
   367.125000      -3.40229511E-11
   366.959991      -3.87548917E-11
   366.795013      -4.31772673E-11
   366.630005      -4.72827784E-11
   366.464996      -5.10705610E-11
   366.299988      -5.45462946E-11
   366.135010      -5.77198844E-11
   365.970001      -6.06014683E-11
   365.804993      -6.31975791E-11
   365.640015      -6.55093410E-11
   365.475006      -6.75334511E-11
   365.309998      -6.92654337E-11
   365.144989      -7.07032904E-11
   364.980011      -7.18499357E-11
   364.815002      -7.27132451E-11
   364.649994      -7.33041197E-11
   364.484985      -7.36339115E-11
   364.320007      -7.37126263E-11
   364.154999      -7.35486741E-11
   363.989990      -7.31498057E-11
   363.825012      -7.25240909E-11
   363.660004      -7.16798149E-11
   363.494995      -7.06240830E-11
   363.329987      -6.93609475E-11
   363.165009      -6.78904571E-11
   363.000000      -6.62097183E-11
   362.834991      -6.43161080E-11
   362.670013      -6.22113125E-11
   362.505005      -5.99042205E-11
   362.339996      -5.74113257E-11
   362.174988      -5.47539861E-11
   362.010010      -5.19539897E-11
   361.845001      -4.90291904E-11
   361.679993      -4.59912629E-11
   361.515015      -4.28461260E-11
   361.350006      -3.95964650E-11
   361.184998      -3.62445803E-11
   361.019989      -3.27940348E-11
   360.855011      -2.92494987E-11
   360.690002      -2.56153623E-11
   360.524994      -2.18946701E-11
   360.359985      -1.80894518E-11
   360.195007      -1.42027362E-11
   360.029999      -1.02410780E-11
   359.864990      -6.21607800E-12
   359.700012      -2.14359021E-12
   359.535004       1.95931032E-12
   359.369995       6.07817833E-12
   359.204987       1.02037389E-11
   359.040009       1.43315394E-11
   358.875000       1.84586027E-11
   358.709991       2.25784894E-11
   358.545013       2.66771900E-11
   358.380005       3.07317748E-11
   358.214996       3.47124517E-11
   358.049988       3.85869114E-11
   357.885010       4.23248242E-11
   357.720001       4.59004917E-11
   357.554993       4.92926984E-11
   357.390015       5.24826120E-11
   357.225006       5.54513484E-11
   357.059998       5.81788263E-11
   356.894989       6.06446213E-11
   356.730011       6.28301161E-11
   356.565002       6.47203402E-11
   356.399994       6.63042954E-11
   356.234985       6.75733566E-11
   356.070007       6.85186491E-11
   355.904999       6.91291122E-11
   355.739990       6.93916591E-11
   355.575012       6.92937374E-11
   355.410004       6.88274229E-11
   355.244995       6.79930695E-11
   355.079987       6.68011133E-11
   354.915009       6.52710525E-11
   354.750000       6.34282002E-11
   354.584991       6.12995488E-11
   354.420013       5.89101892E-11
   354.255005       5.62812436E-11
   354.089996       5.34292610E-11
   353.924988       5.03665720E-11
   353.760010       4.71019578E-11
   353.595001       4.36414897E-11
   353.429993       3.99896644E-11