   494.670013      -5.14438388E-11
   494.505005      -4.78897165E-11
   494.339996      -4.40071590E-11
   494.174988      -3.98443327E-11
   494.010010      -3.54593369E-11
   493.845001      -3.09143856E-11
   493.679993      -2.62679184E-11
   493.515015      -2.15687190E-11
   493.350006      -1.68555430E-11
   493.184998      -1.21631490E-11
   493.019989      -7.53163417E-12
   492.855011      -3.01376936E-12
   492.690002       1.32466640E-12
   492.524994       5.41294223E-12
   492.359985       9.18842519E-12
   492.195007       1.26079555E-11
   492.029999       1.56510898E-11
   491.864990       1.83129692E-11
   491.700012       2.05903402E-11
   491.535004       2.24683310E-11
   491.369995       2.39156230E-11
   491.204987       2.48911065E-11
   491.040009       2.53588175E-11
   490.875000       2.53029264E-11
   490.709991       2.47343413E-11
   490.545013       2.36849412E-11
   490.380005       2.21926245E-11
   490.214996       2.02857540E-11
   490.049988       1.79761449E-11
   489.885010       1.52650444E-11
   489.720001       1.21590195E-11
   489.554993       8.68675791E-12
   489.390015       4.90694464E-12
   489.225006       9.02137794E-13
   489.059998      -3.23850235E-12
   488.894989      -7.43835202E-12
   488.730011      -1.16436904E-11
   488.565002      -1.58195713E-11
   488.399994      -1.99337664E-11
   488.234985      -2.39380685E-11
   488.070007      -2.77580198E-11
   487.904999      -3.12973432E-11
   487.739990      -3.44551679E-11
   487.575012      -3.71468377E-11
   487.410004      -3.93171121E-11
   487.244995      -4.09388738E-11
   487.079987      -4.19987344E-11
   486.915009      -4.24782640E-11
   486.750000      -4.23419459E-11
   486.584991      -4.15388141E-11
   486.420013      -4.00169273E-11
   486.255005      -3.77424134E-11
   486.089996      -3.47125141E-11
   485.924988      -3.09554535E-11
   485.760010      -2.65175989E-11
   485.595001      -2.14455120E-11
   485.429993      -1.57731207E-11
   485.265015      -9.52093872E-12
   485.100006      -2.70720924E-12
   484.934998       4.63591101E-12
   484.769989       1.24506924E-11
   484.605011       2.06531996E-11
   484.440002       2.91440518E-11
   484.274994       3.78242854E-11
   484.109985       4.66076934E-11
   483.945007       5.54234159E-11
   483.779999       6.42082221E-11
   483.614990       7.28939131E-11
   483.450012       8.13975068E-11
   483.285004       8.96199226E-11
   483.119995       9.74536077E-11
   482.954987       1.04794853E-10
   482.790009       1.11553988E-10
   482.625000       1.17658619E-10
   482.459991       1.23049154E-10
   482.295013       1.27670083E-10
   482.130005       1.31462813E-10
   481.964996       1.34363923E-10
   481.799988       1.36309575E-10
   481.635010       1.37243494E-10
   481.470001       1.37123798E-10
   481.304993       1.35925965E-10
   481.140015       1.33640918E-10
   480.975006       1.30270364E-10
   480.809998       1.25822353E-10
   480.644989       1.20309498E-10
   480.480011       1.13749954E-10
   480.315002       1.06170135E-10
   480.149994       9.76070058E-11
   479.984985       8.81087078E-11
   479.820007       7.77336043E-11
   479.654999       6.65484126E-11
   479.489990       5.46264943E-11
   479.325012       4.20468139E-11
   479.160004       2.88932975E-11
   478.994995       1.52544019E-11
   478.829987       1.22249552E-12
   478.665009      -1.31067700E-11
   478.500000      -2.76346706E-11
   478.334991      -4.22593696E-11
   478.170013      -5.68761149E-11
   478.005005      -7.13784656E-11
   477.839996      -8.56609644E-11
   477.674988      -9.96224492E-11
   477.510010      -1.13168759E-10
   477.345001      -1.26213373E-10
   477.179993      -1.38675418E-10
   477.015015      -1.50476145E-10
   476.850006      -1.61536021E-10
   476.684998      -1.71774442E-10
   476.519989      -1.81113263E-10
   476.355011      -1.89482735E-10
   476.190002      -1.96826860E-10
   476.024994      -2.03105560E-10
   475.859985      -2.08292106E-10
   475.695007      -2.12366860E-10
   475.529999      -2.15310589E-10
   475.364990      -2.17100976E-10
   475.200012      -2.17714277E-10
   475.035004      -2.17131604E-10
   474.869995      -2.15346643E-10
   474.704987      -2.12370843E-10
   474.540009      -2.08233097E-10
   474.375000      -2.02974235E-10
   474.209991      -1.96638442E-10
   474.045013      -1.89266311E-10
   473.880005      -1.80892204E-10
   473.714996      -1.71547249E-10
   473.549988      -1.61265820E-10
   473.385010      -1.50091939E-10
   473.220001      -1.38081907E-10
   473.054993      -1.25301811E-10
   472.890015      -1.11821177E-10
   472.725006      -9.77061626E-11
   472.559998      -8.30156707E-11
   472.394989      -6.78026177E-11
   472.230011      -5.21194650E-11
   472.065002      -3.60250857E-11
   471.899994      -1.95890214E-11
   471.734985      -2.89060464E-12
   471.570007       1.39868638E-11
   471.404999       3.09640646E-11
   471.239990       4.79716128E-11
   471.075012       6.49508711E-11
   470.910004       8.18490067E-11
   470.744995       9.86108903E-11
   470.579987       1.15172032E-10
   470.415009       1.31456665E-10
   470.250000       1.47382329E-10
   470.084991       1.62868802E-10
   469.920013       1.77846807E-10
   469.755005       1.92261873E-10
   469.589996       2.06070966E-10
   469.424988       2.19233548E-10
   469.260010       2.31701353E-10
   469.095001       2.43412540E-10
   468.929993       2.54293114E-10
   468.765015       2.64265221E-10
   468.600006       2.73257889E-10
   468.434998       2.81214579E-10
   468.269989       2.88093632E-10
   468.105011       2.93861602E-10
   467.940002       2.98482933E-10
   467.774994       3.01911829E-10
   467.609985       3.04090725E-10
   467.445007       3.04955977E-10
   467.279999       3.04448161E-10
   467.114990       3.02521286E-10
   466.950012       2.99146541E-10
   466.785004       2.94308827E-10
   466.619995       2.87999097E-10
   466.454987       2.80206441E-10
   466.290009       2.70914985E-10
   466.125000       2.60107075E-10
   465.959991       2.47770693E-10
   465.795013       2.33907421E-10
   465.630005       2.18536217E-10
   465.464996       2.01691663E-10
   465.299988       1.83417892E-10
   465.135010       1.63762157E-10
   464.970001       1.42771892E-10
   464.804993       1.20497140E-10
   464.640015       9.69969174E-11
   464.475006       7.23464275E-11
   464.309998       4.66408856E-11
   464.144989       1.99941036E-11
   463.980011      -7.46743813E-12
   463.815002      -3.56119474E-11
   463.649994      -6.43072609E-11
   463.484985      -9.34212568E-11
   463.320007      -1.22817756E-10
   463.154999      -1.52350826E-10
   462.989990      -1.81860721E-10
   462.825012      -2.11174050E-10
   462.660004      -2.40108156E-10
   462.494995      -2.68477574E-10
   462.329987      -2.96099312E-10
   462.165009      -3.22794541E-10
   462.000000      -3.48386597E-10
   461.834991      -3.72696818E-10
   461.670013      -3.95541710E-10
   461.505005      -4.16733897E-10
   461.339996      -4.36086944E-10
   461.174988      -4.53422772E-10
   461.010010      -4.68578065E-10
   460.845001      -4.81407081E-10
   460.679993      -4.91780394E-10
   460.515015      -4.99581099E-10
   460.350006      -5.04701059E-10
   460.184998      -5.07040909E-10
   460.019989      -5.06513220E-10
   459.855011      -5.03048048E-10
   459.690002      -4.96598207E-10
   459.524994      -4.87140217E-10
   459.359985      -4.74672635E-10
   459.195007      -4.59211669E-10
   459.029999      -4.40788350E-10
   458.864990      -4.19449336E-10
   458.700012      -3.95261102E-10
   458.535004      -3.68315517E-10
   458.369995      -3.38733291E-10
   458.204987      -3.06662418E-10
   458.040009      -2.72272510E-10
   457.875000      -2.35747061E-10
   457.709991      -1.97278013E-10
   457.545013      -1.57065264E-10
   457.380005      -1.15320635E-10
   457.214996      -7.22734789E-11
   457.049988      -2.81734809E-11
   456.885010       1.67121143E-11
   456.720001       6.21060495E-11
   456.554993       1.07730130E-10
   456.390015       1.53310989E-10
   456.225006       1.98580430E-10
   456.059998       2.43270654E-10
   455.894989       2.87108531E-10
   455.730011       3.29813676E-10
   455.565002       3.71102343E-10
   455.399994       4.10696560E-10
   455.234985       4.48334009E-10
   455.070007       4.83773022E-10
   454.904999       5.16791776E-10
   454.739990       5.47181522E-10
   454.575012       5.74740866E-10
   454.410004       5.99274408E-10
   454.244995       6.20599017E-10
   454.079987       6.38554543E-10
   453.915009       6.53014365E-10
   453.750000       6.63888611E-10
   453.584991       6.71119382E-10
   453.420013       6.74669376E-10
   453.255005       6.74511114E-10
   453.089996       6.70623557E-10
   452.924988       6.62997324E-10
   452.760010       6.51647403E-10
   452.595001       6.36625253E-10
   452.429993       6.18023743E-10
   452.265015       5.95971883E-10
   452.100006       5.70621717E-10
   451.934998       5.42133782E-10
   451.769989       5.10668896E-10
   451.605011       4.76389428E-10
   451.440002       4.39468462E-10
   451.274994       4.00100425E-10
   451.109985       3.58505808E-10
   450.945007       3.14926890E-10
   450.779999       2.69616635E-10
   450.614990       2.22826008E-10
   450.450012       1.74797746E-10
   450.285004       1.25768576E-10
   450.119995       7.59787858E-11
   449.954987       2.56825620E-11
   449.790009      -2.48476604E-11
   449.625000      -7.53265575E-11
   449.459991      -1.25468996E-10
   449.295013      -1.75004747E-10
   449.130005      -2.23687610E-10
   448.964996      -2.71295125E-10
   448.799988      -3.17619819E-10
   448.635010      -3.62457675E-10
   448.470001      -4.05600720E-10
   448.304993      -4.46837511E-10
   448.140015      -4.85962270E-10
   447.975006      -5.22786647E-10
   447.809998      -5.57148438E-10
   447.644989      -5.88913196E-10
   447.480011      -6.17967122E-10
   447.315002      -6.44207077E-10
   447.149994      -6.67531808E-10
   446.984985      -6.87839619E-10
   446.820007      -7.05032699E-10
   446.654999      -7.19026505E-10
   446.489990      -7.29757477E-10
   446.325012      -7.37187422E-10
   446.160004      -7.41301243E-10
   445.994995      -7.42100492E-10
   445.829987      -7.39596773E-10
   445.665009      -7.33807792E-10
   445.500000      -7.24757754E-10
   445.334991      -7.12480797E-10
   445.170013      -6.97025104E-10
   445.005005      -6.78455014E-10
   444.839996      -6.56849797E-10
   444.674988      -6.32299713E-10
   444.510010      -6.04902073E-10
   444.345001      -5.74758241E-10
   444.179993      -5.41974021E-10
   444.015015      -5.06662434E-10
   443.850006      -4.68947381E-10
   443.684998      -4.28966584E-10
   443.519989      -3.86872145E-10
   443.355011      -3.42828710E-10
   443.190002      -2.97009611E-10
   443.024994      -2.49592597E-10
   442.859985      -2.00757008E-10
   442.695007      -1.50682633E-10
   442.529999      -9.95512214E-11
   442.364990      -4.75494991E-11
   442.200012       5.12727057E-12
   442.035004       5.82729073E-11
   441.869995       1.11670062E-10
   441.704987       1.65092801E-10
   441.540009       2.18311175E-10
   441.375000       2.71096451E-10
   441.209991       3.23224725E-10
   441.045013       3.74478087E-10
   440.880005       4.24642432E-10
   440.714996       4.73503570E-10
   440.549988       5.20843868E-10
   440.385010       5.66441227E-10
   440.220001       6.10072048E-10
   440.054993       6.51516507E-10
   439.890015       6.90564550E-10
   439.725006       7.27018501E-10
   439.559998       7.60692176E-10
   439.394989       7.91405719E-10
   439.230011       8.18980161E-10
   439.065002       8.43234316E-10
   438.899994       8.63987715E-10
   438.734985       8.81068163E-10
   438.570007       8.94321617E-10
   438.404999       9.03619568E-10
   438.239990       9.08860598E-10
   438.075012       9.09965270E-10
   437.910004       9.06868136E-10
   437.744995       8.99511410E-10
   437.579987       8.87844964E-10
   437.415009       8.71833494E-10
   437.250000       8.51468451E-10
   437.084991       8.26777313E-10
   436.920013       7.97826250E-10
   436.755005       7.64712960E-10
   436.589996       7.27553739E-10
   436.424988       6.86470825E-10
   436.260010       6.41586617E-10
   436.095001       5.93028904E-10
   435.929993       5.40943124E-10
   435.765015       4.85506579E-10
   435.600006       4.26936014E-10
   435.434998       3.65484393E-10
   435.269989       3.01428660E-10
   435.105011       2.35055003E-10
   434.940002       1.66649403E-10
   434.774994       9.64988159E-11
   434.609985       2.49013379E-11
   434.445007      -4.78201610E-11
   434.279999      -1.21309698E-10
   434.114990      -1.95180233E-10
   433.950012      -2.69026412E-10
   433.785004      -3.42441075E-10
   433.619995      -4.15029039E-10
   433.454987      -4.86410523E-10
   433.290009      -5.56215241E-10
   433.125000      -6.24071017E-10
   432.959991      -6.89595991E-10
   432.795013      -7.52398921E-10
   432.630005      -8.12089562E-10
   432.464996      -8.68293493E-10
   432.299988      -9.20664101E-10
   432.135010      -9.68886193E-10
   431.970001      -1.01267050E-09
   431.804993      -1.05174314E-09
   431.640015      -1.08583820E-09
   431.475006      -1.11469767E-09
   431.309998      -1.13808118E-09
   431.144989      -1.15578058E-09
   430.980011      -1.16763244E-09
   430.815002      -1.17352239E-09
   430.649994      -1.17337950E-09
   430.484985      -1.16716437E-09
   430.320007      -1.15485710E-09
   430.154999      -1.13645249E-09
   429.989990      -1.11196463E-09
   429.825012      -1.08143816E-09
   429.660004      -1.04496189E-09
   429.494995      -1.00267628E-09
   429.329987      -9.54773705E-10
   429.165009      -9.01489883E-10
   429.000000      -8.43091597E-10
   428.834991      -7.79866949E-10
   428.670013      -7.12120640E-10
   428.505005      -6.40175857E-10
   428.339996      -5.64380431E-10
   428.174988      -4.85112117E-10
   428.010010      -4.02780170E-10
   427.845001      -3.17821686E-10
   427.679993      -2.30693964E-10
   427.515015      -1.41866546E-10
   427.350006      -5.18157878E-11
   427.184998       3.89763256E-11
   427.019989       1.30020134E-10
   426.855011       2.20816324E-10
   426.690002       3.10856396E-10
   426.524994       3.99628469E-10
   426.359985       4.86626517E-10
   426.195007       5.71361181E-10
   426.029999       6.53366805E-10
   425.864990       7.32203298E-10
   425.700012       8.07452161E-10
   425.535004       8.78709772E-10
   425.369995       9.45582834E-10
   425.204987       1.00768904E-09
   425.040009       1.06466480E-09
   424.875000       1.11617771E-09
   424.709991       1.16193755E-09
   424.545013       1.20170296E-09
   424.380005       1.23527910E-09
   424.214996       1.26250976E-09
   424.049988       1.28326760E-09
   423.885010       1.29744793E-09
   423.720001       1.30496947E-09
   423.554993       1.30578159E-09
   423.390015       1.29987399E-09
   423.225006       1.28728450E-09
   423.059998       1.26809940E-09
   422.894989       1.24244848E-09
   422.730011       1.21049648E-09
   422.565002       1.17243604E-09
   422.399994       1.12848586E-09
   422.234985       1.07889286E-09
   422.070007       1.02393727E-09
   421.904999       9.63933933E-10
   421.739990       8.99230135E-10
   421.575012       8.30196745E-10
   421.410004       7.57219787E-10
   421.244995       6.80693280E-10
   421.079987       6.01018568E-10
   420.915009       5.18608212E-10
   420.750000       4.33891340E-10
   420.584991       3.47315954E-10
   420.420013       2.59345739E-10
   420.255005       1.70451292E-10
   420.089996       8.10997103E-11
   419.924988      -8.25338149E-12
   419.760010      -9.71664901E-11
   419.595001      -1.85209612E-10
   419.429993      -2.71959649E-10
   419.265015      -3.56997182E-10
   419.100006      -4.39908443E-10
   418.934998      -5.20290588E-10
   418.769989      -5.97759398E-10
   418.605011      -6.71954936E-10
   418.440002      -7.42543638E-10
   418.274994      -8.09216416E-10
   418.109985      -8.71685779E-10
   417.945007      -9.29683885E-10
   417.779999      -9.82963932E-10
   417.614990      -1.03130393E-09
   417.450012      -1.07451004E-09
   417.285004      -1.11241949E-09
   417.119995      -1.14489906E-09
   416.954987      -1.17184273E-09
   416.790009      -1.19316934E-09
   416.625000      -1.20882271E-09
   416.459991      -1.21877364E-09
   416.295013      -1.22302379E-09
   416.130005      -1.22160726E-09
   415.964996      -1.21458865E-09
   415.799988      -1.20205834E-09
   415.635010      -1.18412635E-09
   415.470001      -1.16091936E-09
   415.304993      -1.13258036E-09
   415.140015      -1.09927289E-09
   414.975006      -1.06118558E-09
   414.809998      -1.01853492E-09
   414.644989      -9.71562386E-10
   414.480011      -9.20528320E-10
   414.315002      -8.65704064E-10
   414.149994      -8.07367284E-10
   413.984985      -7.45801587E-10
   413.820007      -6.81300627E-10
   413.654999      -6.14172713E-10
   413.489990      -5.44742140E-10
   413.325012      -4.73345363E-10
   413.160004      -4.00322858E-10
   412.994995      -3.26010635E-10
   412.829987      -2.50736265E-10
   412.665009      -1.74820922E-10
   412.500000      -9.85865070E-11
   412.334991      -2.23631114E-11
   412.170013       5.35087009E-11
   412.005005       1.28683036E-10
   411.839996       2.02819400E-10
   411.674988       2.75593520E-10
   411.510010       3.46702805E-10
   411.345001       4.15863621E-10
   411.179993       4.82801632E-10
   411.015015       5.47242640E-10
   410.850006       6.08908701E-10
   410.684998       6.67524869E-10
   410.519989       7.22832072E-10
   410.355011       7.74600828E-10
   410.190002       8.22637847E-10
   410.024994       8.66782035E-10
   409.859985       9.06892228E-10
   409.695007       9.42833811E-10
   409.529999       9.74472614E-10
   409.364990       1.00167952E-09
   409.200012       1.02434405E-09
   409.035004       1.04238895E-09
   408.869995       1.05577669E-09
   408.704987       1.06450526E-09
   408.540009       1.06859299E-09
   408.375000       1.06806353E-09
   408.209991       1.06293729E-09
   408.045013       1.05323572E-09
   407.880005       1.03899611E-09
   407.714996       1.02028719E-09
   407.549988       9.97216976E-10
   407.385010       9.69928804E-10
   407.220001       9.38585432E-10
   407.054993       9.03352393E-10
   406.890015       8.64389116E-10
   406.725006       8.21853474E-10
   406.559998       7.75916942E-10
   406.394989       7.26781746E-10
   406.230011       6.74689415E-10
   406.065002       6.19915563E-10
   405.899994       5.62752012E-10
   405.734985       5.03486142E-10
   405.570007       4.42388182E-10
   405.404999       3.79712539E-10
   405.239990       3.15711735E-10
   405.075012       2.50654608E-10
   404.910004       1.84837326E-10
   404.744995       1.18581006E-10
   404.579987       5.22162209E-11
   404.415009      -1.39373565E-11
   404.250000      -7.95855673E-11
   404.084991      -1.44461026E-10
   403.920013      -2.08311576E-10
   403.755005      -2.70882844E-10
   403.589996      -3.31905559E-10
   403.424988      -3.91094379E-10
   403.260010      -4.48159815E-10
   403.095001      -5.02826558E-10
   402.929993      -5.54848056E-10
   402.765015      -6.04010730E-10
   402.600006      -6.50126231E-10
   402.434998      -6.93017477E-10
   402.269989      -7.32507333E-10
   402.105011      -7.68417496E-10
   401.940002      -8.00578492E-10
   401.774994      -8.28845659E-10
   401.609985      -8.53113025E-10
   401.445007      -8.73316863E-10
   401.279999      -8.89427254E-10
   401.114990      -9.01432262E-10
   400.950012      -9.09322451E-10
   400.785004      -9.13084997E-10
   400.619995      -9.12709519E-10
   400.454987      -9.08202069E-10
   400.290009      -8.99600505E-10
   400.125000      -8.86982710E-10
   399.959991      -8.70464145E-10
   399.795013      -8.50185922E-10
   399.630005      -8.26300084E-10
   399.464996      -7.98959898E-10
   399.299988      -7.68319963E-10
   399.135010      -7.34543593E-10
   398.970001      -6.97813918E-10
   398.804993      -6.58340771E-10
   398.640015      -6.16358797E-10
   398.475006      -5.72117853E-10
   398.309998      -5.25869626E-10
   398.144989      -4.77857698E-10
   397.980011      -4.28315799E-10
   397.815002      -3.77474774E-10
   397.649994      -3.25573207E-10
   397.484985      -2.72866146E-10
   397.320007      -2.19625873E-10
   397.154999      -1.66133718E-10
   396.989990      -1.12665981E-10
   396.825012      -5.94808577E-11
   396.660004      -6.81173434E-12
   396.494995       4.51297749E-11
   396.329987       9.61437319E-11
   396.165009       1.46029966E-10
   396.000000       1.94581115E-10
   395.834991       2.41584003E-10
   395.670013       2.86829338E-10
   395.505005       3.30124594E-10
   395.339996       3.71304487E-10
   395.174988       4.10233653E-10
   395.010010       4.46800985E-10
   394.845001       4.80909312E-10
   394.679993       5.12465403E-10
   394.515015       5.41376277E-10
   394.350006       5.67553227E-10
   394.184998       5.90921312E-10
   394.019989       6.11428963E-10
   393.855011       6.29052366E-10
   393.690002       6.43792075E-10
   393.524994       6.55663135E-10
   393.359985       6.64684252E-10
   393.195007       6.70871525E-10
   393.029999       6.74240497E-10
   392.864990       6.74815426E-10
   392.700012       6.72640832E-10
   392.535004       6.67788047E-10
   392.369995       6.60353883E-10
   392.204987       6.50449361E-10
   392.040009       6.38185393E-10
   391.875000       6.23661289E-10
   391.709991       6.06962702E-10
   391.545013       5.88169902E-10
   391.380005       5.67371483E-10
   391.214996       5.44676915E-10
   391.049988       5.20220256E-10
   390.885010       4.94153329E-10
   390.720001       4.66631456E-10
   390.554993       4.37799547E-10
   390.390015       4.07785333E-10
   390.225006       3.76703474E-10
   390.059998       3.44667489E-10
   389.894989       3.11802417E-10
   389.730011       2.78250589E-10
   389.565002       2.44167075E-10
   389.399994       2.09706891E-10
   389.234985       1.75011394E-10
   389.070007       1.40200809E-10
   388.904999       1.05377693E-10
   388.739990       7.06390571E-11
   388.575012       3.60906964E-11
   388.410004       1.85521347E-12
   388.244995      -3.19305277E-11
   388.079987      -6.51275006E-11
   387.915009      -9.76097328E-11
   387.750000      -1.29274258E-10
   387.584991      -1.60040800E-10
   387.420013      -1.89841434E-10
   387.255005      -2.18605883E-10
   387.089996      -2.46250548E-10
   386.924988      -2.72676992E-10
   386.760010      -2.97780495E-10
   386.595001      -3.21463828E-10
   386.429993      -3.43648859E-10
   386.265015      -3.64280134E-10
   386.100006      -3.83318710E-10
   385.934998      -4.00730171E-10
   385.769989      -4.16473439E-10
   385.605011      -4.30496166E-10
   385.440002      -4.42739345E-10
   385.274994      -4.53148463E-10
   385.109985      -4.61685468E-10
   384.945007      -4.68335093E-10
   384.779999      -4.73103001E-10
   384.614990      -4.76006401E-10
   384.450012      -4.77062168E-10
   384.285004      -4.76277906E-10
   384.119995      -4.73651451E-10
   383.954987      -4.69177863E-10
   383.790009      -4.62861638E-10
   383.625000      -4.54727922E-10
   383.459991      -4.44827147E-10
   383.295013      -4.33231201E-10
   383.130005      -4.20022933E-10
   382.964996      -4.05283640E-10
   382.799988      -3.89084792E-10
   382.635010      -3.71487896E-10
   382.470001      -3.52552626E-10
   382.304993      -3.32348982E-10
   382.140015      -3.10967224E-10
   381.975006      -2.88520041E-10
   381.809998      -2.65135552E-10
   381.644989      -2.40944320E-10
   381.480011      -2.16066984E-10
   381.315002      -1.90608779E-10
   381.149994      -1.64664143E-10
   380.984985      -1.38328807E-10
   380.820007      -1.11712792E-10
   380.654999      -8.49465498E-11
   380.489990      -5.81760959E-11
   380.325012      -3.15489544E-11
   380.160004      -5.19795621E-12
   379.994995       2.07686576E-11
   379.829987       4.62652833E-11
   379.665009       7.12160955E-11
   379.500000       9.55379179E-11
   379.334991       1.19128610E-10
   379.170013       1.41867518E-10
   379.005005       1.63628056E-10
   378.839996       1.84295926E-10
   378.674988       2.03782935E-10
   378.510010       2.22029423E-10
   378.345001       2.38993741E-10
   378.179993       2.54635535E-10
   378.015015       2.68902012E-10
   377.850006       2.81725671E-10
   377.684998       2.93034402E-10
   377.519989       3.02768977E-10
   377.355011       3.10897558E-10
   377.190002       3.17419563E-10
   377.024994       3.22356974E-10
   376.859985       3.25738075E-10
   376.695007       3.27583349E-10
   376.529999       3.27901012E-10
   376.364990       3.26694533E-10
   376.200012       3.23977428E-10
   376.035004       3.19786225E-10
   375.869995       3.14183929E-10
   375.704987       3.07251474E-10
   375.540009       2.99072461E-10
   375.375000       2.89718916E-10
   375.209991       2.79246237E-10
   375.045013       2.67699612E-10
   374.880005       2.55127697E-10
   374.714996       2.41596215E-10
   374.549988       2.27193570E-10
   374.385010       2.12026119E-10
   374.220001       1.96206162E-10
   374.054993       1.79839352E-10
   373.890015       1.63018155E-10
   373.725006       1.45823562E-10
   373.559998       1.28332914E-10
   373.394989       1.10628340E-10
   373.230011       9.28004618E-11
   373.065002       7.49457649E-11
   372.899994       5.71597422E-11
   372.734985       3.95302471E-11
   372.570007       2.21349553E-11
   372.404999       5.04396438E-12
   372.239990      -1.16750021E-11
   372.075012      -2.79524199E-11
   371.910004      -4.37166275E-11
   371.744995      -5.88972621E-11
   371.579987      -7.34299566E-11
   371.415009      -8.72593386E-11
   371.250000      -1.00338488E-10
   371.084991      -1.12625749E-10
   370.920013      -1.24081717E-10
   370.755005      -1.34668943E-10
   370.589996      -1.44355000E-10
   370.424988      -1.53116922E-10
   370.260010      -1.60943772E-10
   370.095001      -1.67835065E-10
   369.929993      -1.73795756E-10
   369.765015      -1.78830492E-10
   369.600006      -1.82941148E-10
   369.434998      -1.86129570E-10
   369.269989      -1.88404056E-10
   369.105011      -1.89785410E-10
   368.940002      -1.90308228E-10
   368.774994      -1.90015184E-10
   368.609985      -1.88947261E-10
   368.445007      -1.87135224E-10
   368.279999      -1.84597698E-10
   368.114990      -1.81347631E-10
   367.950012      -1.77403911E-10
   367.785004      -1.72801093E-10
   367.619995      -1.67591108E-10
   367.454987      -1.61834685E-10
   367.290009      -1.55586821E-10
   367.125000      -1.48884377E-10
   366.959991      -1.41743853E-10
   366.795013      -1.34171466E-10
   366.630005      -1.26180774E-10
   366.464996      -1.17808222E-10
   366.299988      -1.09117285E-10
   366.135010      -1.00187948E-10
   365.970001      -9.10965192E-11
   365.804993      -8.18964618E-11
   365.640015      -7.26110144E-11
   365.475006      -6.32418007E-11
   365.309998      -5.37889455E-11
   365.144989      -4.42712082E-11
   364.980011      -3.47347637E-11
   364.815002      -2.52453110E-11
   364.649994      -1.58678626E-11
   364.484985      -6.64563456E-12
   364.320007       2.40976510E-12
   364.154999       1.13109348E-11
   363.989990       2.00739633E-11
   363.825012       2.86960958E-11
   363.660004       3.71443674E-11
   363.494995       4.53617491E-11
   363.329987       5.32871039E-11
   363.165009       6.08777126E-11
   363.000000       6.81213627E-11
   362.834991       7.50311688E-11
   362.670013       8.16262266E-11
   362.505005       8.79091036E-11
   362.339996       9.38533556E-11
   362.174988       9.94080721E-11
   362.010010       1.04517270E-10
   361.845001       1.09142917E-10
   361.679993       1.13279046E-10
   361.515015       1.16948867E-10
   361.350006       1.20186749E-10
   361.184998       1.23014918E-10
   361.019989       1.25427710E-10
   360.855011       1.27391694E-10
   360.690002       1.28861047E-10
   360.524994       1.29799713E-10
   360.359985       1.30197839E-10
   360.195007       1.30074507E-10
   360.029999       1.29465591E-10
   359.864990       1.28404287E-10
   359.700012       1.26904626E-10
   359.535004       1.24956726E-10
   359.369995       1.22535287E-10
   359.204987       1.19616317E-10
   359.040009       1.16192653E-10
   358.875000       1.12280601E-10
   358.709991       1.07914983E-10
   358.545013       1.03136298E-10
   358.380005       9.79773276E-11
   358.214996       9.24561330E-11
   358.049988       8.65784111E-11
   357.885010       8.03471734E-11
   357.720001       7.37740494E-11
   357.554993       6.68861633E-11
   357.390015       5.97253080E-11
   357.225006       5.23403751E-11
   357.059998       4.47772028E-11
   356.894989       3.70710546E-11
   356.730011       2.92452000E-11
   356.565002       2.13158987E-11
   356.399994       1.33011024E-11
   356.234985       5.22848952E-12
   356.070007      -2.86089056E-12
   355.904999      -1.09149105E-11
   355.739990      -1.88773216E-11
   355.575012      -2.66960620E-11
   355.410004      -3.43290917E-11
   355.244995      -4.17452947E-11
   355.079987      -4.89203157E-11
   354.915009      -5.58295146E-11
   354.750000      -6.24416491E-11
   354.584991      -6.87166712E-11
   354.420013      -7.46090134E-11
   354.255005      -8.00749675E-11
   354.089996      -8.50810256E-11
   353.924988      -8.96089522E-11
   353.760010      -9.36551808E-11
   353.595001      -9.72243189E-11
   353.429993      -1.00319850E-10