  -4.50000000         0.00000000    
  -4.44999981         0.00000000    
  -4.40000010         0.00000000    
  -4.34999990         0.00000000    
  -4.30000019         0.00000000    
  -4.25000000         0.00000000    
  -4.19999981         1.41170615E-35
  -4.15000010         2.42490549E-34
  -4.09999990         1.24215719E-33
  -4.05000019         1.29747623E-33
  -4.00000000        -1.67651605E-32
  -3.95000005        -1.14559283E-31
  -3.90000010        -4.17981247E-31
  -3.84999990        -1.03873922E-30
  -3.79999995        -1.76279484E-30
  -3.75000000        -1.47387215E-30
  -3.70000005         2.34126896E-30
  -3.65000010         1.30762608E-29
  -3.59999990         3.22279700E-29
  -3.54999995         5.38827411E-29
  -3.50000000         5.85734157E-29
  -3.45000005         1.27267166E-29
  -3.40000010        -1.16592368E-28
  -3.34999990        -3.23217002E-28
  -3.29999995        -5.02109244E-28
  -3.25000000        -3.93407784E-28
  -3.20000005         4.14216205E-28
  -3.15000010         2.34147957E-27
  -3.09999990         5.46464556E-27
  -3.04999995         8.94113208E-27
  -3.00000000         1.03456458E-26
  -2.95000005         5.25225131E-27
  -2.90000010        -1.23926597E-26
  -2.84999990        -4.84618948E-26
  -2.79999995        -1.04923899E-25
  -2.75000000        -1.74299310E-25
  -2.70000005        -2.33426284E-25
  -2.65000010        -2.39014772E-25
  -2.59999990        -1.28736467E-25
  -2.54999995         1.67863770E-25
  -2.50000000         7.05294010E-25
  -2.45000005         1.48454363E-24
  -2.40000010         2.40683119E-24
  -2.34999990         3.23006730E-24
  -2.29999995         3.54585207E-24
  -2.25000000         2.79886390E-24
  -2.20000005         3.69761934E-25
  -2.15000010        -4.26448739E-24
  -2.09999990        -1.12933256E-23
  -2.04999995        -2.02794824E-23
  -2.00000000        -2.98561481E-23
  -1.95000005        -3.74871404E-23
  -1.89999998        -3.93882920E-23
  -1.85000002        -3.07286850E-23
  -1.79999995        -6.24025698E-24
  -1.75000000         3.86457593E-23
  -1.70000005         1.06064772E-22
  -1.64999998         1.93420073E-22
  -1.60000002         2.90736365E-22
  -1.54999995         3.78154876E-22
  -1.50000000         4.24400351E-22
  -1.45000005         3.87399190E-22
  -1.39999998         2.18454795E-22
  -1.35000002        -1.28675558E-22
  -1.29999995        -6.83020056E-22
  -1.25000000        -1.43637975E-21
  -1.20000005        -2.32042176E-21
  -1.14999998        -3.18569327E-21
  -1.10000002        -3.78991175E-21
  -1.04999995        -3.80477394E-21
  -1.00000000        -2.85075318E-21
 -0.949999988        -5.66949814E-22
 -0.899999976         3.28277451E-21
 -0.850000024         8.67550177E-21
 -0.800000012         1.51870118E-20
 -0.750000000         2.18745554E-20
 -0.699999988         2.72280166E-20
 -0.649999976         2.92367666E-20
 -0.600000024         2.56131371E-20
 -0.550000012         1.41936923E-20
 -0.500000000        -6.49445631E-21
 -0.449999988        -3.65605591E-20
 -0.400000006        -7.40796267E-20
 -0.349999994        -1.14579391E-19
 -0.300000012        -1.50868477E-19
 -0.250000000        -1.73386220E-19
 -0.200000003        -1.71210102E-19
 -0.150000006        -1.33764760E-19
 -0.100000001        -5.31425803E-20
  -5.00000007E-02     7.32175106E-20
   0.00000000         2.39909571E-19
   5.00000007E-02     4.31547363E-19
  0.100000001         6.21967649E-19
  0.150000006         7.75216816E-19
  0.200000003         8.48717656E-19
  0.250000000         7.98715622E-19
  0.300000012         5.87703812E-19
  0.349999994         1.93072757E-19
  0.400000006        -3.84198330E-19
  0.449999988        -1.11231515E-18
  0.500000000        -1.92453702E-18
  0.550000012        -2.71962717E-18
  0.600000024        -3.36794651E-18
  0.649999976        -3.72354071E-18
  0.699999988        -3.64164776E-18
  0.750000000        -3.00008854E-18
  0.800000012        -1.72207888E-18
  0.850000024         2.02634370E-19
  0.899999976         2.70165998E-18
  0.949999988         5.61193697E-18
   1.00000000         8.68209267E-18
   1.04999995         1.15862212E-17
   1.10000002         1.39485978E-17
   1.14999998         1.53772727E-17
   1.20000005         1.55031266E-17
   1.25000000         1.40200927E-17
   1.29999995         1.07220632E-17
   1.35000002         5.53249289E-18
   1.39999998        -1.47604590E-18
   1.45000005        -1.00734072E-17
   1.50000000        -1.98737818E-17
   1.54999995        -3.03456369E-17
   1.60000002        -4.08264090E-17
   1.64999998        -5.05386807E-17
   1.70000005        -5.86057398E-17
   1.75000000        -6.40663759E-17
   1.79999995        -6.58917518E-17
   1.85000002        -6.30099604E-17
   1.89999998        -5.43465570E-17
   1.95000005        -3.88903663E-17
   2.00000000        -1.57932320E-17
   2.04999995         1.54906196E-17
   2.09999990         5.50256161E-17
   2.15000010         1.02184003E-16
   2.20000005         1.55420487E-16
   2.25000000         2.12059119E-16
   2.29999995         2.68128729E-16
   2.34999990         3.18289041E-16
   2.40000010         3.55892354E-16
   2.45000005         3.73222331E-16
   2.50000000         3.61942313E-16
   2.54999995         3.13768453E-16
   2.59999990         2.21361989E-16
   2.65000010         7.94059771E-17
   2.70000005        -1.14199166E-16
   2.75000000        -3.57117058E-16
   2.79999995        -6.41458051E-16
   2.84999990        -9.52912277E-16
   2.90000010        -1.27028938E-15
   2.95000005        -1.56562298E-15
   3.00000000        -1.80497999E-15
   3.04999995        -1.95007483E-15
   3.09999990        -1.96073834E-15
   3.15000010        -1.79821685E-15
   3.20000005        -1.42919541E-15
   3.25000000        -8.30330199E-16
   3.29999995         6.99511985E-18
   3.34999990         1.07209225E-15
   3.40000010         2.33102874E-15
   3.45000005         3.72383085E-15
   3.50000000         5.16335996E-15
   3.54999995         6.53633218E-15
   3.59999990         7.70688597E-15
   3.65000010         8.52294716E-15
   3.70000005         8.82546752E-15
   3.75000000         8.46034888E-15
   3.79999995         7.29260724E-15
   3.84999990         5.22209026E-15
   3.90000010         2.19968760E-15
   3.95000005        -1.75717758E-15
   4.00000000        -6.55119422E-15
   4.05000019        -1.19955307E-14
   4.09999990        -1.78093827E-14
   4.15000010        -2.36201185E-14
   4.19999981        -2.89731347E-14
   4.25000000        -3.33501096E-14
   4.30000019        -3.61958524E-14
   4.34999990        -3.69532048E-14
   4.40000010        -3.51049315E-14
   4.44999981        -3.02206516E-14
   4.50000000        -2.20062057E-14
   4.55000019        -1.03522757E-14
   4.59999990         4.62133045E-15
   4.65000010         2.25297923E-14
   4.69999981         4.26996051E-14
   4.75000000         6.41608755E-14
   4.80000019         8.56586937E-14
   4.84999990         1.05685927E-13
   4.90000010         1.22538766E-13
   4.94999981         1.34394544E-13
   5.00000000         1.39410618E-13
   5.05000019         1.35840910E-13
   5.09999990         1.22165231E-13
   5.15000010         9.72256130E-14
   5.19999981         6.03615262E-14
   5.25000000         1.15363490E-14
   5.30000019        -4.85546899E-14
   5.34999990        -1.18403158E-13
   5.40000010        -1.95641734E-13
   5.44999981        -2.77041411E-13
   5.50000000        -3.58557178E-13
   5.55000019        -4.35425947E-13
   5.59999990        -5.02318619E-13
   5.65000010        -5.53542834E-13
   5.69999981        -5.83293776E-13
   5.75000000        -5.85942915E-13
   5.80000019        -5.56356393E-13
   5.84999990        -4.90226078E-13
   5.90000010        -3.84402010E-13
   5.94999981        -2.37204435E-13
   6.00000000        -4.87018805E-14
   6.05000019         1.79065882E-13
   6.09999990         4.41935795E-13
   6.15000010         7.33554168E-13
   6.19999981         1.04540855E-12
   6.25000000         1.36696416E-12
   6.30000019         1.68591215E-12
   6.34999990         1.98852870E-12
   6.40000010         2.26013934E-12
   6.44999981         2.48567920E-12
   6.50000000         2.65033091E-12
   6.55000019         2.74022948E-12
   6.59999990         2.74319933E-12
   6.65000010         2.64950822E-12
   6.69999981         2.45260800E-12
   6.75000000         2.14981722E-12
   6.80000019         1.74295680E-12
   6.84999990         1.23885808E-12
   6.90000010         6.49766428E-13
   6.94999981        -6.41247013E-15
   7.00000000        -7.06034569E-13
   7.05000019        -1.41980178E-12
   7.09999990        -2.11303674E-12
   7.15000010        -2.74613448E-12
   7.19999981        -3.27523078E-12
   7.25000000        -3.65296378E-12
   7.30000019        -3.82944718E-12
   7.34999990        -3.75336437E-12
   7.40000010        -3.37308089E-12
   7.44999981        -2.63798987E-12
   7.50000000        -1.49966855E-12
   7.55000019         8.68213650E-14
   7.59999990         2.16167535E-12
   7.65000010         4.75927804E-12
   7.69999981         7.90717491E-12
   7.75000000         1.16252303E-11
   7.80000019         1.59249888E-11
   7.84999990         2.08091530E-11
   7.90000010         2.62714243E-11
   7.94999981         3.22965439E-11
   8.00000000         3.88604739E-11
   8.05000019         4.59309639E-11
   8.10000038         5.34683860E-11
   8.14999962         6.14267248E-11
   8.19999981         6.97545841E-11
   8.25000000         7.83965184E-11
   8.30000019         8.72948033E-11
   8.35000038         9.63905553E-11
   8.39999962         1.05625439E-10
   8.44999981         1.14943575E-10
   8.50000000         1.24292174E-10
   8.55000019         1.33623473E-10
   8.60000038         1.42895737E-10
   8.64999962         1.52073937E-10
   8.69999981         1.61130664E-10
   8.75000000         1.70045658E-10
   8.80000019         1.78805706E-10
   8.85000038         1.87405216E-10
   8.89999962         1.95842634E-10
   8.94999981         2.04122108E-10
   9.00000000         2.12249343E-10
   9.05000019         2.20227989E-10
   9.10000038         2.28060154E-10
   9.14999962         2.35737985E-10
   9.19999981         2.43245785E-10
   9.25000000         2.50548748E-10
   9.30000019         2.57591420E-10
   9.35000038         2.64294170E-10
   9.39999962         2.70543254E-10
   9.44999981         2.76187628E-10
   9.50000000         2.81028534E-10
   9.55000019         2.84818058E-10
   9.60000038         2.87255830E-10
   9.64999962         2.87960877E-10
   9.69999981         2.86490304E-10
   9.75000000         2.82317308E-10
   9.80000019         2.74825523E-10
   9.85000038         2.63301436E-10
   9.89999962         2.46941467E-10
   9.94999981         2.24824590E-10
   10.0000000         1.95915145E-10
   10.0500002         1.59062929E-10
   10.1000004         1.12988244E-10
   10.1499996         5.62824926E-11
   10.1999998        -1.25810664E-11
   10.2500000        -9.52761828E-11
   10.3000002        -1.93611294E-10
   10.3500004        -3.09513387E-10
   10.3999996        -4.45037895E-10
   10.4499998        -6.02389638E-10
   10.5000000        -7.83870635E-10
   10.5500002        -9.91903337E-10
   10.6000004        -1.22902899E-09
   10.6499996        -1.49783175E-09
   10.6999998        -1.80103066E-09
   10.7500000        -2.14135731E-09
   10.8000002        -2.52160581E-09
   10.8500004        -2.94461566E-09
   10.8999996        -3.41317596E-09
   10.9499998        -3.93009536E-09
   11.0000000        -4.49812632E-09
   11.0500002        -5.11992315E-09
   11.1000004        -5.79804915E-09
   11.1499996        -6.53495347E-09
   11.1999998        -7.33281125E-09
   11.2500000        -8.19369372E-09
   11.3000002        -9.11935150E-09
   11.3500004        -1.01113331E-08
   11.3999996        -1.11707186E-08
   11.4499998        -1.22983437E-08
   11.5000000        -1.34945184E-08
   11.5500002        -1.47592027E-08
   11.6000004        -1.60918088E-08
   11.6499996        -1.74911428E-08
   11.6999998        -1.89555251E-08
   11.7500000        -2.04824389E-08
   11.8000002        -2.20689227E-08
   11.8500004        -2.37111095E-08
   11.8999996        -2.54042938E-08
   11.9499998        -2.71431571E-08
   12.0000000        -2.89213578E-08
   12.0500002        -3.07317123E-08
   12.1000004        -3.25659926E-08
   12.1499996        -3.44150983E-08
   12.1999998        -3.62689541E-08
   12.2500000        -3.81162302E-08
   12.3000002        -3.99447728E-08
   12.3500004        -4.17412167E-08
   12.3999996        -4.34911236E-08
   12.4499998        -4.51791031E-08
   12.5000000        -4.67884185E-08
   12.5500002        -4.83013345E-08
   12.6000004        -4.96991426E-08
   12.6499996        -5.09621749E-08
   12.6999998        -5.20693497E-08
   12.7500000        -5.29989350E-08
   12.8000002        -5.37281011E-08
   12.8500004        -5.42332010E-08
   12.8999996        -5.44897638E-08
   12.9499998        -5.44723413E-08
   13.0000000        -5.41553504E-08
   13.0500002        -5.35120854E-08
   13.1000004        -5.25151833E-08
   13.1499996        -5.11371212E-08
   13.1999998        -4.93502661E-08
   13.2500000        -4.71265693E-08
   13.3000002        -4.44375274E-08
   13.3500004        -4.12549070E-08
   13.3999996        -3.75504925E-08
   13.4499998        -3.32966295E-08
   13.5000000        -2.84653332E-08
   13.5500002        -2.30296013E-08
   13.6000004        -1.69628454E-08
   13.6499996        -1.02390949E-08
   13.6999998        -2.83270585E-09
   13.7500000         5.28019406E-09
   13.8000002         1.41231027E-08
   13.8500004         2.37180764E-08
   13.8999996         3.40861348E-08
   13.9499998         4.52472300E-08
   14.0000000         5.72194274E-08
   14.0500002         7.00198584E-08
   14.1000004         8.36637213E-08
   14.1499996         9.81647332E-08
   14.1999998         1.13534924E-07
   14.2500000         1.29785008E-07
   14.3000002         1.46923242E-07
   14.3500004         1.64955750E-07
   14.3999996         1.83888403E-07
   14.4499998         2.03723317E-07
   14.5000000         2.24462056E-07
   14.5500002         2.46104122E-07
   14.6000004         2.68645778E-07
   14.6499996         2.92082632E-07
   14.6999998         3.16408347E-07
   14.7500000         3.41613855E-07
   14.8000002         3.67688841E-07
   14.8500004         3.94620741E-07
   14.8999996         4.22395800E-07
   14.9499998         4.50997419E-07
   15.0000000         4.80408005E-07
   15.0500002         5.10607777E-07
   15.1000004         5.41575503E-07
   15.1499996         5.73287991E-07
   15.1999998         6.05720913E-07
   15.2500000         6.38847268E-07
   15.3000002         6.72639999E-07
   15.3500004         7.07069660E-07
   15.3999996         7.42105556E-07
   15.4499998         7.77715627E-07
   15.5000000         8.13866734E-07
   15.5500002         8.50523975E-07
   15.6000004         8.87651993E-07
   15.6499996         9.25214238E-07
   15.6999998         9.63172511E-07
   15.7500000         1.00148827E-06
   15.8000002         1.04012213E-06
   15.8500004         1.07903384E-06
   15.8999996         1.11818247E-06
   15.9499998         1.15752698E-06
   16.0000000         1.19702486E-06
   16.0499992         1.23663494E-06
   16.1000004         1.27631358E-06
   16.1499996         1.31601917E-06
   16.2000008         1.35570895E-06
   16.2500000         1.39534075E-06
   16.2999992         1.43487262E-06
   16.3500004         1.47426294E-06
   16.3999996         1.51347092E-06
   16.4500008         1.55245596E-06
   16.5000000         1.59117815E-06
   16.5499992         1.62959952E-06
   16.6000004         1.66768268E-06
   16.6499996         1.70539113E-06
   16.7000008         1.74269030E-06
   16.7500000         1.77954689E-06
   16.7999992         1.81593009E-06
   16.8500004         1.85180988E-06
   16.8999996         1.88715853E-06
   16.9500008         1.92195012E-06
   17.0000000         1.95616167E-06
   17.0499992         1.98977182E-06
   17.1000004         2.02276124E-06
   17.1499996         2.05511401E-06
   17.2000008         2.08681627E-06
   17.2500000         2.11785550E-06
   17.2999992         2.14822398E-06
   17.3500004         2.17791512E-06
   17.3999996         2.20692527E-06
   17.4500008         2.23525262E-06
   17.5000000         2.26289853E-06
   17.5499992         2.28986755E-06
   17.6000004         2.31616514E-06
   17.6499996         2.34179879E-06
   17.7000008         2.36677988E-06
   17.7500000         2.39112069E-06
   17.7999992         2.41483554E-06
   17.8500004         2.43793852E-06
   17.8999996         2.46044738E-06
   17.9500008         2.48237961E-06
   18.0000000         2.50375479E-06
   18.0499992         2.52459176E-06
   18.1000004         2.54491033E-06
   18.1499996         2.56472936E-06
   18.2000008         2.58406885E-06
   18.2500000         2.60294610E-06
   18.2999992         2.62137905E-06
   18.3500004         2.63938227E-06
   18.3999996         2.65696985E-06
   18.4500008         2.67415226E-06
   18.5000000         2.69093925E-06
   18.5499992         2.70733472E-06
   18.6000004         2.72334046E-06
   18.6499996         2.73895512E-06
   18.7000008         2.75417051E-06
   18.7500000         2.76897572E-06
   18.7999992         2.78335278E-06
   18.8500004         2.79727874E-06
   18.8999996         2.81072471E-06
   18.9500008         2.82365545E-06
   19.0000000         2.83602890E-06
   19.0499992         2.84779549E-06
   19.1000004         2.85889882E-06
   19.1499996         2.86927366E-06
   19.2000008         2.87884882E-06
   19.2500000         2.88754222E-06
   19.2999992         2.89526588E-06
   19.3500004         2.90192202E-06
   19.3999996         2.90740468E-06
   19.4500008         2.91159859E-06
   19.5000000         2.91438096E-06
   19.5499992         2.91562037E-06
   19.6000004         2.91517654E-06
   19.6499996         2.91290007E-06
   19.7000008         2.90863522E-06
   19.7500000         2.90221760E-06
   19.7999992         2.89347554E-06
   19.8500004         2.88222918E-06
   19.8999996         2.86829322E-06
   19.9500008         2.85147576E-06
   20.0000000         2.83158033E-06
   20.0499992         2.80840572E-06
   20.1000004         2.78174480E-06
   20.1499996         2.75138814E-06
   20.2000008         2.71712452E-06
   20.2500000         2.67873975E-06
   20.2999992         2.63601919E-06
   20.3500004         2.58874934E-06
   20.3999996         2.53671760E-06
   20.4500008         2.47971275E-06
   20.5000000         2.41752809E-06
   20.5499992         2.34996151E-06
   20.6000004         2.27681721E-06
   20.6499996         2.19790445E-06
   20.7000008         2.11304382E-06
   20.7500000         2.02206320E-06
   20.7999992         1.92480206E-06
   20.8500004         1.82111171E-06
   20.8999996         1.71085856E-06
   20.9500008         1.59392152E-06
   21.0000000         1.47019750E-06
   21.0499992         1.33959861E-06
   21.1000004         1.20205698E-06
   21.1499996         1.05752417E-06
   21.2000008         9.05971660E-07
   21.2500000         7.47394438E-07
   21.2999992         5.81808081E-07
   21.3500004         4.09253545E-07
   21.3999996         2.29795745E-07
   21.4500008         4.35274110E-08
   21.5000000        -1.49436616E-07
   21.5499992        -3.48950579E-07
   21.6000004        -5.54843609E-07
   21.6499996        -7.66917083E-07
   21.7000008        -9.84942290E-07
   21.7500000        -1.20866343E-06
   21.7999992        -1.43779653E-06
   21.8500004        -1.67202711E-06
   21.8999996        -1.91101572E-06
   21.9500008        -2.15439195E-06
   22.0000000        -2.40175837E-06
   22.0499992        -2.65269000E-06
   22.1000004        -2.90673529E-06
   22.1499996        -3.16342062E-06
   22.2000008        -3.42224052E-06
   22.2500000        -3.68267138E-06
   22.2999992        -3.94416656E-06
   22.3500004        -4.20615606E-06
   22.3999996        -4.46804961E-06
   22.4500008        -4.72924103E-06
   22.5000000        -4.98910640E-06
   22.5499992        -5.24700636E-06
   22.6000004        -5.50228879E-06
   22.6499996        -5.75428930E-06
   22.7000008        -6.00233807E-06
   22.7500000        -6.24575387E-06
   22.7999992        -6.48385321E-06
   22.8500004        -6.71595126E-06
   22.8999996        -6.94136043E-06
   22.9500008        -7.15939768E-06
   23.0000000        -7.36938136E-06
   23.0499992        -7.57063981E-06
   23.1000004        -7.76250909E-06
   23.1499996        -7.94433890E-06
   23.2000008        -8.11549126E-06
   23.2500000        -8.27534677E-06
   23.2999992        -8.42330519E-06
   23.3500004        -8.55878625E-06
   23.3999996        -8.68123607E-06
   23.4500008        -8.79012350E-06
   23.5000000        -8.88494924E-06
   23.5499992        -8.96524216E-06
   23.6000004        -9.03056480E-06
   23.6499996        -9.08051334E-06
   23.7000008        -9.11472125E-06
   23.7500000        -9.13285839E-06
   23.7999992        -9.13463464E-06
   23.8500004        -9.11979896E-06
   23.8999996        -9.08814582E-06
   23.9500008        -9.03951241E-06
   24.0000000        -8.97377959E-06
   24.0499992        -8.89086914E-06
   24.1000004        -8.79075287E-06
   24.1499996        -8.67344716E-06
   24.2000008        -8.53901838E-06
   24.2500000        -8.38757023E-06
   24.2999992        -8.21926278E-06
   24.3500004        -8.03429793E-06
   24.3999996        -7.83292217E-06
   24.4500008        -7.61542651E-06
   24.5000000        -7.38214749E-06
   24.5499992        -7.13346617E-06
   24.6000004        -6.86980229E-06
   24.6499996        -6.59161833E-06
   24.7000008        -6.29941451E-06
   24.7500000        -5.99372970E-06
   24.7999992        -5.67514053E-06
   24.8500004        -5.34425408E-06
   24.8999996        -5.00170972E-06
   24.9500008        -4.64817776E-06
   25.0000000        -4.28435305E-06
   25.0499992        -3.91096228E-06
   25.1000004        -3.52874554E-06
   25.1499996        -3.13847067E-06
   25.2000008        -2.74091667E-06
   25.2500000        -2.33688115E-06
   25.2999992        -1.92717289E-06
   25.3500004        -1.51260861E-06
   25.3999996        -1.09401185E-06
   25.4500008        -6.72212309E-07
   25.5000000        -2.48036429E-07
   25.5499992         1.77688065E-07
   25.6000004         6.04137711E-07
   25.6499996         1.03049865E-06
   25.7000008         1.45596380E-06
   25.7500000         1.87973944E-06
   25.7999992         2.30104729E-06
   25.8500004         2.71912540E-06
   25.8999996         3.13323130E-06
   25.9500008         3.54264284E-06
   26.0000000         3.94666313E-06
   26.0499992         4.34461708E-06
   26.1000004         4.73585897E-06
   26.1499996         5.11977032E-06
   26.2000008         5.49576407E-06
   26.2500000         5.86328133E-06
   26.2999992         6.22179914E-06
   26.3500004         6.57082637E-06
   26.3999996         6.90990419E-06
   26.4500008         7.23861285E-06
   26.5000000         7.55656356E-06
   26.5499992         7.86340661E-06
   26.6000004         8.15882595E-06
   26.6499996         8.44254100E-06
   26.7000008         8.71430984E-06
   26.7500000         8.97392692E-06
   26.7999992         9.22121853E-06
   26.8500004         9.45605098E-06
   26.8999996         9.67831966E-06
   26.9500008         9.88795910E-06
   27.0000000         1.00849338E-05
   27.0499992         1.02692402E-05
   27.1000004         1.04409091E-05
   27.1499996         1.05999998E-05
   27.2000008         1.07465967E-05
   27.2500000         1.08808181E-05
   27.2999992         1.10028050E-05
   27.3500004         1.11127265E-05
   27.3999996         1.12107737E-05
   27.4500008         1.12971611E-05
   27.5000000         1.13721235E-05
   27.5499992         1.14359163E-05
   27.6000004         1.14888107E-05
   27.6499996         1.15310968E-05
   27.7000008         1.15630792E-05
   27.7500000         1.15850744E-05
   27.7999992         1.15974153E-05
   27.8500004         1.16004421E-05
   27.8999996         1.15945040E-05
   27.9500008         1.15799603E-05
   28.0000000         1.15571775E-05
   28.0499992         1.15265220E-05
   28.1000004         1.14883715E-05
   28.1499996         1.14430995E-05
   28.2000008         1.13910874E-05
   28.2500000         1.13327123E-05
   28.2999992         1.12683547E-05
   28.3500004         1.11983882E-05
   28.3999996         1.11231884E-05
   28.4500008         1.10431256E-05
   28.5000000         1.09585662E-05
   28.5499992         1.08698678E-05
   28.6000004         1.07773894E-05
   28.6499996         1.06814778E-05
   28.7000008         1.05824720E-05
   28.7500000         1.04807077E-05
   28.7999992         1.03765078E-05
   28.8500004         1.02701879E-05
   28.8999996         1.01620562E-05
   28.9500008         1.00524067E-05
   29.0000000         9.94152742E-06
   29.0499992         9.82969686E-06
   29.1000004         9.71717691E-06
   29.1499996         9.60422676E-06
   29.2000008         9.49108744E-06
   29.2500000         9.37799177E-06
   29.2999992         9.26516350E-06
   29.3500004         9.15281089E-06
   29.3999996         9.04113313E-06
   29.4500008         8.93031847E-06
   29.5000000         8.82054246E-06
   29.5499992         8.71196789E-06
   29.6000004         8.60474756E-06
   29.6499996         8.49902153E-06
   29.7000008         8.39492077E-06
   29.7500000         8.29256169E-06
   29.7999992         8.19205161E-06
   29.8500004         8.09348421E-06
   29.8999996         7.99694044E-06
   29.9500008         7.90249487E-06
   30.0000000         7.81020753E-06
   30.0499992         7.72012572E-06
   30.1000004         7.63228854E-06
   30.1499996         7.54672010E-06
   30.2000008         7.46343585E-06
   30.2500000         7.38243989E-06
   30.2999992         7.30372449E-06
   30.3500004         7.22726963E-06
   30.3999996         7.15304577E-06
   30.4500008         7.08101243E-06
   30.5000000         7.01111730E-06
   30.5499992         6.94329947E-06
   30.6000004         6.87748434E-06
   30.6499996         6.81358688E-06
   30.7000008         6.75151341E-06
   30.7500000         6.69116025E-06
   30.7999992         6.63241190E-06
   30.8500004         6.57514420E-06
   30.8999996         6.51922346E-06
   30.9500008         6.46450826E-06
   31.0000000         6.41084625E-06
   31.0499992         6.35807646E-06
   31.1000004         6.30603245E-06
   31.1499996         6.25453640E-06
   31.2000008         6.20340643E-06
   31.2500000         6.15245517E-06
   31.2999992         6.10148572E-06
   31.3500004         6.05029754E-06
   31.3999996         5.99868599E-06
   31.4500008         5.94644189E-06
   31.5000000         5.89335286E-06
   31.5499992         5.83920473E-06
   31.6000004         5.78378058E-06
   31.6499996         5.72686076E-06
   31.7000008         5.66822928E-06
   31.7500000         5.60766830E-06
   31.7999992         5.54496182E-06
   31.8500004         5.47989839E-06
   31.8999996         5.41226700E-06
   31.9500008         5.34186302E-06
   32.0000000         5.26848407E-06
   32.0499992         5.19193554E-06
   32.0999985         5.11203280E-06
   32.1500015         5.02859393E-06
   32.2000008         4.94145024E-06
   32.2500000         4.85043620E-06
   32.2999992         4.75540219E-06
   32.3499985         4.65620860E-06
   32.4000015         4.55272493E-06
   32.4500008         4.44483703E-06
   32.5000000         4.33244122E-06
   32.5499992         4.21544883E-06
   32.5999985         4.09378390E-06
   32.6500015         3.96738733E-06
   32.7000008         3.83621455E-06
   32.7500000         3.70023713E-06
   32.7999992         3.55944076E-06
   32.8499985         3.41382997E-06
   32.9000015         3.26342433E-06
   32.9500008         3.10825999E-06
   33.0000000         2.94838924E-06
   33.0499992         2.78388188E-06
   33.0999985         2.61482410E-06
   33.1500015         2.44131729E-06
   33.2000008         2.26348084E-06
   33.2500000         2.08144615E-06
   33.2999992         1.89536217E-06
   33.3499985         1.70539181E-06
   33.4000015         1.51171139E-06
   33.4500008         1.31451304E-06
   33.5000000         1.11399925E-06
   33.5499992         9.10381061E-07
   33.5999985         7.03886258E-07
   33.6500015         4.94749145E-07
   33.7000008         2.83212131E-07
   33.7500000         6.95299320E-08
   33.7999992        -1.46042410E-07
   33.8499985        -3.63237376E-07
   33.9000015        -5.81788186E-07
   33.9500008        -8.01422402E-07
   34.0000000        -1.02186664E-06
   34.0499992        -1.24284497E-06
   34.0999985        -1.46408559E-06
   34.1500015        -1.68531301E-06
   34.2000008        -1.90626008E-06
   34.2500000        -2.12665805E-06
   34.2999992        -2.34624940E-06
   34.3499985        -2.56478302E-06
   34.4000015        -2.78201082E-06
   34.4500008        -2.99770068E-06
   34.5000000        -3.21162452E-06
   34.5499992        -3.42356907E-06
   34.5999985        -3.63333106E-06
   34.6500015        -3.84072519E-06
   34.7000008        -4.04557522E-06
   34.7500000        -4.24772452E-06
   34.7999992        -4.44702982E-06
   34.8499985        -4.64336472E-06
   34.9000015        -4.83662097E-06
   34.9500008        -5.02670628E-06
   35.0000000        -5.21354650E-06
   35.0499992        -5.39709208E-06
   35.0999985        -5.57730618E-06
   35.1500015        -5.75417153E-06
   35.2000008        -5.92769084E-06
   35.2500000        -6.09788685E-06
   35.2999992        -6.26480050E-06
   35.3499985        -6.42849136E-06
   35.4000015        -6.58903627E-06
   35.4500008        -6.74653393E-06
   35.5000000        -6.90109482E-06
   35.5499992        -7.05285220E-06
   35.5999985        -7.20195021E-06
   35.6500015        -7.34855439E-06
   35.7000008        -7.49283936E-06
   35.7500000        -7.63499702E-06
   35.7999992        -7.77523292E-06
   35.8499985        -7.91375896E-06
   35.9000015        -8.05080435E-06
   35.9500008        -8.18660737E-06