  -4.50000000         0.00000000    
  -4.44999981         0.00000000    
  -4.40000010         0.00000000    
  -4.34999990         0.00000000    
  -4.30000019         0.00000000    
  -4.25000000         0.00000000    
  -4.19999981        -5.84321884E-35
  -4.15000010        -1.15510797E-33
  -4.09999990        -8.32444618E-33
  -4.05000019        -3.32532188E-32
  -4.00000000        -7.91965456E-32
  -3.95000005        -7.96750776E-32
  -3.90000010         2.01894681E-31
  -3.84999990         1.17955394E-30
  -3.79999995         3.06554162E-30
  -3.75000000         4.84056311E-30
  -3.70000005         2.85644939E-30
  -3.65000010        -9.48775909E-30
  -3.59999990        -3.83820113E-29
  -3.54999995        -8.02362216E-29
  -3.50000000        -1.07584409E-28
  -3.45000005        -5.91090650E-29
  -3.40000010         1.48324496E-28
  -3.34999990         5.64209411E-28
  -3.29999995         1.09649817E-27
  -3.25000000         1.37944309E-27
  -3.20000005         7.05874702E-28
  -3.15000010        -1.82540815E-27
  -3.09999990        -6.78054452E-27
  -3.04999995        -1.34083320E-26
  -3.00000000        -1.83931579E-26
  -2.95000005        -1.49492624E-26
  -2.90000010         6.68457851E-27
  -2.84999990         5.60698974E-26
  -2.79999995         1.35815705E-25
  -2.75000000         2.31670378E-25
  -2.70000005         3.02194691E-25
  -2.65000010         2.73589608E-25
  -2.59999990         4.74649595E-26
  -2.54999995        -4.70740962E-25
  -2.50000000        -1.31903085E-24
  -2.45000005        -2.40701795E-24
  -2.40000010        -3.44303706E-24
  -2.34999990        -3.89191272E-24
  -2.29999995        -3.00448286E-24
  -2.25000000         4.10606569E-26
  -2.20000005         5.86251606E-24
  -2.15000010         1.44725763E-23
  -2.09999990         2.48140978E-23
  -2.04999995         3.43506736E-23
  -2.00000000         3.88858633E-23
  -1.95000005         3.28188666E-23
  -1.89999998         1.00407589E-23
  -1.85000002        -3.43879205E-23
  -1.79999995        -1.01779635E-22
  -1.75000000        -1.86819213E-22
  -1.70000005        -2.74585669E-22
  -1.64999998        -3.38546789E-22
  -1.60000002        -3.40837969E-22
  -1.54999995        -2.36330004E-22
  -1.50000000         1.81800237E-23
  -1.45000005         4.49069155E-22
  -1.39999998         1.04616699E-21
  -1.35000002         1.74129718E-21
  -1.29999995         2.39079330E-21
  -1.25000000         2.77013538E-21
  -1.20000005         2.59011757E-21
  -1.14999998         1.54291025E-21
  -1.10000002        -6.18031044E-22
  -1.04999995        -3.96850279E-21
  -1.00000000        -8.29038780E-21
 -0.949999988        -1.29636432E-20
 -0.899999976        -1.69133588E-20
 -0.850000024        -1.86566403E-20
 -0.800000012        -1.64880021E-20
 -0.750000000        -8.82175845E-21
 -0.699999988         5.32531608E-21
 -0.649999976         2.57741385E-20
 -0.600000024         5.06593260E-20
 -0.550000012         7.60945417E-20
 -0.500000000         9.61970598E-20
 -0.449999988         1.03619888E-19
 -0.400000006         9.06708859E-20
 -0.349999994         5.09829636E-20
 -0.300000012        -1.84497853E-20
 -0.250000000        -1.15213050E-19
 -0.200000003        -2.29861782E-19
 -0.150000006        -3.45289434E-19
 -0.100000001        -4.37560966E-19
  -5.00000007E-02    -4.78517729E-19
   0.00000000        -4.40162760E-19
   5.00000007E-02    -3.00441408E-19
  0.100000001        -4.96168296E-20
  0.150000006         3.03918461E-19
  0.200000003         7.29744785E-19
  0.250000000         1.17473037E-18
  0.300000012         1.56650730E-18
  0.349999994         1.82142317E-18
  0.400000006         1.85642718E-18
  0.449999988         1.60343523E-18
  0.500000000         1.02391404E-18
  0.550000012         1.20963481E-19
  0.600000024        -1.05377444E-18
  0.649999976        -2.40041444E-18
  0.699999988        -3.77911277E-18
  0.750000000        -5.02549114E-18
  0.800000012        -5.97060910E-18
  0.850000024        -6.46147379E-18
  0.899999976        -6.37743638E-18
  0.949999988        -5.63828970E-18
   1.00000000        -4.20169866E-18
   1.04999995        -2.05051870E-18
   1.10000002         8.25669043E-19
   1.14999998         4.44683777E-18
   1.20000005         8.84601588E-18
   1.25000000         1.40489497E-17
   1.29999995         2.00215411E-17
   1.35000002         2.65827609E-17
   1.39999998         3.32903304E-17
   1.45000005         3.93180650E-17
   1.50000000         4.33558380E-17
   1.54999995         4.35724535E-17
   1.60000002         3.76855811E-17
   1.64999998         2.31783684E-17
   1.70000005        -2.31319528E-18
   1.75000000        -4.04443508E-17
   1.79999995        -9.14753033E-17
   1.85000002        -1.53534727E-16
   1.89999998        -2.21953999E-16
   1.95000005        -2.88825794E-16
   2.00000000        -3.42955117E-16
   2.04999995        -3.70360498E-16
   2.09999990        -3.55440727E-16
   2.15000010        -2.82847012E-16
   2.20000005        -1.39995528E-16
   2.25000000         7.99706768E-17
   2.29999995         3.75091547E-16
   2.34999990         7.31809361E-16
   2.40000010         1.12301439E-15
   2.45000005         1.50745469E-15
   2.50000000         1.83099364E-15
   2.54999995         2.03006142E-15
   2.59999990         2.03742086E-15
   2.65000010         1.79008343E-15
   2.70000005         1.23886753E-15
   2.75000000         3.58758396E-16
   2.79999995        -8.41072641E-16
   2.84999990        -2.30894998E-15
   2.90000010        -3.94551547E-15
   2.95000005        -5.60305307E-15
   3.00000000        -7.09041836E-15
   3.04999995        -8.18423139E-15
   3.09999990        -8.64641746E-15
   3.15000010        -8.24745647E-15
   3.20000005        -6.79398520E-15
   3.25000000        -4.15868232E-15
   3.29999995        -3.09747270E-16
   3.34999990         4.66309298E-15
   3.40000010         1.05293183E-14
   3.45000005         1.69082108E-14
   3.50000000         2.32720269E-14
   3.54999995         2.89637529E-14
   3.59999990         3.32304476E-14
   3.65000010         3.52720748E-14
   3.70000005         3.43043499E-14
   3.75000000         2.96329022E-14
   3.79999995         2.07347042E-14
   3.84999990         7.34163266E-15
   3.90000010        -1.04799473E-14
   3.95000005        -3.22602459E-14
   4.00000000        -5.70748418E-14
   4.05000019        -8.35180652E-14
   4.09999990        -1.09707524E-13
   4.15000010        -1.33325059E-13
   4.19999981        -1.51698383E-13
   4.25000000        -1.61925364E-13
   4.30000019        -1.61040926E-13
   4.34999990        -1.46223311E-13
   4.40000010        -1.15033932E-13
   4.44999981        -6.56811167E-14
   4.50000000         2.70496012E-15
   4.55000019         8.98021891E-14
   4.59999990         1.93850307E-13
   4.65000010         3.11449434E-13
   4.69999981         4.37425839E-13
   4.75000000         5.64786770E-13
   4.80000019         6.84785453E-13
   4.84999990         7.87113430E-13
   4.90000010         8.60232783E-13
   4.94999981         8.91853811E-13
   5.00000000         8.69557031E-13
   5.05000019         7.81546486E-13
   5.09999990         6.17513690E-13
   5.15000010         3.69579665E-13
   5.19999981         3.32732329E-14
   5.25000000        -3.91506462E-13
   5.30000019        -8.99599514E-13
   5.34999990        -1.47983242E-12
   5.40000010        -2.11446702E-12
   5.44999981        -2.77891469E-12
   5.50000000        -3.44177616E-12
   5.55000019        -4.06525768E-12
   5.59999990        -4.60600178E-12
   5.65000010        -5.01635712E-12
   5.69999981        -5.24609089E-12
   5.75000000        -5.24453311E-12
   5.80000019        -4.96311195E-12
   5.84999990        -4.35822428E-12
   5.90000010        -3.39436096E-12
   5.94999981        -2.04738722E-12
   6.00000000        -3.07853488E-13
   6.05000019         1.81578353E-12
   6.09999990         4.29418523E-12
   6.15000010         7.07454104E-12
   6.19999981         1.00785144E-11
   6.25000000         1.32008605E-11
   6.30000019         1.63088570E-11
   6.34999990         1.92426387E-11
   6.40000010         2.18165399E-11
   6.44999981         2.38215038E-11
   6.50000000         2.50285643E-11
   6.55000019         2.51934359E-11
   6.59999990         2.40621325E-11
   6.65000010         2.13775751E-11
   6.69999981         1.68870664E-11
   6.75000000         1.03505078E-11
   6.80000019         1.54920846E-12
   6.84999990        -9.70488100E-12
   6.90000010        -2.35597132E-11
   6.94999981        -4.01136138E-11
   7.00000000        -5.94059177E-11
   7.05000019        -8.14079013E-11
   7.09999990        -1.06014177E-10
   7.15000010        -1.33034694E-10
   7.19999981        -1.62187513E-10
   7.25000000        -1.93092251E-10
   7.30000019        -2.25264515E-10
   7.34999990        -2.58111033E-10
   7.40000010        -2.90925617E-10
   7.44999981        -3.22885718E-10
   7.50000000        -3.53049479E-10
   7.55000019        -3.80353193E-10
   7.59999990        -4.03608647E-10
   7.65000010        -4.21500140E-10
   7.69999981        -4.32581027E-10
   7.75000000        -4.35268988E-10
   7.80000019        -4.27839791E-10
   7.84999990        -4.08419215E-10
   7.90000010        -3.74972470E-10
   7.94999981        -3.25290350E-10
   8.00000000        -2.56972416E-10
   8.05000019        -1.67405645E-10
   8.10000038        -5.37393983E-11
   8.14999962         8.71452494E-11
   8.19999981         2.58671196E-10
   8.25000000         4.64606187E-10
   8.30000019         7.09109826E-10
   8.35000038         9.96786653E-10
   8.39999962         1.33274580E-09
   8.44999981         1.72266590E-09
   8.50000000         2.17286722E-09
   8.55000019         2.69038924E-09
   8.60000038         3.28307470E-09
   8.64999962         3.95965882E-09
   8.69999981         4.72986494E-09
   8.75000000         5.60450308E-09
   8.80000019         6.59557520E-09
   8.85000038         7.71638042E-09
   8.89999962         8.98162877E-09
   8.94999981         1.04075575E-08
   9.00000000         1.20120358E-08
   9.05000019         1.38146961E-08
   9.10000038         1.58370348E-08
   9.14999962         1.81025381E-08
   9.19999981         2.06367936E-08
   9.25000000         2.34675976E-08
   9.30000019         2.66250630E-08
   9.35000038         3.01417238E-08
   9.39999962         3.40526327E-08
   9.44999981         3.83954415E-08
   9.50000000         4.32104947E-08
   9.55000019         4.85408940E-08
   9.60000038         5.44325616E-08
   9.64999962         6.09343047E-08
   9.69999981         6.80978118E-08
   9.75000000         7.59777308E-08
   9.80000019         8.46316368E-08
   9.85000038         9.41200327E-08
   9.89999962         1.04506348E-07
   9.94999981         1.15856864E-07
   10.0000000         1.28240629E-07
   10.0500002         1.41729458E-07
   10.1000004         1.56397675E-07
   10.1499996         1.72322146E-07
   10.1999998         1.89582011E-07
   10.2500000         2.08258498E-07
   10.3000002         2.28434743E-07
   10.3500004         2.50195598E-07
   10.3999996         2.73627251E-07
   10.4499998         2.98816985E-07
   10.5000000         3.25852909E-07
   10.5500002         3.54823499E-07
   10.6000004         3.85817344E-07
   10.6499996         4.18922696E-07
   10.6999998         4.54226949E-07
   10.7500000         4.91816365E-07
   10.8000002         5.31775470E-07
   10.8500004         5.74186629E-07
   10.8999996         6.19129537E-07
   10.9499998         6.66680648E-07
   11.0000000         7.16912780E-07
   11.0500002         7.69894427E-07
   11.1000004         8.25689256E-07
   11.1499996         8.84355643E-07
   11.1999998         9.45946113E-07
   11.2500000         1.01050659E-06
   11.3000002         1.07807625E-06
   11.3500004         1.14868715E-06
   11.3999996         1.22236304E-06
   11.4499998         1.29911950E-06
   11.5000000         1.37896359E-06
   11.5500002         1.46189325E-06
   11.6000004         1.54789677E-06
   11.6499996         1.63695313E-06
   11.6999998         1.72903117E-06
   11.7500000         1.82408996E-06
   11.8000002         1.92207835E-06
   11.8500004         2.02293450E-06
   11.8999996         2.12658711E-06
   11.9499998         2.23295433E-06
   12.0000000         2.34194476E-06
   12.0500002         2.45345723E-06
   12.1000004         2.56738099E-06
   12.1499996         2.68359622E-06
   12.1999998         2.80197514E-06
   12.2500000         2.92238133E-06
   12.3000002         3.04467176E-06
   12.3500004         3.16869591E-06
   12.3999996         3.29429758E-06
   12.4499998         3.42131466E-06
   12.5000000         3.54958183E-06
   12.5500002         3.67892903E-06
   12.6000004         3.80918414E-06
   12.6499996         3.94017343E-06
   12.6999998         4.07172183E-06
   12.7500000         4.20365495E-06
   12.8000002         4.33579999E-06
   12.8500004         4.46798504E-06
   12.8999996         4.60004367E-06
   12.9499998         4.73181217E-06
   13.0000000         4.86313229E-06
   13.0500002         4.99385214E-06
   13.1000004         5.12382712E-06
   13.1499996         5.25292080E-06
   13.1999998         5.38100494E-06
   13.2500000         5.50796130E-06
   13.3000002         5.63368212E-06
   13.3500004         5.75807007E-06
   13.3999996         5.88103967E-06
   13.4499998         6.00251724E-06
   13.5000000         6.12244185E-06
   13.5500002         6.24076483E-06
   13.6000004         6.35744982E-06
   13.6499996         6.47247452E-06
   13.6999998         6.58582803E-06
   13.7500000         6.69751398E-06
   13.8000002         6.80754738E-06
   13.8500004         6.91595687E-06
   13.8999996         7.02278112E-06
   13.9499998         7.12807287E-06
   14.0000000         7.23189441E-06
   14.0500002         7.33431852E-06
   14.1000004         7.43542842E-06
   14.1499996         7.53531549E-06
   14.1999998         7.63407934E-06
   14.2500000         7.73182728E-06
   14.3000002         7.82867119E-06
   14.3500004         7.92473111E-06
   14.3999996         8.02012983E-06
   14.4499998         8.11499285E-06
   14.5000000         8.20944751E-06
   14.5500002         8.30362296E-06
   14.6000004         8.39765016E-06
   14.6499996         8.49165554E-06
   14.6999998         8.58576550E-06
   14.7500000         8.68010284E-06
   14.8000002         8.77478578E-06
   14.8500004         8.86992984E-06
   14.8999996         8.96564143E-06
   14.9499998         9.06202149E-06
   15.0000000         9.15916462E-06
   15.0500002         9.25715631E-06
   15.1000004         9.35607295E-06
   15.1499996         9.45598094E-06
   15.1999998         9.55693940E-06
   15.2500000         9.65899471E-06
   15.3000002         9.76218325E-06
   15.3500004         9.86653140E-06
   15.3999996         9.97205370E-06
   15.4499998         1.00787556E-05
   15.5000000         1.01866290E-05
   15.5500002         1.02956583E-05
   15.6000004         1.04058136E-05
   15.6499996         1.05170584E-05
   15.6999998         1.06293437E-05
   15.7500000         1.07426131E-05
   15.8000002         1.08568001E-05
   15.8500004         1.09718303E-05
   15.8999996         1.10876217E-05
   15.9499998         1.12040843E-05
   16.0000000         1.13211245E-05
   16.0499992         1.14386403E-05
   16.1000004         1.15565263E-05
   16.1499996         1.16746714E-05
   16.2000008         1.17929649E-05
   16.2500000         1.19112901E-05
   16.2999992         1.20295299E-05
   16.3500004         1.21475668E-05
   16.3999996         1.22652846E-05
   16.4500008         1.23825657E-05
   16.5000000         1.24992966E-05
   16.5499992         1.26153645E-05
   16.6000004         1.27306603E-05
   16.6499996         1.28450793E-05
   16.7000008         1.29585205E-05
   16.7500000         1.30708877E-05
   16.7999992         1.31820907E-05
   16.8500004         1.32920459E-05
   16.8999996         1.34006741E-05
   16.9500008         1.35079035E-05
   17.0000000         1.36136723E-05
   17.0499992         1.37179204E-05
   17.1000004         1.38206015E-05
   17.1499996         1.39216727E-05
   17.2000008         1.40210996E-05
   17.2500000         1.41188575E-05
   17.2999992         1.42149274E-05
   17.3500004         1.43093002E-05
   17.3999996         1.44019741E-05
   17.4500008         1.44929536E-05
   17.5000000         1.45822523E-05
   17.5499992         1.46698885E-05
   17.6000004         1.47558903E-05
   17.6499996         1.48402914E-05
   17.7000008         1.49231328E-05
   17.7500000         1.50044580E-05
   17.7999992         1.50843225E-05
   17.8500004         1.51627819E-05
   17.8999996         1.52398998E-05
   17.9500008         1.53157434E-05
   18.0000000         1.53903820E-05
   18.0499992         1.54638947E-05
   18.1000004         1.55363596E-05
   18.1499996         1.56078568E-05
   18.2000008         1.56784754E-05
   18.2500000         1.57482991E-05
   18.2999992         1.58174207E-05
   18.3500004         1.58859311E-05
   18.3999996         1.59539195E-05
   18.4500008         1.60214804E-05
   18.5000000         1.60887066E-05
   18.5499992         1.61556909E-05
   18.6000004         1.62225242E-05
   18.6499996         1.62893011E-05
   18.7000008         1.63561090E-05
   18.7500000         1.64230369E-05
   18.7999992         1.64901721E-05
   18.8500004         1.65576002E-05
   18.8999996         1.66253994E-05
   18.9500008         1.66936516E-05
   19.0000000         1.67624348E-05
   19.0499992         1.68318184E-05
   19.1000004         1.69018695E-05
   19.1499996         1.69726572E-05
   19.2000008         1.70442363E-05
   19.2500000         1.71166630E-05
   19.2999992         1.71899883E-05
   19.3500004         1.72642558E-05
   19.3999996         1.73395056E-05
   19.4500008         1.74157685E-05
   19.5000000         1.74930756E-05
   19.5499992         1.75714449E-05
   19.6000004         1.76508947E-05
   19.6499996         1.77314341E-05
   19.7000008         1.78130667E-05
   19.7500000         1.78957889E-05
   19.7999992         1.79795898E-05
   19.8500004         1.80644565E-05
   19.8999996         1.81503656E-05
   19.9500008         1.82372896E-05
   20.0000000         1.83251923E-05
   20.0499992         1.84140335E-05
   20.1000004         1.85037625E-05
   20.1499996         1.85943318E-05
   20.2000008         1.86856778E-05
   20.2500000         1.87777387E-05
   20.2999992         1.88704435E-05
   20.3500004         1.89637194E-05
   20.3999996         1.90574847E-05
   20.4500008         1.91516574E-05
   20.5000000         1.92461484E-05
   20.5499992         1.93408687E-05
   20.6000004         1.94357235E-05
   20.6499996         1.95306129E-05
   20.7000008         1.96254387E-05
   20.7500000         1.97200970E-05
   20.7999992         1.98144862E-05
   20.8500004         1.99085007E-05
   20.8999996         2.00020313E-05
   20.9500008         2.00949762E-05
   21.0000000         2.01872244E-05
   21.0499992         2.02786741E-05
   21.1000004         2.03692180E-05
   21.1499996         2.04587523E-05
   21.2000008         2.05471788E-05
   21.2500000         2.06343975E-05
   21.2999992         2.07203138E-05
   21.3500004         2.08048314E-05
   21.3999996         2.08878646E-05
   21.4500008         2.09693280E-05
   21.5000000         2.10491435E-05
   21.5499992         2.11272327E-05
   21.6000004         2.12035266E-05
   21.6499996         2.12779632E-05
   21.7000008         2.13504809E-05
   21.7500000         2.14210286E-05
   21.7999992         2.14895645E-05
   21.8500004         2.15560467E-05
   21.8999996         2.16204444E-05
   21.9500008         2.16827357E-05
   22.0000000         2.17429024E-05
   22.0499992         2.18009354E-05
   22.1000004         2.18568366E-05
   22.1499996         2.19106132E-05
   22.2000008         2.19622798E-05
   22.2500000         2.20118600E-05
   22.2999992         2.20593847E-05
   22.3500004         2.21048940E-05
   22.3999996         2.21484352E-05
   22.4500008         2.21900609E-05
   22.5000000         2.22298331E-05
   22.5499992         2.22678173E-05
   22.6000004         2.23040915E-05
   22.6499996         2.23387360E-05
   22.7000008         2.23718398E-05
   22.7500000         2.24034957E-05
   22.7999992         2.24338000E-05
   22.8500004         2.24628602E-05
   22.8999996         2.24907817E-05
   22.9500008         2.25176791E-05
   23.0000000         2.25436706E-05
   23.0499992         2.25688709E-05
   23.1000004         2.25934054E-05
   23.1499996         2.26173943E-05
   23.2000008         2.26409647E-05
   23.2500000         2.26642442E-05
   23.2999992         2.26873562E-05
   23.3500004         2.27104265E-05
   23.3999996         2.27335822E-05
   23.4500008         2.27569471E-05
   23.5000000         2.27806413E-05
   23.5499992         2.28047847E-05
   23.6000004         2.28294957E-05
   23.6499996         2.28548870E-05
   23.7000008         2.28810677E-05
   23.7500000         2.29081434E-05
   23.7999992         2.29362140E-05
   23.8500004         2.29653742E-05
   23.8999996         2.29957132E-05
   23.9500008         2.30273145E-05
   24.0000000         2.30602527E-05
   24.0499992         2.30945971E-05
   24.1000004         2.31304093E-05
   24.1499996         2.31677441E-05
   24.2000008         2.32066450E-05
   24.2500000         2.32471539E-05
   24.2999992         2.32892999E-05
   24.3500004         2.33331029E-05
   24.3999996         2.33785777E-05
   24.4500008         2.34257259E-05
   24.5000000         2.34745457E-05
   24.5499992         2.35250263E-05
   24.6000004         2.35771440E-05
   24.6499996         2.36308697E-05
   24.7000008         2.36861670E-05
   24.7500000         2.37429849E-05
   24.7999992         2.38012708E-05
   24.8500004         2.38609609E-05
   24.8999996         2.39219826E-05
   24.9500008         2.39842575E-05
   25.0000000         2.40476966E-05
   25.0499992         2.41122088E-05
   25.1000004         2.41776925E-05
   25.1499996         2.42440365E-05
   25.2000008         2.43111281E-05
   25.2500000         2.43788509E-05
   25.2999992         2.44470757E-05
   25.3500004         2.45156734E-05
   25.3999996         2.45845113E-05
   25.4500008         2.46534491E-05
   25.5000000         2.47223470E-05
   25.5499992         2.47910612E-05
   25.6000004         2.48594406E-05
   25.6499996         2.49273362E-05
   25.7000008         2.49945988E-05
   25.7500000         2.50610774E-05
   25.7999992         2.51266174E-05
   25.8500004         2.51910660E-05
   25.8999996         2.52542741E-05
   25.9500008         2.53160924E-05
   26.0000000         2.53763701E-05
   26.0499992         2.54349634E-05
   26.1000004         2.54917286E-05
   26.1499996         2.55465293E-05
   26.2000008         2.55992290E-05
   26.2500000         2.56496987E-05
   26.2999992         2.56978128E-05
   26.3500004         2.57434494E-05
   26.3999996         2.57864940E-05
   26.4500008         2.58268374E-05
   26.5000000         2.58643795E-05
   26.5499992         2.58990221E-05
   26.6000004         2.59306762E-05
   26.6499996         2.59592616E-05
   26.7000008         2.59847056E-05
   26.7500000         2.60069392E-05
   26.7999992         2.60259021E-05
   26.8500004         2.60415472E-05
   26.8999996         2.60538309E-05
   26.9500008         2.60627148E-05
   27.0000000         2.60681754E-05
   27.0499992         2.60701872E-05
   27.1000004         2.60687375E-05
   27.1499996         2.60638190E-05
   27.2000008         2.60554334E-05
   27.2500000         2.60435863E-05
   27.2999992         2.60282868E-05
   27.3500004         2.60095512E-05
   27.3999996         2.59874068E-05
   27.4500008         2.59618791E-05
   27.5000000         2.59329972E-05
   27.5499992         2.59007975E-05
   27.6000004         2.58653145E-05
   27.6499996         2.58265900E-05
   27.7000008         2.57846677E-05
   27.7500000         2.57395895E-05
   27.7999992         2.56914009E-05
   27.8500004         2.56401436E-05
   27.8999996         2.55858613E-05
   27.9500008         2.55285995E-05
   28.0000000         2.54683946E-05
   28.0499992         2.54052829E-05
   28.1000004         2.53393027E-05
   28.1499996         2.52704831E-05
   28.2000008         2.51988495E-05
   28.2500000         2.51244292E-05
   28.2999992         2.50472367E-05
   28.3500004         2.49672848E-05
   28.3999996         2.48845790E-05
   28.4500008         2.47991247E-05
   28.5000000         2.47109128E-05
   28.5499992         2.46199343E-05
   28.6000004         2.45261745E-05
   28.6499996         2.44296079E-05
   28.7000008         2.43302056E-05
   28.7500000         2.42279348E-05
   28.7999992         2.41227572E-05
   28.8500004         2.40146237E-05
   28.8999996         2.39034853E-05
   28.9500008         2.37892891E-05
   29.0000000         2.36719770E-05
   29.0499992         2.35514872E-05
   29.1000004         2.34277559E-05
   29.1499996         2.33007195E-05
   29.2000008         2.31703070E-05
   29.2500000         2.30364494E-05
   29.2999992         2.28990812E-05
   29.3500004         2.27581368E-05
   29.3999996         2.26135453E-05
   29.4500008         2.24652467E-05
   29.5000000         2.23131792E-05
   29.5499992         2.21572882E-05
   29.6000004         2.19975209E-05
   29.6499996         2.18338282E-05
   29.7000008         2.16661701E-05
   29.7500000         2.14945103E-05
   29.7999992         2.13188177E-05
   29.8500004         2.11390707E-05
   29.8999996         2.09552545E-05
   29.9500008         2.07673602E-05
   30.0000000         2.05753895E-05
   30.0499992         2.03793479E-05
   30.1000004         2.01792518E-05
   30.1499996         1.99751248E-05
   30.2000008         1.97669979E-05
   30.2500000         1.95549092E-05
   30.2999992         1.93389096E-05
   30.3500004         1.91190484E-05
   30.3999996         1.88953873E-05
   30.4500008         1.86679954E-05
   30.5000000         1.84369419E-05
   30.5499992         1.82023032E-05
   30.6000004         1.79641593E-05
   30.6499996         1.77225938E-05
   30.7000008         1.74776942E-05
   30.7500000         1.72295440E-05
   30.7999992         1.69782343E-05
   30.8500004         1.67238504E-05
   30.8999996         1.64664798E-05
   30.9500008         1.62062061E-05
   31.0000000         1.59431111E-05
   31.0499992         1.56772767E-05
   31.1000004         1.54087757E-05
   31.1499996         1.51376798E-05
   31.2000008         1.48640565E-05
   31.2500000         1.45879621E-05
   31.2999992         1.43094512E-05
   31.3500004         1.40285683E-05
   31.3999996         1.37453562E-05
   31.4500008         1.34598449E-05
   31.5000000         1.31720581E-05
   31.5499992         1.28820111E-05
   31.6000004         1.25897159E-05
   31.6499996         1.22951706E-05
   31.7000008         1.19983706E-05
   31.7500000         1.16992996E-05
   31.7999992         1.13979404E-05
   31.8500004         1.10942647E-05
   31.8999996         1.07882433E-05
   31.9500008         1.04798382E-05
   32.0000000         1.01690084E-05
   32.0499992         9.85571023E-06
   32.0999985         9.53989365E-06
   32.1500015         9.22150957E-06
   32.2000008         8.90050705E-06
   32.2500000         8.57683244E-06
   32.2999992         8.25043571E-06
   32.3499985         7.92126593E-06
   32.4000015         7.58927354E-06
   32.4500008         7.25441350E-06
   32.5000000         6.91664445E-06
   32.5499992         6.57593091E-06
   32.5999985         6.23224196E-06
   32.6500015         5.88555531E-06
   32.7000008         5.53585232E-06
   32.7500000         5.18312891E-06
   32.7999992         4.82738687E-06
   32.8499985         4.46863714E-06
   32.9000015         4.10690245E-06
   32.9500008         3.74221486E-06
   33.0000000         3.37461961E-06
   33.0499992         3.00416968E-06
   33.0999985         2.63093284E-06
   33.1500015         2.25498616E-06
   33.2000008         1.87641956E-06
   33.2500000         1.49533298E-06
   33.2999992         1.11183874E-06
   33.3499985         7.26059966E-07
   33.4000015         3.38134186E-07
   33.4500008        -5.17963841E-08
   33.5000000        -4.43573043E-07
   33.5499992        -8.37031735E-07
   33.5999985        -1.23199618E-06
   33.6500015        -1.62828235E-06
   33.7000008        -2.02570118E-06
   33.7500000        -2.42405349E-06
   33.7999992        -2.82313590E-06
   33.8499985        -3.22274127E-06
   33.9000015        -3.62265791E-06
   33.9500008        -4.02267096E-06
   34.0000000        -4.42256487E-06
   34.0499992        -4.82212363E-06
   34.0999985        -5.22113078E-06
   34.1500015        -5.61937168E-06
   34.2000008        -6.01663351E-06
   34.2500000        -6.41270935E-06
   34.2999992        -6.80739413E-06
   34.3499985        -7.20049002E-06
   34.4000015        -7.59180648E-06
   34.4500008        -7.98115798E-06
   34.5000000        -8.36837080E-06
   34.5499992        -8.75327441E-06
   34.5999985        -9.13571694E-06
   34.6500015        -9.51555012E-06
   34.7000008        -9.89264299E-06
   34.7500000        -1.02668755E-05
   34.7999992        -1.06381412E-05
   34.8499985        -1.10063465E-05
   34.9000015        -1.13714123E-05
   34.9500008        -1.17332729E-05
   35.0000000        -1.20918785E-05
   35.0499992        -1.24471917E-05
   35.0999985        -1.27991916E-05
   35.1500015        -1.31478746E-05
   35.2000008        -1.34932452E-05
   35.2500000        -1.38353271E-05
   35.2999992        -1.41741566E-05
   35.3499985        -1.45097811E-05
   35.4000015        -1.48422650E-05
   35.4500008        -1.51716886E-05
   35.5000000        -1.54981426E-05
   35.5499992        -1.58217335E-05
   35.5999985        -1.61425742E-05
   35.6500015        -1.64607955E-05
   35.7000008        -1.67765338E-05
   35.7500000        -1.70899384E-05
   35.7999992        -1.74011657E-05
   35.8499985        -1.77103866E-05
   35.9000015        -1.80177703E-05
   35.9500008        -1.83235006E-05