  -4.50000000         0.00000000    
  -4.44999981         0.00000000    
  -4.40000010         0.00000000    
  -4.34999990         0.00000000    
  -4.30000019         0.00000000    
  -4.25000000         0.00000000    
  -4.19999981        -5.84331010E-35
  -4.15000010        -1.15511844E-33
  -4.09999990        -8.32448806E-33
  -4.05000019        -3.32533275E-32
  -4.00000000        -7.91967102E-32
  -3.95000005        -7.96750247E-32
  -3.90000010         2.01894916E-31
  -3.84999990         1.17955291E-30
  -3.79999995         3.06553749E-30
  -3.75000000         4.84055521E-30
  -3.70000005         2.85644695E-30
  -3.65000010        -9.48772900E-30
  -3.59999990        -3.83819211E-29
  -3.54999995        -8.02360230E-29
  -3.50000000        -1.07584084E-28
  -3.45000005        -5.91086618E-29
  -3.40000010         1.48324592E-28
  -3.34999990         5.64208207E-28
  -3.29999995         1.09649451E-27
  -3.25000000         1.37943683E-27
  -3.20000005         7.05869358E-28
  -3.15000010        -1.82540699E-27
  -3.09999990        -6.78052911E-27
  -3.04999995        -1.34082981E-26
  -3.00000000        -1.83931148E-26
  -2.95000005        -1.49492500E-26
  -2.90000010         6.68451303E-27
  -2.84999990         5.60696755E-26
  -2.79999995         1.35815298E-25
  -2.75000000         2.31669836E-25
  -2.70000005         3.02194247E-25
  -2.65000010         2.73589682E-25
  -2.59999990         4.74663924E-26
  -2.54999995        -4.70737264E-25
  -2.50000000        -1.31902493E-24
  -2.45000005        -2.40701085E-24
  -2.40000010        -3.44303036E-24
  -2.34999990        -3.89191115E-24
  -2.29999995        -3.00449173E-24
  -2.25000000         4.10388831E-26
  -2.20000005         5.86248056E-24
  -2.15000010         1.44725289E-23
  -2.09999990         2.48140505E-23
  -2.04999995         3.43506578E-23
  -2.00000000         3.88858949E-23
  -1.95000005         3.28189582E-23
  -1.89999998         1.00408906E-23
  -1.85000002        -3.43878289E-23
  -1.79999995        -1.01779604E-22
  -1.75000000        -1.86819302E-22
  -1.70000005        -2.74585972E-22
  -1.64999998        -3.38547369E-22
  -1.60000002        -3.40838802E-22
  -1.54999995        -2.36331065E-22
  -1.50000000         1.81789966E-23
  -1.45000005         4.49068347E-22
  -1.39999998         1.04616678E-21
  -1.35000002         1.74129779E-21
  -1.29999995         2.39079572E-21
  -1.25000000         2.77014083E-21
  -1.20000005         2.59012848E-21
  -1.14999998         1.54292883E-21
  -1.10000002        -6.18004235E-22
  -1.04999995        -3.96847048E-21
  -1.00000000        -8.29035710E-21
 -0.949999988        -1.29636271E-20
 -0.899999976        -1.69133830E-20
 -0.850000024        -1.86567372E-20
 -0.800000012        -1.64882122E-20
 -0.750000000        -8.82210095E-21
 -0.699999988         5.32484675E-21
 -0.649999976         2.57735956E-20
 -0.600000024         5.06588284E-20
 -0.550000012         7.60942833E-20
 -0.500000000         9.61973183E-20
 -0.449999988         1.03620973E-19
 -0.400000006         9.06730249E-20
 -0.349999994         5.09862724E-20
 -0.300000012        -1.84455315E-20
 -0.250000000        -1.15208410E-19
 -0.200000003        -2.29857879E-19
 -0.150000006        -3.45287754E-19
 -0.100000001        -4.37563241E-19
  -5.00000007E-02    -4.78525639E-19
   0.00000000        -4.40177442E-19
   5.00000007E-02    -3.00462940E-19
  0.100000001        -4.96434739E-20
  0.150000006         3.03890466E-19
  0.200000003         7.29721624E-19
  0.250000000         1.17471993E-18
  0.300000012         1.56651826E-18
  0.349999994         1.82146350E-18
  0.400000006         1.85650204E-18
  0.449999988         1.60354483E-18
  0.500000000         1.02405001E-18
  0.550000012         1.21108703E-19
  0.600000024        -1.05364591E-18
  0.649999976        -2.40033566E-18
  0.699999988        -3.77911980E-18
  0.750000000        -5.02561894E-18
  0.800000012        -5.97088124E-18
  0.850000024        -6.46189731E-18
  0.899999976        -6.37798976E-18
  0.949999988        -5.63892580E-18
   1.00000000        -4.20233601E-18
   1.04999995        -2.05104768E-18
   1.10000002         8.25379323E-19
   1.14999998         4.44692463E-18
   1.20000005         8.84659904E-18
   1.25000000         1.40501226E-17
   1.29999995         2.00233278E-17
   1.35000002         2.65851101E-17
   1.39999998         3.32930866E-17
   1.45000005         3.93209701E-17
   1.50000000         4.33585412E-17
   1.54999995         4.35745015E-17
   1.60000002         3.76864844E-17
   1.64999998         2.31776123E-17
   1.70000005        -2.31606663E-18
   1.75000000        -4.04496547E-17
   1.79999995        -9.14831979E-17
   1.85000002        -1.53545037E-16
   1.89999998        -2.21966228E-16
   1.95000005        -2.88839082E-16
   2.00000000        -3.42968193E-16
   2.04999995        -3.70371721E-16
   2.09999990        -3.55448138E-16
   2.15000010        -2.82848547E-16
   2.20000005        -1.39989003E-16
   2.25000000         7.99872204E-17
   2.29999995         3.75119552E-16
   2.34999990         7.31849542E-16
   2.40000010         1.12306627E-15
   2.45000005         1.50751621E-15
   2.50000000         1.83106162E-15
   2.54999995         2.03012982E-15
   2.59999990         2.03748291E-15
   2.65000010         1.79013023E-15
   2.70000005         1.23888913E-15
   2.75000000         3.58744261E-16
   2.79999995        -8.41132198E-16
   2.84999990        -2.30906327E-15
   2.90000010        -3.94568826E-15
   2.95000005        -5.60328685E-15
   3.00000000        -7.09070847E-15
   3.04999995        -8.18456766E-15
   3.09999990        -8.64678168E-15
   3.15000010        -8.24781985E-15
   3.20000005        -6.79431597E-15
   3.25000000        -4.15893897E-15
   3.29999995        -3.09885998E-16
   3.34999990         4.66311966E-15
   3.40000010         1.05295555E-14
   3.45000005         1.69086953E-14
   3.50000000         2.32727825E-14
   3.54999995         2.89647863E-14
   3.59999990         3.32317487E-14
   3.65000010         3.52736029E-14
   3.70000005         3.43060338E-14
   3.75000000         2.96346538E-14
   3.79999995         2.07364033E-14
   3.84999990         7.34313868E-15
   3.90000010        -1.04787852E-14
   3.95000005        -3.22595954E-14
   4.00000000        -5.70748621E-14
   4.05000019        -8.35189190E-14
   4.09999990        -1.09709334E-13
   4.15000010        -1.33327919E-13
   4.19999981        -1.51702340E-13
   4.25000000        -1.61930433E-13
   4.30000019        -1.61047011E-13
   4.34999990        -1.46230277E-13
   4.40000010        -1.15041535E-13
   4.44999981        -6.56890449E-14
   4.50000000         2.69708525E-15
   4.55000019         8.97948165E-14
   4.59999990         1.93843924E-13
   4.65000010         3.11444582E-13
   4.69999981         4.37423074E-13
   4.75000000         5.64786661E-13
   4.80000019         6.84788543E-13
   4.84999990         7.87120152E-13
   4.90000010         8.60243409E-13
   4.94999981         8.91868556E-13
   5.00000000         8.69575896E-13
   5.05000019         7.81569362E-13
   5.09999990         6.17540144E-13
   5.15000010         3.69609210E-13
   5.19999981         3.33047866E-14
   5.25000000        -3.91473963E-13
   5.30000019        -8.99567530E-13
   5.34999990        -1.47980272E-12
   5.40000010        -2.11444143E-12
   5.44999981        -2.77889539E-12
   5.50000000        -3.44176510E-12
   5.55000019        -4.06525681E-12
   5.59999990        -4.60601262E-12
   5.65000010        -5.01638141E-12
   5.69999981        -5.24612992E-12
   5.75000000        -5.24458775E-12
   5.80000019        -4.96318264E-12
   5.84999990        -4.35831059E-12
   5.90000010        -3.39446353E-12
   5.94999981        -2.04750388E-12
   6.00000000        -3.07982779E-13
   6.05000019         1.81564453E-12
   6.09999990         4.29404038E-12
   6.15000010         7.07439532E-12
   6.19999981         1.00783739E-11
   6.25000000         1.32007339E-11
   6.30000019         1.63087530E-11
   6.34999990         1.92425676E-11
   6.40000010         2.18165121E-11
   6.44999981         2.38215333E-11
   6.50000000         2.50286614E-11
   6.55000019         2.51936076E-11
   6.59999990         2.40623910E-11
   6.65000010         2.13779237E-11
   6.69999981         1.68875088E-11
   6.75000000         1.03510429E-11
   6.80000019         1.54983535E-12
   6.84999990        -9.70417149E-12
   6.90000010        -2.35589326E-11
   6.94999981        -4.01127777E-11
   7.00000000        -5.94050434E-11
   7.05000019        -8.14069992E-11
   7.09999990        -1.06013254E-10
   7.15000010        -1.33033765E-10
   7.19999981        -1.62186570E-10
   7.25000000        -1.93091293E-10
   7.30000019        -2.25263558E-10
   7.34999990        -2.58110089E-10
   7.40000010        -2.90924645E-10
   7.44999981        -3.22884663E-10
   7.50000000        -3.53048341E-10
   7.55000019        -3.80351861E-10
   7.59999990        -4.03607092E-10
   7.65000010        -4.21498253E-10
   7.69999981        -4.32578751E-10
   7.75000000        -4.35266129E-10
   7.80000019        -4.27836155E-10
   7.84999990        -4.08414691E-10
   7.90000010        -3.74966835E-10
   7.94999981        -3.25283467E-10
   8.00000000        -2.56964117E-10
   8.05000019        -1.67395917E-10
   8.10000038        -5.37280602E-11
   8.14999962         8.71584957E-11
   8.19999981         2.58686544E-10
   8.25000000         4.64623812E-10
   8.30000019         7.09129921E-10
   8.35000038         9.96809524E-10
   8.39999962         1.33277178E-09
   8.44999981         1.72269510E-09
   8.50000000         2.17290008E-09
   8.55000019         2.69042566E-09
   8.60000038         3.28311534E-09
   8.64999962         3.95970456E-09
   8.69999981         4.72991646E-09
   8.75000000         5.60456037E-09
   8.80000019         6.59563737E-09
   8.85000038         7.71644793E-09
   8.89999962         8.98170338E-09
   8.94999981         1.04076374E-08
   9.00000000         1.20121246E-08
   9.05000019         1.38147920E-08
   9.10000038         1.58371414E-08
   9.14999962         1.81026589E-08
   9.19999981         2.06369304E-08
   9.25000000         2.34677540E-08
   9.30000019         2.66252389E-08
   9.35000038         3.01419227E-08
   9.39999962         3.40528601E-08
   9.44999981         3.83957008E-08
   9.50000000         4.32107896E-08
   9.55000019         4.85412279E-08
   9.60000038         5.44329453E-08
   9.64999962         6.09347310E-08
   9.69999981         6.80982879E-08
   9.75000000         7.59782637E-08
   9.80000019         8.46322195E-08
   9.85000038         9.41206721E-08
   9.89999962         1.04507052E-07
   9.94999981         1.15857624E-07
   10.0000000         1.28241453E-07
   10.0500002         1.41730339E-07
   10.1000004         1.56398627E-07
   10.1499996         1.72323169E-07
   10.1999998         1.89583105E-07
   10.2500000         2.08259664E-07
   10.3000002         2.28435979E-07
   10.3500004         2.50196877E-07
   10.3999996         2.73628586E-07
   10.4499998         2.98818378E-07
   10.5000000         3.25854330E-07
   10.5500002         3.54824948E-07
   10.6000004         3.85818851E-07
   10.6499996         4.18924230E-07
   10.6999998         4.54228541E-07
   10.7500000         4.91817957E-07
   10.8000002         5.31777118E-07
   10.8500004         5.74188391E-07
   10.8999996         6.19131356E-07
   10.9499998         6.66682581E-07
   11.0000000         7.16914883E-07
   11.0500002         7.69896644E-07
   11.1000004         8.25691643E-07
   11.1499996         8.84358144E-07
   11.1999998         9.45948671E-07
   11.2500000         1.01050932E-06
   11.3000002         1.07807932E-06
   11.3500004         1.14869033E-06
   11.3999996         1.22236645E-06
   11.4499998         1.29912337E-06
   11.5000000         1.37896780E-06
   11.5500002         1.46189780E-06
   11.6000004         1.54790155E-06
   11.6499996         1.63695825E-06
   11.6999998         1.72903674E-06
   11.7500000         1.82409588E-06
   11.8000002         1.92208427E-06
   11.8500004         2.02294063E-06
   11.8999996         2.12659347E-06
   11.9499998         2.23296092E-06
   12.0000000         2.34195136E-06
   12.0500002         2.45346382E-06
   12.1000004         2.56738736E-06
   12.1499996         2.68360259E-06
   12.1999998         2.80198128E-06
   12.2500000         2.92238747E-06
   12.3000002         3.04467767E-06
   12.3500004         3.16870160E-06
   12.3999996         3.29430281E-06
   12.4499998         3.42131966E-06
   12.5000000         3.54958615E-06
   12.5500002         3.67893313E-06
   12.6000004         3.80918755E-06
   12.6499996         3.94017616E-06
   12.6999998         4.07172320E-06
   12.7500000         4.20365586E-06
   12.8000002         4.33579953E-06
   12.8500004         4.46798413E-06
   12.8999996         4.60004185E-06
   12.9499998         4.73180899E-06
   13.0000000         4.86312820E-06
   13.0500002         4.99384714E-06
   13.1000004         5.12382121E-06
   13.1499996         5.25291398E-06
   13.1999998         5.38099675E-06
   13.2500000         5.50795176E-06
   13.3000002         5.63367121E-06
   13.3500004         5.75805825E-06
   13.3999996         5.88102648E-06
   13.4499998         6.00250269E-06
   13.5000000         6.12242593E-06
   13.5500002         6.24074664E-06
   13.6000004         6.35742936E-06
   13.6499996         6.47245133E-06
   13.6999998         6.58580302E-06
   13.7500000         6.69748624E-06
   13.8000002         6.80751782E-06
   13.8500004         6.91592504E-06
   13.8999996         7.02274792E-06
   13.9499998         7.12803785E-06
   14.0000000         7.23185713E-06
   14.0500002         7.33427942E-06
   14.1000004         7.43538703E-06
   14.1499996         7.53527092E-06
   14.1999998         7.63403204E-06
   14.2500000         7.73177726E-06
   14.3000002         7.82861935E-06
   14.3500004         7.92467654E-06
   14.3999996         8.02007162E-06
   14.4499998         8.11493192E-06
   14.5000000         8.20938385E-06
   14.5500002         8.30355748E-06
   14.6000004         8.39758195E-06
   14.6499996         8.49158459E-06
   14.6999998         8.58569183E-06
   14.7500000         8.68002735E-06
   14.8000002         8.77470939E-06
   14.8500004         8.86985072E-06
   14.8999996         8.96556048E-06
   14.9499998         9.06193964E-06
   15.0000000         9.15908095E-06
   15.0500002         9.25707081E-06
   15.1000004         9.35598655E-06
   15.1499996         9.45589363E-06
   15.1999998         9.55685027E-06
   15.2500000         9.65890376E-06
   15.3000002         9.76209049E-06
   15.3500004         9.86643681E-06
   15.3999996         9.97195821E-06
   15.4499998         1.00786583E-05
   15.5000000         1.01865298E-05
   15.5500002         1.02955564E-05
   15.6000004         1.04057099E-05
   15.6499996         1.05169538E-05
   15.6999998         1.06292373E-05
   15.7500000         1.07425058E-05
   15.8000002         1.08566910E-05
   15.8500004         1.09717193E-05
   15.8999996         1.10875089E-05
   15.9499998         1.12039706E-05
   16.0000000         1.13210090E-05
   16.0499992         1.14385230E-05
   16.1000004         1.15564080E-05
   16.1499996         1.16745523E-05
   16.2000008         1.17928439E-05
   16.2500000         1.19111683E-05
   16.2999992         1.20294080E-05
   16.3500004         1.21474450E-05
   16.3999996         1.22651627E-05
   16.4500008         1.23824439E-05
   16.5000000         1.24991748E-05
   16.5499992         1.26152418E-05
   16.6000004         1.27305366E-05
   16.6499996         1.28449537E-05
   16.7000008         1.29583932E-05
   16.7500000         1.30707585E-05
   16.7999992         1.31819588E-05
   16.8500004         1.32919104E-05
   16.8999996         1.34005359E-05
   16.9500008         1.35077626E-05
   17.0000000         1.36135286E-05
   17.0499992         1.37177749E-05
   17.1000004         1.38204532E-05
   17.1499996         1.39215235E-05
   17.2000008         1.40209513E-05
   17.2500000         1.41187093E-05
   17.2999992         1.42147801E-05
   17.3500004         1.43091538E-05
   17.3999996         1.44018268E-05
   17.4500008         1.44928063E-05
   17.5000000         1.45821032E-05
   17.5499992         1.46697375E-05
   17.6000004         1.47557375E-05
   17.6499996         1.48401350E-05
   17.7000008         1.49229727E-05
   17.7500000         1.50042961E-05
   17.7999992         1.50841570E-05
   17.8500004         1.51626127E-05
   17.8999996         1.52397270E-05
   17.9500008         1.53155670E-05
   18.0000000         1.53902038E-05
   18.0499992         1.54637146E-05
   18.1000004         1.55361759E-05
   18.1499996         1.56076730E-05
   18.2000008         1.56782880E-05
   18.2500000         1.57481099E-05
   18.2999992         1.58172279E-05
   18.3500004         1.58857329E-05
   18.3999996         1.59537176E-05
   18.4500008         1.60212730E-05
   18.5000000         1.60884938E-05
   18.5499992         1.61554744E-05
   18.6000004         1.62223023E-05
   18.6499996         1.62890738E-05
   18.7000008         1.63558761E-05
   18.7500000         1.64228004E-05
   18.7999992         1.64899320E-05
   18.8500004         1.65573547E-05
   18.8999996         1.66251521E-05
   18.9500008         1.66934005E-05
   19.0000000         1.67621802E-05
   19.0499992         1.68315582E-05
   19.1000004         1.69016057E-05
   19.1499996         1.69723880E-05
   19.2000008         1.70439616E-05
   19.2500000         1.71163829E-05
   19.2999992         1.71897027E-05
   19.3500004         1.72639648E-05
   19.3999996         1.73392091E-05
   19.4500008         1.74154702E-05
   19.5000000         1.74927736E-05
   19.5499992         1.75711430E-05
   19.6000004         1.76505910E-05
   19.6499996         1.77311304E-05
   19.7000008         1.78127611E-05
   19.7500000         1.78954851E-05
   19.7999992         1.79792878E-05
   19.8500004         1.80641546E-05
   19.8999996         1.81500636E-05
   19.9500008         1.82369859E-05
   20.0000000         1.83248849E-05
   20.0499992         1.84137243E-05
   20.1000004         1.85034514E-05
   20.1499996         1.85940189E-05
   20.2000008         1.86853649E-05
   20.2500000         1.87774240E-05
   20.2999992         1.88701306E-05
   20.3500004         1.89634065E-05
   20.3999996         1.90571736E-05
   20.4500008         1.91513500E-05
   20.5000000         1.92458447E-05
   20.5499992         1.93405685E-05
   20.6000004         1.94354270E-05
   20.6499996         1.95303219E-05
   20.7000008         1.96251513E-05
   20.7500000         1.97198133E-05
   20.7999992         1.98142043E-05
   20.8500004         1.99082206E-05
   20.8999996         2.00017548E-05
   20.9500008         2.00947015E-05
   21.0000000         2.01869534E-05
   21.0499992         2.02784049E-05
   21.1000004         2.03689524E-05
   21.1499996         2.04584921E-05
   21.2000008         2.05469241E-05
   21.2500000         2.06341501E-05
   21.2999992         2.07200719E-05
   21.3500004         2.08045949E-05
   21.3999996         2.08876354E-05
   21.4500008         2.09691043E-05
   21.5000000         2.10489234E-05
   21.5499992         2.11270180E-05
   21.6000004         2.12033156E-05
   21.6499996         2.12777541E-05
   21.7000008         2.13502753E-05
   21.7500000         2.14208267E-05
   21.7999992         2.14893644E-05
   21.8500004         2.15558503E-05
   21.8999996         2.16202534E-05
   21.9500008         2.16825501E-05
   22.0000000         2.17427241E-05
   22.0499992         2.18007681E-05
   22.1000004         2.18566802E-05
   22.1499996         2.19104659E-05
   22.2000008         2.19621434E-05
   22.2500000         2.20117345E-05
   22.2999992         2.20592719E-05
   22.3500004         2.21047922E-05
   22.3999996         2.21483406E-05
   22.4500008         2.21899754E-05
   22.5000000         2.22297549E-05
   22.5499992         2.22677500E-05
   22.6000004         2.23040333E-05
   22.6499996         2.23386869E-05
   22.7000008         2.23718016E-05
   22.7500000         2.24034666E-05
   22.7999992         2.24337837E-05
   22.8500004         2.24628566E-05
   22.8999996         2.24907944E-05
   22.9500008         2.25177064E-05
   23.0000000         2.25437088E-05
   23.0499992         2.25689237E-05
   23.1000004         2.25934691E-05
   23.1499996         2.26174707E-05
   23.2000008         2.26410539E-05
   23.2500000         2.26643406E-05
   23.2999992         2.26874618E-05
   23.3500004         2.27105429E-05
   23.3999996         2.27337059E-05
   23.4500008         2.27570781E-05
   23.5000000         2.27807814E-05
   23.5499992         2.28049339E-05
   23.6000004         2.28296540E-05
   23.6499996         2.28550543E-05
   23.7000008         2.28812441E-05
   23.7500000         2.29083271E-05
   23.7999992         2.29364068E-05
   23.8500004         2.29655725E-05
   23.8999996         2.29959151E-05
   23.9500008         2.30275182E-05
   24.0000000         2.30604601E-05
   24.0499992         2.30948026E-05
   24.1000004         2.31306130E-05
   24.1499996         2.31679442E-05
   24.2000008         2.32068433E-05
   24.2500000         2.32473467E-05
   24.2999992         2.32894890E-05
   24.3500004         2.33332903E-05
   24.3999996         2.33787632E-05
   24.4500008         2.34259132E-05
   24.5000000         2.34747349E-05
   24.5499992         2.35252173E-05
   24.6000004         2.35773368E-05
   24.6499996         2.36310625E-05
   24.7000008         2.36863561E-05
   24.7500000         2.37431723E-05
   24.7999992         2.38014545E-05
   24.8500004         2.38611392E-05
   24.8999996         2.39221536E-05
   24.9500008         2.39844212E-05
   25.0000000         2.40478512E-05
   25.0499992         2.41123544E-05
   25.1000004         2.41778271E-05
   25.1499996         2.42441638E-05
   25.2000008         2.43112518E-05
   25.2500000         2.43789673E-05
   25.2999992         2.44471885E-05
   25.3500004         2.45157844E-05
   25.3999996         2.45846204E-05
   25.4500008         2.46535583E-05
   25.5000000         2.47224543E-05
   25.5499992         2.47911648E-05
   25.6000004         2.48595406E-05
   25.6499996         2.49274308E-05
   25.7000008         2.49946897E-05
   25.7500000         2.50611611E-05
   25.7999992         2.51266956E-05
   25.8500004         2.51911388E-05
   25.8999996         2.52543414E-05
   25.9500008         2.53161525E-05
   26.0000000         2.53764247E-05
   26.0499992         2.54350143E-05
   26.1000004         2.54917759E-05
   26.1499996         2.55465729E-05
   26.2000008         2.55992672E-05
   26.2500000         2.56497315E-05
   26.2999992         2.56978383E-05
   26.3500004         2.57434676E-05
   26.3999996         2.57865031E-05
   26.4500008         2.58268374E-05
   26.5000000         2.58643704E-05
   26.5499992         2.58990040E-05
   26.6000004         2.59306526E-05
   26.6499996         2.59592325E-05
   26.7000008         2.59846711E-05
   26.7500000         2.60069010E-05
   26.7999992         2.60258657E-05
   26.8500004         2.60415145E-05
   26.8999996         2.60538000E-05
   26.9500008         2.60626875E-05
   27.0000000         2.60681463E-05
   27.0499992         2.60701581E-05
   27.1000004         2.60687102E-05
   27.1499996         2.60637898E-05
   27.2000008         2.60554025E-05
   27.2500000         2.60435500E-05
   27.2999992         2.60282432E-05
   27.3500004         2.60095021E-05
   27.3999996         2.59873486E-05
   27.4500008         2.59618137E-05
   27.5000000         2.59329245E-05
   27.5499992         2.59007174E-05
   27.6000004         2.58652308E-05
   27.6499996         2.58265027E-05
   27.7000008         2.57845768E-05
   27.7500000         2.57394950E-05
   27.7999992         2.56912990E-05
   27.8500004         2.56400363E-05
   27.8999996         2.55857503E-05
   27.9500008         2.55284813E-05
   28.0000000         2.54682673E-05
   28.0499992         2.54051502E-05
   28.1000004         2.53391627E-05
   28.1499996         2.52703358E-05
   28.2000008         2.51986967E-05
   28.2500000         2.51242691E-05
   28.2999992         2.50470730E-05
   28.3500004         2.49671157E-05
   28.3999996         2.48844080E-05
   28.4500008         2.47989501E-05
   28.5000000         2.47107346E-05
   28.5499992         2.46197524E-05
   28.6000004         2.45259871E-05
   28.6499996         2.44294151E-05
   28.7000008         2.43300055E-05
   28.7500000         2.42277274E-05
   28.7999992         2.41225407E-05
   28.8500004         2.40143963E-05
   28.8999996         2.39032488E-05
   28.9500008         2.37890417E-05
   29.0000000         2.36717187E-05
   29.0499992         2.35512216E-05
   29.1000004         2.34274794E-05
   29.1499996         2.33004339E-05
   29.2000008         2.31700142E-05
   29.2500000         2.30361511E-05
   29.2999992         2.28987792E-05
   29.3500004         2.27578294E-05
   29.3999996         2.26132343E-05
   29.4500008         2.24649339E-05
   29.5000000         2.23128682E-05
   29.5499992         2.21569753E-05
   29.6000004         2.19972062E-05
   29.6499996         2.18335099E-05
   29.7000008         2.16658464E-05
   29.7500000         2.14941792E-05
   29.7999992         2.13184794E-05
   29.8500004         2.11387251E-05
   29.8999996         2.09548980E-05
   29.9500008         2.07669964E-05
   30.0000000         2.05750148E-05
   30.0499992         2.03789659E-05
   30.1000004         2.01788625E-05
   30.1499996         1.99747301E-05
   30.2000008         1.97665995E-05
   30.2500000         1.95545090E-05
   30.2999992         1.93385076E-05
   30.3500004         1.91186446E-05
   30.3999996         1.88949853E-05
   30.4500008         1.86675934E-05
   30.5000000         1.84365381E-05
   30.5499992         1.82018975E-05
   30.6000004         1.79637536E-05
   30.6499996         1.77221864E-05
   30.7000008         1.74772813E-05
   30.7500000         1.72291293E-05
   30.7999992         1.69778159E-05
   30.8500004         1.67234302E-05
   30.8999996         1.64660560E-05
   30.9500008         1.62057786E-05
   31.0000000         1.59426836E-05
   31.0499992         1.56768492E-05
   31.1000004         1.54083482E-05
   31.1499996         1.51372515E-05
   31.2000008         1.48636236E-05
   31.2500000         1.45875265E-05
   31.2999992         1.43090110E-05
   31.3500004         1.40281236E-05
   31.3999996         1.37449042E-05
   31.4500008         1.34593847E-05
   31.5000000         1.31715897E-05
   31.5499992         1.28815363E-05
   31.6000004         1.25892320E-05
   31.6499996         1.22946776E-05
   31.7000008         1.19978695E-05
   31.7500000         1.16987903E-05
   31.7999992         1.13974238E-05
   31.8500004         1.10937417E-05
   31.8999996         1.07877131E-05
   31.9500008         1.04792998E-05
   32.0000000         1.01684627E-05
   32.0499992         9.85515180E-06
   32.0999985         9.53932431E-06
   32.1500015         9.22092750E-06
   32.2000008         8.89991134E-06
   32.2500000         8.57622308E-06
   32.2999992         8.24980998E-06
   32.3499985         7.92062747E-06
   32.4000015         7.58862188E-06
   32.4500008         7.25375094E-06
   32.5000000         6.91597324E-06
   32.5499992         6.57525379E-06
   32.5999985         6.23156211E-06
   32.6500015         5.88487410E-06
   32.7000008         5.53517475E-06
   32.7500000         5.18245679E-06
   32.7999992         4.82672294E-06
   32.8499985         4.46798231E-06
   32.9000015         4.10625807E-06
   32.9500008         3.74158299E-06
   33.0000000         3.37399933E-06
   33.0499992         3.00356169E-06
   33.0999985         2.63033758E-06
   33.1500015         2.25440522E-06
   33.2000008         1.87585465E-06
   33.2500000         1.49478740E-06
   33.2999992         1.11131556E-06
   33.3499985         7.25563780E-07
   33.4000015         3.37668070E-07
   33.4500008        -5.22277404E-08
   33.5000000        -4.43965263E-07
   33.5499992        -8.37379105E-07
   33.5999985        -1.23229484E-06
   33.6500015        -1.62853178E-06
   33.7000008        -2.02589581E-06
   33.7500000        -2.42419401E-06
   33.7999992        -2.82322162E-06
   33.8499985        -3.22277083E-06
   33.9000015        -3.62262995E-06
   33.9500008        -4.02258547E-06
   34.0000000        -4.42242026E-06
   34.0499992        -4.82191626E-06
   34.0999985        -5.22085929E-06
   34.1500015        -5.61903471E-06
   34.2000008        -6.01622969E-06
   34.2500000        -6.41223914E-06
   34.2999992        -6.80685753E-06
   34.3499985        -7.19988566E-06
   34.4000015        -7.59113436E-06
   34.4500008        -7.98042129E-06
   34.5000000        -8.36756863E-06
   34.5499992        -8.75241039E-06
   34.5999985        -9.13479289E-06
   34.6500015        -9.51457150E-06
   34.7000008        -9.89161526E-06
   34.7500000        -1.02658032E-05
   34.7999992        -1.06370262E-05
   34.8499985        -1.10051897E-05
   34.9000015        -1.13702163E-05
   34.9500008        -1.17320396E-05
   35.0000000        -1.20906079E-05
   35.0499992        -1.24458884E-05
   35.0999985        -1.27978574E-05
   35.1500015        -1.31465104E-05
   35.2000008        -1.34918519E-05
   35.2500000        -1.38339074E-05
   35.2999992        -1.41727141E-05
   35.3499985        -1.45083222E-05
   35.4000015        -1.48408008E-05
   35.4500008        -1.51702252E-05
   35.5000000        -1.54966892E-05
   35.5499992        -1.58202965E-05
   35.5999985        -1.61411590E-05
   35.6500015        -1.64594094E-05
   35.7000008        -1.67751823E-05
   35.7500000        -1.70886269E-05
   35.7999992        -1.73998997E-05
   35.8499985        -1.77091679E-05
   35.9000015        -1.80166062E-05
   35.9500008        -1.83223929E-05