  -4.50000000         0.00000000    
  -4.44999981         0.00000000    
  -4.40000010         0.00000000    
  -4.34999990         0.00000000    
  -4.30000019         0.00000000    
  -4.25000000         0.00000000    
  -4.19999981         1.41168764E-35
  -4.15000010         2.42480309E-34
  -4.09999990         1.24215140E-33
  -4.05000019         1.29748651E-33
  -4.00000000        -1.67650797E-32
  -3.95000005        -1.14559060E-31
  -3.90000010        -4.17981059E-31
  -3.84999990        -1.03873959E-30
  -3.79999995        -1.76279597E-30
  -3.75000000        -1.47387130E-30
  -3.70000005         2.34128100E-30
  -3.65000010         1.30763045E-29
  -3.59999990         3.22280693E-29
  -3.54999995         5.38829277E-29
  -3.50000000         5.85737046E-29
  -3.45000005         1.27270145E-29
  -3.40000010        -1.16592392E-28
  -3.34999990        -3.23218013E-28
  -3.29999995        -5.02111892E-28
  -3.25000000        -3.93411949E-28
  -3.20000005         4.14212401E-28
  -3.15000010         2.34148014E-27
  -3.09999990         5.46465558E-27
  -3.04999995         8.94115057E-27
  -3.00000000         1.03456627E-26
  -2.95000005         5.25223860E-27
  -2.90000010        -1.23927552E-26
  -2.84999990        -4.84621444E-26
  -2.79999995        -1.04924368E-25
  -2.75000000        -1.74300000E-25
  -2.70000005        -2.33427147E-25
  -2.65000010        -2.39015413E-25
  -2.59999990        -1.28736208E-25
  -2.54999995         1.67865743E-25
  -2.50000000         7.05298299E-25
  -2.45000005         1.48455063E-24
  -2.40000010         2.40684046E-24
  -2.34999990         3.23007677E-24
  -2.29999995         3.54585877E-24
  -2.25000000         2.79886153E-24
  -2.20000005         3.69744037E-25
  -2.15000010        -4.26452092E-24
  -2.09999990        -1.12933714E-23
  -2.04999995        -2.02795392E-23
  -2.00000000        -2.98561891E-23
  -1.95000005        -3.74871467E-23
  -1.89999998        -3.93882510E-23
  -1.85000002        -3.07285714E-23
  -1.79999995        -6.24012957E-24
  -1.75000000         3.86458540E-23
  -1.70000005         1.06064785E-22
  -1.64999998         1.93419909E-22
  -1.60000002         2.90736037E-22
  -1.54999995         3.78154321E-22
  -1.50000000         4.24399695E-22
  -1.45000005         3.87398610E-22
  -1.39999998         2.18454492E-22
  -1.35000002        -1.28675835E-22
  -1.29999995        -6.83020864E-22
  -1.25000000        -1.43638187E-21
  -1.20000005        -2.32042660E-21
  -1.14999998        -3.18570135E-21
  -1.10000002        -3.78992265E-21
  -1.04999995        -3.80478484E-21
  -1.00000000        -2.85075802E-21
 -0.949999988        -5.66940827E-22
 -0.899999976         3.28280924E-21
 -0.850000024         8.67557689E-21
 -0.800000012         1.51871346E-20
 -0.750000000         2.18747154E-20
 -0.699999988         2.72281847E-20
 -0.649999976         2.92368862E-20
 -0.600000024         2.56131291E-20
 -0.550000012         1.41934467E-20
 -0.500000000        -6.49504115E-21
 -0.449999988        -3.65615769E-20
 -0.400000006        -7.40810743E-20
 -0.349999994        -1.14581162E-19
 -0.300000012        -1.50870273E-19
 -0.250000000        -1.73387577E-19
 -0.200000003        -1.71210334E-19
 -0.150000006        -1.33763170E-19
 -0.100000001        -5.31384994E-20
  -5.00000007E-02     7.32245288E-20
   0.00000000         2.39919549E-19
   5.00000007E-02     4.31559590E-19
  0.100000001         6.21980574E-19
  0.150000006         7.75228035E-19
  0.200000003         8.48723808E-19
  0.250000000         7.98712882E-19
  0.300000012         5.87688199E-19
  0.349999994         1.93041104E-19
  0.400000006        -3.84247599E-19
  0.449999988        -1.11238132E-18
  0.500000000        -1.92461519E-18
  0.550000012        -2.71970926E-18
  0.600000024        -3.36802034E-18
  0.649999976        -3.72358992E-18
  0.699999988        -3.64165479E-18
  0.750000000        -3.00003457E-18
  0.800000012        -1.72194902E-18
  0.850000024         2.02850678E-19
  0.899999976         2.70196355E-18
  0.949999988         5.61231913E-18
   1.00000000         8.68252694E-18
   1.04999995         1.15866687E-17
   1.10000002         1.39489998E-17
   1.14999998         1.53775622E-17
   1.20000005         1.55032209E-17
   1.25000000         1.40199140E-17
   1.29999995         1.07215379E-17
   1.35000002         5.53156396E-18
   1.39999998        -1.47739638E-18
   1.45000005        -1.00751575E-17
   1.50000000        -1.98758614E-17
   1.54999995        -3.03479001E-17
   1.60000002        -4.08286457E-17
   1.64999998        -5.05406130E-17
   1.70000005        -5.86070368E-17
   1.75000000        -6.40666803E-17
   1.79999995        -6.58906863E-17
   1.85000002        -6.30072208E-17
   1.89999998        -5.43419314E-17
   1.95000005        -3.88837754E-17
   2.00000000        -1.57847932E-17
   2.04999995         1.55005193E-17
   2.09999990         5.50363297E-17
   2.15000010         1.02194631E-16
   2.20000005         1.55429858E-16
   2.25000000         2.12065895E-16
   2.29999995         2.68131509E-16
   2.34999990         3.18286394E-16
   2.40000010         3.55883090E-16
   2.45000005         3.73205602E-16
   2.50000000         3.61917776E-16
   2.54999995         3.13736398E-16
   2.59999990         2.21323608E-16
   2.65000010         7.93630432E-17
   2.70000005        -1.14243992E-16
   2.75000000        -3.57160151E-16
   2.79999995        -6.41495426E-16
   2.84999990        -9.52939488E-16
   2.90000010        -1.27030177E-15
   2.95000005        -1.56561663E-15
   3.00000000        -1.80495077E-15
   3.04999995        -1.95001977E-15
   3.09999990        -1.96065596E-15
   3.15000010        -1.79810822E-15
   3.20000005        -1.42906221E-15
   3.25000000        -8.30176992E-16
   3.29999995         7.16236998E-18
   3.34999990         1.07226420E-15
   3.40000010         2.33119370E-15
   3.45000005         3.72397781E-15
   3.50000000         5.16347473E-15
   3.54999995         6.53639994E-15
   3.59999990         7.70689105E-15
   3.65000010         8.52287855E-15
   3.70000005         8.82531505E-15
   3.75000000         8.46009816E-15
   3.79999995         7.29225741E-15
   3.84999990         5.22164218E-15
   3.90000010         2.19914614E-15
   3.95000005        -1.75779962E-15
   4.00000000        -6.55187481E-15
   4.05000019        -1.19962422E-14
   4.09999990        -1.78100841E-14
   4.15000010        -2.36207640E-14
   4.19999981        -2.89736768E-14
   4.25000000        -3.33504993E-14
   4.30000019        -3.61960319E-14
   4.34999990        -3.69531168E-14
   4.40000010        -3.51045419E-14
   4.44999981        -3.02199265E-14
   4.50000000        -2.20051231E-14
   4.55000019        -1.03508256E-14
   4.59999990         4.62314775E-15
   4.65000010         2.25319471E-14
   4.69999981         4.27020480E-14
   4.75000000         6.41635047E-14
   4.80000019         8.56613906E-14
   4.84999990         1.05688597E-13
   4.90000010         1.22541259E-13
   4.94999981         1.34396780E-13
   5.00000000         1.39412435E-13
   5.05000019         1.35842103E-13
   5.09999990         1.22165665E-13
   5.15000010         9.72250980E-14
   5.19999981         6.03599541E-14
   5.25000000         1.15335377E-14
   5.30000019        -4.85589013E-14
   5.34999990        -1.18408796E-13
   5.40000010        -1.95648985E-13
   5.44999981        -2.77050193E-13
   5.50000000        -3.58567451E-13
   5.55000019        -4.35437683E-13
   5.59999990        -5.02331575E-13
   5.65000010        -5.53556875E-13
   5.69999981        -5.83308358E-13
   5.75000000        -5.85957986E-13
   5.80000019        -5.56371193E-13
   5.84999990        -4.90240064E-13
   5.90000010        -3.84413990E-13
   5.94999981        -2.37214111E-13
   6.00000000        -4.87085653E-14
   6.05000019         1.79063063E-13
   6.09999990         4.41937584E-13
   6.15000010         7.33561595E-13
   6.19999981         1.04542200E-12
   6.25000000         1.36698335E-12
   6.30000019         1.68593741E-12
   6.34999990         1.98855992E-12
   6.40000010         2.26017599E-12
   6.44999981         2.48571931E-12
   6.50000000         2.65037276E-12
   6.55000019         2.74027025E-12
   6.59999990         2.74323511E-12
   6.65000010         2.64953467E-12
   6.69999981         2.45261862E-12
   6.75000000         2.14980876E-12
   6.80000019         1.74292330E-12
   6.84999990         1.23879487E-12
   6.90000010         6.49671289E-13
   6.94999981        -6.54178156E-15
   7.00000000        -7.06195790E-13
   7.05000019        -1.41999325E-12
   7.09999990        -2.11325423E-12
   7.15000010        -2.74637648E-12
   7.19999981        -3.27549012E-12
   7.25000000        -3.65323397E-12
   7.30000019        -3.82970608E-12
   7.34999990        -3.75359899E-12
   7.40000010        -3.37330684E-12
   7.44999981        -2.63816833E-12
   7.50000000        -1.49979486E-12
   7.55000019         8.67501532E-14
   7.59999990         2.16169010E-12
   7.65000010         4.75940945E-12
   7.69999981         7.90744987E-12
   7.75000000         1.16256848E-11
   7.80000019         1.59256358E-11
   7.84999990         2.08100186E-11
   7.90000010         2.62725310E-11
   7.94999981         3.22978935E-11
   8.00000000         3.88621323E-11
   8.05000019         4.59330352E-11
   8.10000038         5.34709811E-11
   8.14999962         6.14298890E-11
   8.19999981         6.97583866E-11
   8.25000000         7.84011467E-11
   8.30000019         8.73003336E-11
   8.35000038         9.63971541E-11
   8.39999962         1.05633453E-10
   8.44999981         1.14953165E-10
   8.50000000         1.24303512E-10
   8.55000019         1.33637157E-10
   8.60000038         1.42911863E-10
   8.64999962         1.52092838E-10
   8.69999981         1.61152675E-10
   8.75000000         1.70070971E-10
   8.80000019         1.78834933E-10
   8.85000038         1.87438648E-10
   8.89999962         1.95880756E-10
   8.94999981         2.04165934E-10
   9.00000000         2.12298401E-10
   9.05000019         2.20284360E-10
   9.10000038         2.28123506E-10
   9.14999962         2.35808900E-10
   9.19999981         2.43324472E-10
   9.25000000         2.50635512E-10
   9.30000019         2.57687843E-10
   9.35000038         2.64400307E-10
   9.39999962         2.70661077E-10
   9.44999981         2.76315970E-10
   9.50000000         2.81168699E-10
   9.55000019         2.84973350E-10
   9.60000038         2.87420893E-10
   9.64999962         2.88141094E-10
   9.69999981         2.86685925E-10
   9.75000000         2.82531776E-10
   9.80000019         2.75059059E-10
   9.85000038         2.63558092E-10
   9.89999962         2.47221243E-10
   9.94999981         2.25128860E-10
   10.0000000         1.96242023E-10
   10.0500002         1.59416980E-10
   10.1000004         1.13374150E-10
   10.1499996         5.67079439E-11
   10.1999998        -1.21242452E-11
   10.2500000        -9.47881149E-11
   10.3000002        -1.93083133E-10
   10.3500004        -3.08939319E-10
   10.3999996        -4.44415338E-10
   10.4499998        -6.01704575E-10
   10.5000000        -7.83122456E-10
   10.5500002        -9.91096871E-10
   10.6000004        -1.22813304E-09
   10.6499996        -1.49685342E-09
   10.6999998        -1.79995296E-09
   10.7500000        -2.14019247E-09
   10.8000002        -2.52035437E-09
   10.8500004        -2.94325253E-09
   10.8999996        -3.41173578E-09
   10.9499998        -3.92857302E-09
   11.0000000        -4.49651916E-09
   11.0500002        -5.11820097E-09
   11.1000004        -5.79623327E-09
   11.1499996        -6.53302168E-09
   11.1999998        -7.33073957E-09
   11.2500000        -8.19151769E-09
   11.3000002        -9.11709375E-09
   11.3500004        -1.01089075E-08
   11.3999996        -1.11681562E-08
   11.4499998        -1.22955894E-08
   11.5000000        -1.34916744E-08
   11.5500002        -1.47562114E-08
   11.6000004        -1.60886930E-08
   11.6499996        -1.74878725E-08
   11.6999998        -1.89521501E-08
   11.7500000        -2.04789785E-08
   11.8000002        -2.20653256E-08
   11.8500004        -2.37074165E-08
   11.8999996        -2.54005066E-08
   11.9499998        -2.71392295E-08
   12.0000000        -2.89173148E-08
   12.0500002        -3.07274561E-08
   12.1000004        -3.25615588E-08
   12.1499996        -3.44105899E-08
   12.1999998        -3.62643213E-08
   12.2500000        -3.81114909E-08
   12.3000002        -3.99399624E-08
   12.3500004        -4.17362571E-08
   12.3999996        -4.34860858E-08
   12.4499998        -4.51739091E-08
   12.5000000        -4.67830610E-08
   12.5500002        -4.82958740E-08
   12.6000004        -4.96934938E-08
   12.6499996        -5.09561495E-08
   12.6999998        -5.20630898E-08
   12.7500000        -5.29925082E-08
   12.8000002        -5.37214824E-08
   12.8500004        -5.42264864E-08
   12.8999996        -5.44829035E-08
   12.9499998        -5.44654171E-08
   13.0000000        -5.41482379E-08
   13.0500002        -5.35048024E-08
   13.1000004        -5.25079322E-08
   13.1499996        -5.11298595E-08
   13.1999998        -4.93428907E-08
   13.2500000        -4.71189772E-08
   13.3000002        -4.44298109E-08
   13.3500004        -4.12473078E-08
   13.3999996        -3.75428790E-08
   13.4499998        -3.32889165E-08
   13.5000000        -2.84576736E-08
   13.5500002        -2.30217196E-08
   13.6000004        -1.69550169E-08
   13.6499996        -1.02307807E-08
   13.6999998        -2.82430768E-09
   13.7500000         5.28862909E-09
   13.8000002         1.41319747E-08
   13.8500004         2.37274360E-08
   13.8999996         3.40960185E-08
   13.9499998         4.52572806E-08
   14.0000000         5.72300642E-08
   14.0500002         7.00309073E-08
   14.1000004         8.36751468E-08
   14.1499996         9.81766348E-08
   14.1999998         1.13547102E-07
   14.2500000         1.29797201E-07
   14.3000002         1.46935832E-07
   14.3500004         1.64968966E-07
   14.3999996         1.83901776E-07
   14.4499998         2.03737187E-07
   14.5000000         2.24476437E-07
   14.5500002         2.46118134E-07
   14.6000004         2.68659988E-07
   14.6499996         2.92097269E-07
   14.6999998         3.16423382E-07
   14.7500000         3.41629345E-07
   14.8000002         3.67704956E-07
   14.8500004         3.94637510E-07
   14.8999996         4.22413336E-07
   14.9499998         4.51015580E-07
   15.0000000         4.80426706E-07
   15.0500002         5.10627387E-07
   15.1000004         5.41596080E-07
   15.1499996         5.73309308E-07
   15.1999998         6.05742855E-07
   15.2500000         6.38870461E-07
   15.3000002         6.72664214E-07
   15.3500004         7.07094614E-07
   15.3999996         7.42131363E-07
   15.4499998         7.77742457E-07
   15.5000000         8.13894474E-07
   15.5500002         8.50552624E-07
   15.6000004         8.87681210E-07
   15.6499996         9.25244024E-07
   15.6999998         9.63202638E-07
   15.7500000         1.00151885E-06
   15.8000002         1.04015260E-06
   15.8500004         1.07906465E-06
   15.8999996         1.11821373E-06
   15.9499998         1.15755790E-06
   16.0000000         1.19705567E-06
   16.0499992         1.23666530E-06
   16.1000004         1.27634371E-06
   16.1499996         1.31604907E-06
   16.2000008         1.35573850E-06
   16.2500000         1.39536985E-06
   16.2999992         1.43490104E-06
   16.3500004         1.47429103E-06
   16.3999996         1.51349798E-06
   16.4500008         1.55248199E-06
   16.5000000         1.59120316E-06
   16.5499992         1.62962306E-06
   16.6000004         1.66770531E-06
   16.6499996         1.70541250E-06
   16.7000008         1.74271031E-06
   16.7500000         1.77956520E-06
   16.7999992         1.81594680E-06
   16.8500004         1.85182455E-06
   16.8999996         1.88717149E-06
   16.9500008         1.92196126E-06
   17.0000000         1.95617122E-06
   17.0499992         1.98977932E-06
   17.1000004         2.02276692E-06
   17.1499996         2.05511787E-06
   17.2000008         2.08681763E-06
   17.2500000         2.11785482E-06
   17.2999992         2.14822126E-06
   17.3500004         2.17790966E-06
   17.3999996         2.20691686E-06
   17.4500008         2.23524148E-06
   17.5000000         2.26288512E-06
   17.5499992         2.28985118E-06
   17.6000004         2.31614604E-06
   17.6499996         2.34177787E-06
   17.7000008         2.36675578E-06
   17.7500000         2.39109318E-06
   17.7999992         2.41480348E-06
   17.8500004         2.43790282E-06
   17.8999996         2.46040827E-06
   17.9500008         2.48233709E-06
   18.0000000         2.50370840E-06
   18.0499992         2.52454174E-06
   18.1000004         2.54485667E-06
   18.1499996         2.56467183E-06
   18.2000008         2.58400746E-06
   18.2500000         2.60288061E-06
   18.2999992         2.62130925E-06
   18.3500004         2.63930838E-06
   18.3999996         2.65689164E-06
   18.4500008         2.67406995E-06
   18.5000000         2.69085331E-06
   18.5499992         2.70724536E-06
   18.6000004         2.72324792E-06
   18.6499996         2.73885826E-06
   18.7000008         2.75407001E-06
   18.7500000         2.76887090E-06
   18.7999992         2.78324342E-06
   18.8500004         2.79716505E-06
   18.8999996         2.81060693E-06
   18.9500008         2.82353335E-06
   19.0000000         2.83590271E-06
   19.0499992         2.84766520E-06
   19.1000004         2.85876467E-06
   19.1499996         2.86913564E-06
   19.2000008         2.87870625E-06
   19.2500000         2.88739602E-06
   19.2999992         2.89511604E-06
   19.3500004         2.90176786E-06
   19.3999996         2.90724665E-06
   19.4500008         2.91143738E-06
   19.5000000         2.91421702E-06
   19.5499992         2.91545371E-06
   19.6000004         2.91500669E-06
   19.6499996         2.91272772E-06
   19.7000008         2.90846037E-06
   19.7500000         2.90204025E-06
   19.7999992         2.89329591E-06
   19.8500004         2.88204819E-06
   19.8999996         2.86811110E-06
   19.9500008         2.85129272E-06
   20.0000000         2.83139707E-06
   20.0499992         2.80822155E-06
   20.1000004         2.78155994E-06
   20.1499996         2.75120306E-06
   20.2000008         2.71693875E-06
   20.2500000         2.67855285E-06
   20.2999992         2.63583183E-06
   20.3500004         2.58856085E-06
   20.3999996         2.53652775E-06
   20.4500008         2.47952153E-06
   20.5000000         2.41733574E-06
   20.5499992         2.34976801E-06
   20.6000004         2.27662213E-06
   20.6499996         2.19770800E-06
   20.7000008         2.11284555E-06
   20.7500000         2.02186334E-06
   20.7999992         1.92460061E-06
   20.8500004         1.82090912E-06
   20.8999996         1.71065506E-06
   20.9500008         1.59371712E-06
   21.0000000         1.46999344E-06
   21.0499992         1.33939477E-06
   21.1000004         1.20185393E-06
   21.1499996         1.05732397E-06
   21.2000008         9.05774243E-07
   21.2500000         7.47199635E-07
   21.2999992         5.81616348E-07
   21.3500004         4.09065422E-07
   21.3999996         2.29612141E-07
   21.4500008         4.33484146E-08
   21.5000000        -1.49610841E-07
   21.5499992        -3.49120086E-07
   21.6000004        -5.55008285E-07
   21.6499996        -7.67076472E-07
   21.7000008        -9.85096221E-07
   21.7500000        -1.20881180E-06
   21.7999992        -1.43793955E-06
   21.8500004        -1.67216569E-06
   21.8999996        -1.91114850E-06
   21.9500008        -2.15451905E-06
   22.0000000        -2.40187978E-06
   22.0499992        -2.65280596E-06
   22.1000004        -2.90684557E-06
   22.1499996        -3.16352453E-06
   22.2000008        -3.42233943E-06
   22.2500000        -3.68276505E-06
   22.2999992        -3.94425388E-06
   22.3500004        -4.20623701E-06
   22.3999996        -4.46812510E-06
   22.4500008        -4.72931197E-06
   22.5000000        -4.98917143E-06
   22.5499992        -5.24706502E-06
   22.6000004        -5.50234154E-06
   22.6499996        -5.75433569E-06
   22.7000008        -6.00237900E-06
   22.7500000        -6.24579025E-06
   22.7999992        -6.48388414E-06
   22.8500004        -6.71597763E-06
   22.8999996        -6.94138134E-06
   22.9500008        -7.15941133E-06
   23.0000000        -7.36938955E-06
   23.0499992        -7.57064345E-06
   23.1000004        -7.76250727E-06
   23.1499996        -7.94433254E-06
   23.2000008        -8.11548034E-06
   23.2500000        -8.27533313E-06
   23.2999992        -8.42328882E-06
   23.3500004        -8.55876806E-06
   23.3999996        -8.68121697E-06
   23.4500008        -8.79010349E-06
   23.5000000        -8.88492923E-06
   23.5499992        -8.96522124E-06
   23.6000004        -9.03054388E-06
   23.6499996        -9.08049333E-06
   23.7000008        -9.11470033E-06
   23.7500000        -9.13283748E-06
   23.7999992        -9.13461372E-06
   23.8500004        -9.11977986E-06
   23.8999996        -9.08812945E-06
   23.9500008        -9.03949785E-06
   24.0000000        -8.97376503E-06
   24.0499992        -8.89085732E-06
   24.1000004        -8.79074378E-06
   24.1499996        -8.67344261E-06
   24.2000008        -8.53901474E-06
   24.2500000        -8.38757023E-06
   24.2999992        -8.21926733E-06
   24.3500004        -8.03430612E-06
   24.3999996        -7.83293490E-06
   24.4500008        -7.61544379E-06
   24.5000000        -7.38217022E-06
   24.5499992        -7.13349436E-06
   24.6000004        -6.86983503E-06
   24.6499996        -6.59165744E-06
   24.7000008        -6.29946226E-06
   24.7500000        -5.99378654E-06
   24.7999992        -5.67520647E-06
   24.8500004        -5.34432866E-06
   24.8999996        -5.00179431E-06
   24.9500008        -4.64827508E-06
   25.0000000        -4.28446219E-06
   25.0499992        -3.91108324E-06
   25.1000004        -3.52888037E-06
   25.1499996        -3.13861824E-06
   25.2000008        -2.74107856E-06
   25.2500000        -2.33705714E-06
   25.2999992        -1.92736388E-06
   25.3500004        -1.51281449E-06
   25.3999996        -1.09423320E-06
   25.4500008        -6.72447356E-07
   25.5000000        -2.48286341E-07
   25.5499992         1.77424155E-07
   25.6000004         6.03862020E-07
   25.6499996         1.03020807E-06
   25.7000008         1.45566162E-06
   25.7500000         1.87942578E-06
   25.7999992         2.30072351E-06
   25.8500004         2.71879230E-06
   25.8999996         3.13288956E-06
   25.9500008         3.54229314E-06
   26.0000000         3.94630479E-06
   26.0499992         4.34425056E-06
   26.1000004         4.73548425E-06
   26.1499996         5.11938788E-06
   26.2000008         5.49537390E-06
   26.2500000         5.86288343E-06
   26.2999992         6.22139305E-06
   26.3500004         6.57041119E-06
   26.3999996         6.90948082E-06
   26.4500008         7.23818130E-06
   26.5000000         7.55612291E-06
   26.5499992         7.86295641E-06
   26.6000004         8.15836574E-06
   26.6499996         8.44207261E-06
   26.7000008         8.71383236E-06
   26.7500000         8.97344034E-06
   26.7999992         9.22072468E-06
   26.8500004         9.45554984E-06
   26.8999996         9.67781125E-06
   26.9500008         9.88744432E-06
   27.0000000         1.00844127E-05
   27.0499992         1.02687154E-05
   27.1000004         1.04403798E-05
   27.1499996         1.05994650E-05
   27.2000008         1.07460592E-05
   27.2500000         1.08802788E-05
   27.2999992         1.10022647E-05
   27.3500004         1.11121853E-05
   27.3999996         1.12102325E-05
   27.4500008         1.12966209E-05
   27.5000000         1.13715832E-05
   27.5499992         1.14353734E-05
   27.6000004         1.14882669E-05
   27.6499996         1.15305538E-05
   27.7000008         1.15625353E-05
   27.7500000         1.15845314E-05
   27.7999992         1.15968724E-05
   27.8500004         1.15998992E-05
   27.8999996         1.15939620E-05
   27.9500008         1.15794192E-05
   28.0000000         1.15566363E-05
   28.0499992         1.15259827E-05
   28.1000004         1.14878339E-05
   28.1499996         1.14425666E-05
   28.2000008         1.13905580E-05
   28.2500000         1.13321876E-05
   28.2999992         1.12678345E-05
   28.3500004         1.11978752E-05
   28.3999996         1.11226827E-05
   28.4500008         1.10426272E-05
   28.5000000         1.09580751E-05
   28.5499992         1.08693876E-05
   28.6000004         1.07769192E-05
   28.6499996         1.06810185E-05
   28.7000008         1.05820227E-05
   28.7500000         1.04802684E-05
   28.7999992         1.03760776E-05
   28.8500004         1.02697668E-05
   28.8999996         1.01616415E-05
   28.9500008         1.00519992E-05
   29.0000000         9.94112725E-06
   29.0499992         9.82930123E-06
   29.1000004         9.71678583E-06
   29.1499996         9.60383750E-06
   29.2000008         9.49069999E-06
   29.2500000         9.37760524E-06
   29.2999992         9.26477605E-06
   29.3500004         9.15242254E-06
   29.3999996         9.04074477E-06
   29.4500008         8.92992739E-06
   29.5000000         8.82014865E-06
   29.5499992         8.71157044E-06
   29.6000004         8.60434920E-06
   29.6499996         8.49862408E-06
   29.7000008         8.39452332E-06
   29.7500000         8.29216606E-06
   29.7999992         8.19165689E-06
   29.8500004         8.09309313E-06
   29.8999996         7.99655481E-06
   29.9500008         7.90211470E-06
   30.0000000         7.80983282E-06
   30.0499992         7.71975920E-06
   30.1000004         7.63193111E-06
   30.1499996         7.54637176E-06
   30.2000008         7.46309706E-06
   30.2500000         7.38211111E-06
   30.2999992         7.30340616E-06
   30.3500004         7.22696086E-06
   30.3999996         7.15274655E-06
   30.4500008         7.08072230E-06
   30.5000000         7.01083673E-06
   30.5499992         6.94302616E-06
   30.6000004         6.87721695E-06
   30.6499996         6.81332540E-06
   30.7000008         6.75125693E-06
   30.7500000         6.69090787E-06
   30.7999992         6.63216315E-06
   30.8500004         6.57489909E-06
   30.8999996         6.51898199E-06
   30.9500008         6.46426952E-06
   31.0000000         6.41061024E-06
   31.0499992         6.35784318E-06
   31.1000004         6.30580098E-06
   31.1499996         6.25430812E-06
   31.2000008         6.20318178E-06
   31.2500000         6.15223325E-06
   31.2999992         6.10126654E-06
   31.3500004         6.05008063E-06
   31.3999996         5.99847181E-06
   31.4500008         5.94623134E-06
   31.5000000         5.89314550E-06
   31.5499992         5.83899828E-06
   31.6000004         5.78357549E-06
   31.6499996         5.72665749E-06
   31.7000008         5.66802601E-06
   31.7500000         5.60746503E-06
   31.7999992         5.54475855E-06
   31.8500004         5.47969194E-06
   31.8999996         5.41205645E-06
   31.9500008         5.34164610E-06
   32.0000000         5.26826034E-06
   32.0499992         5.19170544E-06
   32.0999985         5.11179405E-06
   32.1500015         5.02834564E-06
   32.2000008         4.94119013E-06
   32.2500000         4.85016426E-06
   32.2999992         4.75511797E-06
   32.3499985         4.65591120E-06
   32.4000015         4.55241570E-06
   32.4500008         4.44451507E-06
   32.5000000         4.33210698E-06
   32.5499992         4.21510276E-06
   32.5999985         4.09342738E-06
   32.6500015         3.96702080E-06
   32.7000008         3.83584074E-06
   32.7500000         3.69985514E-06
   32.7999992         3.55905354E-06
   32.8499985         3.41343957E-06
   32.9000015         3.26303075E-06
   32.9500008         3.10786368E-06
   33.0000000         2.94799315E-06
   33.0499992         2.78348739E-06
   33.0999985         2.61443279E-06
   33.1500015         2.44093007E-06
   33.2000008         2.26309839E-06
   33.2500000         2.08106849E-06
   33.2999992         1.89498985E-06
   33.3499985         1.70502665E-06
   33.4000015         1.51135487E-06
   33.4500008         1.31416391E-06
   33.5000000         1.11365625E-06
   33.5499992         9.10048016E-07
   33.5999985         7.03561341E-07
   33.6500015         4.94432982E-07
   33.7000008         2.82907564E-07
   33.7500000         6.92347015E-08
   33.7999992        -1.46324325E-07
   33.8499985        -3.63507525E-07
   33.9000015        -5.82043128E-07
   33.9500008        -8.01661145E-07
   34.0000000        -1.02208696E-06
   34.0499992        -1.24304768E-06
   34.0999985        -1.46426669E-06
   34.1500015        -1.68547217E-06
   34.2000008        -1.90639742E-06
   34.2500000        -2.12677173E-06
   34.2999992        -2.34634103E-06
   34.3499985        -2.56485100E-06
   34.4000015        -2.78205607E-06
   34.4500008        -2.99772023E-06
   34.5000000        -3.21161838E-06
   34.5499992        -3.42353860E-06
   34.5999985        -3.63327672E-06
   34.6500015        -3.84064742E-06
   34.7000008        -4.04547654E-06
   34.7500000        -4.24760537E-06
   34.7999992        -4.44689067E-06
   34.8499985        -4.64320556E-06
   34.9000015        -4.83644226E-06
   34.9500008        -5.02651164E-06
   35.0000000        -5.21333959E-06
   35.0499992        -5.39687153E-06
   35.0999985        -5.57707290E-06
   35.1500015        -5.75392733E-06
   35.2000008        -5.92743527E-06
   35.2500000        -6.09761992E-06
   35.2999992        -6.26452129E-06
   35.3499985        -6.42820441E-06
   35.4000015        -6.58874205E-06
   35.4500008        -6.74623152E-06
   35.5000000        -6.90078650E-06
   35.5499992        -7.05253660E-06
   35.5999985        -7.20163007E-06
   35.6500015        -7.34822743E-06
   35.7000008        -7.49250785E-06
   35.7500000        -7.63466142E-06
   35.7999992        -7.77489367E-06
   35.8499985        -7.91341608E-06
   35.9000015        -8.05046056E-06
   35.9500008        -8.18626359E-06