  -4.50000000         0.00000000    
  -4.44999981         0.00000000    
  -4.40000010         0.00000000    
  -4.34999990         0.00000000    
  -4.30000019         0.00000000    
  -4.25000000         0.00000000    
  -4.19999981         2.17953465E-38
  -4.15000010        -1.24030237E-35
  -4.09999990        -1.50739851E-34
  -4.05000019        -9.53316459E-34
  -4.00000000        -4.18003403E-33
  -3.95000005        -1.41562845E-32
  -3.90000010        -3.87978611E-32
  -3.84999990        -8.69691259E-32
  -3.79999995        -1.54942686E-31
  -3.75000000        -1.93065026E-31
  -3.70000005        -5.34483881E-32
  -3.65000010         5.48341031E-31
  -3.59999990         1.97113476E-30
  -3.54999995         4.35801835E-30
  -3.50000000         7.03690641E-30
  -3.45000005         7.74959453E-30
  -3.40000010         2.25317347E-30
  -3.34999990        -1.47296326E-29
  -3.29999995        -4.61530995E-29
  -3.25000000        -8.65791876E-29
  -3.20000005        -1.14962767E-28
  -3.15000010        -9.05284514E-29
  -3.09999990         4.17413086E-29
  -3.04999995         3.29495943E-28
  -3.00000000         7.72962161E-28
  -2.95000005         1.27321332E-27
  -2.90000010         1.58793145E-27
  -2.84999990         1.32521901E-27
  -2.79999995         1.00421267E-29
  -2.75000000        -2.75174733E-27
  -2.70000005        -7.01365215E-27
  -2.65000010        -1.21770403E-26
  -2.59999990        -1.67210640E-26
  -2.54999995        -1.81089122E-26
  -2.50000000        -1.30225266E-26
  -2.45000005         1.94623040E-27
  -2.40000010         2.90972516E-26
  -2.34999990         6.79986637E-26
  -2.29999995         1.13699730E-25
  -2.25000000         1.55244387E-25
  -2.20000005         1.75134381E-25
  -2.15000010         1.50500794E-25
  -2.09999990         5.67025761E-26
  -2.04999995        -1.26194831E-25
  -2.00000000        -4.04170617E-25
  -1.95000005        -7.58211638E-25
  -1.89999998        -1.13360111E-24
  -1.85000002        -1.43285727E-24
  -1.79999995        -1.51661862E-24
  -1.75000000        -1.21709247E-24
  -1.70000005        -3.67828362E-25
  -1.64999998         1.14881794E-24
  -1.60000002         3.33938705E-24
  -1.54999995         6.03077733E-24
  -1.50000000         8.81056420E-24
  -1.45000005         1.09972172E-23
  -1.39999998         1.16645241E-23
  -1.35000002         9.74302067E-24
  -1.29999995         4.21315266E-24
  -1.25000000        -5.61155219E-24
  -1.20000005        -1.97360519E-23
  -1.14999998        -3.71237279E-23
  -1.10000002        -5.54061379E-23
  -1.04999995        -7.07657583E-23
  -1.00000000        -7.81006438E-23
 -0.949999988        -7.15630695E-23
 -0.899999976        -4.55189182E-23
 -0.850000024         4.10045402E-24
 -0.800000012         7.81805523E-23
 -0.750000000         1.72777300E-22
 -0.699999988         2.77780568E-22
 -0.649999976         3.76294200E-22
 -0.600000024         4.45148125E-22
 -0.550000012         4.56885820E-22
 -0.500000000         3.83402177E-22
 -0.449999988         2.01147729E-22
 -0.400000006        -1.02515441E-22
 -0.349999994        -5.22584681E-22
 -0.300000012        -1.03042602E-21
 -0.250000000        -1.56987167E-21
 -0.200000003        -2.05682256E-21
 -0.150000006        -2.38361363E-21
 -0.100000001        -2.42896781E-21
  -5.00000007E-02    -2.07367596E-21
   0.00000000        -1.22121908E-21
   5.00000007E-02     1.78502549E-22
  0.100000001         2.10518698E-21
  0.150000006         4.44766816E-21
  0.200000003         6.99122552E-21
  0.250000000         9.41694156E-21
  0.300000012         1.13167379E-20
  0.349999994         1.22263700E-20
  0.400000006         1.16766390E-20
  0.449999988         9.26042751E-21
  0.500000000         4.71034244E-21
  0.550000012        -2.02121603E-21
  0.600000024        -1.06903643E-20
  0.649999976        -2.07107446E-20
  0.699999988        -3.11361381E-20
  0.750000000        -4.06884133E-20
  0.800000012        -4.78395351E-20
  0.850000024        -5.09515308E-20
  0.899999976        -4.84717015E-20
  0.949999988        -3.91723981E-20
   1.00000000        -2.24159742E-20
   1.04999995         1.58290633E-21
   1.10000002         3.15328132E-20
   1.14999998         6.49189827E-20
   1.20000005         9.79762284E-20
   1.25000000         1.25819625E-19
   1.29999995         1.42762650E-19
   1.35000002         1.42837858E-19
   1.39999998         1.20515343E-19
   1.45000005         7.15877128E-20
   1.50000000        -5.83649956E-21
   1.54999995        -1.10322397E-19
   1.60000002        -2.36198529E-19
   1.64999998        -3.72890487E-19
   1.70000005        -5.04655085E-19
   1.75000000        -6.10874020E-19
   1.79999995        -6.67051888E-19
   1.85000002        -6.46627816E-19
   1.89999998        -5.23651236E-19
   1.95000005        -2.76299392E-19
   2.00000000         1.08892731E-19
   2.04999995         6.32328603E-19
   2.09999990         1.27653738E-18
   2.15000010         2.00174110E-18
   2.20000005         2.74240296E-18
   2.25000000         3.40543806E-18
   2.29999995         3.87081773E-18
   2.34999990         3.99527657E-18
   2.40000010         3.61975477E-18
   2.45000005         2.58102458E-18
   2.50000000         7.27700253E-19
   2.54999995        -2.05952401E-18
   2.59999990        -5.84400084E-18
   2.65000010        -1.06067418E-17
   2.70000005        -1.62191655E-17
   2.75000000        -2.24172051E-17
   2.79999995        -2.87795789E-17
   2.84999990        -3.47133954E-17
   2.90000010        -3.94506455E-17
   2.95000005        -4.20591861E-17
   3.00000000        -4.14716529E-17
   3.04999995        -3.65352640E-17
   3.09999990        -2.60846410E-17
   3.15000010        -9.03841313E-18
   3.20000005         1.54810061E-17
   3.25000000         4.80073691E-17
   3.29999995         8.85751948E-17
   3.34999990         1.36556468E-16
   3.40000010         1.90499417E-16
   3.45000005         2.47981786E-16
   3.50000000         3.05492782E-16
   3.54999995         3.58360026E-16
   3.59999990         4.00737878E-16
   3.65000010         4.25673708E-16
   3.70000005         4.25267608E-16
   3.75000000         3.90937839E-16
   3.79999995         3.13800534E-16
   3.84999990         1.85166882E-16
   3.90000010        -2.84586527E-18
   3.95000005        -2.56601140E-16
   4.00000000        -5.80147689E-16
   4.05000019        -9.74371434E-16
   4.09999990        -1.43613293E-15
   4.15000010        -1.95743703E-15
   4.19999981        -2.52468948E-15
   4.25000000        -3.11809874E-15
   4.30000019        -3.71128672E-15
   4.34999990        -4.27116914E-15
   4.40000010        -4.75816396E-15
   4.44999981        -5.12677872E-15
   4.50000000        -5.32661751E-15
   4.55000019        -5.30382682E-15
   4.59999990        -5.00298655E-15
   4.65000010        -4.36943174E-15
   4.69999981        -3.35195247E-15
   4.75000000        -1.90581312E-15
   4.80000019         4.00849491E-18
   4.84999990         2.39948404E-15
   4.90000010         5.28623860E-15
   4.94999981         8.65045611E-15
   5.00000000         1.24561599E-14
   5.05000019         1.66430522E-14
   5.09999990         2.11250695E-14
   5.15000010         2.57898629E-14
   5.19999981         3.04992847E-14
   5.25000000         3.50910741E-14
   5.30000019         3.93817906E-14
   5.34999990         4.31709925E-14
   5.40000010         4.62467555E-14
   5.44999981         4.83923780E-14
   5.50000000         4.93941741E-14
   5.55000019         4.90502516E-14
   5.59999990         4.71799283E-14
   5.65000010         4.36336216E-14
   5.69999981         3.83028671E-14
   5.75000000         3.11300803E-14
   5.80000019         2.21178141E-14
   5.84999990         1.13369964E-14
   5.90000010        -1.06605036E-15
   5.94999981        -1.48642559E-14
   6.00000000        -2.97463436E-14
   6.05000019        -4.53155342E-14
   6.09999990        -6.10906115E-14
   6.15000010        -7.65094165E-14
   6.19999981        -9.09348755E-14
   6.25000000        -1.03663456E-13
   6.30000019        -1.13936014E-13
   6.34999990        -1.20950735E-13
   6.40000010        -1.23878040E-13
   6.44999981        -1.21877009E-13
   6.50000000        -1.14113010E-13
   6.55000019        -9.97762867E-14
   6.59999990        -7.81007271E-14
   6.65000010        -4.83828370E-14
   6.69999981        -1.00002607E-14
   6.75000000         3.75704242E-14
   6.80000019         9.47369082E-14
   6.84999990         1.61775582E-13
   6.90000010         2.38817321E-13
   6.94999981         3.25834737E-13
   7.00000000         4.22630653E-13
   7.05000019         5.28828012E-13
   7.09999990         6.43860616E-13
   7.15000010         7.66964346E-13
   7.19999981         8.97168895E-13
   7.25000000         1.03328858E-12
   7.30000019         1.17391275E-12
   7.34999990         1.31739411E-12
   7.40000010         1.46183478E-12
   7.44999981         1.60506927E-12
   7.50000000         1.74464338E-12
   7.55000019         1.87778829E-12
   7.59999990         2.00138842E-12
   7.65000010         2.11194387E-12
   7.69999981         2.20552352E-12
   7.75000000         2.27771252E-12
   7.80000019         2.32354652E-12
   7.84999990         2.33743819E-12
   7.90000010         2.31309199E-12
   7.94999981         2.24340576E-12
   8.00000000         2.12035836E-12
   8.05000019         1.93488303E-12
   8.10000038         1.67672419E-12
   8.14999962         1.33427752E-12
   8.19999981         8.94410251E-13
   8.25000000         3.42261755E-13
   8.30000019        -3.38976866E-13
   8.35000038        -1.16830645E-12
   8.39999962        -2.16718657E-12
   8.44999981        -3.35983108E-12
   8.50000000        -4.77352533E-12
   8.55000019        -6.43897565E-12
   8.60000038        -8.39068572E-12
   8.64999962        -1.06673585E-11
   8.69999981        -1.33123339E-11
   8.75000000        -1.63740497E-11
   8.80000019        -1.99065348E-11
   8.85000038        -2.39699267E-11
   8.89999962        -2.86310264E-11
   8.94999981        -3.39638595E-11
   9.00000000        -4.00502791E-11
   9.05000019        -4.69805861E-11
   9.10000038        -5.48541525E-11
   9.14999962        -6.37800854E-11
   9.19999981        -7.38778760E-11
   9.25000000        -8.52780555E-11
   9.30000019        -9.81229056E-11
   9.35000038        -1.12567053E-10
   9.39999962        -1.28778196E-10
   9.44999981        -1.46937684E-10
   9.50000000        -1.67241235E-10
   9.55000019        -1.89899416E-10
   9.60000038        -2.15138282E-10
   9.64999962        -2.43199905E-10
   9.69999981        -2.74342771E-10
   9.75000000        -3.08842396E-10
   9.80000019        -3.46991436E-10
   9.85000038        -3.89100252E-10
   9.89999962        -4.35496889E-10
   9.94999981        -4.86527485E-10
   10.0000000        -5.42556111E-10
   10.0500002        -6.03964823E-10
   10.1000004        -6.71153300E-10
   10.1499996        -7.44539153E-10
   10.1999998        -8.24556867E-10
   10.2500000        -9.11657472E-10
   10.3000002        -1.00630804E-09
   10.3500004        -1.10899090E-09
   10.3999996        -1.22020227E-09
   10.4499998        -1.34045153E-09
   10.5000000        -1.47025958E-09
   10.5500002        -1.61015745E-09
   10.6000004        -1.76068471E-09
   10.6499996        -1.92238736E-09
   10.6999998        -2.09581619E-09
   10.7500000        -2.28152386E-09
   10.8000002        -2.48006282E-09
   10.8500004        -2.69198308E-09
   10.8999996        -2.91782820E-09
   10.9499998        -3.15813353E-09
   11.0000000        -3.41342221E-09
   11.0500002        -3.68420250E-09
   11.1000004        -3.97096267E-09
   11.1499996        -4.27417035E-09
   11.1999998        -4.59426497E-09
   11.2500000        -4.93165730E-09
   11.3000002        -5.28672306E-09
   11.3500004        -5.65980018E-09
   11.3999996        -6.05118444E-09
   11.4499998        -6.46112541E-09
   11.5000000        -6.88982116E-09
   11.5500002        -7.33741601E-09
   11.6000004        -7.80399656E-09
   11.6499996        -8.28958591E-09
   11.6999998        -8.79413964E-09
   11.7500000        -9.31754496E-09
   11.8000002        -9.85961623E-09
   11.8500004        -1.04200870E-08
   11.8999996        -1.09986154E-08
   11.9499998        -1.15947714E-08
   12.0000000        -1.22080435E-08
   12.0500002        -1.28378304E-08
   12.1000004        -1.34834401E-08
   12.1499996        -1.41440868E-08
   12.1999998        -1.48188963E-08
   12.2500000        -1.55068953E-08
   12.3000002        -1.62070179E-08
   12.3500004        -1.69181060E-08
   12.3999996        -1.76388983E-08
   12.4499998        -1.83680502E-08
   12.5000000        -1.91041138E-08
   12.5500002        -1.98455599E-08
   12.6000004        -2.05907611E-08
   12.6499996        -2.13380122E-08
   12.6999998        -2.20855192E-08
   12.7500000        -2.28314097E-08
   12.8000002        -2.35737350E-08
   12.8500004        -2.43104807E-08
   12.8999996        -2.50395615E-08
   12.9499998        -2.57588368E-08
   13.0000000        -2.64661004E-08
   13.0500002        -2.71591105E-08
   13.1000004        -2.78355792E-08
   13.1499996        -2.84931847E-08
   13.1999998        -2.91295770E-08
   13.2500000        -2.97423952E-08
   13.3000002        -3.03292609E-08
   13.3500004        -3.08877972E-08
   13.3999996        -3.14156345E-08
   13.4499998        -3.19104174E-08
   13.5000000        -3.23698153E-08
   13.5500002        -3.27915366E-08
   13.6000004        -3.31733290E-08
   13.6499996        -3.35129968E-08
   13.6999998        -3.38084050E-08
   13.7500000        -3.40574893E-08
   13.8000002        -3.42582673E-08
   13.8500004        -3.44088384E-08
   13.8999996        -3.45074227E-08
   13.9499998        -3.45523254E-08
   14.0000000        -3.45419799E-08
   14.0500002        -3.44749438E-08
   14.1000004        -3.43498989E-08
   14.1499996        -3.41656730E-08
   14.1999998        -3.39212427E-08
   14.2500000        -3.36157377E-08
   14.3000002        -3.32484511E-08
   14.3500004        -3.28188321E-08
   14.3999996        -3.23265077E-08
   14.4499998        -3.17712896E-08
   14.5000000        -3.11531529E-08
   14.5500002        -3.04722718E-08
   14.6000004        -2.97289979E-08
   14.6499996        -2.89238784E-08
   14.6999998        -2.80576469E-08
   14.7500000        -2.71312288E-08
   14.8000002        -2.61457451E-08
   14.8500004        -2.51025032E-08
   14.8999996        -2.40030023E-08
   14.9499998        -2.28489334E-08
   15.0000000        -2.16421654E-08
   15.0500002        -2.03847570E-08
   15.1000004        -1.90789464E-08
   15.1499996        -1.77271406E-08
   15.1999998        -1.63319207E-08
   15.2500000        -1.48960266E-08
   15.3000002        -1.34223566E-08
   15.3500004        -1.19139560E-08
   15.3999996        -1.03740199E-08
   15.4499998        -8.80586803E-09
   15.5000000        -7.21294846E-09
   15.5500002        -5.59882718E-09
   15.6000004        -3.96717370E-09
   15.6499996        -2.32175346E-09
   15.6999998        -6.66420585E-10
   15.7500000         9.94901383E-10
   15.8000002         2.65821964E-09
   15.8500004         4.31949410E-09
   15.8999996         5.97464078E-09
   15.9499998         7.61954766E-09
   16.0000000         9.25008603E-09
   16.0499992         1.08621228E-08
   16.1000004         1.24515296E-08
   16.1499996         1.40141969E-08
   16.2000008         1.55460516E-08
   16.2500000         1.70430550E-08
   16.2999992         1.85012325E-08
   16.3500004         1.99166674E-08
   16.3999996         2.12855298E-08
   16.4500008         2.26040733E-08
   16.5000000         2.38686546E-08
   16.5499992         2.50757406E-08
   16.6000004         2.62219277E-08
   16.6499996         2.73039369E-08
   16.7000008         2.83186381E-08
   16.7500000         2.92630524E-08
   16.7999992         3.01343626E-08
   16.8500004         3.09299182E-08
   16.8999996         3.16472537E-08
   16.9500008         3.22840883E-08
   17.0000000         3.28383365E-08
   17.0499992         3.33081118E-08
   17.1000004         3.36917374E-08
   17.1499996         3.39877424E-08
   17.2000008         3.41948798E-08
   17.2500000         3.43121229E-08
   17.2999992         3.43386617E-08
   17.3500004         3.42739277E-08
   17.3999996         3.41175621E-08
   17.4500008         3.38694619E-08
   17.5000000         3.35297337E-08
   17.5499992         3.30987255E-08
   17.6000004         3.25770131E-08
   17.6499996         3.19653992E-08
   17.7000008         3.12649213E-08
   17.7500000         3.04768264E-08
   17.7999992         2.96025959E-08
   17.8500004         2.86439157E-08
   17.8999996         2.76026864E-08
   17.9500008         2.64810147E-08
   18.0000000         2.52812047E-08
   18.0499992         2.40057521E-08
   18.1000004         2.26573302E-08
   18.1499996         2.12387992E-08
   18.2000008         1.97531733E-08
   18.2500000         1.82036359E-08
   18.2999992         1.65935106E-08
   18.3500004         1.49262664E-08
   18.3999996         1.32054900E-08
   18.4500008         1.14348930E-08
   18.5000000         9.61829016E-09
   18.5499992         7.75958853E-09
   18.6000004         5.86277871E-09
   18.6499996         3.93192545E-09
   18.7000008         1.97114747E-09
   18.7500000        -1.53854273E-11
   18.7999992        -2.02346917E-09
   18.8500004        -4.04887013E-09
   18.8999996        -6.08735240E-09
   18.9500008        -8.13467427E-09
   19.0000000        -1.01866018E-08
   19.0499992        -1.22389245E-08
   19.1000004        -1.42874592E-08
   19.1499996        -1.63280731E-08
   19.2000008        -1.83566691E-08
   19.2500000        -2.03692316E-08
   19.2999992        -2.23617924E-08
   19.3500004        -2.43304790E-08
   19.3999996        -2.62714934E-08
   19.4500008        -2.81811321E-08
   19.5000000        -3.00557943E-08
   19.5499992        -3.18919788E-08
   19.6000004        -3.36863053E-08
   19.6499996        -3.54354981E-08
   19.7000008        -3.71364024E-08
   19.7500000        -3.87859949E-08
   19.7999992        -4.03813658E-08
   19.8500004        -4.19197370E-08
   19.8999996        -4.33984724E-08
   19.9500008        -4.48150494E-08
   20.0000000        -4.61670915E-08
   20.0499992        -4.74523318E-08
   20.1000004        -4.86686602E-08
   20.1499996        -4.98140658E-08
   20.2000008        -5.08866940E-08
   20.2500000        -5.18848040E-08
   20.2999992        -5.28067723E-08
   20.3500004        -5.36511102E-08
   20.3999996        -5.44164394E-08
   20.4500008        -5.51014914E-08
   20.5000000        -5.57051223E-08
   20.5499992        -5.62262841E-08
   20.6000004        -5.66640352E-08
   20.6499996        -5.70175445E-08
   20.7000008        -5.72860657E-08
   20.7500000        -5.74689345E-08
   20.7999992        -5.75656074E-08
   20.8500004        -5.75755870E-08
   20.8999996        -5.74984753E-08
   20.9500008        -5.73339527E-08
   21.0000000        -5.70817456E-08
   21.0499992        -5.67416656E-08
   21.1000004        -5.63135956E-08
   21.1499996        -5.57974715E-08
   21.2000008        -5.51932864E-08
   21.2500000        -5.45010757E-08
   21.2999992        -5.37209282E-08
   21.3500004        -5.28529860E-08
   21.3999996        -5.18974339E-08
   21.4500008        -5.08545099E-08
   21.5000000        -4.97244770E-08
   21.5499992        -4.85076406E-08
   21.6000004        -4.72043489E-08
   21.6499996        -4.58149891E-08
   21.7000008        -4.43399699E-08
   21.7500000        -4.27797353E-08
   21.7999992        -4.11347862E-08
   21.8500004        -3.94056379E-08
   21.8999996        -3.75928444E-08
   21.9500008        -3.56970027E-08
   22.0000000        -3.37187345E-08
   22.0499992        -3.16587077E-08
   22.1000004        -2.95176168E-08
   22.1499996        -2.72962009E-08
   22.2000008        -2.49952237E-08
   22.2500000        -2.26154970E-08
   22.2999992        -2.01578878E-08
   22.3500004        -1.76232930E-08
   22.3999996        -1.50126560E-08
   22.4500008        -1.23269492E-08
   22.5000000        -9.56721991E-09
   22.5499992        -6.73453338E-09
   22.6000004        -3.83004295E-09
   22.6499996        -8.54892934E-10
   22.7000008         2.18965468E-09
   22.7500000         5.30232436E-09
   22.7999992         8.48177173E-09
   22.8500004         1.17265833E-08
   22.8999996         1.50353081E-08
   22.9500008         1.84064195E-08
   23.0000000         2.18383196E-08
   23.0499992         2.53293653E-08
   23.1000004         2.88778175E-08
   23.1499996         3.24818963E-08
   23.2000008         3.61397099E-08
   23.2500000         3.98493434E-08
   23.2999992         4.36087646E-08
   23.3500004         4.74158846E-08
   23.3999996         5.12685290E-08
   23.4500008         5.51644348E-08
   23.5000000         5.91012750E-08
   23.5499992         6.30766337E-08
   23.6000004         6.70879956E-08
   23.6499996         7.11327672E-08
   23.7000008         7.52082840E-08
   23.7500000         7.93117607E-08
   23.7999992         8.34403622E-08
   23.8500004         8.75911397E-08
   23.8999996         9.17610521E-08
   23.9500008         9.59469801E-08
   24.0000000         1.00145705E-07
   24.0499992         1.04353930E-07
   24.1000004         1.08568287E-07
   24.1499996         1.12785301E-07
   24.2000008         1.17001420E-07
   24.2500000         1.21213020E-07
   24.2999992         1.25416378E-07
   24.3500004         1.29607741E-07
   24.3999996         1.33783232E-07
   24.4500008         1.37938940E-07
   24.5000000         1.42070917E-07
   24.5499992         1.46175111E-07
   24.6000004         1.50247459E-07
   24.6499996         1.54283867E-07
   24.7000008         1.58280159E-07
   24.7500000         1.62232183E-07
   24.7999992         1.66135749E-07
   24.8500004         1.69986663E-07
   24.8999996         1.73780748E-07
   24.9500008         1.77513826E-07
   25.0000000         1.81181733E-07
   25.0499992         1.84780390E-07
   25.1000004         1.88305691E-07
   25.1499996         1.91753628E-07
   25.2000008         1.95120236E-07
   25.2500000         1.98401679E-07
   25.2999992         2.01594162E-07
   25.3500004         2.04694004E-07
   25.3999996         2.07697653E-07
   25.4500008         2.10601669E-07
   25.5000000         2.13402743E-07
   25.5499992         2.16097774E-07
   25.6000004         2.18683752E-07
   25.6499996         2.21157848E-07
   25.7000008         2.23517475E-07
   25.7500000         2.25760175E-07
   25.7999992         2.27883703E-07
   25.8500004         2.29886055E-07
   25.8999996         2.31765412E-07
   25.9500008         2.33520169E-07
   26.0000000         2.35149002E-07
   26.0499992         2.36650791E-07
   26.1000004         2.38024654E-07
   26.1499996         2.39269923E-07
   26.2000008         2.40386242E-07
   26.2500000         2.41373471E-07
   26.2999992         2.42231636E-07
   26.3500004         2.42961164E-07
   26.3999996         2.43562596E-07
   26.4500008         2.44036755E-07
   26.5000000         2.44384722E-07
   26.5499992         2.44607776E-07
   26.6000004         2.44707451E-07
   26.6499996         2.44685481E-07
   26.7000008         2.44543855E-07
   26.7500000         2.44284678E-07
   26.7999992         2.43910335E-07
   26.8500004         2.43423358E-07
   26.8999996         2.42826474E-07
   26.9500008         2.42122553E-07
   27.0000000         2.41314609E-07
   27.0499992         2.40405853E-07
   27.1000004         2.39399498E-07
   27.1499996         2.38299009E-07
   27.2000008         2.37107841E-07
   27.2500000         2.35829589E-07
   27.2999992         2.34467890E-07
   27.3500004         2.33026427E-07
   27.3999996         2.31508977E-07
   27.4500008         2.29919280E-07
   27.5000000         2.28261115E-07
   27.5499992         2.26538248E-07
   27.6000004         2.24754416E-07
   27.6499996         2.22913300E-07
   27.7000008         2.21018581E-07
   27.7500000         2.19073840E-07
   27.7999992         2.17082615E-07
   27.8500004         2.15048289E-07
   27.8999996         2.12974214E-07
   27.9500008         2.10863575E-07
   28.0000000         2.08719470E-07
   28.0499992         2.06544840E-07
   28.1000004         2.04342470E-07
   28.1499996         2.02115018E-07
   28.2000008         1.99864971E-07
   28.2500000         1.97594602E-07
   28.2999992         1.95306058E-07
   28.3500004         1.93001270E-07
   28.3999996         1.90681988E-07
   28.4500008         1.88349745E-07
   28.5000000         1.86005892E-07
   28.5499992         1.83651579E-07
   28.6000004         1.81287731E-07
   28.6499996         1.78915087E-07
   28.7000008         1.76534130E-07
   28.7500000         1.74145228E-07
   28.7999992         1.71748468E-07
   28.8500004         1.69343750E-07
   28.8999996         1.66930775E-07
   28.9500008         1.64509046E-07
   29.0000000         1.62077882E-07
   29.0499992         1.59636386E-07
   29.1000004         1.57183521E-07
   29.1499996         1.54718052E-07
   29.2000008         1.52238599E-07
   29.2500000         1.49743556E-07
   29.2999992         1.47231262E-07
   29.3500004         1.44699825E-07
   29.3999996         1.42147286E-07
   29.4500008         1.39571540E-07
   29.5000000         1.36970371E-07
   29.5499992         1.34341477E-07
   29.6000004         1.31682441E-07
   29.6499996         1.28990791E-07
   29.7000008         1.26263956E-07
   29.7500000         1.23499376E-07
   29.7999992         1.20694352E-07
   29.8500004         1.17846227E-07
   29.8999996         1.14952286E-07
   29.9500008         1.12009829E-07
   30.0000000         1.09016142E-07
   30.0499992         1.05968510E-07
   30.1000004         1.02864277E-07
   30.1499996         9.97007774E-08
   30.2000008         9.64754250E-08
   30.2500000         9.31856761E-08
   30.2999992         8.98290509E-08
   30.3500004         8.64031335E-08
   30.3999996         8.29055722E-08
   30.4500008         7.93341144E-08
   30.5000000         7.56866356E-08
   30.5499992         7.19610682E-08
   30.6000004         6.81554511E-08
   30.6499996         6.42679794E-08
   30.7000008         6.02969408E-08
   30.7500000         5.62407543E-08
   30.7999992         5.20979668E-08
   30.8500004         4.78672781E-08
   30.8999996         4.35475052E-08
   30.9500008         3.91376211E-08
   31.0000000         3.46367450E-08
   31.0499992         3.00441556E-08
   31.1000004         2.53592649E-08
   31.1499996         2.05816573E-08
   31.2000008         1.57110716E-08
   31.2500000         1.07474110E-08
   31.2999992         5.69073233E-09
   31.3500004         5.41271583E-10
   31.3999996        -4.70056705E-09
   31.4500008        -1.00342197E-08
   31.5000000        -1.54589550E-08
   31.5499992        -2.09738413E-08
   31.6000004        -2.65777960E-08
   31.6499996        -3.22695506E-08
   31.7000008        -3.80476628E-08
   31.7500000        -4.39105321E-08
   31.7999992        -4.98563431E-08
   31.8500004        -5.58831239E-08
   31.8999996        -6.19887004E-08
   31.9500008        -6.81707348E-08
   32.0000000        -7.44266941E-08
   32.0499992        -8.07538356E-08
   32.0999985        -8.71492958E-08
   32.1500015        -9.36099482E-08
   32.2000008        -1.00132553E-07
   32.2500000        -1.06713642E-07
   32.2999992        -1.13349564E-07
   32.3499985        -1.20036489E-07
   32.4000015        -1.26770388E-07
   32.4500008        -1.33547090E-07
   32.5000000        -1.40362189E-07
   32.5499992        -1.47211153E-07
   32.5999985        -1.54089250E-07
   32.6500015        -1.60991547E-07
   32.7000008        -1.67913001E-07
   32.7500000        -1.74848353E-07
   32.7999992        -1.81792217E-07
   32.8499985        -1.88739037E-07
   32.9000015        -1.95683128E-07
   32.9500008        -2.02618665E-07
   33.0000000        -2.09539678E-07
   33.0499992        -2.16440114E-07
   33.0999985        -2.23313720E-07
   33.1500015        -2.30154242E-07
   33.2000008        -2.36955273E-07
   33.2500000        -2.43710332E-07
   33.2999992        -2.50412882E-07
   33.3499985        -2.57056314E-07
   33.4000015        -2.63633950E-07
   33.4500008        -2.70139111E-07
   33.5000000        -2.76565117E-07
   33.5499992        -2.82905205E-07
   33.5999985        -2.89152723E-07
   33.6500015        -2.95300907E-07
   33.7000008        -3.01343107E-07
   33.7500000        -3.07272757E-07
   33.7999992        -3.13083262E-07
   33.8499985        -3.18768173E-07
   33.9000015        -3.24321064E-07
   33.9500008        -3.29735656E-07
   34.0000000        -3.35005808E-07
   34.0499992        -3.40125382E-07
   34.0999985        -3.45088552E-07
   34.1500015        -3.49889547E-07
   34.2000008        -3.54522768E-07
   34.2500000        -3.58982788E-07
   34.2999992        -3.63264462E-07
   34.3499985        -3.67362702E-07
   34.4000015        -3.71272790E-07
   34.4500008        -3.74990066E-07
   34.5000000        -3.78510265E-07
   34.5499992        -3.81829210E-07
   34.5999985        -3.84943121E-07
   34.6500015        -3.87848360E-07
   34.7000008        -3.90541601E-07
   34.7500000        -3.93019747E-07
   34.7999992        -3.95280040E-07
   34.8499985        -3.97319923E-07
   34.9000015        -3.99137150E-07
   34.9500008        -4.00729760E-07
   35.0000000        -4.02096106E-07
   35.0499992        -4.03234793E-07
   35.0999985        -4.04144657E-07
   35.1500015        -4.04824902E-07
   35.2000008        -4.05275017E-07
   35.2500000        -4.05494717E-07
   35.2999992        -4.05484030E-07
   35.3499985        -4.05243298E-07
   35.4000015        -4.04773118E-07
   35.4500008        -4.04074285E-07
   35.5000000        -4.03148022E-07
   35.5499992        -4.01995692E-07
   35.5999985        -4.00618944E-07
   35.6500015        -3.99019768E-07
   35.7000008        -3.97200267E-07
   35.7500000        -3.95162914E-07
   35.7999992        -3.92910380E-07
   35.8499985        -3.90445507E-07
   35.9000015        -3.87771451E-07
   35.9500008        -3.84891536E-07