  -4.50000000         0.00000000    
  -4.44999981         0.00000000    
  -4.40000010         0.00000000    
  -4.34999990         0.00000000    
  -4.30000019         0.00000000    
  -4.25000000         0.00000000    
  -4.19999981         1.94928464E-38
  -4.15000010        -1.10383655E-35
  -4.09999990        -1.34409456E-34
  -4.05000019        -8.53423592E-34
  -4.00000000        -3.76056843E-33
  -3.95000005        -1.28063571E-32
  -3.90000010        -3.52961134E-32
  -3.84999990        -7.95441158E-32
  -3.79999995        -1.42466859E-31
  -3.75000000        -1.78942613E-31
  -3.70000005        -5.41561180E-32
  -3.65000010         4.89507398E-31
  -3.59999990         1.77016547E-30
  -3.54999995         3.89288408E-30
  -3.50000000         6.19904300E-30
  -3.45000005         6.58426246E-30
  -3.40000010         1.20602721E-30
  -3.34999990        -1.45238891E-29
  -3.29999995        -4.27572848E-29
  -3.25000000        -7.77203492E-29
  -3.20000005        -9.95846073E-29
  -3.15000010        -7.17407640E-29
  -3.09999990         5.27254799E-29
  -3.04999995         3.10189194E-28
  -3.00000000         6.90666163E-28
  -2.95000005         1.09506114E-27
  -2.90000010         1.30414163E-27
  -2.84999990         9.85919650E-28
  -2.79999995        -2.32169892E-28
  -2.75000000        -2.61311157E-27
  -2.70000005        -6.09593189E-27
  -2.65000010        -1.00665908E-26
  -2.59999990        -1.31980266E-26
  -2.54999995        -1.34626571E-26
  -2.50000000        -8.41359907E-27
  -2.45000005         4.21015874E-27
  -2.40000010         2.55721018E-26
  -2.34999990         5.46333200E-26
  -2.29999995         8.70717735E-26
  -2.25000000         1.14537155E-25
  -2.20000005         1.24621016E-25
  -2.15000010         1.01942560E-25
  -2.09999990         3.06992031E-26
  -2.04999995        -1.01124160E-25
  -2.00000000        -2.95991656E-25
  -1.95000005        -5.40070594E-25
  -1.89999998        -7.96700358E-25
  -1.85000002        -1.00199939E-24
  -1.79999995        -1.06517235E-24
  -1.75000000        -8.76394390E-25
  -1.70000005        -3.24798070E-25
  -1.64999998         6.72238125E-25
  -1.60000002         2.12978008E-24
  -1.54999995         3.95091360E-24
  -1.50000000         5.88628207E-24
  -1.45000005         7.51066106E-24
  -1.39999998         8.23208619E-24
  -1.35000002         7.34849808E-24
  -1.29999995         4.16214728E-24
  -1.25000000        -1.84778558E-24
  -1.20000005        -1.08081217E-23
  -1.14999998        -2.22211578E-23
  -1.10000002        -3.47687352E-23
  -1.04999995        -4.62118063E-23
  -1.00000000        -5.34499080E-23
 -0.949999988        -5.27959392E-23
 -0.899999976        -4.04966384E-23
 -0.850000024        -1.34890119E-23
 -0.800000012         2.96691565E-23
 -0.750000000         8.78137367E-23
 -0.699999988         1.56304004E-22
 -0.649999976         2.26475907E-22
 -0.600000024         2.85635023E-22
 -0.550000012         3.17780991E-22
 -0.500000000         3.05188575E-22
 -0.449999988         2.30869269E-22
 -0.400000006         8.18003068E-23
 -0.349999994        -1.47347491E-22
 -0.300000012        -4.50406104E-22
 -0.250000000        -8.06396639E-22
 -0.200000003        -1.17737235E-21
 -0.150000006        -1.50812908E-21
 -0.100000001        -1.72844700E-21
  -5.00000007E-02    -1.75840282E-21
   0.00000000        -1.51701007E-21
   5.00000007E-02    -9.34090677E-22
  0.100000001         3.52268614E-23
  0.150000006         1.39458158E-21
  0.200000003         3.09084942E-21
  0.250000000         5.00144418E-21
  0.300000012         6.92733390E-21
  0.349999994         8.59484924E-21
  0.400000006         9.66915086E-21
  0.449999988         9.78143094E-21
  0.500000000         8.57061381E-21
  0.550000012         5.73824400E-21
  0.600000024         1.11277875E-21
  0.649999976        -5.28326720E-21
  0.699999988        -1.31726420E-20
  0.750000000        -2.19806478E-20
  0.800000012        -3.08228563E-20
  0.850000024        -3.85353268E-20
  0.899999976        -4.37565846E-20
  0.949999988        -4.50657368E-20
   1.00000000        -4.11741687E-20
   1.04999995        -3.11587531E-20
   1.10000002        -1.47151505E-20
   1.14999998         7.60043516E-21
   1.20000005         3.41806571E-20
   1.25000000         6.22717075E-20
   1.29999995         8.80172194E-20
   1.35000002         1.06679228E-19
   1.39999998         1.13059330E-19
   1.45000005         1.02123628E-19
   1.50000000         6.98079368E-20
   1.54999995         1.39467466E-20
   1.60000002        -6.47622320E-20
   1.64999998        -1.61877191E-19
   1.70000005        -2.68561246E-19
   1.75000000        -3.71320033E-19
   1.79999995        -4.52286229E-19
   1.85000002        -4.90191522E-19
   1.89999998        -4.62124870E-19
   1.95000005        -3.46112634E-19
   2.00000000        -1.24474126E-19
   2.04999995         2.12195441E-19
   2.09999990         6.60680374E-19
   2.15000010         1.20081520E-18
   2.20000005         1.79166680E-18
   2.25000000         2.36881490E-18
   2.29999995         2.84337897E-18
   2.34999990         3.10346379E-18
   2.40000010         3.01865358E-18
   2.45000005         2.44806646E-18
   2.50000000         1.25232146E-18
   2.54999995        -6.90540922E-19
   2.59999990        -3.46545353E-18
   2.65000010        -7.09774319E-18
   2.70000005        -1.15287777E-17
   2.75000000        -1.65915275E-17
   2.79999995        -2.19882838E-17
   2.84999990        -2.72732052E-17
   2.90000010        -3.18427710E-17
   2.95000005        -3.49374555E-17
   3.00000000        -3.56579695E-17
   3.04999995        -3.29992026E-17
   3.09999990        -2.59044314E-17
   3.15000010        -1.33415341E-17
   3.20000005         5.59831744E-18
   3.25000000         3.15805878E-17
   3.29999995         6.48890831E-17
   3.34999990         1.05274668E-16
   3.40000010         1.51798641E-16
   3.45000005         2.02681021E-16
   3.50000000         2.55166055E-16
   3.54999995         3.05419487E-16
   3.59999990         3.48473563E-16
   3.65000010         3.78235919E-16
   3.70000005         3.87579592E-16
   3.75000000         3.68528074E-16
   3.79999995         3.12548011E-16
   3.84999990         2.10957844E-16
   3.90000010         5.54536423E-17
   3.95000005        -1.61251647E-16
   4.00000000        -4.44688750E-16
   4.05000019        -7.97814457E-16
   4.09999990        -1.22014694E-15
   4.15000010        -1.70689516E-15
   4.19999981        -2.24813069E-15
   4.25000000        -2.82806090E-15
   4.30000019        -3.42446357E-15
   4.34999990        -4.00834964E-15
   4.40000010        -4.54391629E-15
   4.44999981        -4.98884999E-15
   4.50000000        -5.29503589E-15
   4.55000019        -5.40970128E-15
   4.59999990        -5.27702373E-15
   4.65000010        -4.84019910E-15
   4.69999981        -4.04394578E-15
   4.75000000        -2.83739054E-15
   4.80000019        -1.17726685E-15
   4.84999990         9.68692501E-16
   4.90000010         3.61829224E-15
   4.94999981         6.77150071E-15
   5.00000000         1.04073363E-14
   5.05000019         1.44811971E-14
   5.09999990         1.89228279E-14
   5.15000010         2.36350974E-14
   5.19999981         2.84937784E-14
   5.25000000         3.33484529E-14
   5.30000019         3.80246541E-14
   5.34999990         4.23273782E-14
   5.40000010         4.60459002E-14
   5.44999981         4.89599308E-14
   5.50000000         5.08470321E-14
   5.55000019         5.14910956E-14
   5.59999990         5.06917404E-14
   5.65000010         4.82743355E-14
   5.69999981         4.41003706E-14
   5.75000000         3.80778173E-14
   5.80000019         3.01711306E-14
   5.84999990         2.04105125E-14
   5.90000010         8.90004877E-15
   5.94999981        -4.17565517E-15
   6.00000000        -1.85466283E-14
   6.05000019        -3.38548227E-14
   6.09999990        -4.96537083E-14
   6.15000010        -6.54103982E-14
   6.19999981        -8.05103258E-14
   6.25000000        -9.42645755E-14
   6.30000019        -1.05919647E-13
   6.34999990        -1.14669681E-13
   6.40000010        -1.19670685E-13
   6.44999981        -1.20056783E-13
   6.50000000        -1.14957740E-13
   6.55000019        -1.03517652E-13
   6.59999990        -8.49143550E-14
   6.65000010        -5.83789405E-14
   6.69999981        -2.32151605E-14
   6.75000000         2.11817258E-14
   6.80000019         7.53070702E-14
   6.84999990         1.39530125E-13
   6.90000010         2.14078646E-13
   6.94999981         2.99025155E-13
   7.00000000         3.94274511E-13
   7.05000019         4.99552873E-13
   7.09999990         6.14398181E-13
   7.15000010         7.38150860E-13
   7.19999981         8.69945825E-13
   7.25000000         1.00870397E-12
   7.30000019         1.15312295E-12
   7.34999990         1.30166678E-12
   7.40000010         1.45255411E-12
   7.44999981         1.60374210E-12
   7.50000000         1.75290826E-12
   7.55000019         1.89742753E-12
   7.59999990         2.03434275E-12
   7.65000010         2.16033073E-12
   7.69999981         2.27165921E-12
   7.75000000         2.36413775E-12
   7.80000019         2.43305723E-12
   7.84999990         2.47312132E-12
   7.90000010         2.47836582E-12
   7.94999981         2.44206521E-12
   8.00000000         2.35662748E-12
   8.05000019         2.21347376E-12
   8.10000038         2.00290110E-12
   8.14999962         1.71393108E-12
   8.19999981         1.33413625E-12
   8.25000000         8.49451152E-13
   8.30000019         2.43959827E-13
   8.35000038        -5.00338486E-13
   8.39999962        -1.40378778E-12
   8.44999981        -2.48935768E-12
   8.50000000        -3.78295312E-12
   8.55000019        -5.31375248E-12
   8.60000038        -7.11457109E-12
   8.64999962        -9.22225577E-12
   8.69999981        -1.16781142E-11
   8.75000000        -1.45283655E-11
   8.80000019        -1.78246203E-11
   8.85000038        -2.16244071E-11
   8.89999962        -2.59916949E-11
   8.94999981        -3.09974824E-11
   9.00000000        -3.67203733E-11
   9.05000019        -4.32472044E-11
   9.10000038        -5.06736771E-11
   9.14999962        -5.91050195E-11
   9.19999981        -6.86566359E-11
   9.25000000        -7.94547969E-11
   9.30000019        -9.16373089E-11
   9.35000038        -1.05354205E-10
   9.39999962        -1.20768409E-10
   9.44999981        -1.38056386E-10
   9.50000000        -1.57408850E-10
   9.55000019        -1.79031276E-10
   9.60000038        -2.03144584E-10
   9.64999962        -2.29985656E-10
   9.69999981        -2.59807897E-10
   9.75000000        -2.92881608E-10
   9.80000019        -3.29494487E-10
   9.85000038        -3.69951875E-10
   9.89999962        -4.14577123E-10
   9.94999981        -4.63711736E-10
   10.0000000        -5.17715482E-10
   10.0500002        -5.76966253E-10
   10.1000004        -6.41860176E-10
   10.1499996        -7.12811365E-10
   10.1999998        -7.90251531E-10
   10.2500000        -8.74629369E-10
   10.3000002        -9.66410174E-10
   10.3500004        -1.06607501E-09
   10.3999996        -1.17411958E-09
   10.4499998        -1.29105360E-09
   10.5000000        -1.41739909E-09
   10.5500002        -1.55368884E-09
   10.6000004        -1.70046555E-09
   10.6499996        -1.85827898E-09
   10.6999998        -2.02768469E-09
   10.7500000        -2.20924168E-09
   10.8000002        -2.40350917E-09
   10.8500004        -2.61104582E-09
   10.8999996        -2.83240476E-09
   10.9499998        -3.06813241E-09
   11.0000000        -3.31876371E-09
   11.0500002        -3.58482044E-09
   11.1000004        -3.86680599E-09
   11.1499996        -4.16520374E-09
   11.1999998        -4.48047022E-09
   11.2500000        -4.81303486E-09
   11.3000002        -5.16329379E-09
   11.3500004        -5.53160495E-09
   11.3999996        -5.91828719E-09
   11.4499998        -6.32361186E-09
   11.5000000        -6.74780187E-09
   11.5500002        -7.19102689E-09
   11.6000004        -7.65339792E-09
   11.6499996        -8.13496470E-09
   11.6999998        -8.63570992E-09
   11.7500000        -9.15554832E-09
   11.8000002        -9.69431913E-09
   11.8500004        -1.02517861E-08
   11.8999996        -1.08276330E-08
   11.9499998        -1.14214584E-08
   12.0000000        -1.20327766E-08
   12.0500002        -1.26610118E-08
   12.1000004        -1.33054954E-08
   12.1499996        -1.39654706E-08
   12.1999998        -1.46400811E-08
   12.2500000        -1.53283786E-08
   12.3000002        -1.60293165E-08
   12.3500004        -1.67417529E-08
   12.3999996        -1.74644459E-08
   12.4499998        -1.81960615E-08
   12.5000000        -1.89351699E-08
   12.5500002        -1.96802450E-08
   12.6000004        -2.04296740E-08
   12.6499996        -2.11817497E-08
   12.6999998        -2.19346816E-08
   12.7500000        -2.26865975E-08
   12.8000002        -2.34355451E-08
   12.8500004        -2.41794975E-08
   12.8999996        -2.49163623E-08
   12.9499998        -2.56439794E-08
   13.0000000        -2.63601336E-08
   13.0500002        -2.70625602E-08
   13.1000004        -2.77489463E-08
   13.1499996        -2.84169452E-08
   13.1999998        -2.90641786E-08
   13.2500000        -2.96882501E-08
   13.3000002        -3.02867491E-08
   13.3500004        -3.08572545E-08
   13.3999996        -3.13973558E-08
   13.4499998        -3.19046549E-08
   13.5000000        -3.23767750E-08
   13.5500002        -3.28113714E-08
   13.6000004        -3.32061418E-08
   13.6499996        -3.35588304E-08
   13.6999998        -3.38672486E-08
   13.7500000        -3.41292790E-08
   13.8000002        -3.43428717E-08
   13.8500004        -3.45060798E-08
   13.8999996        -3.46170452E-08
   13.9499998        -3.46740272E-08
   14.0000000        -3.46753879E-08
   14.0500002        -3.46196245E-08
   14.1000004        -3.45053621E-08
   14.1499996        -3.43313644E-08
   14.1999998        -3.40965514E-08
   14.2500000        -3.37999921E-08
   14.3000002        -3.34409158E-08
   14.3500004        -3.30187184E-08
   14.3999996        -3.25329843E-08
   14.4499998        -3.19834541E-08
   14.5000000        -3.13700639E-08
   14.5500002        -3.06929344E-08
   14.6000004        -2.99523819E-08
   14.6499996        -2.91488984E-08
   14.6999998        -2.82831856E-08
   14.7500000        -2.73561334E-08
   14.8000002        -2.63688325E-08
   14.8500004        -2.53225600E-08
   14.8999996        -2.42187976E-08
   14.9499998        -2.30592097E-08
   15.0000000        -2.18456595E-08
   15.0500002        -2.05801953E-08
   15.1000004        -1.92650447E-08
   15.1499996        -1.79026198E-08
   15.1999998        -1.64954983E-08
   15.2500000        -1.50464334E-08
   15.3000002        -1.35583376E-08
   15.3500004        -1.20342776E-08
   15.3999996        -1.04774651E-08
   15.4499998        -8.89124685E-09
   15.5000000        -7.27910621E-09
   15.5500002        -5.64464608E-09
   15.6000004        -3.99157374E-09
   15.6499996        -2.32370190E-09
   15.6999998        -6.44932552E-10
   15.7500000         1.04075626E-09
   15.8000002         2.72931522E-09
   15.8500004         4.41664261E-09
   15.8999996         6.09858741E-09
   15.9499998         7.77096787E-09
   16.0000000         9.42958334E-09
   16.0499992         1.10702221E-08
   16.1000004         1.26886786E-08
   16.1499996         1.42807615E-08
   16.2000008         1.58423088E-08
   16.2500000         1.73692012E-08
   16.2999992         1.88573690E-08
   16.3500004         2.03028101E-08
   16.3999996         2.17015952E-08
   16.4500008         2.30498891E-08
   16.5000000         2.43439526E-08
   16.5499992         2.55801602E-08
   16.6000004         2.67550053E-08
   16.6499996         2.78651182E-08
   16.7000008         2.89072712E-08
   16.7500000         2.98783860E-08
   16.7999992         3.07755528E-08
   16.8500004         3.15960307E-08
   16.8999996         3.23372547E-08
   16.9500008         3.29968479E-08
   17.0000000         3.35726398E-08
   17.0499992         3.40626514E-08
   17.1000004         3.44651170E-08
   17.1499996         3.47784841E-08
   17.2000008         3.50014204E-08
   17.2500000         3.51328211E-08
   17.2999992         3.51718050E-08
   17.3500004         3.51177221E-08
   17.3999996         3.49701637E-08
   17.4500008         3.47289486E-08
   17.5000000         3.43941373E-08
   17.5499992         3.39660247E-08
   17.6000004         3.34451364E-08
   17.6499996         3.28322436E-08
   17.7000008         3.21283480E-08
   17.7500000         3.13346789E-08
   17.7999992         3.04526928E-08
   17.8500004         2.94840632E-08
   17.8999996         2.84306942E-08
   17.9500008         2.72946910E-08
   18.0000000         2.60783697E-08
   18.0499992         2.47842404E-08
   18.1000004         2.34150104E-08
   18.1499996         2.19735661E-08
   18.2000008         2.04629735E-08
   18.2500000         1.88864533E-08
   18.2999992         1.72473982E-08
   18.3500004         1.55493343E-08
   18.3999996         1.37959271E-08
   18.4500008         1.19909656E-08
   18.5000000         1.01383471E-08
   18.5499992         8.24208080E-09
   18.6000004         6.30625774E-09
   18.6499996         4.33504788E-09
   18.7000008         2.33268893E-09
   18.7500000         3.03463338E-10
   18.7999992        -1.74829651E-09
   18.8500004        -3.81823462E-09
   18.8999996        -5.90198068E-09
   18.9500008        -7.99515476E-09
   19.0000000        -1.00933892E-08
   19.0499992        -1.21923378E-08
   19.1000004        -1.42876830E-08
   19.1499996        -1.63751483E-08
   19.2000008        -1.84505122E-08
   19.2500000        -2.05096136E-08
   19.2999992        -2.25483614E-08
   19.3500004        -2.45627483E-08
   19.3999996        -2.65488591E-08
   19.4500008        -2.85028694E-08
   19.5000000        -3.04210594E-08
   19.5499992        -3.22998268E-08
   19.6000004        -3.41356845E-08
   19.6499996        -3.59252610E-08
   19.7000008        -3.76653162E-08
   19.7500000        -3.93527451E-08
   19.7999992        -4.09845597E-08
   19.8500004        -4.25579287E-08
   19.8999996        -4.40701413E-08
   19.9500008        -4.55186431E-08
   20.0000000        -4.69010111E-08
   20.0499992        -4.82149503E-08
   20.1000004        -4.94583290E-08
   20.1499996        -5.06291329E-08
   20.2000008        -5.17254932E-08
   20.2500000        -5.27456869E-08
   20.2999992        -5.36881046E-08
   20.3500004        -5.45512719E-08
   20.3999996        -5.53338424E-08
   20.4500008        -5.60345939E-08
   20.5000000        -5.66524143E-08
   20.5499992        -5.71863019E-08
   20.6000004        -5.76353720E-08
   20.6499996        -5.79988502E-08
   20.7000008        -5.82760400E-08
   20.7500000        -5.84663589E-08
   20.7999992        -5.85693165E-08
   20.8500004        -5.85844830E-08
   20.8999996        -5.85115352E-08
   20.9500008        -5.83502171E-08
   21.0000000        -5.81003370E-08
   21.0499992        -5.77617598E-08
   21.1000004        -5.73344536E-08
   21.1499996        -5.68183935E-08
   21.2000008        -5.62136364E-08
   21.2500000        -5.55202853E-08
   21.2999992        -5.47384822E-08
   21.3500004        -5.38684191E-08
   21.3999996        -5.29103197E-08
   21.4500008        -5.18644612E-08
   21.5000000        -5.07311420E-08
   21.5499992        -4.95106853E-08
   21.6000004        -4.82034750E-08
   21.6499996        -4.68099088E-08
   21.7000008        -4.53304132E-08
   21.7500000        -4.37654570E-08
   21.7999992        -4.21155200E-08
   21.8500004        -4.03811242E-08
   21.8999996        -3.85628312E-08
   21.9500008        -3.66612021E-08
   22.0000000        -3.46768623E-08
   22.0499992        -3.26104583E-08
   22.1000004        -3.04626617E-08
   22.1499996        -2.82341972E-08
   22.2000008        -2.59258179E-08
   22.2500000        -2.35383002E-08
   22.2999992        -2.10724718E-08
   22.3500004        -1.85292137E-08
   22.3999996        -1.59094320E-08
   22.4500008        -1.32140867E-08
   22.5000000        -1.04441780E-08
   22.5499992        -7.60074759E-09
   22.6000004        -4.68492756E-09
   22.6499996        -1.69786507E-09
   22.7000008         1.35923450E-09
   22.7500000         4.48507897E-09
   22.7999992         7.67835751E-09
   22.8500004         1.09376623E-08
   22.8999996         1.42615360E-08
   22.9500008         1.76484534E-08
   23.0000000         2.10968150E-08
   23.0499992         2.46049741E-08
   23.1000004         2.81711721E-08
   23.1499996         3.17935971E-08
   23.2000008         3.54703786E-08
   23.2500000         3.91995414E-08
   23.2999992         4.29790639E-08
   23.3500004         4.68068251E-08
   23.3999996         5.06806082E-08
   23.4500008         5.45981393E-08
   23.5000000         5.85570525E-08
   23.5499992         6.25548822E-08
   23.6000004         6.65891022E-08
   23.6499996         7.06570660E-08
   23.7000008         7.47560662E-08
   23.7500000         7.88833034E-08
   23.7999992         8.30358786E-08
   23.8500004         8.72108075E-08
   23.8999996         9.14050275E-08
   23.9500008         9.56153627E-08
   24.0000000         9.98385659E-08
   24.0499992         1.04071312E-07
   24.1000004         1.08310168E-07
   24.1499996         1.12551660E-07
   24.2000008         1.16792172E-07
   24.2500000         1.21028037E-07
   24.2999992         1.25255539E-07
   24.3500004         1.29470862E-07
   24.3999996         1.33670113E-07
   24.4500008         1.37849369E-07
   24.5000000         1.42004595E-07
   24.5499992         1.46131768E-07
   24.6000004         1.50226768E-07
   24.6499996         1.54285459E-07
   24.7000008         1.58303649E-07
   24.7500000         1.62277146E-07
   24.7999992         1.66201730E-07
   24.8500004         1.70073150E-07
   24.8999996         1.73887159E-07
   24.9500008         1.77639521E-07
   25.0000000         1.81326044E-07
   25.0499992         1.84942550E-07
   25.1000004         1.88484847E-07
   25.1499996         1.91948885E-07
   25.2000008         1.95330614E-07
   25.2500000         1.98626068E-07
   25.2999992         2.01831384E-07
   25.3500004         2.04942779E-07
   25.3999996         2.07956589E-07
   25.4500008         2.10869274E-07
   25.5000000         2.13677396E-07
   25.5499992         2.16377714E-07
   25.6000004         2.18967116E-07
   25.6499996         2.21442647E-07
   25.7000008         2.23801536E-07
   25.7500000         2.26041223E-07
   25.7999992         2.28159337E-07
   25.8500004         2.30153717E-07
   25.8999996         2.32022387E-07
   25.9500008         2.33763657E-07
   26.0000000         2.35376035E-07
   26.0499992         2.36858284E-07
   26.1000004         2.38209381E-07
   26.1499996         2.39428601E-07
   26.2000008         2.40515419E-07
   26.2500000         2.41469621E-07
   26.2999992         2.42291236E-07
   26.3500004         2.42980491E-07
   26.3999996         2.43537926E-07
   26.4500008         2.43964394E-07
   26.5000000         2.44260889E-07
   26.5499992         2.44428719E-07
   26.6000004         2.44469419E-07
   26.6499996         2.44384808E-07
   26.7000008         2.44176846E-07
   26.7500000         2.43847808E-07
   26.7999992         2.43400137E-07
   26.8500004         2.42836506E-07
   26.8999996         2.42159729E-07
   26.9500008         2.41372845E-07
   27.0000000         2.40479096E-07
   27.0499992         2.39481835E-07
   27.1000004         2.38384573E-07
   27.1499996         2.37190932E-07
   27.2000008         2.35904650E-07
   27.2500000         2.34529622E-07
   27.2999992         2.33069755E-07
   27.3500004         2.31529043E-07
   27.3999996         2.29911549E-07
   27.4500008         2.28221353E-07
   27.5000000         2.26462532E-07
   27.5499992         2.24639194E-07
   27.6000004         2.22755432E-07
   27.6499996         2.20815267E-07
   27.7000008         2.18822720E-07
   27.7500000         2.16781700E-07
   27.7999992         2.14696044E-07
   27.8500004         2.12569489E-07
   27.8999996         2.10405673E-07
   27.9500008         2.08208093E-07
   28.0000000         2.05980115E-07
   28.0499992         2.03724923E-07
   28.1000004         2.01445587E-07
   28.1499996         1.99144978E-07
   28.2000008         1.96825738E-07
   28.2500000         1.94490383E-07
   28.2999992         1.92141172E-07
   28.3500004         1.89780181E-07
   28.3999996         1.87409299E-07
   28.4500008         1.85030117E-07
   28.5000000         1.82644072E-07
   28.5499992         1.80252329E-07
   28.6000004         1.77855824E-07
   28.6499996         1.75455284E-07
   28.7000008         1.73051177E-07
   28.7500000         1.70643744E-07
   28.7999992         1.68233029E-07
   28.8500004         1.65818804E-07
   28.8999996         1.63400628E-07
   28.9500008         1.60977848E-07
   29.0000000         1.58549597E-07
   29.0499992         1.56114794E-07
   29.1000004         1.53672190E-07
   29.1499996         1.51220334E-07
   29.2000008         1.48757550E-07
   29.2500000         1.46282062E-07
   29.2999992         1.43791880E-07
   29.3500004         1.41284943E-07
   29.3999996         1.38758992E-07
   29.4500008         1.36211668E-07
   29.5000000         1.33640484E-07
   29.5499992         1.31042924E-07
   29.6000004         1.28416318E-07
   29.6499996         1.25757936E-07
   29.7000008         1.23065035E-07
   29.7500000         1.20334832E-07
   29.7999992         1.17564440E-07
   29.8500004         1.14751053E-07
   29.8999996         1.11891815E-07
   29.9500008         1.08983897E-07
   30.0000000         1.06024466E-07
   30.0499992         1.03010770E-07
   30.1000004         9.99400882E-08
   30.1499996         9.68097496E-08
   30.2000008         9.36171816E-08
   30.2500000         9.03598760E-08
   30.2999992         8.70354171E-08
   30.3500004         8.36415026E-08
   30.3999996         8.01759299E-08
   30.4500008         7.66366099E-08
   30.5000000         7.30215817E-08
   30.5499992         6.93290332E-08
   30.6000004         6.55572663E-08
   30.6499996         6.17047320E-08
   30.7000008         5.77700234E-08
   30.7500000         5.37518794E-08
   30.7999992         4.96492056E-08
   30.8500004         4.54610536E-08
   30.8999996         4.11866203E-08
   30.9500008         3.68252664E-08
   31.0000000         3.23765050E-08
   31.0499992         2.78400183E-08
   31.1000004         2.32156143E-08
   31.1499996         1.85032860E-08
   31.2000008         1.37031728E-08
   31.2500000         8.81556161E-09
   31.2999992         3.84089738E-09
   31.3500004        -1.22023081E-09
   31.3999996        -6.36708064E-09
   31.4500008        -1.15987744E-08
   31.5000000        -1.69142673E-08
   31.5499992        -2.23123973E-08
   31.6000004        -2.77918470E-08
   31.6499996        -3.33511352E-08
   31.7000008        -3.89886843E-08
   31.7500000        -4.47027482E-08
   31.7999992        -5.04914652E-08
   31.8500004        -5.63528282E-08
   31.8999996        -6.22846912E-08
   31.9500008        -6.82847840E-08
   32.0000000        -7.43507158E-08
   32.0499992        -8.04799356E-08
   32.0999985        -8.66697718E-08
   32.1500015        -9.29174035E-08
   32.2000008        -9.92199176E-08
   32.2500000        -1.05574244E-07
   32.2999992        -1.11977172E-07
   32.3499985        -1.18425334E-07
   32.4000015        -1.24915260E-07
   32.4500008        -1.31443343E-07
   32.5000000        -1.38005831E-07
   32.5499992        -1.44598786E-07
   32.5999985        -1.51218202E-07
   32.6500015        -1.57859901E-07
   32.7000008        -1.64519534E-07
   32.7500000        -1.71192653E-07
   32.7999992        -1.77874654E-07
   32.8499985        -1.84560832E-07
   32.9000015        -1.91246272E-07
   32.9500008        -1.97925985E-07
   33.0000000        -2.04594841E-07
   33.0499992        -2.11247539E-07
   33.0999985        -2.17878721E-07
   33.1500015        -2.24482875E-07
   33.2000008        -2.31054386E-07
   33.2500000        -2.37587528E-07
   33.2999992        -2.44076489E-07
   33.3499985        -2.50515313E-07
   33.4000015        -2.56898034E-07
   33.4500008        -2.63218567E-07
   33.5000000        -2.69470775E-07
   33.5499992        -2.75648461E-07
   33.5999985        -2.81745372E-07
   33.6500015        -2.87755228E-07
   33.7000008        -2.93671746E-07
   33.7500000        -2.99488590E-07
   33.7999992        -3.05199421E-07
   33.8499985        -3.10797930E-07
   33.9000015        -3.16277834E-07
   33.9500008        -3.21632882E-07
   34.0000000        -3.26856906E-07
   34.0499992        -3.31943710E-07
   34.0999985        -3.36887297E-07
   34.1500015        -3.41681641E-07
   34.2000008        -3.46320917E-07
   34.2500000        -3.50799411E-07
   34.2999992        -3.55111496E-07
   34.3499985        -3.59251743E-07
   34.4000015        -3.63214895E-07
   34.4500008        -3.66995778E-07
   34.5000000        -3.70589532E-07
   34.5499992        -3.73991440E-07
   34.5999985        -3.77197011E-07
   34.6500015        -3.80201982E-07
   34.7000008        -3.83002345E-07
   34.7500000        -3.85594291E-07
   34.7999992        -3.87974353E-07
   34.8499985        -3.90139206E-07
   34.9000015        -3.92085951E-07
   34.9500008        -3.93811831E-07
   35.0000000        -3.95314487E-07
   35.0499992        -3.96591787E-07
   35.0999985        -3.97641998E-07
   35.1500015        -3.98463612E-07
   35.2000008        -3.99055438E-07
   35.2500000        -3.99416621E-07
   35.2999992        -3.99546678E-07
   35.3499985        -3.99445355E-07
   35.4000015        -3.99112764E-07
   35.4500008        -3.98549361E-07
   35.5000000        -3.97755855E-07
   35.5499992        -3.96733327E-07
   35.5999985        -3.95483198E-07
   35.6500015        -3.94007117E-07
   35.7000008        -3.92307101E-07
   35.7500000        -3.90385424E-07
   35.7999992        -3.88244700E-07
   35.8499985        -3.85887802E-07
   35.9000015        -3.83317854E-07
   35.9500008        -3.80538296E-07