  -3.00000000         0.00000000    
  -2.80999994         0.00000000    
  -2.61999989         0.00000000    
  -2.43000007         0.00000000    
  -2.24000001         0.00000000    
  -2.04999995         0.00000000    
  -1.86000001        -2.68799999E-22
  -1.66999996        -5.09548199E-23
  -1.48000002         1.27283532E-20
  -1.28999996         6.80190424E-20
  -1.10000002         1.29964589E-19
 -0.910000026        -1.28857188E-19
 -0.720000029        -1.28517387E-18
 -0.529999971        -2.94226055E-18
 -0.340000004        -1.68405887E-18
 -0.150000006         7.48949014E-18
   3.99999991E-02     2.03987834E-17
  0.230000004         8.57909049E-18
  0.419999987        -7.31652171E-17
  0.610000014        -2.26154303E-16
  0.800000012        -3.18436266E-16
  0.990000010        -8.48286622E-17
   1.17999995         6.53311430E-16
   1.37000000         1.61694174E-15
   1.55999994         1.93943948E-15
   1.75000000         7.30211698E-16
   1.94000006        -1.78546011E-15
   2.13000011        -3.59699614E-15
   2.31999993        -1.99667625E-15
   2.50999999         3.61809912E-15
   2.70000005         9.45201694E-15
   2.89000010         8.37705420E-15
   3.07999992        -5.41647161E-15
   3.26999998        -3.18524300E-14
   3.46000004        -6.43910855E-14
   3.65000010        -9.18187848E-14
   3.83999991        -9.56439450E-14
   4.03000021        -4.21263468E-14
   4.21999979         1.14597107E-13
   4.40999985         3.92194659E-13
   4.59999990         7.01859523E-13
   4.78999996         7.91720747E-13
   4.98000002         3.16051276E-13
   5.17000008        -9.12050925E-13
   5.36000013        -2.58433249E-12
   5.55000019        -3.74777683E-12
   5.73999977        -3.11811623E-12
   5.92999983         1.30040198E-13
   6.11999989         5.49455837E-12
   6.30999994         1.08330307E-11
   6.50000000         1.30211545E-11
   6.69000006         9.38491992E-12
   6.88000011        -8.46207110E-13
   7.07000017        -1.58239342E-11
   7.26000023        -3.12849573E-11
   7.44999981        -4.12643288E-11
   7.63999987        -3.89872162E-11
   7.82999992        -1.83629362E-11
   8.02000046         2.30113706E-11
   8.21000004         7.93532184E-11
   8.39999962         1.33021663E-10
   8.59000015         1.55857771E-10
   8.77999973         1.18701007E-10
   8.97000027         7.53206438E-12
   9.15999985        -1.61252137E-10
   9.35000038        -3.36532385E-10
   9.53999996        -4.45296883E-10
   9.72999954        -4.19674101E-10
   9.92000008        -2.26683824E-10
   10.1099997         1.12778419E-10
   10.3000002         5.23345478E-10
   10.4899998         8.91507923E-10
   10.6800003         1.09184006E-09
   10.8699999         1.01690645E-09
   11.0600004         6.08190165E-10
   11.2500000        -1.14583773E-10
   11.4399996        -1.03386399E-09
   11.6300001        -1.93810545E-09
   11.8199997        -2.55965449E-09
   12.0100002        -2.64311883E-09
   12.1999998        -2.02327666E-09
   12.3900003        -6.84552526E-10
   12.5799999         1.21592070E-09
   12.7700005         3.36013017E-09
   12.9600000         5.30227240E-09
   13.1499996         6.51575593E-09
   13.3400002         6.46501785E-09
   13.5299997         4.72249129E-09
   13.7200003         1.13459009E-09
   13.9099998        -3.99924716E-09
   14.1000004        -9.80967840E-09
   14.2900000        -1.48885180E-08
   14.4799995        -1.75226536E-08
   14.6700001        -1.61235523E-08
   14.8599997        -9.77341141E-09
   15.0500002         1.25336053E-09
   15.2399998         1.51738426E-08
   15.4300003         2.87673423E-08
   15.6199999         3.79524465E-08
   15.8100004         3.88468564E-08
   16.0000000         2.90839335E-08
   16.1900005         8.97370978E-09
   16.3799992        -1.79634583E-08
   16.5699997        -4.54230467E-08
   16.7600002        -6.57178845E-08
   16.9500008        -7.18070581E-08
   17.1399994        -5.93625344E-08
   17.3299999        -2.82752008E-08
   17.5200005         1.67923844E-08
   17.7099991         6.69063880E-08
   17.8999996         1.10284759E-07
   18.0900002         1.34417434E-07
   18.2800007         1.28657661E-07
   18.4699993         8.70439507E-08
   18.6599998         1.09817488E-08
   18.8500004        -8.88220200E-08
   19.0400009        -1.92012720E-07
   19.2299995        -2.70721216E-07
   19.4200001        -2.94776299E-07
   19.6100006        -2.39911202E-07
   19.7999992        -9.79294512E-08
   19.9899998         1.13149383E-07
   20.1800003         3.41512504E-07
   20.3700008         4.99001942E-07
   20.5599995         4.65210974E-07
   20.7500000         9.85149384E-08
   20.9400005        -7.47134379E-07
   21.1299992        -2.20195147E-06
   21.3199997        -4.35952370E-06
   21.5100002        -7.25854079E-06
   21.7000008        -1.08699332E-05
   21.8899994        -1.50919532E-05
   22.0799999        -1.97550853E-05
   22.2700005        -2.46376057E-05
   22.4599991        -2.94909823E-05
   22.6499996        -3.40721926E-05
   22.8400002        -3.81781429E-05
   23.0300007        -4.16760486E-05
   23.2199993        -4.45237456E-05
   23.4099998        -4.67751888E-05
   23.6000004        -4.85694145E-05
   23.7900009        -5.01043214E-05
   23.9799995        -5.15998690E-05
   24.1700001        -5.32571794E-05
   24.3600006        -5.52211168E-05
   24.5499992        -5.75523663E-05
   24.7399998        -6.02135769E-05
   24.9300003        -6.30706927E-05
   25.1200008        -6.59089637E-05
   25.3099995        -6.84604820E-05
   25.5000000        -7.04394624E-05
   25.6900005        -7.15797505E-05
   25.8799992        -7.16691866E-05
   26.0699997        -7.05756102E-05
   26.2600002        -6.82598402E-05
   26.4500008        -6.47738198E-05
   26.6399994        -6.02451000E-05
   26.8299999        -5.48513926E-05
   27.0200005        -4.87912985E-05
   27.2099991        -4.22575249E-05
   27.3999996        -3.54179720E-05
   27.5900002        -2.84071702E-05
   27.7800007        -2.13283765E-05
   27.9699993        -1.42630342E-05
   28.1599998        -7.28358646E-06
   28.3500004        -4.65469981E-07
   28.5400009         6.10519737E-06
   28.7299995         1.23298432E-05
   28.9200001         1.81013274E-05
   29.1100006         2.33122282E-05
   29.2999992         2.78654552E-05
   29.4899998         3.16855767E-05
   29.6800003         3.47294299E-05
   29.8700008         3.69947957E-05
   30.0599995         3.85260682E-05
   30.2500000         3.94153212E-05
   30.4400005         3.97974763E-05
   30.6299992         3.98389238E-05
   30.8199997         3.97208241E-05
   31.0100002         3.96199393E-05
   31.2000008         3.96907308E-05
   31.3899994         4.00519275E-05
   31.5799999         4.07791304E-05
   31.7700005         4.19030475E-05
   31.9599991         4.34115318E-05
   32.1500015         4.52533022E-05
   32.3400002         4.73422842E-05
   32.5299988         4.95630702E-05
   32.7200012         5.17791523E-05
   32.9099998         5.38453060E-05
   33.0999985         5.56238483E-05
   33.2900009         5.70021948E-05
   33.4799995         5.79077387E-05
   33.6699982         5.83162946E-05
   33.8600006         5.82526081E-05
   34.0499992         5.77840656E-05
   34.2400017         5.70112679E-05
   34.4300003         5.60589579E-05
   34.6199989         5.50693439E-05
   34.8100014         5.41970003E-05
   35.0000000         5.36019543E-05
   35.1899986         5.34377868E-05
   35.3800011         5.38331951E-05
   35.5699997         5.48695898E-05
   35.7599983         5.65605114E-05
   35.9500008         5.88397306E-05
   36.1399994         6.15626632E-05
   36.3300018         6.45212640E-05
   36.5200005         6.74681069E-05
   36.7099991         7.01429817E-05
   36.9000015         7.22958503E-05
   37.0900002         7.37037190E-05
   37.2799988         7.41822660E-05
   37.4700012         7.35960057E-05
   37.6599998         7.18704032E-05
   37.8499985         6.90073575E-05
   38.0400009         6.51019436E-05
   38.2299995         6.03558037E-05
   38.4199982         5.50819168E-05
   38.6100006         4.96964531E-05
   38.7999992         4.46963095E-05
   38.9900017         4.06238105E-05
   39.1800003         3.80231322E-05
   39.3699989         3.73941730E-05
   39.5600014         3.91498252E-05
   39.7500000         4.35810871E-05
   39.9399986         5.08327757E-05
   40.1300011         6.08912560E-05
   40.3199997         7.35845242E-05
   40.5099983         8.85943446E-05
   40.7000008         1.05479259E-04
   40.8899994         1.23706341E-04
   41.0800018         1.42687655E-04
   41.2700005         1.61817166E-04
   41.4599991         1.80501709E-04
   41.6500015         1.98180729E-04
   41.8400002         2.14329964E-04
   42.0299988         2.28448145E-04
   42.2200012         2.40030058E-04
   42.4099998         2.48534750E-04
   42.5999985         2.53361737E-04
   42.7900009         2.53848120E-04
   42.9799995         2.49297038E-04
   43.1699982         2.39039233E-04
   43.3600006         2.22519884E-04
   43.5499992         1.99395057E-04
   43.7400017         1.69616498E-04
   43.9300003         1.33486406E-04
   44.1199989         9.16700083E-05
   44.3100014         4.51642627E-05
   44.5000000        -4.77006461E-06
   44.6899986        -5.66968047E-05
   44.8800011        -1.09094966E-04
   45.0699997        -1.60433920E-04
   45.2599983        -2.09223988E-04
   45.4500008        -2.54042301E-04
   45.6399994        -2.93543650E-04
   45.8300018        -3.26470676E-04
   46.0200005        -3.51676310E-04
   46.2099991        -3.68165347E-04
   46.4000015        -3.75153584E-04
   46.5900002        -3.72134731E-04
   46.7799988        -3.58941994E-04
   46.9700012        -3.35792545E-04
   47.1599998        -3.03306151E-04
   47.3499985        -2.62496964E-04
   47.5400009        -2.14741478E-04
   47.7299995        -1.61728050E-04
   47.9199982        -1.05390201E-04
   48.1100006        -4.78225156E-05
   48.2999992         8.82207587E-06
   48.4900017         6.24528329E-05
   48.6800003         1.11171263E-04
   48.8699989         1.53395042E-04
   49.0600014         1.87955869E-04
   49.2500000         2.14153071E-04
   49.4399986         2.31753525E-04
   49.6300011         2.40942667E-04
   49.8199997         2.42243521E-04
   50.0099983         2.36427542E-04
   50.2000008         2.24437128E-04
   50.3899994         2.07329766E-04
   50.5800018         1.86241596E-04
   50.7700005         1.62360389E-04
   50.9599991         1.36896633E-04
   51.1500015         1.11045214E-04
   51.3400002         8.59362190E-05
   51.5299988         6.25810571E-05
   51.7200012         4.18241034E-05
   51.9099998         2.43094764E-05
   52.0999985         1.04667160E-05
   52.2900009         5.10229597E-07
   52.4799995        -5.55728002E-06
   52.6699982        -7.94559946E-06
   52.8600006        -7.08284642E-06
   53.0499992        -3.61885509E-06
   53.2400017         1.58634191E-06
   53.4300003         7.50138588E-06
   53.6199989         1.29980817E-05
   53.8100014         1.69600971E-05
   54.0000000         1.84131932E-05
   54.1899986         1.66543141E-05
   54.3800011         1.13524384E-05
   54.5699997         2.59918738E-06
   54.7599983        -9.10266590E-06
   54.9500008        -2.29112138E-05
   55.1399994        -3.77657743E-05
   55.3300018        -5.25344258E-05
   55.5200005        -6.61624799E-05
   55.7099991        -7.77963141E-05
   55.9000015        -8.68640709E-05
   56.0900002        -9.31061222E-05
   56.2799988        -9.65583095E-05
   56.4700012        -9.74967770E-05
   56.6599998        -9.63552593E-05
   56.8499985        -9.36277575E-05
   57.0400009        -8.97718055E-05
   57.2299995        -8.51284130E-05
   57.4199982        -7.98706606E-05
   57.6100006        -7.39877578E-05
   57.7999992        -6.73059185E-05
   57.9900017        -5.95450947E-05
   58.1800003        -5.04070704E-05
   58.3699989        -3.96831638E-05
   58.5600014        -2.73621717E-05
   58.7500000        -1.37156539E-05
   58.9399986         6.58750309E-07
   59.1300011         1.48471008E-05
   59.3199997         2.76853116E-05
   59.5099983         3.78773402E-05
   59.7000008         4.41526390E-05
   59.8899994         4.54400179E-05
   60.0800018         4.10287248E-05
   60.2700005         3.06894726E-05
   60.4599991         1.47384335E-05
   60.6500015        -5.96106929E-06
   60.8400002        -3.00556185E-05
   61.0299988        -5.58089960E-05
   61.2200012        -8.12472645E-05
   61.4099998        -1.04325693E-04
   61.5999985        -1.23101941E-04
   61.7900009        -1.35904105E-04
   61.9799995        -1.41486438E-04
   62.1699982        -1.39163982E-04
   62.3600006        -1.28910950E-04
   62.5499992        -1.11401925E-04
   62.7400017        -8.79786166E-05
   62.9300003        -6.05350178E-05
   63.1199989        -3.13276978E-05
   63.3100014        -2.73132923E-06
   63.5000000         2.30293099E-05
   63.6899986         4.41297561E-05
   63.8800011         5.93361947E-05
   64.0699997         6.81034726E-05
   64.2600021         7.05704006E-05
   64.4499969         6.74641633E-05
   64.6399994         5.99409359E-05
   64.8300018         4.93945918E-05
   65.0199966         3.72646609E-05
   65.2099991         2.48707547E-05
   65.4000015         1.32927207E-05
   65.5899963         3.30366129E-06
   65.7799988        -4.64945333E-06
   65.9700012        -1.04286328E-05
   66.1600037        -1.41609189E-05
   66.3499985        -1.61739572E-05
   66.5400009        -1.69173818E-05
   66.7300034        -1.68797724E-05
   66.9199982        -1.65120236E-05
   67.1100006        -1.61660028E-05
   67.3000031        -1.60542877E-05
   67.4899979        -1.62359629E-05
   67.6800003        -1.66323134E-05
   67.8700027        -1.70710537E-05
   68.0599976        -1.73486842E-05
   68.2500000        -1.72940981E-05
   68.4400024        -1.68176030E-05
   68.6299973        -1.59359570E-05
   68.8199997        -1.47701758E-05
   69.0100021        -1.35163627E-05
   69.1999969        -1.23940372E-05
   69.3899994        -1.15835865E-05
   69.5800018        -1.11704858E-05
   69.7699966        -1.11124082E-05
   69.9599991        -1.12366761E-05
   70.1500015        -1.12658272E-05
   70.3399963        -1.08651029E-05
   70.5299988        -9.70545716E-06
   70.7200012        -7.53320592E-06
   70.9100037        -4.23200845E-06
   71.0999985         1.39205255E-07
   71.2900009         5.34223091E-06
   71.4800034         1.09873108E-05
   71.6699982         1.65820056E-05
   71.8600006         2.15900927E-05
   72.0500031         2.54926581E-05
   72.2399979         2.78439729E-05
   72.4300003         2.83137815E-05
   72.6200027         2.67103969E-05
   72.8099976         2.29871075E-05
   73.0000000         1.72419132E-05
   73.1900024         9.71953159E-06
   73.3799973         8.16155364E-07
   73.5699997        -8.92101980E-06
   73.7600021        -1.88085196E-05
   73.9499969        -2.80605782E-05
   74.1399994        -3.58440520E-05
   74.3300018        -4.13538255E-05
   74.5199966        -4.39053656E-05
   74.7099991        -4.30336004E-05
   74.9000015        -3.85798376E-05
   75.0899963        -3.07468981E-05
   75.2799988        -2.01089442E-05
   75.4700012        -7.57178168E-06
   75.6600037         5.71291594E-06
   75.8499985         1.84709934E-05
   76.0400009         2.94529455E-05
   76.2300034         3.75846212E-05
   76.4199982         4.20971228E-05
   76.6100006         4.26133629E-05
   76.8000031         3.91769463E-05
   76.9899979         3.22204505E-05
   77.1800003         2.24816176E-05
   77.3700027         1.08854947E-05
   77.5599976        -1.58356261E-06
   77.7500000        -1.39948561E-05
   77.9400024        -2.55495324E-05
   78.1299973        -3.56148994E-05
   78.3199997        -4.37188537E-05
   78.5100021        -4.95196437E-05
   78.6999969        -5.27712582E-05
   78.8899994        -5.33023776E-05
   79.0800018        -5.10181380E-05
   79.2699966        -4.59228104E-05
   79.4599991        -3.81533682E-05
   79.6500015        -2.80108361E-05
   79.8399963        -1.59779302E-05
   80.0299988        -2.71491535E-06
   80.2200012         1.09695447E-05
   80.4100037         2.41703692E-05
   80.5999985         3.59533551E-05
   80.7900009         4.54286783E-05
   80.9800034         5.18242086E-05
   81.1699982         5.45565417E-05
   81.3600006         5.32979939E-05
   81.5500031         4.80331582E-05
   81.7399979         3.90931345E-05
   81.9300003         2.71554181E-05
   82.1200027         1.32025907E-05
   82.3099976        -1.56060912E-06
   82.5000000        -1.58269777E-05
   82.6900024        -2.83322825E-05
   82.8799973        -3.80074016E-05
   83.0699997        -4.41107477E-05
   83.2600021        -4.63154392E-05
   83.4499969        -4.47359744E-05
   83.6399994        -3.98935772E-05
   83.8300018        -3.26290865E-05
   84.0199966        -2.39774927E-05
   84.2099991        -1.50224978E-05
   84.4000015        -6.75497631E-06
   84.5899963         4.00575395E-08
   84.7799988         4.85188821E-06
   84.9700012         7.46621981E-06
   85.1600037         7.94904281E-06
   85.3499985         6.60092110E-06
   85.5400009         3.88836406E-06
   85.7300034         3.62232157E-07
   85.9199982        -3.42010162E-06
   86.1100006        -6.95269637E-06
   86.3000031        -9.81441372E-06
   86.4899979        -1.16861511E-05
   86.6800003        -1.23620439E-05
   86.8700027        -1.17554864E-05
   87.0599976        -9.89480213E-06
   87.2500000        -6.90867864E-06
   87.4400024        -3.01018076E-06
   87.6299973         1.51392146E-06
   87.8199997         6.31463536E-06
   88.0100021         1.10062729E-05
   88.1999969         1.52091561E-05
   88.3899994         1.85953868E-05
   88.5800018         2.09193149E-05
   88.7699966         2.20279817E-05
   88.9599991         2.18611640E-05
   89.1500015         2.04482676E-05
   89.3399963         1.78958489E-05
   89.5299988         1.43570041E-05
   89.7200012         9.98989981E-06
   89.9100037         4.92930167E-06
   90.0999985        -7.10259258E-07
   90.2900009        -6.80504854E-06
   90.4800034        -1.31889437E-05
   90.6699982        -1.96325964E-05
   90.8600006        -2.58338932E-05
   91.0500031        -3.14152821E-05
   91.2399979        -3.59369842E-05
   91.4300003        -3.89421257E-05
   91.6200027        -4.00336357E-05
   91.8099976        -3.89563393E-05
   92.0000000        -3.56504606E-05
   92.1900024        -3.02634253E-05
   92.3799973        -2.31320737E-05
   92.5699997        -1.47512292E-05
   92.7600021        -5.72980161E-06
   92.9499969         3.27215844E-06
   93.1399994         1.16198044E-05
   93.3300018         1.87713686E-05
   93.5199966         2.43191407E-05
   93.7099991         2.80061959E-05
   93.9000015         2.97350525E-05
   94.0899963         2.95748541E-05
   94.2799988         2.77543513E-05
   94.4700012         2.46260934E-05
   94.6600037         2.06062032E-05
   94.8499985         1.61119133E-05
   95.0400009         1.15157991E-05
   95.2300034         7.11758275E-06
   95.4199982         3.12536304E-06
   95.6100006        -3.54103548E-07
   95.8000031        -3.30700277E-06
   95.9899979        -5.78320169E-06
   96.1800003        -7.85995053E-06
   96.3700027        -9.61822207E-06
   96.5599976        -1.11380514E-05
   96.7500000        -1.25013503E-05
   96.9400024        -1.37882807E-05
   97.1299973        -1.50659998E-05
   97.3199997        -1.63788900E-05
   97.5100021        -1.77451893E-05
   97.6999969        -1.91546478E-05
   97.8899994        -2.05615033E-05
   98.0800018        -2.18769437E-05
   98.2699966        -2.29714642E-05
   98.4599991        -2.36899104E-05
   98.6500015        -2.38690918E-05
   98.8399963        -2.33465435E-05
   99.0299988        -2.19609556E-05
   99.2200012        -1.95560133E-05
   99.4100037        -1.59970023E-05
   99.5999985        -1.11976906E-05
   99.7900009        -5.14851581E-06
   99.9800034         2.05813808E-06
   100.169998         1.02041868E-05
   100.360001         1.89260227E-05
   100.550003         2.77110194E-05
   100.739998         3.59248697E-05
   100.930000         4.28722778E-05
   101.120003         4.78780785E-05
   101.309998         5.03707488E-05
   101.500000         4.99569760E-05
   101.690002         4.64823133E-05
   101.879997         4.00697463E-05
   102.070000         3.11223084E-05
   102.260002         2.02795472E-05
   102.449997         8.33420290E-06
   102.639999        -3.86893680E-06
   102.830002        -1.55276757E-05
   103.019997        -2.59569570E-05
   103.209999        -3.46400229E-05
   103.400002        -4.12541049E-05
   103.589996        -4.56662601E-05
   103.779999        -4.78998154E-05
   103.970001        -4.80842245E-05
   104.160004        -4.64092409E-05
   104.349998        -4.30977962E-05
   104.540001        -3.83959268E-05
   104.730003        -3.25673791E-05
   104.919998        -2.58837408E-05
   105.110001        -1.86119869E-05
   105.300003        -1.10062001E-05
   105.489998        -3.30515422E-06
   105.680000         4.26906990E-06
   105.870003         1.15142057E-05
   106.059998         1.82473486E-05
   106.250000         2.42931983E-05
   106.440002         2.94623860E-05
   106.629997         3.35339864E-05
   106.820000         3.62586507E-05
   107.010002         3.73869443E-05
   107.199997         3.67126486E-05
   107.389999         3.41168598E-05
   107.580002         2.96052476E-05
   107.769997         2.33368119E-05
   107.959999         1.56399765E-05
   108.150002         7.00536930E-06
   108.339996        -1.95298594E-06
   108.529999        -1.05633799E-05
   108.720001        -1.81709293E-05
   108.910004        -2.42028036E-05
   109.099998        -2.82174751E-05
   109.290001        -2.99413769E-05
   109.480003        -2.92951081E-05
   109.669998        -2.64037244E-05
   109.860001        -2.15842738E-05
   110.050003        -1.53123256E-05
   110.239998        -8.17793079E-06
   110.430000        -8.40068537E-07
   110.620003         6.02089085E-06
   110.809998         1.17582504E-05
   111.000000         1.58209932E-05
   111.190002         1.78122100E-05
   111.379997         1.75310979E-05
   111.570000         1.49938314E-05
   111.760002         1.04370356E-05
   111.949997         4.30651835E-06
   112.139999        -2.77269828E-06
   112.330002        -1.00510633E-05
   112.519997        -1.67320686E-05
   112.709999        -2.20606453E-05
   112.900002        -2.54076349E-05
   113.089996        -2.63410966E-05
   113.279999        -2.46802865E-05
   113.470001        -2.05264369E-05
   113.660004        -1.42606532E-05
   113.849998        -6.50193488E-06
   114.040001         1.97032614E-06
   114.230003         1.03140883E-05
   114.419998         1.77254733E-05
   114.610001         2.35312418E-05
   114.800003         2.72660182E-05
   114.989998         2.87257917E-05
   115.180000         2.79863616E-05
   115.370003         2.53791459E-05
   115.559998         2.14277898E-05
   115.750000         1.67589133E-05
   115.940002         1.20025043E-05
   116.129997         7.69457802E-06
   116.320000         4.19446860E-06
   116.510002         1.63268328E-06
   116.699997        -9.44502929E-08
   116.889999        -1.27796193E-06
   117.080002        -2.30962610E-06
   117.269997        -3.58036232E-06
   117.459999        -5.38827317E-06
   117.650002        -7.87231602E-06
   117.839996        -1.09805906E-05
   118.029999        -1.44796632E-05
   118.220001        -1.80057486E-05
   118.410004        -2.11456008E-05
   118.599998        -2.35216976E-05
   118.790001        -2.48554825E-05
   118.980003        -2.49968271E-05
   119.169998        -2.39248457E-05
   119.360001        -2.17312408E-05
   119.550003        -1.85923909E-05
   119.739998        -1.47317724E-05
   119.930000        -1.03788025E-05
   120.120003        -5.73696434E-06
   120.309998        -9.71706186E-07
   120.500000         3.78309574E-06
   120.690002         8.41087240E-06
   120.879997         1.27990170E-05
   121.070000         1.68268816E-05
   121.260002         2.03530944E-05
   121.449997         2.32073544E-05
   121.639999         2.51979018E-05
   121.830002         2.61397581E-05
   122.019997         2.58945165E-05
   122.209999         2.44039875E-05
   122.400002         2.17049037E-05
   122.589996         1.79246454E-05
   122.779999         1.32652449E-05
   122.970001         7.98159635E-06
   123.160004         2.35682296E-06
   123.349998        -3.32104491E-06
   123.540001        -8.77384355E-06
   123.730003        -1.37349798E-05
   123.919998        -1.79425515E-05
   124.110001        -2.11363331E-05
   124.300003        -2.30699407E-05
   124.489998        -2.35405896E-05
   124.680000        -2.24291962E-05
   124.870003        -1.97400295E-05
   125.059998        -1.56303722E-05
   125.250000        -1.04229384E-05
   125.440002        -4.59487774E-06
   125.629997         1.26075417E-06
   125.820000         6.50002539E-06
   126.010002         1.05112504E-05
   126.199997         1.28018137E-05
   126.389999         1.30728531E-05
   126.580002         1.12688494E-05
   126.769997         7.59391423E-06
   126.959999         2.49150776E-06
   127.150002        -3.41172108E-06
   127.339996        -9.39179608E-06
   127.529999        -1.47304445E-05
   127.720001        -1.88175291E-05
   127.910004        -2.12340892E-05
   128.100006        -2.18019068E-05
   128.289993        -2.05927136E-05
   128.479996        -1.78970458E-05
   128.669998        -1.41586952E-05
   128.860001        -9.88670035E-06
   129.050003        -5.56279474E-06
   129.240005        -1.56449994E-06
   129.429993         1.88048352E-06
   129.619995         4.70289615E-06
   129.809998         6.96779171E-06
   130.000000         8.82779295E-06
   130.190002         1.04657638E-05
   130.380005         1.20389968E-05
   130.570007         1.36356712E-05
   130.759995         1.52505345E-05
   130.949997         1.67806757E-05
   131.139999         1.80380721E-05
   131.330002         1.87748738E-05
   131.520004         1.87190162E-05
   131.710007         1.76178128E-05
   131.899994         1.52839239E-05
   132.089996         1.16357651E-05
   132.279999         6.72504211E-06
   132.470001         7.47657396E-07
   132.660004        -5.96285327E-06
   132.850006        -1.29589253E-05
   133.039993        -1.97181525E-05
   133.229996        -2.56939857E-05
   133.419998        -3.03717970E-05
   133.610001        -3.33239368E-05
   133.800003        -3.42587664E-05
   133.990005        -3.30589864E-05
   134.179993        -2.98033865E-05
   134.369995        -2.47658281E-05
   134.559998        -1.83882403E-05
   134.750000        -1.12299940E-05
   134.940002        -3.90095602E-06
   135.130005         3.01141449E-06
   135.320007         9.00889609E-06
   135.509995         1.37309771E-05
   135.699997         1.69762461E-05
   135.889999         1.86955658E-05
   136.080002         1.89645998E-05
   136.270004         1.79471044E-05
   136.460007         1.58585881E-05
   136.649994         1.29356868E-05
   136.839996         9.41433154E-06
   137.029999         5.51921994E-06
   137.220001         1.46449338E-06
   137.410004        -2.53893018E-06
   137.600006        -6.27697955E-06
   137.789993        -9.53265771E-06
   137.979996        -1.20937757E-05
   138.169998        -1.37666930E-05
   138.360001        -1.43956013E-05
   138.550003        -1.38881878E-05
   138.740005        -1.22455431E-05
   138.929993        -9.58866531E-06
   139.119995        -6.17059322E-06
   139.309998        -2.36554934E-06
   139.500000         1.36698020E-06
   139.690002         4.53896837E-06
   139.880005         6.70266081E-06
   140.070007         7.51996959E-06
   140.259995         6.81937536E-06
   140.449997         4.62814478E-06
   140.639999         1.17205889E-06
   140.830002        -3.15774469E-06
   141.020004        -7.86371129E-06
   141.210007        -1.24138442E-05
   141.399994        -1.63125787E-05
   141.589996        -1.91589515E-05
   141.779999        -2.06860495E-05
   141.970001        -2.07806297E-05
   142.160004        -1.94840995E-05
   142.350006        -1.69759278E-05
   142.539993        -1.35416631E-05
   142.729996        -9.53084691E-06
   142.919998        -5.31280648E-06
   143.110001        -1.23694247E-06
   143.300003         2.40042141E-06
   143.490005         5.38319318E-06
   143.679993         7.59527893E-06
   143.869995         9.02807278E-06
   144.059998         9.77171476E-06
   144.250000         9.99180247E-06
   144.440002         9.89777163E-06
   144.630005         9.70772817E-06
   144.820007         9.61033675E-06
   145.009995         9.72456201E-06
   145.199997         1.00647803E-05
   145.389999         1.05242261E-05
   145.580002         1.08862223E-05
   145.770004         1.08619051E-05
   145.960007         1.01445075E-05
   146.149994         8.46971034E-06
   146.339996         5.67431289E-06
   146.529999         1.74439731E-06
   146.720001        -3.15983857E-06
   146.910004        -8.71369139E-06
   147.100006        -1.44712994E-05
   147.289993        -1.99283604E-05
   147.479996        -2.45859519E-05
   147.669998        -2.80053682E-05
   147.860001        -2.98529612E-05
   148.050003        -2.99350122E-05
   148.240005        -2.82177043E-05
   148.429993        -2.48274773E-05
   148.619995        -2.00343093E-05
   148.809998        -1.42261642E-05
   149.000000        -7.87880435E-06
   149.190002        -1.51648248E-06
   149.380005         4.34199183E-06
   149.570007         9.24689448E-06
   149.759995         1.28756501E-05
   149.949997         1.50713313E-05
   150.139999         1.58581024E-05
   150.330002         1.54370664E-05
   150.520004         1.41622158E-05
   150.710007         1.24915596E-05