  -3.00000000         0.00000000    
  -2.80999994         0.00000000    
  -2.61999989         0.00000000    
  -2.43000007         0.00000000    
  -2.24000001         0.00000000    
  -2.04999995         0.00000000    
  -1.86000001        -2.80339229E-22
  -1.66999996         1.12417854E-22
  -1.48000002         1.26237528E-20
  -1.28999996         6.20308881E-20
  -1.10000002         1.14492899E-19
 -0.910000026        -9.22027080E-20
 -0.720000029        -9.92607429E-19
 -0.529999971        -2.26829323E-18
 -0.340000004        -1.34997479E-18
 -0.150000006         5.59861688E-18
   3.99999991E-02     1.58674996E-17
  0.230000004         8.01654729E-18
  0.419999987        -5.66353162E-17
  0.610000014        -1.93357386E-16
  0.800000012        -3.17612315E-16
  0.990000010        -2.04970657E-16
   1.17999995         3.92667613E-16
   1.37000000         1.43155291E-15
   1.55999994         2.25748129E-15
   1.75000000         1.72243642E-15
   1.94000006        -9.16932753E-16
   2.13000011        -4.63043774E-15
   2.31999993        -6.02823057E-15
   2.50999999        -1.11738617E-15
   2.70000005         1.03463872E-14
   2.89000010         2.04772468E-14
   3.07999992         1.37788196E-14
   3.26999998        -2.35943619E-14
   3.46000004        -8.79597976E-14
   3.65000010        -1.45796041E-13
   3.83999991        -1.38698027E-13
   4.03000021        -1.25313205E-14
   4.21999979         2.38081798E-13
   4.40999985         5.33882183E-13
   4.59999990         7.10333485E-13
   4.78999996         5.65974351E-13
   4.98000002        -4.61987795E-14
   5.17000008        -1.10546880E-12
   5.36000013        -2.32016771E-12
   5.55000019        -3.08481973E-12
   5.73999977        -2.57639483E-12
   5.92999983        -7.41034296E-14
   6.11999989         4.49008148E-12
   6.30999994         9.93181318E-12
   6.50000000         1.35724904E-11
   6.69000006         1.18351431E-11
   6.88000011         1.88804332E-12
   7.07000017        -1.60797747E-11
   7.26000023        -3.70662563E-11
   7.44999981        -5.13506113E-11
   7.63999987        -4.73678735E-11
   7.82999992        -1.69836940E-11
   8.02000046         3.86970039E-11
   8.21000004         1.05750117E-10
   8.39999962         1.58555308E-10
   8.59000015         1.66609324E-10
   8.77999973         1.05873359E-10
   8.97000027        -2.85442989E-11
   9.15999985        -2.12887610E-10
   9.35000038        -3.93172550E-10
   9.53999996        -4.95069152E-10
   9.72999954        -4.45832149E-10
   9.92000008        -2.04207748E-10
   10.1099997         2.11059240E-10
   10.3000002         7.06954384E-10
   10.4899998         1.12764453E-09
   10.6800003         1.29534750E-09
   10.8699999         1.07180598E-09
   11.0600004         4.19694002E-10
   11.2500000        -5.61294955E-10
   11.4399996        -1.64212188E-09
   11.6300001        -2.51788790E-09
   11.8199997        -2.89061863E-09
   12.0100002        -2.55353627E-09
   12.1999998        -1.45070556E-09
   12.3900003         3.00881930E-10
   12.5799999         2.42338372E-09
   12.7700005         4.51146098E-09
   12.9600000         6.07705619E-09
   13.1499996         6.60821042E-09
   13.3400002         5.65599567E-09
   13.5299997         2.96155434E-09
   13.7200003        -1.38650524E-09
   13.9099998        -6.80983225E-09
   14.1000004        -1.21899451E-08
   14.2900000        -1.59901905E-08
   14.4799995        -1.65899880E-08
   14.6700001        -1.27901503E-08
   14.8599997        -4.35393988E-09
   15.0500002         7.61522667E-09
   15.2399998         2.06506012E-08
   15.4300003         3.13516075E-08
   15.6199999         3.62107571E-08
   15.8100004         3.26282574E-08
   16.0000000         1.98156513E-08
   16.1900005        -6.93564262E-10
   16.3799992        -2.50934473E-08
   16.5699997        -4.79229492E-08
   16.7600002        -6.31223287E-08
   16.9500008        -6.53293668E-08
   17.1399994        -5.12068468E-08
   17.3299999        -2.06029274E-08
   17.5200005         2.26689991E-08
   17.7099991         7.06878183E-08
   17.8999996         1.12195394E-07
   18.0900002         1.34470881E-07
   18.2800007         1.26254875E-07
   18.4699993         8.12885901E-08
   18.6599998         1.63323233E-09
   18.8500004        -1.00322254E-07
   19.0400009        -2.02212206E-07
   19.2299995        -2.75056692E-07
   19.4200001        -2.89602070E-07
   19.6100006        -2.24836612E-07
   19.7999992        -7.72245201E-08
   19.9899998         1.31127663E-07
   20.1800003         3.47110671E-07
   20.3700008         4.85435123E-07
   20.5599995         4.32463395E-07
   20.7500000         5.52720358E-08
   20.9400005        -7.84459189E-07
   21.1299992        -2.21281925E-06
   21.3199997        -4.32416846E-06
   21.5100002        -7.16247087E-06
   21.7000008        -1.07068217E-05
   21.8899994        -1.48646623E-05
   22.0799999        -1.94755085E-05
   22.2700005        -2.43263312E-05
   22.4599991        -2.91773667E-05
   22.6499996        -3.37945894E-05
   22.8400002        -3.79831035E-05
   23.0300007        -4.16149815E-05
   23.2199993        -4.46460108E-05
   23.4099998        -4.71178791E-05
   23.6000004        -4.91455103E-05
   23.7900009        -5.08923040E-05
   23.9799995        -5.25381220E-05
   24.1700001        -5.42458838E-05
   24.3600006        -5.61323541E-05
   24.5499992        -5.82473149E-05
   24.7399998        -6.05634887E-05
   24.9300003        -6.29775604E-05
   25.1200008        -6.53216994E-05
   25.3099995        -6.73833492E-05
   25.5000000        -6.89308508E-05
   25.6900005        -6.97416108E-05
   25.8799992        -6.96294883E-05
   26.0699997        -6.84674014E-05
   26.2600002        -6.62020611E-05
   26.4500008        -6.28579801E-05
   26.6399994        -5.85304042E-05
   26.8299999        -5.33683124E-05
   27.0200005        -4.75508714E-05
   27.2099991        -4.12620029E-05
   27.3999996        -3.46683591E-05
   27.5900002        -2.79046853E-05
   27.7800007        -2.10690596E-05
   27.9699993        -1.42280305E-05
   28.1599998        -7.42938892E-06
   28.3500004        -7.18781223E-07
   28.5400009         5.84433019E-06
   28.7299995         1.21755911E-05
   28.9200001         1.81625110E-05
   29.1100006         2.36703781E-05
   29.2999992         2.85568422E-05
   29.4899998         3.26925692E-05
   29.6800003         3.59841979E-05
   29.8700008         3.83949773E-05
   30.0599995         3.99586424E-05
   30.2500000         4.07832304E-05
   30.4400005         4.10430075E-05
   30.6299992         4.09592067E-05
   30.8199997         4.07721745E-05
   31.0100002         4.07092994E-05
   31.2000008         4.09542117E-05
   31.3899994         4.16224866E-05
   31.5799999         4.27481682E-05
   31.7700005         4.42834789E-05
   31.9599991         4.61115415E-05
   32.1500015         4.80700037E-05
   32.3400002         4.99813577E-05
   32.5299988         5.16848195E-05
   32.7200012         5.30641773E-05
   32.9099998         5.40667024E-05
   33.0999985         5.47091367E-05
   33.2900009         5.50694058E-05
   33.4799995         5.52653255E-05
   33.6699982         5.54248836E-05
   33.8600006         5.56548657E-05
   34.0499992         5.60156259E-05
   34.2400017         5.65086593E-05
   34.4300003         5.70807133E-05
   34.6199989         5.76441016E-05
   34.8100014         5.81081731E-05
   35.0000000         5.84135050E-05
   35.1899986         5.85587986E-05
   35.3800011         5.86120259E-05
   35.5699997         5.87014001E-05
   35.7599983         5.89871343E-05
   35.9500008         5.96201571E-05
   36.1399994         6.06976610E-05
   36.3300018         6.22261796E-05
   36.5200005         6.41015358E-05
   36.7099991         6.61112717E-05
   36.9000015         6.79602963E-05
   37.0900002         6.93154361E-05
   37.2799988         6.98608856E-05
   37.4700012         6.93544862E-05
   37.6599998         6.76753116E-05
   37.8499985         6.48547430E-05
   38.0400009         6.10859715E-05
   38.2299995         5.67101306E-05
   38.4199982         5.21803486E-05
   38.6100006         4.80089948E-05
   38.7999992         4.47063539E-05
   38.9900017         4.27215018E-05
   39.1800003         4.23958300E-05
   39.3699989         4.39376745E-05
   39.5600014         4.74218796E-05
   39.7500000         5.28129858E-05
   39.9399986         6.00054409E-05
   40.1300011         6.88702712E-05
   40.3199997         7.92959836E-05
   40.5099983         9.12129035E-05
   40.7000008         1.04594874E-04
   40.8899994         1.19438191E-04
   41.0800018         1.35723618E-04
   41.2700005         1.53369998E-04
   41.4599991         1.72188273E-04
   41.6500015         1.91842191E-04
   41.8400002         2.11819250E-04
   42.0299988         2.31413695E-04
   42.2200012         2.49722099E-04
   42.4099998         2.65653653E-04
   42.5999985         2.77957792E-04
   42.7900009         2.85273854E-04
   42.9799995         2.86207505E-04
   43.1699982         2.79436033E-04
   43.3600006         2.63838243E-04
   43.5499992         2.38637644E-04
   43.7400017         2.03539326E-04
   43.9300003         1.58838229E-04
   44.1199989         1.05478430E-04
   44.3100014         4.50486696E-05
   44.5000000        -2.02905976E-05
   44.6899986        -8.79443032E-05
   44.8800011        -1.55069312E-04
   45.0699997        -2.18788555E-04
   45.2599983        -2.76405422E-04
   45.4500008        -3.25592904E-04
   45.6399994        -3.64536594E-04
   45.8300018        -3.92019690E-04
   46.0200005        -4.07448708E-04
   46.2099991        -4.10825334E-04
   46.4000015        -4.02675592E-04
   46.5900002        -3.83950566E-04
   46.7799988        -3.55913769E-04
   46.9700012        -3.20029125E-04
   47.1599998        -2.77860963E-04
   47.3499985        -2.30991733E-04
   47.5400009        -1.80961128E-04
   47.7299995        -1.29226493E-04
   47.9199982        -7.71445993E-05
   48.1100006        -2.59718799E-05
   48.2999992         2.31227586E-05
   48.4900017         6.90422676E-05
   48.6800003         1.10754481E-04
   48.8699989         1.47303261E-04
   49.0600014         1.77842609E-04
   49.2500000         2.01691961E-04
   49.4399986         2.18404472E-04
   49.6300011         2.27835262E-04
   49.8199997         2.30192236E-04
   50.0099983         2.26052609E-04
   50.2000008         2.16331900E-04
   50.3899994         2.02202529E-04
   50.5800018         1.84971766E-04
   50.7700005         1.65940321E-04
   50.9599991         1.46267994E-04
   51.1500015         1.26872343E-04
   51.3400002         1.08377215E-04
   51.5299988         9.11176539E-05
   51.7200012         7.51953412E-05
   51.9099998         6.05680834E-05
   52.0999985         4.71497369E-05
   52.2900009         3.48955255E-05
   52.4799995         2.38527973E-05
   52.6699982         1.41677065E-05
   52.8600006         6.05074683E-06
   53.0499992        -2.86261240E-07
   53.2400017        -4.70444911E-06
   53.4300003        -7.20560138E-06
   53.6199989        -7.97903613E-06
   53.8100014        -7.41784606E-06
   54.0000000        -6.10042980E-06
   54.1899986        -4.73976888E-06
   54.3800011        -4.10864504E-06
   54.5699997        -4.95306449E-06
   54.7599983        -7.90656759E-06
   54.9500008        -1.34165102E-05
   55.1399994        -2.16897442E-05
   55.3300018        -3.26619047E-05
   55.5200005        -4.59917937E-05
   55.7099991        -6.10799252E-05
   55.9000015        -7.71084087E-05
   56.0900002        -9.30981550E-05
   56.2799988        -1.07979220E-04
   56.4700012        -1.20670265E-04
   56.6599998        -1.30163025E-04
   56.8499985        -1.35606504E-04
   57.0400009        -1.36383460E-04
   57.2299995        -1.32170535E-04
   57.4199982        -1.22973899E-04
   57.6100006        -1.09135108E-04
   57.7999992        -9.13063705E-05
   57.9900017        -7.03997866E-05
   58.1800003        -4.75189445E-05
   58.3699989        -2.38833891E-05
   58.5600014        -7.55979556E-07
   58.7500000         2.06198856E-05
   58.9399986         3.90714158E-05
   59.1300011         5.35391118E-05
   59.3199997         6.31172807E-05
   59.5099983         6.70988156E-05
   59.7000008         6.50272123E-05
   59.8899994         5.67540155E-05
   60.0800018         4.24938917E-05
   60.2700005         2.28661156E-05
   60.4599991        -1.09091604E-06
   60.6500015        -2.79437136E-05
   60.8400002        -5.59335567E-05
   61.0299988        -8.30923527E-05
   61.2200012        -1.07396765E-04
   61.4099998        -1.26945233E-04
   61.5999985        -1.40137417E-04
   61.7900009        -1.45834070E-04
   61.9799995        -1.43476587E-04
   62.1699982        -1.33151290E-04
   62.3600006        -1.15589908E-04
   62.5499992        -9.21061292E-05
   62.7400017        -6.44758256E-05
   62.9300003        -3.47745772E-05
   63.1199989        -5.18951401E-06
   63.3100014         2.21756563E-05
   63.5000000         4.54843321E-05
   63.6899986         6.33226082E-05
   63.8800011         7.48121020E-05
   64.0699997         7.96684399E-05
   64.2600021         7.81986091E-05
   64.4499969         7.12367546E-05
   64.6399994         6.00256099E-05
   64.8300018         4.60583833E-05
   65.0199966         3.09013158E-05
   65.2099991         1.60201871E-05
   65.4000015         2.63308061E-06
   65.5899963        -8.39279801E-06
   65.7799988        -1.65896472E-05
   65.9700012        -2.18811601E-05
   66.1600037        -2.45251831E-05
   66.3499985        -2.50206704E-05
   66.5400009        -2.39966666E-05
   66.7300034        -2.21017126E-05
   66.9199982        -1.99099832E-05
   67.1100006        -1.78559039E-05
   67.3000031        -1.62034648E-05
   67.4899979        -1.50500555E-05
   67.6800003        -1.43587313E-05
   67.8700027        -1.40084821E-05
   68.0599976        -1.38500209E-05
   68.2500000        -1.37550160E-05
   68.4400024        -1.36491553E-05
   68.6299973        -1.35234914E-05
   68.8199997        -1.34233114E-05
   69.0100021        -1.34188485E-05
   69.1999969        -1.35661321E-05
   69.3899994        -1.38684882E-05
   69.5800018        -1.42482832E-05
   69.7699966        -1.45358963E-05
   69.9599991        -1.44792684E-05
   70.1500015        -1.37738980E-05
   70.3399963        -1.21102094E-05
   70.5299988        -9.23194966E-06
   70.7200012        -4.99625412E-06
   70.9100037         5.75867091E-07
   71.0999985         7.26891813E-06
   71.2900009         1.46687144E-05
   71.4800034         2.21864120E-05
   71.6699982         2.91088345E-05
   71.8600006         3.46710294E-05
   72.0500031         3.81451937E-05
   72.2399979         3.89368215E-05
   72.4300003         3.66749955E-05
   72.6200027         3.12816992E-05
   72.8099976         2.30072383E-05
   73.0000000         1.24252801E-05
   73.1900024         3.87910205E-07
   73.3799973        -1.20540017E-05
   73.5699997        -2.37577769E-05
   73.7600021        -3.36131779E-05
   73.9499969        -4.06699073E-05
   74.1399994        -4.42502169E-05
   74.3300018        -4.40288240E-05
   74.5199966        -4.00688805E-05
   74.7099991        -3.28127608E-05
   74.9000015        -2.30341484E-05
   75.0899963        -1.17596892E-05
   75.2799988        -1.66428151E-07
   75.4700012         1.05391337E-05
   75.6600037         1.92505468E-05
   75.8499985         2.50835819E-05
   76.0400009         2.74730846E-05
   76.2300034         2.62308131E-05
   76.4199982         2.15589844E-05
   76.6100006         1.40205875E-05
   76.8000031         4.47023467E-06
   76.9899979        -6.04943443E-06
   77.1800003        -1.64361536E-05
   77.3700027        -2.56638559E-05
   77.5599976        -3.29028408E-05
   77.7500000        -3.76035496E-05
   77.9400024        -3.95334609E-05
   78.1299973        -3.87686923E-05
   78.3199997        -3.56487290E-05
   78.5100021        -3.07033661E-05
   78.6999969        -2.45598403E-05
   78.8899994        -1.78411410E-05
   79.0800018        -1.10723377E-05
   79.2699966        -4.61500804E-06
   79.4599991         1.35548896E-06
   79.6500015         6.82771815E-06
   79.8399963         1.18972021E-05
   80.0299988         1.66915943E-05
   80.2200012         2.12942050E-05
   80.4100037         2.56791918E-05
   80.5999985         2.96707658E-05
   80.7900009         3.29381292E-05
   80.9800034         3.50335358E-05
   81.1699982         3.54700496E-05
   81.3600006         3.38224745E-05
   81.5500031         2.98267059E-05
   81.7399979         2.34540730E-05
   81.9300003         1.49463867E-05
   82.1200027         4.80804010E-06
   82.3099976        -6.24129962E-06
   82.5000000        -1.73461376E-05
   82.6900024        -2.76163319E-05
   82.8799973        -3.62350002E-05
   83.0699997        -4.25551661E-05
   83.2600021        -4.61684976E-05
   83.4499969        -4.69369697E-05
   83.6399994        -4.49880717E-05
   83.8300018        -4.06811596E-05
   84.0199966        -3.45543085E-05
   84.2099991        -2.72587222E-05
   84.4000015        -1.94860713E-05
   84.5899963        -1.18945700E-05
   84.7799988        -5.04206309E-06
   84.9700012         6.64799529E-07
   85.1600037         4.99870930E-06
   85.3499985         7.91538241E-06
   85.5400009         9.53534436E-06
   85.7300034         1.01084433E-05
   85.9199982         9.96594736E-06
   86.1100006         9.46534965E-06
   86.3000031         8.93447577E-06
   86.4899979         8.62331035E-06
   86.6800003         8.67217386E-06
   86.8700027         9.10160907E-06
   87.0599976         9.82415168E-06
   87.2500000         1.06730513E-05
   87.4400024         1.14404447E-05
   87.6299973         1.19176057E-05
   87.8199997         1.19312454E-05
   88.0100021         1.13705037E-05
   88.1999969         1.02001422E-05
   88.3899994         8.45676641E-06
   88.5800018         6.22903326E-06
   88.7699966         3.62749347E-06
   88.9599991         7.53836616E-07
   89.1500015        -2.32081584E-06
   89.3399963        -5.56233181E-06
   89.5299988        -8.96356414E-06
   89.7200012        -1.25214146E-05
   89.9100037        -1.62070919E-05
   90.0999985        -1.99367623E-05
   90.2900009        -2.35501557E-05
   90.4800034        -2.68039112E-05
   90.6699982        -2.93838129E-05
   90.8600006        -3.09363568E-05
   91.0500031        -3.11154727E-05
   91.2399979        -2.96371782E-05
   91.4300003        -2.63336387E-05
   91.6200027        -2.11984388E-05
   91.8099976        -1.44156493E-05
   92.0000000        -6.36623054E-06
   92.1900024         2.39282667E-06
   92.3799973         1.11774734E-05
   92.5699997         1.92492662E-05
   92.7600021         2.59018398E-05
   92.9499969         3.05478970E-05
   93.1399994         3.27928756E-05
   93.3300018         3.24840912E-05
   93.5199966         2.97289425E-05
   93.7099991         2.48808792E-05
   93.9000015         1.84967848E-05
   94.0899963         1.12727803E-05
   94.2799988         3.96704445E-06
   94.4700012        -2.68194913E-06
   94.6600037        -8.03428702E-06
   94.8499985        -1.16177489E-05
   95.0400009        -1.31806264E-05
   95.2300034        -1.27217281E-05
   95.4199982        -1.04921437E-05
   95.6100006        -6.96587404E-06
   95.8000031        -2.78068478E-06
   95.9899979         1.34469622E-06
   96.1800003         4.70621490E-06
   96.3700027         6.70903273E-06
   96.5599976         6.94620576E-06
   96.7500000         5.24927236E-06
   96.9400024         1.70361500E-06
   97.1299973        -3.37190818E-06
   97.3199997        -9.47513126E-06
   97.5100021        -1.59900646E-05
   97.6999969        -2.22638082E-05
   97.8899994        -2.76799019E-05
   98.0800018        -3.17200502E-05
   98.2699966        -3.40095794E-05
   98.4599991        -3.43446154E-05
   98.6500015        -3.27004891E-05
   98.8399963        -2.92214045E-05
   99.0299988        -2.41927901E-05
   99.2200012        -1.79996241E-05
   99.4100037        -1.10771443E-05
   99.5999985        -3.86223701E-06
   99.7900009         3.24672851E-06
   99.9800034         9.91692832E-06
   100.169998         1.58941621E-05
   100.360001         2.10038070E-05
   100.550003         2.51422316E-05
   100.739998         2.82611818E-05
   100.930000         3.03483866E-05
   101.120003         3.14088502E-05
   101.309998         3.14518511E-05
   101.500000         3.04870282E-05
   101.690002         2.85295937E-05
   101.879997         2.56116364E-05
   102.070000         2.17950437E-05
   102.260002         1.71820375E-05
   102.449997         1.19199285E-05
   102.639999         6.19694038E-06
   102.830002         2.27435052E-07
   103.019997        -5.77171522E-06
   103.209999        -1.16065403E-05
   103.400002        -1.71222036E-05
   103.589996        -2.22009003E-05
   103.779999        -2.67395899E-05
   103.970001        -3.06157890E-05
   104.160004        -3.36565608E-05
   104.349998        -3.56258824E-05
   104.540001        -3.62397986E-05
   104.730003        -3.52094394E-05
   104.919998        -3.23037093E-05
   105.110001        -2.74177055E-05
   105.300003        -2.06301938E-05
   105.489998        -1.22348047E-05
   105.680000        -2.73469391E-06
   105.870003         7.20083062E-06
   106.059998         1.68097813E-05
   106.250000         2.53263515E-05
   106.440002         3.20687941E-05
   106.629997         3.65130145E-05
   106.820000         3.83436782E-05
   107.010002         3.74793854E-05
   107.199997         3.40718361E-05
   107.389999         2.84810758E-05
   107.580002         2.12314972E-05
   107.769997         1.29551463E-05
   107.959999         4.33025571E-06
   108.150002        -3.97753411E-06
   108.339996        -1.13657961E-05
   108.529999        -1.73348017E-05
   108.720001        -2.15153741E-05
   108.910004        -2.36863470E-05
   109.099998        -2.37834574E-05
   109.290001        -2.19011472E-05
   109.480003        -1.82873082E-05
   109.669998        -1.33292770E-05
   109.860001        -7.52838650E-06
   110.050003        -1.46130594E-06
   110.239998         4.27087934E-06
   110.430000         9.10103336E-06
   110.620003         1.25538563E-05
   110.809998         1.42942090E-05
   111.000000         1.41580558E-05
   111.190002         1.21622406E-05
   111.379997         8.49384742E-06
   111.570000         3.48382719E-06
   111.760002        -2.42852184E-06
   111.949997        -8.73451336E-06
   112.139999        -1.48952358E-05
   112.330002        -2.03805066E-05
   112.519997        -2.47082844E-05
   112.709999        -2.74841532E-05
   112.900002        -2.84376802E-05
   113.089996        -2.74499453E-05
   113.279999        -2.45661231E-05
   113.470001        -1.99895621E-05
   113.660004        -1.40579723E-05
   113.849998        -7.20662001E-06
   114.040001         7.48065290E-08
   114.230003         7.28541909E-06
   114.419998         1.39525728E-05
   114.610001         1.96658766E-05
   114.800003         2.41053076E-05
   114.989998         2.70629916E-05
   115.180000         2.84575690E-05
   115.370003         2.83395329E-05
   115.559998         2.68852873E-05
   115.750000         2.43776085E-05
   115.940002         2.11710831E-05
   116.129997         1.76437861E-05
   116.320000         1.41408027E-05
   116.510002         1.09195616E-05
   116.699997         8.10909023E-06
   116.889999         5.69358281E-06
   117.080002         3.52564462E-06
   117.269997         1.36772940E-06
   117.459999        -1.04576077E-06
   117.650002        -3.93767732E-06
   117.839996        -7.42278598E-06
   118.029999        -1.14616769E-05
   118.220001        -1.58446601E-05
   118.410004        -2.02103092E-05
   118.599998        -2.40959234E-05
   118.790001        -2.70102591E-05
   118.980003        -2.85147871E-05
   119.169998        -2.82988731E-05
   119.360001        -2.62359645E-05
   119.550003        -2.24112537E-05
   119.739998        -1.71160063E-05
   119.930000        -1.08092636E-05
   120.120003        -4.05409537E-06
   120.309998         2.55978921E-06
   120.500000         8.49296430E-06
   120.690002         1.33200301E-05
   120.879997         1.67712187E-05
   121.070000         1.87475198E-05
   121.260002         1.93094384E-05
   121.449997         1.86440120E-05
   121.639999         1.70181847E-05
   121.830002         1.47283645E-05
   122.019997         1.20550230E-05
   122.209999         9.22837444E-06
   122.400002         6.40761573E-06
   122.589996         3.67457392E-06
   122.779999         1.04202445E-06
   122.970001        -1.52377140E-06
   123.160004        -4.06937397E-06
   123.349998        -6.61611375E-06
   123.540001        -9.12699034E-06
   123.730003        -1.14874119E-05
   123.919998        -1.35052733E-05
   124.110001        -1.49317202E-05
   124.300003        -1.55003709E-05
   124.489998        -1.49797606E-05
   124.680000        -1.32303721E-05
   124.870003        -1.02542299E-05
   125.059998        -6.22382595E-06
   125.250000        -1.48041750E-06
   125.440002         3.50085088E-06
   125.629997         8.17291584E-06
   125.820000         1.19938277E-05
   126.010002         1.45050035E-05
   126.199997         1.53977580E-05
   126.389999         1.45575777E-05
   126.580002         1.20785253E-05
   126.769997         8.24496419E-06
   126.959999         3.48427989E-06
   127.150002        -1.69905013E-06
   127.339996        -6.79436471E-06
   127.529999        -1.13481374E-05
   127.720001        -1.50113237E-05
   127.910004        -1.75665446E-05
   128.100006        -1.89333932E-05
   128.289993        -1.91520066E-05
   128.479996        -1.83481498E-05
   128.669998        -1.66875216E-05
   128.860001        -1.43307198E-05
   129.050003        -1.14005206E-05
   129.240005        -7.96924087E-06
   129.429993        -4.06789059E-06
   129.619995         2.86383226E-07
   129.809998         5.05182925E-06
   130.000000         1.01218875E-05
   130.190002         1.52939665E-05
   130.380005         2.02573010E-05
   130.570007         2.46064556E-05
   130.759995         2.78805746E-05
   130.949997         2.96215549E-05
   131.139999         2.94404654E-05
   131.330002         2.70813598E-05
   131.520004         2.24740452E-05
   131.710007         1.57692211E-05
   131.899994         7.34976993E-06
   132.089996        -2.18764808E-06
   132.279999        -1.20833001E-05
   132.470001        -2.14938773E-05
   132.660004        -2.95900099E-05
   132.850006        -3.56564415E-05
   133.039993        -3.91794674E-05
   133.229996        -3.99094388E-05
   133.419998        -3.78904115E-05
   133.610001        -3.34529541E-05
   133.800003        -2.71701338E-05
   133.990005        -1.97819172E-05
   134.179993        -1.20993454E-05
   134.369995        -4.90407865E-06
   134.559998         1.14114323E-06
   134.750000         5.56005944E-06
   134.940002         8.10393976E-06
   135.130005         8.76611830E-06
   135.320007         7.77112473E-06
   135.509995         5.53918881E-06
   135.699997         2.62776280E-06
   135.889999        -3.44342567E-07
   136.080002        -2.78003199E-06
   136.270004        -4.18171112E-06
   136.460007        -4.21303639E-06
   136.649994        -2.73819683E-06
   136.839996         1.63866758E-07
   137.029999         4.21112918E-06
   137.220001         8.95577159E-06
   137.410004         1.38444175E-05
   137.600006         1.82937674E-05
   137.789993         2.17695124E-05
   137.979996         2.38551020E-05
   138.169998         2.42996648E-05
   138.360001         2.30397363E-05
   138.550003         2.01938565E-05
   138.740005         1.60323398E-05
   138.929993         1.09268922E-05
   139.119995         5.28867122E-06
   139.309998        -4.93008656E-07
   139.500000        -6.09797598E-06
   139.690002        -1.12992875E-05
   139.880005        -1.59627652E-05
   140.070007        -2.00282975E-05
   140.259995        -2.34829531E-05
   140.449997        -2.63350612E-05
   140.639999        -2.85945862E-05
   140.830002        -3.02614608E-05
   141.020004        -3.13212840E-05
   141.210007        -3.17462582E-05
   141.399994        -3.14989120E-05
   141.589996        -3.05365611E-05
   141.779999        -2.88163537E-05
   141.970001        -2.63022412E-05
   142.160004        -2.29752386E-05
   142.350006        -1.88461236E-05
   142.539993        -1.39669291E-05
   142.729996        -8.43706675E-06
   142.919998        -2.40219924E-06
   143.110001         3.95246616E-06
   143.300003         1.04110231E-05
   143.490005         1.67352428E-05
   143.679993         2.26720167E-05
   143.869995         2.79605447E-05
   144.059998         3.23398126E-05
   144.250000         3.55569027E-05
   144.440002         3.73778348E-05
   144.630005         3.76038588E-05
   144.820007         3.60949380E-05
   145.009995         3.27977250E-05
   145.199997         2.77700183E-05
   145.389999         2.11927600E-05
   145.580002         1.33645644E-05
   145.770004         4.68075086E-06
   145.960007        -4.39681207E-06
   146.149994        -1.33735693E-05
   146.339996        -2.17582910E-05
   146.529999        -2.91016768E-05
   146.720001        -3.50353694E-05
   146.910004        -3.93044429E-05
   147.100006        -4.17843294E-05
   147.289993        -4.24769787E-05
   147.479996        -4.14886417E-05
   147.669998        -3.89976885E-05
   147.860001        -3.52216521E-05
   148.050003        -3.03896450E-05
   148.240005        -2.47224762E-05
   148.429993        -1.84219261E-05
   148.619995        -1.16710962E-05
   148.809998        -4.64654022E-06
   149.000000         2.46185186E-06
   149.190002         9.43256782E-06
   149.380005         1.60067175E-05
   149.570007         2.19009435E-05
   149.759995         2.68363838E-05
   149.949997         3.05742506E-05
   150.139999         3.29476097E-05
   150.330002         3.38832688E-05
   150.520004         3.34126562E-05
   150.710007         3.16722071E-05