  -3.00000000         0.00000000    
  -2.80999994         0.00000000    
  -2.61999989         0.00000000    
  -2.43000007         0.00000000    
  -2.24000001         0.00000000    
  -2.04999995         0.00000000    
  -1.86000001         1.79290666E-22
  -1.66999996         4.67649013E-22
  -1.48000002        -1.37098936E-21
  -1.28999996        -4.94716206E-21
  -1.10000002         1.29882042E-20
 -0.910000026         6.02189619E-20
 -0.720000029        -2.07110361E-19
 -0.529999971        -2.22305224E-18
 -0.340000004        -8.65482963E-18
 -0.150000006        -2.02103186E-17
   3.99999991E-02    -2.70218747E-17
  0.230000004         9.72231661E-21
  0.419999987         9.97200507E-17
  0.610000014         2.72496905E-16
  0.800000012         4.05255423E-16
  0.990000010         2.49702136E-16
   1.17999995        -4.21878709E-16
   1.37000000        -1.44800801E-15
   1.55999994        -1.93150257E-15
   1.75000000        -4.36316677E-16
   1.94000006         3.84156038E-15
   2.13000011         9.28544961E-15
   2.31999993         1.10162471E-14
   2.50999999         3.07483188E-15
   2.70000005        -1.58217403E-14
   2.89000010        -3.60785247E-14
   3.07999992        -3.71966015E-14
   3.26999998         2.37645390E-16
   3.46000004         7.23963532E-14
   3.65000010         1.33630317E-13
   3.83999991         1.02513355E-13
   4.03000021        -9.36140203E-14
   4.21999979        -4.45572941E-13
   4.40999985        -8.00002751E-13
   4.59999990        -8.61214691E-13
   4.78999996        -2.93818355E-13
   4.98000002         1.08316199E-12
   5.17000008         3.07350846E-12
   5.36000013         4.95096932E-12
   5.55000019         5.48174613E-12
   5.73999977         3.21068346E-12
   5.92999983        -2.94011408E-12
   6.11999989        -1.27994551E-11
   6.30999994        -2.40179369E-11
   6.50000000        -3.15571111E-11
   6.69000006        -2.82894194E-11
   6.88000011        -7.32681277E-12
   7.07000017         3.39096320E-11
   7.26000023         8.90009455E-11
   7.44999981         1.39579293E-10
   7.63999987         1.57013361E-10
   7.82999992         1.10699838E-10
   8.02000046        -1.76807926E-11
   8.21000004        -2.18138604E-10
   8.39999962        -4.41682690E-10
   8.59000015        -6.02566830E-10
   8.77999973        -5.98122774E-10
   8.97000027        -3.44779594E-10
   9.15999985         1.78505113E-10
   9.35000038         8.94245844E-10
   9.53999996         1.61489488E-09
   9.72999954         2.06933404E-09
   9.92000008         1.97142436E-09
   10.1099997         1.12038989E-09
   10.3000002        -4.92768215E-10
   10.4899998        -2.61015343E-09
   10.6800003        -4.70180916E-09
   10.8699999        -6.05574346E-09
   11.0600004        -5.96044458E-09
   11.2500000        -3.94186772E-09
   11.4399996         1.31145650E-11
   11.6300001         5.32529976E-09
   11.8199997         1.08453833E-08
   12.0100002         1.50499062E-08
   12.1999998         1.63792002E-08
   12.3900003         1.36429552E-08
   12.5799999         6.40023456E-09
   12.7700005        -4.77135531E-09
   12.9600000        -1.81785875E-08
   13.1499996        -3.11239781E-08
   13.3400002        -4.02453466E-08
   13.5299997        -4.20894963E-08
   13.7200003        -3.38966970E-08
   13.9099998        -1.45108201E-08
   14.1000004         1.47634491E-08
   14.2900000         4.96289729E-08
   14.4799995         8.29022966E-08
   14.6700001         1.05497705E-07
   14.8599997         1.08321160E-07
   15.0500002         8.47967030E-08
   15.2399998         3.34313413E-08
   15.4300003        -4.03690557E-08
   15.6199999        -1.23981451E-07
   15.8100004        -1.99186829E-07
   16.0000000        -2.45660345E-07
   16.1900005        -2.45695531E-07
   16.3799992        -1.89094592E-07
   16.5699997        -7.69985675E-08
   16.7600002         7.64020172E-08
   16.9500008         2.44903759E-07
   17.1399994         3.94134020E-07
   17.3299999         4.87699424E-07
   17.5200005         4.94674111E-07
   17.7099991         3.97138876E-07
   17.8999996         1.96301428E-07
   18.0900002        -8.42857375E-08
   18.2800007        -3.99671052E-07
   18.4699993        -6.89324281E-07
   18.6599998        -8.87617716E-07
   18.8500004        -9.37545053E-07
   19.0400009        -8.05028037E-07
   19.2299995        -4.90320133E-07
   19.4200001        -3.29693606E-08
   19.6100006         4.92236154E-07
   19.7999992         9.89025693E-07
   19.9899998         1.36142967E-06
   20.1800003         1.53972201E-06
   20.3700008         1.50529127E-06
   20.5599995         1.30905539E-06
   20.7500000         1.07909545E-06
   20.9400005         1.01508908E-06
   21.1299992         1.36934841E-06
   21.3199997         2.41634257E-06
   21.5100002         4.41425755E-06
   21.7000008         7.56342797E-06
   21.8899994         1.19674078E-05
   22.0799999         1.76030262E-05
   22.2700005         2.43056802E-05
   22.4599991         3.17750128E-05
   22.6499996         3.96034848E-05
   22.8400002         4.73265682E-05
   23.0300007         5.44883260E-05
   23.2199993         6.07120382E-05
   23.4099998         6.57626224E-05
   23.6000004         6.95878334E-05
   23.7900009         7.23288322E-05
   23.9799995         7.42966877E-05
   24.1700001         7.59190298E-05
   24.3600006         7.76678062E-05
   24.5499992         7.99827176E-05
   24.7399998         8.32051592E-05
   24.9300003         8.75333644E-05
   25.1200008         9.30028982E-05
   25.3099995         9.94900256E-05
   25.5000000         1.06730789E-04
   25.6900005         1.14347415E-04
   25.8799992         1.21876146E-04
   26.0699997         1.28795014E-04
   26.2600002         1.34554502E-04
   26.4500008         1.38615054E-04
   26.6399994         1.40494856E-04
   26.8299999         1.39825468E-04
   27.0200005         1.36408446E-04
   27.2099991         1.30261862E-04
   27.3999996         1.21645222E-04
   27.5900002         1.11055306E-04
   27.7800007         9.91905908E-05
   27.9699993         8.68891220E-05
   28.1599998         7.50489926E-05
   28.3500004         6.45421896E-05
   28.5400009         5.61316629E-05
   28.7299995         5.03988558E-05
   28.9200001         4.76863461E-05
   29.1100006         4.80587987E-05
   29.2999992         5.12853658E-05
   29.4899998         5.68469259E-05
   29.6800003         6.39710634E-05
   29.8700008         7.16957511E-05
   30.0599995         7.89591140E-05
   30.2500000         8.47080737E-05
   30.4400005         8.80148873E-05
   30.6299992         8.81876113E-05
   30.8199997         8.48600030E-05
   31.0100002         7.80483606E-05
   31.2000008         6.81658566E-05
   31.3899994         5.59907458E-05
   31.5799999         4.25903891E-05
   31.7700005         2.92094355E-05
   31.9599991         1.71354441E-05
   32.1500015         7.55833935E-06
   32.3400002         1.44047203E-06
   32.5299988        -5.88103603E-07
   32.7200012         1.70122996E-06
   32.9099998         8.10766323E-06
   33.0999985         1.80155075E-05
   33.2900009         3.04496916E-05
   33.4799995         4.41686934E-05
   33.6699982         5.77890278E-05
   33.8600006         6.99321463E-05
   34.0499992         7.93791842E-05
   34.2400017         8.52139201E-05
   34.4300003         8.69311625E-05
   34.6199989         8.44895840E-05
   34.8100014         7.82964344E-05
   35.0000000         6.91249224E-05
   35.1899986         5.79806365E-05
   35.3800011         4.59457042E-05
   35.5699997         3.40343613E-05
   35.7599983         2.30890546E-05
   35.9500008         1.37330389E-05
   36.1399994         6.37811354E-06
   36.3300018         1.27025385E-06
   36.5200005        -1.45289357E-06
   36.7099991        -1.71795864E-06
   36.9000015         4.99073963E-07
   37.0900002         5.15726606E-06
   37.2799988         1.21165540E-05
   37.4700012         2.11044771E-05
   37.6599998         3.17024678E-05
   37.8499985         4.33623172E-05
   38.0400009         5.54520811E-05
   38.2299995         6.73200702E-05
   38.4199982         7.83604482E-05
   38.6100006         8.80647785E-05
   38.7999992         9.60498874E-05
   38.9900017         1.02060672E-04
   39.1800003         1.05953273E-04
   39.3699989         1.07667744E-04
   39.5600014         1.07199332E-04
   39.7500000         1.04575352E-04
   39.9399986         9.98414398E-05
   40.1300011         9.30585375E-05
   40.3199997         8.43099406E-05
   40.5099983         7.37165828E-05
   40.7000008         6.14567907E-05
   40.8899994         4.77859212E-05
   41.0800018         3.30499679E-05
   41.2700005         1.76879566E-05
   41.4599991         2.21981077E-06
   41.6500015        -1.27802514E-05
   41.8400002        -2.67210489E-05
   42.0299988        -3.90359564E-05
   42.2200012        -4.92209911E-05
   42.4099998        -5.68633623E-05
   42.5999985        -6.16577163E-05
   42.7900009        -6.34121825E-05
   42.9799995        -6.20502760E-05
   43.1699982        -5.76168677E-05
   43.3600006        -5.02945950E-05
   43.5499992        -4.04320090E-05
   43.7400017        -2.85767164E-05
   43.9300003        -1.54989611E-05
   44.1199989        -2.18700893E-06
   44.3100014         1.02023823E-05
   44.5000000         2.04453281E-05
   44.6899986         2.73961105E-05
   44.8800011         3.01526707E-05
   45.0699997         2.82074761E-05
   45.2599983         2.15473974E-05
   45.4500008         1.06755724E-05
   45.6399994        -3.45386275E-06
   45.8300018        -1.95761240E-05
   46.0200005        -3.63011895E-05
   46.2099991        -5.23046983E-05
   46.4000015        -6.64861509E-05
   46.5900002        -7.80673799E-05
   46.7799988        -8.66210976E-05
   46.9700012        -9.20371094E-05
   47.1599998        -9.44463973E-05
   47.3499985        -9.41297330E-05
   47.5400009        -9.14341435E-05
   47.7299995        -8.67130802E-05
   47.9199982        -8.02949507E-05
   48.1100006        -7.24750134E-05
   48.2999992        -6.35196047E-05
   48.4900017        -5.36714324E-05
   48.6800003        -4.31479057E-05
   48.8699989        -3.21316438E-05
   49.0600014        -2.07582889E-05
   49.2500000        -9.11079678E-06
   49.4399986         2.77118556E-06
   49.6300011         1.48630334E-05
   49.8199997         2.71113913E-05
   50.0099983         3.93855844E-05
   50.2000008         5.14387903E-05
   50.3899994         6.28933631E-05
   50.5800018         7.32594126E-05
   50.7700005         8.19874476E-05
   50.9599991         8.85469854E-05
   51.1500015         9.25154091E-05
   51.3400002         9.36588476E-05
   51.5299988         9.19876038E-05
   51.7200012         8.77751081E-05
   51.9099998         8.15367603E-05
   52.0999985         7.39735478E-05
   52.2900009         6.58908393E-05
   52.4799995         5.81060522E-05
   52.6699982         5.13585146E-05
   52.8600006         4.62330972E-05
   53.0499992         4.31056178E-05
   53.2400017         4.21146542E-05
   53.4300003         4.31612061E-05
   53.6199989         4.59348630E-05
   53.8100014         4.99630878E-05
   54.0000000         5.46782067E-05
   54.1899986         5.94946650E-05
   54.3800011         6.38869096E-05
   54.5699997         6.74565817E-05
   54.7599983         6.99775264E-05
   54.9500008         7.14095586E-05
   55.1399994         7.18768133E-05
   55.3300018         7.16134964E-05
   55.5200005         7.08867519E-05
   55.7099991         6.99122102E-05
   55.9000015         6.87803185E-05
   56.0900002         6.74108087E-05
   56.2799988         6.55476106E-05
   56.4700012         6.27986810E-05
   56.6599998         5.87153154E-05
   56.8499985         5.28966848E-05
   57.0400009         4.50992738E-05
   57.2299995         3.53293835E-05
   57.4199982         2.38995526E-05
   57.6100006         1.14361974E-05
   57.7999992        -1.16575882E-06
   57.9900017        -1.28365800E-05
   58.1800003        -2.24604828E-05
   58.3699989        -2.90199205E-05
   58.5600014        -3.17330305E-05
   58.7500000        -3.01628570E-05
   58.9399986        -2.42820206E-05
   59.1300011        -1.44838368E-05
   59.3199997        -1.53919291E-06
   59.5099983         1.34935462E-05
   59.7000008         2.93918929E-05
   59.8899994         4.49075342E-05
   60.0800018         5.88994480E-05
   60.2700005         7.04430495E-05
   60.4599991         7.89012192E-05
   60.6500015         8.39502463E-05
   60.8400002         8.55618782E-05
   61.0299988         8.39505738E-05
   61.2200012         7.95005253E-05
   61.4099998         7.26895450E-05
   61.5999985         6.40251164E-05
   61.7900009         5.40027831E-05
   61.9799995         4.30898363E-05
   62.1699982         3.17300801E-05
   62.3600006         2.03603904E-05
   62.5499992         9.42808856E-06
   62.7400017        -6.00758938E-07
   62.9300003        -9.24884807E-06
   63.1199989        -1.60533036E-05
   63.3100014        -2.06072509E-05
   63.5000000        -2.26105512E-05
   63.6899986        -2.19198300E-05
   63.8800011        -1.85869212E-05
   64.0699997        -1.28762849E-05
   64.2600021        -5.25563883E-06
   64.4499969         3.64140146E-06
   64.6399994         1.30771914E-05
   64.8300018         2.22887702E-05
   65.0199966         3.05726244E-05
   65.2099991         3.73631592E-05
   65.4000015         4.22931807E-05
   65.5899963         4.52274326E-05
   65.7799988         4.62643839E-05
   65.9700012         4.57056594E-05
   66.1600037         4.39961987E-05
   66.3499985         4.16418115E-05
   66.5400009         3.91151079E-05
   66.7300034         3.67651155E-05
   66.9199982         3.47489076E-05
   67.1100006         3.30025105E-05
   67.3000031         3.12619632E-05
   67.4899979         2.91345532E-05
   67.6800003         2.62076519E-05
   67.8700027         2.21719820E-05
   68.0599976         1.69310006E-05
   68.2500000         1.06694961E-05
   68.4400024         3.86346801E-06
   68.6299973        -2.77297022E-06
   68.8199997        -8.39265886E-06
   69.0100021        -1.21497660E-05
   69.1999969        -1.33360436E-05
   69.3899994        -1.14944332E-05
   69.5800018        -6.49360027E-06
   69.7699966         1.44373087E-06
   69.9599991         1.17584486E-05
   70.1500015         2.36139858E-05
   70.3399963         3.59889818E-05
   70.5299988         4.77935973E-05
   70.7200012         5.79966691E-05
   70.9100037         6.57479395E-05
   71.0999985         7.04784034E-05
   71.2900009         7.19625023E-05
   71.4800034         7.03305050E-05
   71.6699982         6.60276637E-05
   71.8600006         5.97274375E-05
   72.0500031         5.22167938E-05
   72.2399979         4.42777346E-05
   72.4300003         3.65885899E-05
   72.6200027         2.96608505E-05
   72.8099976         2.38158282E-05
   73.0000000         1.91951240E-05
   73.1900024         1.57923878E-05
   73.3799973         1.34933161E-05
   73.5699997         1.21141920E-05
   73.7600021         1.14344775E-05
   73.9499969         1.12237667E-05
   74.1399994         1.12657644E-05
   74.3300018         1.13814858E-05
   74.5199966         1.14508566E-05
   74.7099991         1.14284730E-05
   74.9000015         1.13476199E-05
   75.0899963         1.13082997E-05
   75.2799988         1.14493741E-05
   75.4700012         1.19098377E-05
   75.6600037         1.27874864E-05
   75.8499985         1.41038463E-05
   76.0400009         1.57827526E-05
   76.2300034         1.76474405E-05
   76.4199982         1.94382519E-05
   76.6100006         2.08500005E-05
   76.8000031         2.15844047E-05
   76.9899979         2.14095417E-05
   77.1800003         2.02153624E-05
   77.3700027         1.80535208E-05
   77.5599976         1.51513113E-05
   77.7500000         1.18938733E-05
   77.9400024         8.77534330E-06
   78.1299973         6.32699403E-06
   78.3199997         5.03651609E-06
   78.5100021         5.27501788E-06
   78.6999969         7.24587107E-06
   78.8899994         1.09630055E-05
   79.0800018         1.62581327E-05
   79.2699966         2.28099798E-05
   79.4599991         3.01859327E-05
   79.6500015         3.78875920E-05
   79.8399963         4.53951216E-05
   80.0299988         5.22089431E-05
   80.2200012         5.78894178E-05
   80.4100037         6.20946885E-05
   80.5999985         6.46145563E-05
   80.7900009         6.53945244E-05
   80.9800034         6.45423934E-05
   81.1699982         6.23105007E-05
   81.3600006         5.90519012E-05
   81.5500031         5.51556659E-05
   81.7399979         5.09740930E-05
   81.9300003         4.67586942E-05
   82.1200027         4.26215956E-05
   82.3099976         3.85337080E-05
   82.5000000         3.43618849E-05
   82.6900024         2.99365092E-05
   82.8799973         2.51315505E-05
   83.0699997         1.99344504E-05
   83.2600021         1.44849455E-05
   83.4499969         9.07045705E-06
   83.6399994         4.07808693E-06
   83.8300018        -8.44946371E-08
   84.0199966        -3.07845630E-06
   84.2099991        -4.71020439E-06
   84.4000015        -4.97514839E-06
   84.5899963        -4.05782748E-06
   84.7799988        -2.28867816E-06
   84.9700012        -6.88632369E-08
   85.1600037         2.21751134E-06
   85.3499985         4.28203384E-06
   85.5400009         5.98315683E-06
   85.7300034         7.33955858E-06
   85.9199982         8.50495690E-06
   86.1100006         9.71250665E-06
   86.3000031         1.12032176E-05
   86.4899979         1.31558145E-05
   86.6800003         1.56346741E-05
   86.8700027         1.85677382E-05
   87.0599976         2.17586585E-05
   87.2500000         2.49288114E-05
   87.4400024         2.77779327E-05
   87.6299973         3.00489028E-05
   87.8199997         3.15830403E-05
   88.0100021         3.23556233E-05
   88.1999969         3.24861394E-05
   88.3899994         3.22220221E-05
   88.5800018         3.18987040E-05
   88.7699966         3.18818675E-05
   88.9599991         3.25000037E-05
   89.1500015         3.39767284E-05
   89.3399963         3.63729123E-05
   89.5299988         3.95487696E-05
   89.7200012         4.31554436E-05
   89.9100037         4.66633355E-05
   90.0999985         4.94292872E-05
   90.2900009         5.07969926E-05
   90.4800034         5.02164003E-05
   90.6699982         4.73607688E-05
   90.8600006         4.22174235E-05
   91.0500031         3.51310846E-05
   91.2399979         2.67864616E-05
   91.4300003         1.81279302E-05
   91.6200027         1.02265885E-05
   91.8099976         4.11582687E-06
   92.0000000         6.24316726E-07
   92.1900024         2.37370315E-07
   92.3799973         3.01357386E-06
   92.5699997         8.57361647E-06
   92.7600021         1.61641656E-05
   92.9499969         2.47844109E-05
   93.1399994         3.33499593E-05
   93.3300018         4.08611631E-05
   93.5199966         4.65431694E-05
   93.7099991         4.99325251E-05
   93.9000015         5.08989142E-05
   94.0899963         4.96057546E-05
   94.2799988         4.64269760E-05
   94.4700012         4.18446798E-05
   94.6600037         3.63532708E-05
   94.8499985         3.03898269E-05
   95.0400009         2.43003524E-05
   95.2300034         1.83404918E-05
   95.4199982         1.27000785E-05
   95.6100006         7.53625864E-06
   95.8000031         3.00051533E-06
   95.9899979        -7.50222966E-07
   96.1800003        -3.56114424E-06
   96.3700027        -5.30163834E-06
   96.5599976        -5.89290767E-06
   96.7500000        -5.33026832E-06
   96.9400024        -3.69082022E-06
   97.1299973        -1.12169414E-06
   97.3199997         2.18953960E-06
   97.5100021         6.05426249E-06
   97.6999969         1.03197590E-05
   97.8899994         1.48911440E-05
   98.0800018         1.97294503E-05
   98.2699966         2.48241322E-05
   98.4599991         3.01462824E-05
   98.6500015         3.55959455E-05
   98.8399963         4.09608874E-05
   99.0299988         4.59036346E-05
   99.2200012         4.99878079E-05
   99.4100037         5.27448610E-05
   99.5999985         5.37698506E-05
   99.7900009         5.28246310E-05
   99.9800034         4.99211019E-05
   100.169998         4.53592984E-05
   100.360001         3.97043514E-05
   100.550003         3.37011043E-05
   100.739998         2.81411722E-05
   100.930000         2.37107215E-05
   101.120003         2.08541751E-05
   101.309998         1.96870151E-05
   101.500000         1.99799942E-05
   101.690002         2.12197756E-05
   101.879997         2.27318542E-05
   102.070000         2.38361390E-05
   102.260002         2.39978399E-05
   102.449997         2.29385896E-05
   102.639999         2.06839704E-05
   102.830002         1.75406785E-05
   103.019997         1.40143875E-05
   103.209999         1.06931857E-05
   103.400002         8.12756662E-06
   103.589996         6.73495879E-06
   103.779999         6.74658031E-06
   103.970001         8.20052901E-06
   104.160004         1.09721632E-05
   104.349998         1.48246518E-05
   104.540001         1.94608510E-05
   104.730003         2.45619685E-05
   104.919998         2.98066407E-05
   105.110001         3.48731046E-05
   105.300003         3.94341187E-05
   105.489998         4.31569642E-05
   105.680000         4.57187525E-05
   105.870003         4.68407488E-05
   106.059998         4.63369870E-05
   106.250000         4.41649609E-05
   106.440002         4.04616985E-05
   106.629997         3.55499869E-05
   106.820000         2.99058211E-05
   107.010002         2.40889076E-05
   107.199997         1.86492980E-05
   107.389999         1.40318707E-05
   107.580002         1.05030276E-05
   107.769997         8.11932205E-06
   107.959999         6.74690864E-06
   108.150002         6.12659460E-06
   108.339996         5.96621248E-06
   108.529999         6.03415310E-06
   108.720001         6.22756352E-06
   108.910004         6.59637954E-06
   109.099998         7.31749969E-06
   109.290001         8.62796787E-06
   109.480003         1.07375236E-05
   109.669998         1.37458801E-05
   109.860001         1.75878922E-05
   110.050003         2.20212733E-05
   110.239998         2.66600164E-05
   110.430000         3.10449796E-05
   110.620003         3.47342866E-05
   110.809998         3.73917574E-05
   111.000000         3.88525405E-05
   111.190002         3.91506110E-05
   111.379997         3.85019521E-05
   111.570000         3.72476279E-05
   111.760002         3.57704739E-05
   111.949997         3.44055443E-05
   112.139999         3.33663302E-05
   112.330002         3.27051093E-05
   112.519997         3.23172753E-05
   112.709999         3.19877618E-05
   112.900002         3.14662539E-05
   113.089996         3.05497197E-05
   113.279999         2.91492870E-05
   113.470001         2.73233145E-05
   113.660004         2.52683622E-05
   113.849998         2.32713883E-05
   114.040001         2.16365752E-05
   114.230003         2.06064160E-05
   114.419998         2.02978699E-05
   114.610001         2.06703735E-05
   114.800003         2.15343243E-05
   114.989998         2.25982239E-05
   115.180000         2.35424868E-05
   115.370003         2.41007474E-05
   115.559998         2.41270736E-05
   115.750000         2.36304295E-05
   115.940002         2.27657456E-05
   116.129997         2.17821907E-05
   116.320000         2.09416103E-05
   116.510002         2.04300450E-05
   116.699997         2.02894680E-05
   116.889999         2.03929067E-05
   117.080002         2.04741991E-05
   117.269997         2.02070551E-05
   117.459999         1.93120268E-05
   117.650002         1.76601588E-05
   117.839996         1.53413057E-05
   118.029999         1.26741143E-05
   118.220001         1.01506139E-05
   118.410004         8.32696060E-06
   118.599998         7.68784412E-06
   118.790001         8.52068752E-06
   118.980003         1.08341828E-05
   119.169998         1.43440002E-05
   119.360001         1.85302015E-05
   119.550003         2.27515284E-05
   119.739998         2.63871425E-05
   119.930000         2.89702093E-05
   120.120003         3.02811150E-05
   120.309998         3.03792949E-05
   120.500000         2.95685186E-05
   120.690002         2.83070804E-05
   120.879997         2.70877299E-05
   121.070000         2.63187139E-05
   121.260002         2.62355315E-05
   121.449997         2.68631356E-05
   121.639999         2.80334916E-05
   121.830002         2.94481088E-05
   122.019997         3.07638475E-05
   122.209999         3.16758596E-05
   122.400002         3.19752180E-05
   122.589996         3.15688958E-05
   122.779999         3.04628484E-05
   122.970001         2.87212715E-05
   123.160004         2.64218688E-05
   123.349998         2.36267788E-05
   123.540001         2.03813106E-05
   123.730003         1.67412782E-05
   123.919998         1.28184511E-05
   124.110001         8.82609038E-06
   124.300003         5.10514974E-06
   124.489998         2.11620090E-06
   124.680000         3.91078970E-07
   124.870003         4.49140089E-07
   125.059998         2.69319889E-06
   125.250000         7.30713555E-06
   125.440002         1.41792052E-05
   125.629997         2.28714289E-05
   125.820000         3.26467089E-05
   126.010002         4.25533253E-05
   126.199997         5.15538813E-05
   126.389999         5.86755341E-05
   126.580002         6.31532312E-05
   126.769997         6.45386172E-05
   126.959999         6.27548434E-05
   127.150002         5.80890846E-05
   127.339996         5.11277358E-05
   127.529999         4.26506122E-05
   127.720001         3.35070217E-05
   127.910004         2.44976200E-05
   128.100006         1.62817323E-05
   128.289993         9.32204512E-06
   128.479996         3.86941565E-06
   128.669998        -1.75431776E-08
   128.860001        -2.42908368E-06
   129.050003        -3.55048746E-06
   129.240005        -3.61017464E-06
   129.429993        -2.83870531E-06
   129.619995        -1.44293472E-06
   129.809998         4.04981506E-07
   130.000000         2.56732233E-06
   130.190002         4.93432162E-06
   130.380005         7.41630765E-06
   130.570007         9.93794220E-06
   130.759995         1.24361322E-05
   130.949997         1.48612462E-05
   131.139999         1.71795691E-05
   131.330002         1.93741162E-05
   131.520004         2.14412848E-05
   131.710007         2.33826595E-05
   131.899994         2.51939964E-05
   132.089996         2.68555759E-05
   132.279999         2.83287736E-05
   132.470001         2.95620302E-05
   132.660004         3.05060112E-05
   132.850006         3.11340118E-05
   133.039993         3.14606223E-05
   133.229996         3.15509897E-05
   133.419998         3.15147008E-05
   133.610001         3.14824902E-05
   133.800003         3.15697689E-05
   133.990005         3.18363236E-05
   134.179993         3.22544765E-05
   134.369995         3.26971822E-05
   134.559998         3.29525465E-05
   134.750000         3.27640446E-05
   134.940002         3.18884959E-05
   135.130005         3.01586861E-05
   135.320007         2.75358179E-05
   135.509995         2.41387297E-05
   135.699997         2.02416795E-05
   135.889999         1.62392789E-05
   136.080002         1.25845336E-05
   136.270004         9.71201825E-06
   136.460007         7.96161930E-06
   136.649994         7.51827292E-06
   136.839996         8.37991411E-06
   137.029999         1.03603252E-05
   137.220001         1.31266843E-05
   137.410004         1.62644956E-05
   137.600006         1.93564811E-05
   137.789993         2.20585425E-05
   137.979996         2.41563630E-05
   138.169998         2.55909508E-05
   138.360001         2.64489845E-05
   138.550003         2.69223456E-05
   138.740005         2.72478956E-05
   138.929993         2.76423598E-05
   139.119995         2.82472083E-05
   139.309998         2.90954085E-05
   139.500000         3.01063628E-05
   139.690002         3.11086333E-05
   139.880005         3.18837701E-05
   140.070007         3.22201231E-05
   140.259995         3.19641076E-05
   140.449997         3.10578289E-05
   140.639999         2.95557475E-05
   140.830002         2.76178089E-05
   141.020004         2.54814040E-05
   141.210007         2.34187464E-05
   141.399994         2.16888202E-05
   141.589996         2.04934804E-05
   141.779999         1.99453061E-05
   141.970001         2.00513878E-05
   142.160004         2.07136345E-05
   142.350006         2.17438537E-05
   142.539993         2.28906720E-05
   142.729996         2.38751782E-05
   142.919998         2.44316579E-05
   143.110001         2.43487830E-05
   143.300003         2.35054849E-05
   143.490005         2.18955010E-05
   143.679993         1.96356214E-05
   143.869995         1.69552131E-05
   144.059998         1.41678274E-05
   144.250000         1.16287847E-05
   144.440002         9.68516633E-06
   144.630005         8.62592788E-06
   144.820007         8.64010508E-06
   145.009995         9.78991466E-06
   145.199997         1.20031154E-05
   145.389999         1.50855985E-05
   145.580002         1.87514433E-05
   145.770004         2.26645479E-05
   145.960007         2.64840000E-05
   146.149994         2.99051517E-05
   146.339996         3.26897571E-05
   146.529999         3.46812849E-05
   146.720001         3.58053658E-05
   146.910004         3.60588419E-05
   147.100006         3.54939111E-05
   147.289993         3.42039020E-05
   147.479996         3.23154127E-05
   147.669998         2.99868716E-05
   147.860001         2.74094291E-05
   148.050003         2.48033430E-05
   148.240005         2.24040050E-05
   148.429993         2.04355729E-05
   148.619995         1.90757910E-05
   148.809998         1.84205983E-05
   149.000000         1.84595920E-05
   149.190002         1.90721858E-05
   149.380005         2.00491741E-05
   149.570007         2.11369152E-05
   149.759995         2.20937145E-05
   149.949997         2.27433338E-05
   150.139999         2.30108308E-05
   150.330002         2.29313719E-05
   150.520004         2.26310021E-05
   150.710007         2.22865965E-05