  -3.00000000         0.00000000    
  -2.80999994         0.00000000    
  -2.61999989         0.00000000    
  -2.43000007         0.00000000    
  -2.24000001         0.00000000    
  -2.04999995         0.00000000    
  -1.86000001         8.12707855E-23
  -1.66999996        -8.19595229E-22
  -1.48000002        -7.00713987E-21
  -1.28999996        -8.41909193E-21
  -1.10000002         8.79055823E-20
 -0.910000026         4.84846126E-19
 -0.720000029         1.11120321E-18
 -0.529999971         6.03111653E-19
 -0.340000004        -3.96420973E-18
 -0.150000006        -1.26627439E-17
   3.99999991E-02    -1.10191046E-17
  0.230000004         3.94154077E-17
  0.419999987         1.78772947E-16
  0.610000014         3.64400218E-16
  0.800000012         3.51543714E-16
  0.990000010        -3.18310270E-16
   1.17999995        -2.01391655E-15
   1.37000000        -4.36152723E-15
   1.55999994        -5.69249043E-15
   1.75000000        -3.51716688E-15
   1.94000006         3.29639579E-15
   2.13000011         1.14718814E-14
   2.31999993         1.23997009E-14
   2.50999999        -3.01893787E-15
   2.70000005        -3.34418670E-14
   2.89000010        -5.69086675E-14
   3.07999992        -3.42819272E-14
   3.26999998         6.39583736E-14
   3.46000004         2.14475695E-13
   3.65000010         3.11529340E-13
   3.83999991         1.92304844E-13
   4.03000021        -2.61910448E-13
   4.21999979        -9.80231738E-13
   4.40999985        -1.60125396E-12
   4.59999990        -1.52355570E-12
   4.78999996        -1.62843927E-13
   4.98000002         2.63820736E-12
   5.17000008         6.21427042E-12
   5.36000013         8.91824462E-12
   5.55000019         8.39156782E-12
   5.73999977         2.35606239E-12
   5.92999983        -1.01312170E-11
   6.11999989        -2.72274998E-11
   6.30999994        -4.32109418E-11
   6.50000000        -4.85960786E-11
   6.69000006        -3.23920994E-11
   6.88000011         1.30439826E-11
   7.07000017         8.53687052E-11
   7.26000023         1.66417879E-10
   7.44999981         2.21168805E-10
   7.63999987         2.05265749E-10
   7.82999992         8.21535964E-11
   8.02000046        -1.54012553E-10
   8.21000004        -4.58667132E-10
   8.39999962        -7.31910643E-10
   8.59000015        -8.37510394E-10
   8.77999973        -6.47046361E-10
   8.97000027        -9.91572588E-11
   9.15999985         7.46441020E-10
   9.35000038         1.68498315E-09
   9.53999996         2.39293163E-09
   9.72999954         2.51064325E-09
   9.92000008         1.76717474E-09
   10.1099997         1.12289567E-10
   10.3000002        -2.19255258E-09
   10.4899998        -4.57109772E-09
   10.6800003        -6.24388719E-09
   10.8699999        -6.44454712E-09
   11.0600004        -4.68721950E-09
   11.2500000        -9.97812388E-10
   11.4399996         3.98445810E-09
   11.6300001         9.09696585E-09
   11.8199997         1.29319382E-08
   12.0100002         1.42249554E-08
   12.1999998         1.22237651E-08
   12.3900003         6.90808521E-09
   12.5799999        -1.00873343E-09
   12.7700005        -1.02691038E-08
   12.9600000        -1.93406429E-08
   13.1499996        -2.66325291E-08
   13.3400002        -3.05869214E-08
   13.5299997        -2.96919307E-08
   13.7200003        -2.25692887E-08
   13.9099998        -8.30620195E-09
   14.1000004         1.29139757E-08
   14.2900000         3.90423942E-08
   14.4799995         6.56280079E-08
   14.6700001         8.59625544E-08
   14.8599997         9.22126517E-08
   15.0500002         7.74938087E-08
   15.2399998         3.84091976E-08
   15.4300003        -2.27472299E-08
   15.6199999        -9.69753131E-08
   15.8100004        -1.69320359E-07
   16.0000000        -2.21461221E-07
   16.1900005        -2.35647121E-07
   16.3799992        -1.99092412E-07
   16.5699997        -1.07812021E-07
   16.7600002         3.09696375E-08
   16.9500008         1.98379553E-07
   17.1399994         3.65605189E-07
   17.3299999         4.97622864E-07
   17.5200005         5.58589591E-07
   17.7099991         5.18361276E-07
   17.8999996         3.59410734E-07
   18.0900002         8.31940454E-08
   18.2800007        -2.85213702E-07
   18.4699993        -6.95550000E-07
   18.6599998        -1.07515757E-06
   18.8500004        -1.33706976E-06
   19.0400009        -1.39355700E-06
   19.2299995        -1.17415482E-06
   19.4200001        -6.45845887E-07
   19.6100006         1.68157058E-07
   19.7999992         1.17525201E-06
   19.9899998         2.20988704E-06
   20.1800003         3.04224977E-06
   20.3700008         3.39961798E-06
   20.5599995         2.99814656E-06
   20.7500000         1.58048272E-06
   20.9400005        -1.04688729E-06
   21.1299992        -4.98290592E-06
   21.3199997        -1.02132144E-05
   21.5100002        -1.66069640E-05
   21.7000008        -2.39304245E-05
   21.8899994        -3.18763196E-05
   22.0799999        -4.01055586E-05
   22.2700005        -4.82961223E-05
   22.4599991        -5.61920569E-05
   22.6499996        -6.36446057E-05
   22.8400002        -7.06375358E-05
   23.0300007        -7.72902858E-05
   23.2199993        -8.38358974E-05
   23.4099998        -9.05754350E-05
   23.6000004        -9.78156604E-05
   23.7900009        -1.05801118E-04
   23.9799995        -1.14653936E-04
   24.1700001        -1.24334038E-04
   24.3600006        -1.34628499E-04
   24.5499992        -1.45173006E-04
   24.7399998        -1.55501140E-04
   24.9300003        -1.65111531E-04
   25.1200008        -1.73539112E-04
   25.3099995        -1.80416668E-04
   25.5000000        -1.85515819E-04
   25.6900005        -1.88761929E-04
   25.8799992        -1.90223102E-04
   26.0699997        -1.90078732E-04
   26.2600002        -1.88575548E-04
   26.4500008        -1.85979996E-04
   26.6399994        -1.82534612E-04
   26.8299999        -1.78424059E-04
   27.0200005        -1.73755165E-04
   27.2099991        -1.68553030E-04
   27.3999996        -1.62774100E-04
   27.5900002        -1.56334034E-04
   27.7800007        -1.49145228E-04
   27.9699993        -1.41155731E-04
   28.1599998        -1.32380184E-04
   28.3500004        -1.22914629E-04
   28.5400009        -1.12931921E-04
   28.7299995        -1.02660306E-04
   28.9200001        -9.23535772E-05
   29.1100006        -8.22632719E-05
   29.2999992        -7.26216822E-05
   29.4899998        -6.36389886E-05
   29.6800003        -5.55110018E-05
   29.8700008        -4.84291049E-05
   30.0599995        -4.25829312E-05
   30.2500000        -3.81493082E-05
   30.4400005        -3.52671595E-05
   30.6299992        -3.40039478E-05
   30.8199997        -3.43232641E-05
   31.0100002        -3.60630875E-05
   31.2000008        -3.89314446E-05
   31.3899994        -4.25213839E-05
   31.5799999        -4.63428187E-05
   31.7700005        -4.98660229E-05
   31.9599991        -5.25707728E-05
   32.1500015        -5.39957873E-05
   32.3400002        -5.37842352E-05
   32.5299988        -5.17221306E-05
   32.7200012        -4.77665453E-05
   32.9099998        -4.20605247E-05
   33.0999985        -3.49313632E-05
   33.2900009        -2.68693893E-05
   33.4799995        -1.84862074E-05
   33.6699982        -1.04543933E-05
   33.8600006        -3.43446914E-06
   34.0499992         2.00128170E-06
   34.2400017         5.43644273E-06
   34.4300003         6.65829657E-06
   34.6199989         5.67772940E-06
   34.8100014         2.71843578E-06
   35.0000000        -1.82157146E-06
   35.1899986        -7.42842030E-06
   35.3800011        -1.35405717E-05
   35.5699997        -1.96163437E-05
   35.7599983        -2.51921938E-05
   35.9500008        -2.99257372E-05
   36.1399994        -3.36201556E-05
   36.3300018        -3.62289757E-05
   36.5200005        -3.78423647E-05
   36.7099991        -3.86579413E-05
   36.9000015        -3.89408669E-05
   37.0900002        -3.89789348E-05
   37.2799988        -3.90384303E-05
   37.4700012        -3.93256159E-05
   37.6599998        -3.99572345E-05
   37.8499985        -4.09421664E-05
   38.0400009        -4.21760633E-05
   38.2299995        -4.34511712E-05
   38.4199982        -4.44834041E-05
   38.6100006        -4.49575964E-05
   38.7999992        -4.45882579E-05
   38.9900017        -4.31879744E-05
   39.1800003        -4.07307452E-05
   39.3699989        -3.73949879E-05
   39.5600014        -3.35729528E-05
   39.7500000        -2.98400719E-05
   39.9399986        -2.68875647E-05
   40.1300011        -2.54315019E-05
   40.3199997        -2.61179994E-05
   40.5099983        -2.94449892E-05
   40.7000008        -3.57155732E-05
   40.8899994        -4.50283005E-05
   41.0800018        -5.72990721E-05
   41.2700005        -7.23011617E-05
   41.4599991        -8.97074278E-05
   41.6500015        -1.09122251E-04
   41.8400002        -1.30098866E-04
   42.0299988        -1.52146429E-04
   42.2200012        -1.74737768E-04
   42.4099998        -1.97327667E-04
   42.5999985        -2.19386042E-04
   42.7900009        -2.40439796E-04
   42.9799995        -2.60108878E-04
   43.1699982        -2.78118765E-04
   43.3600006        -2.94276571E-04
   43.5499992        -3.08410818E-04
   43.7400017        -3.20289546E-04
   43.9300003        -3.29542410E-04
   44.1199989        -3.35618126E-04
   44.3100014        -3.37798934E-04
   44.5000000        -3.35280871E-04
   44.6899986        -3.27307353E-04
   44.8800011        -3.13328404E-04
   45.0699997        -2.93147023E-04
   45.2599983        -2.67017516E-04
   45.4500008        -2.35669911E-04
   45.6399994        -2.00252747E-04
   45.8300018        -1.62205688E-04
   46.0200005        -1.23087608E-04
   46.2099991        -8.43956004E-05
   46.4000015        -4.74101689E-05
   46.5900002        -1.30948220E-05
   46.7799988         1.79352155E-05
   46.9700012         4.53759640E-05
   47.1599998         6.91458772E-05
   47.3499985         8.92722892E-05
   47.5400009         1.05784944E-04
   47.7299995         1.18644013E-04
   47.9199982         1.27719977E-04
   48.1100006         1.32828180E-04
   48.2999992         1.33805181E-04
   48.4900017         1.30602624E-04
   48.6800003         1.23368096E-04
   48.8699989         1.12485570E-04
   49.0600014         9.85593506E-05
   49.2500000         8.23423616E-05
   49.4399986         6.46278932E-05
   49.6300011         4.61369345E-05
   49.8199997         2.74361682E-05
   50.0099983         8.91202853E-06
   50.2000008        -9.19242484E-06
   50.3899994        -2.66941315E-05
   50.5800018        -4.33740315E-05
   50.7700005        -5.89094852E-05
   50.9599991        -7.28673112E-05
   51.1500015        -8.47693809E-05
   51.3400002        -9.42155384E-05
   51.5299988        -1.01026024E-04
   51.7200012        -1.05354673E-04
   51.9099998        -1.07729371E-04
   52.0999985        -1.08997228E-04
   52.2900009        -1.10179477E-04
   52.4799995        -1.12268033E-04
   52.6699982        -1.16012554E-04
   52.8600006        -1.21749821E-04
   53.0499992        -1.29315755E-04
   53.2400017        -1.38059258E-04
   53.4300003        -1.46952516E-04
   53.6199989        -1.54770314E-04
   53.8100014        -1.60298936E-04
   54.0000000        -1.62532204E-04
   54.1899986        -1.60820884E-04
   54.3800011        -1.54955080E-04
   54.5699997        -1.45175072E-04
   54.7599983        -1.32118395E-04
   54.9500008        -1.16720468E-04
   55.1399994        -1.00089099E-04
   55.3300018        -8.33739978E-05
   55.5200005        -6.76487180E-05
   55.7099991        -5.38166532E-05
   55.9000015        -4.25460858E-05
   56.0900002        -3.42333187E-05
   56.2799988        -2.89898853E-05
   56.4700012        -2.66499101E-05
   56.6599998        -2.67963442E-05
   56.8499985        -2.88072679E-05
   57.0400009        -3.19238825E-05
   57.2299995        -3.53389914E-05
   57.4199982        -3.82993094E-05
   57.6100006        -4.02084988E-05
   57.7999992        -4.07134248E-05
   57.9900017        -3.97559488E-05
   58.1800003        -3.75773488E-05
   58.3699989        -3.46724883E-05
   58.5600014        -3.17023514E-05
   58.7500000        -2.93836310E-05
   58.9399986        -2.83788686E-05
   59.1300011        -2.92080804E-05
   59.3199997        -3.21943808E-05
   59.5099983        -3.74443844E-05
   59.7000008        -4.48543360E-05
   59.8899994        -5.41283007E-05
   60.0800018        -6.47969282E-05
   60.2700005        -7.62327181E-05
   60.4599991        -8.76666381E-05
   60.6500015        -9.82168785E-05
   60.8400002        -1.06940854E-04
   61.0299988        -1.12915135E-04
   61.2200012        -1.15338618E-04
   61.4099998        -1.13643524E-04
   61.5999985        -1.07592859E-04
   61.7900009        -9.73422648E-05
   61.9799995        -8.34501407E-05
   62.1699982        -6.68307766E-05
   62.3600006        -4.86578101E-05
   62.5499992        -3.02354583E-05
   62.7400017        -1.28606771E-05
   62.9300003         2.30172850E-06
   63.1199989         1.43150755E-05
   63.3100014         2.25305084E-05
   63.5000000         2.66112074E-05
   63.6899986         2.65271865E-05
   63.8800011         2.25289768E-05
   64.0699997         1.51081194E-05
   64.2600021         4.95011727E-06
   64.4499969        -7.11737357E-06
   64.6399994        -2.01809598E-05
   64.8300018        -3.33037497E-05
   65.0199966        -4.55940099E-05
   65.2099991        -5.62778150E-05
   65.4000015        -6.47695997E-05
   65.5899963        -7.07310028E-05
   65.7799988        -7.41075200E-05
   65.9700012        -7.51336775E-05
   66.1600037        -7.43016426E-05
   66.3499985        -7.22934128E-05
   66.5400009        -6.98828881E-05
   66.7300034        -6.78206561E-05
   66.9199982        -6.67184795E-05
   67.1100006        -6.69530054E-05
   67.3000031        -6.86058484E-05
   67.4899979        -7.14517155E-05
   67.6800003        -7.49972824E-05
   67.8700027        -7.85642478E-05
   68.0599976        -8.14015657E-05
   68.2500000        -8.28066040E-05
   68.4400024        -8.22338043E-05
   68.6299973        -7.93724248E-05
   68.8199997        -7.41815966E-05
   69.0100021        -6.68801367E-05
   69.1999969        -5.78975742E-05
   69.3899994        -4.77999092E-05
   69.5800018        -3.72078175E-05
   69.7699966        -2.67244286E-05
   69.9599991        -1.68860061E-05
   70.1500015        -8.14141458E-06
   70.3399963        -8.57653902E-07
   70.5299988         4.65952917E-06
   70.7200012         8.14535360E-06
   70.9100037         9.37036293E-06
   71.0999985         8.15686781E-06
   71.2900009         4.41483417E-06
   71.4800034        -1.81449673E-06
   71.6699982        -1.03232451E-05
   71.8600006        -2.07235717E-05
   72.0500031        -3.24631183E-05
   72.2399979        -4.48674145E-05
   72.4300003        -5.72008539E-05
   72.6200027        -6.87354477E-05
   72.8099976        -7.88174366E-05
   73.0000000        -8.69249998E-05
   73.1900024        -9.27128931E-05
   73.3799973        -9.60410835E-05
   73.5699997        -9.69837056E-05
   73.7600021        -9.58141827E-05
   73.9499969        -9.29630769E-05
   74.1399994        -8.89493676E-05
   74.3300018        -8.42933878E-05
   74.5199966        -7.94275402E-05
   74.7099991        -7.46263686E-05
   74.9000015        -6.99762822E-05
   75.0899963        -6.53963216E-05
   75.2799988        -6.07069669E-05
   75.4700012        -5.57287422E-05
   75.6600037        -5.03819865E-05
   75.8499985        -4.47578859E-05
   76.0400009        -3.91385329E-05
   76.2300034        -3.39586222E-05
   76.4199982        -2.97184506E-05
   76.6100006        -2.68716813E-05
   76.8000031        -2.57184456E-05
   76.9899979        -2.63325292E-05
   77.1800003        -2.85413189E-05
   77.3700027        -3.19623286E-05
   77.5599976        -3.60848026E-05
   77.7500000        -4.03736667E-05
   77.9400024        -4.43688186E-05
   78.1299973        -4.77561043E-05
   78.3199997        -5.03954179E-05
   78.5100021        -5.23036761E-05
   78.6999969        -5.36024672E-05
   78.8899994        -5.44493632E-05
   79.0800018        -5.49752076E-05
   79.2699966        -5.52469683E-05
   79.4599991        -5.52663587E-05
   79.6500015        -5.50020268E-05
   79.8399963        -5.44412251E-05
   80.0299988        -5.36399166E-05
   80.2200012        -5.27507218E-05
   80.4100037        -5.20155663E-05
   80.5999985        -5.17223161E-05
   80.7900009        -5.21366637E-05
   80.9800034        -5.34292885E-05
   81.1699982        -5.56197338E-05
   81.3600006        -5.85534726E-05
   81.5500031        -6.19180137E-05
   81.7399979        -6.52925664E-05
   81.9300003        -6.82171885E-05
   82.1200027        -7.02640609E-05
   82.3099976        -7.10961976E-05
   82.5000000        -7.05050406E-05
   82.6900024        -6.84252736E-05
   82.8799973        -6.49301219E-05
   83.0699997        -6.02124455E-05
   83.2600021        -5.45564981E-05
   83.4499969        -4.83032964E-05
   83.6399994        -4.18118616E-05
   83.8300018        -3.54187250E-05
   84.0199966        -2.94005094E-05
   84.2099991        -2.39472229E-05
   84.4000015        -1.91545751E-05
   84.5899963        -1.50412206E-05
   84.7799988        -1.15898101E-05
   84.9700012        -8.80215339E-06
   85.1600037        -6.75181218E-06
   85.3499985        -5.61573643E-06
   85.5400009        -5.67154302E-06
   85.7300034        -7.25691598E-06
   85.9199982        -1.06989410E-05
   86.1100006        -1.62298602E-05
   86.3000031        -2.39094552E-05
   86.4899979        -3.35723234E-05
   86.6800003        -4.48121682E-05
   86.8700027        -5.70069169E-05
   87.0599976        -6.93802285E-05
   87.2500000        -8.10885831E-05
   87.4400024        -9.13196709E-05
   87.6299973        -9.93867507E-05
   87.8199997        -1.04805469E-04
   88.0100021        -1.07342341E-04
   88.1999969        -1.07028027E-04
   88.3899994        -1.04133687E-04
   88.5800018        -9.91144334E-05
   88.7699966        -9.25305576E-05
   88.9599991        -8.49624339E-05
   89.1500015        -7.69375620E-05
   89.3399963        -6.88850996E-05
   89.5299988        -6.11259893E-05
   89.7200012        -5.38956629E-05
   89.9100037        -4.73859400E-05
   90.0999985        -4.17865995E-05
   90.2900009        -3.73075163E-05
   90.4800034        -3.41693049E-05
   90.6699982        -3.25619221E-05
   90.8600006        -3.25826331E-05
   91.0500031        -3.41734449E-05
   91.2399979        -3.70803355E-05
   91.4300003        -4.08518681E-05
   91.6200027        -4.48838509E-05
   91.8099976        -4.85034980E-05
   92.0000000        -5.10755126E-05
   92.1900024        -5.21067741E-05
   92.3799973        -5.13277701E-05
   92.5699997        -4.87353063E-05
   92.7600021        -4.45900805E-05
   92.9499969        -3.93712762E-05
   93.1399994        -3.36973462E-05
   93.3300018        -2.82278088E-05
   93.5199966        -2.35641910E-05
   93.7099991        -2.01691219E-05
   93.9000015        -1.83188167E-05
   94.0899963        -1.80963525E-05
   94.2799988        -1.94226614E-05
   94.4700012        -2.21126065E-05
   94.6600037        -2.59381104E-05
   94.8499985        -3.06805268E-05
   95.0400009        -3.61598650E-05
   95.2300034        -4.22368830E-05
   95.4199982        -4.87926591E-05
   95.6100006        -5.56967680E-05
   95.8000031        -6.27775662E-05
   95.9899979        -6.98056101E-05
   96.1800003        -7.64954602E-05
   96.3700027        -8.25241950E-05
   96.5599976        -8.75597907E-05
   96.7500000        -9.12912146E-05
   96.9400024        -9.34538111E-05
   97.1299973        -9.38475714E-05
   97.3199997        -9.23491971E-05
   97.5100021        -8.89207658E-05
   97.6999969        -8.36175968E-05
   97.8899994        -7.65963923E-05
   98.0800018        -6.81221572E-05
   98.2699966        -5.85705238E-05
   98.4599991        -4.84206394E-05
   98.6500015        -3.82345897E-05
   98.8399963        -2.86214545E-05
   99.0299988        -2.01874955E-05
   99.2200012        -1.34771772E-05
   99.4100037        -8.91265063E-06
   99.5999985        -6.74118382E-06
   99.7900009        -7.00079772E-06
   99.9800034        -9.51339371E-06
   100.169998        -1.39109197E-05
   100.360001        -1.96937181E-05
   100.550003        -2.63119709E-05
   100.739998        -3.32536802E-05
   100.930000        -4.01187099E-05
   101.120003        -4.66602287E-05
   101.309998        -5.27825468E-05
   101.500000        -5.84962290E-05
   101.690002        -6.38439597E-05
   101.879997        -6.88200598E-05
   102.070000        -7.33092093E-05
   102.260002        -7.70648912E-05
   102.449997        -7.97367320E-05
   102.639999        -8.09415724E-05
   102.830002        -8.03607618E-05
   103.019997        -7.78383110E-05
   103.209999        -7.34541245E-05
   103.400002        -6.75516130E-05
   103.589996        -6.07098918E-05
   103.779999        -5.36634507E-05
   103.970001        -4.71850035E-05
   104.160004        -4.19564058E-05
   104.349998        -3.84558407E-05
   104.540001        -3.68856818E-05
   104.730003        -3.71557726E-05
   104.919998        -3.89232955E-05
   105.110001        -4.16770090E-05
   105.300003        -4.48432693E-05
   105.489998        -4.78873189E-05
   105.680000        -5.03865558E-05
   105.870003        -5.20625836E-05
   106.059998        -5.27725279E-05
   106.250000        -5.24728748E-05
   106.440002        -5.11762264E-05
   106.629997        -4.89210215E-05
   106.820000        -4.57663809E-05
   107.010002        -4.18125783E-05
   107.199997        -3.72360373E-05
   107.389999        -3.23207860E-05
   107.580002        -2.74678423E-05
   107.769997        -2.31707272E-05
   107.959999        -1.99568094E-05
   108.150002        -1.83064185E-05
   108.339996        -1.85697972E-05
   108.529999        -2.09031332E-05
   108.720001        -2.52387126E-05
   108.910004        -3.12940974E-05
   109.099998        -3.86149841E-05
   109.290001        -4.66398633E-05
   109.480003        -5.47723757E-05
   109.669998        -6.24490713E-05
   109.860001        -6.91935638E-05
   110.050003        -7.46521764E-05
   110.239998        -7.86097371E-05
   110.430000        -8.09869889E-05
   110.620003        -8.18232293E-05
   110.809998        -8.12485523E-05
   111.000000        -7.94511507E-05
   111.190002        -7.66447993E-05
   111.379997        -7.30415486E-05
   111.570000        -6.88332075E-05
   111.760002        -6.41832012E-05
   111.949997        -5.92281249E-05
   112.139999        -5.40867513E-05
   112.330002        -4.88736878E-05
   112.519997        -4.37148701E-05
   112.709999        -3.87623295E-05
   112.900002        -3.42048952E-05
   113.089996        -3.02709723E-05
   113.279999        -2.72193174E-05
   113.470001        -2.53151084E-05
   113.660004        -2.47917415E-05
   113.849998        -2.58031050E-05
   114.040001        -2.83754725E-05
   114.230003        -3.23712884E-05
   114.419998        -3.74772098E-05
   114.610001        -4.32249362E-05
   114.800003        -4.90457169E-05
   114.989998        -5.43499264E-05
   115.180000        -5.86153474E-05
   115.370003        -6.14641176E-05
   115.559998        -6.27110057E-05
   115.750000        -6.23731903E-05
   115.940002        -6.06418471E-05
   116.129997        -5.78250729E-05
   116.320000        -5.42776943E-05
   116.510002        -5.03347692E-05
   116.699997        -4.62626558E-05
   116.889999        -4.22356170E-05
   117.080002        -3.83392471E-05
   117.269997        -3.45965636E-05
   117.459999        -3.10092837E-05
   117.650002        -2.76050905E-05
   117.839996        -2.44812545E-05
   118.029999        -2.18345904E-05
   118.220001        -1.99683454E-05
   118.410004        -1.92691514E-05
   118.599998        -2.01522944E-05
   118.790001        -2.29811121E-05
   118.980003        -2.79743999E-05
   119.169998        -3.51218805E-05
   119.360001        -4.41295815E-05
   119.550003        -5.44131435E-05
   119.739998        -6.51474693E-05
   119.930000        -7.53680724E-05
   120.120003        -8.41062574E-05
   120.309998        -9.05308480E-05
   120.500000        -9.40672471E-05
   120.690002        -9.44700660E-05
   120.879997        -9.18373698E-05
   121.070000        -8.65683614E-05
   121.260002        -7.92780847E-05
   121.449997        -7.06900755E-05
   121.639999        -6.15293175E-05
   121.830002        -5.24346142E-05
   122.019997        -4.39024770E-05
   122.209999        -3.62671999E-05
   122.400002        -2.97139013E-05
   122.589996        -2.43160575E-05
   122.779999        -2.00852282E-05
   122.970001        -1.70194962E-05
   123.160004        -1.51379172E-05
   123.349998        -1.44918386E-05
   123.540001        -1.51499071E-05
   123.730003        -1.71614211E-05
   123.919998        -2.05099223E-05
   124.110001        -2.50730372E-05
   124.300003        -3.06034453E-05
   124.489998        -3.67396024E-05
   124.680000        -4.30454857E-05
   124.870003        -4.90696257E-05
   125.059998        -5.44079594E-05
   125.250000        -5.87545110E-05
   125.440002        -6.19283164E-05
   125.629997        -6.38724960E-05
   125.820000        -6.46298213E-05
   126.010002        -6.43055537E-05
   126.199997        -6.30308423E-05
   126.389999        -6.09379094E-05
   126.580002        -5.81529202E-05
   126.769997        -5.48052303E-05
   126.959999        -5.10456448E-05
   127.150002        -4.70632331E-05
   127.339996        -4.30906039E-05
   127.529999        -3.93915288E-05
   127.720001        -3.62308783E-05
   127.910004        -3.38333812E-05
   128.100006        -3.23425411E-05
   128.289993        -3.17924932E-05
   128.479996        -3.21026346E-05
   128.669998        -3.30986004E-05
   128.860001        -3.45552144E-05
   129.050003        -3.62506398E-05
   129.240005        -3.80178026E-05
   129.429993        -3.97801996E-05
   129.619995        -4.15635259E-05
   129.809998        -4.34805988E-05
   130.000000        -4.56929956E-05
   130.190002        -4.83577642E-05
   130.380005        -5.15707507E-05
   130.570007        -5.53191567E-05
   130.759995        -5.94545600E-05
   130.949997        -6.36938566E-05
   131.139999        -6.76497657E-05
   131.330002        -7.08864318E-05
   131.520004        -7.29902240E-05
   131.710007        -7.36424481E-05
   131.899994        -7.26801591E-05
   132.089996        -7.01327590E-05
   132.279999        -6.62260936E-05
   132.470001        -6.13516168E-05
   132.660004        -5.60052758E-05
   132.850006        -5.07075165E-05
   133.039993        -4.59210460E-05
   133.229996        -4.19840690E-05
   133.419998        -3.90732603E-05
   133.610001        -3.72031573E-05
   133.800003        -3.62591090E-05
   133.990005        -3.60517733E-05
   134.179993        -3.63760009E-05
   134.369995        -3.70567250E-05
   134.559998        -3.79701087E-05
   134.750000        -3.90372661E-05
   134.940002        -4.01975558E-05
   135.130005        -4.13749003E-05
   135.320007        -4.24518694E-05
   135.509995        -4.32620654E-05
   135.699997        -4.36043920E-05
   135.889999        -4.32755405E-05
   136.080002        -4.21123768E-05
   136.270004        -4.00341523E-05
   136.460007        -3.70750386E-05
   136.649994        -3.33998978E-05
   136.839996        -2.92992991E-05
   137.029999        -2.51635993E-05
   137.220001        -2.14401152E-05
   137.410004        -1.85806493E-05
   137.600006        -1.69883060E-05
   137.789993        -1.69717860E-05
   137.979996        -1.87128717E-05
   138.169998        -2.22494382E-05
   138.360001        -2.74735812E-05
   138.550003        -3.41427258E-05
   138.740005        -4.19007883E-05
   138.929993        -5.03064621E-05
   139.119995        -5.88659386E-05
   139.309998        -6.70678419E-05
   139.500000        -7.44185891E-05
   139.690002        -8.04765950E-05
   139.880005        -8.48834825E-05
   140.070007        -8.73897661E-05
   140.259995        -8.78720239E-05
   140.449997        -8.63390378E-05
   140.639999        -8.29258352E-05
   140.830002        -7.78767862E-05
   141.020004        -7.15206261E-05
   141.210007        -6.42413361E-05
   141.399994        -5.64478323E-05
   141.589996        -4.85449964E-05
   141.779999        -4.09074128E-05
   141.970001        -3.38576174E-05
   142.160004        -2.76509309E-05
   142.350006        -2.24693031E-05
   142.539993        -1.84254750E-05
   142.729996        -1.55769085E-05
   142.919998        -1.39458534E-05
   143.110001        -1.35392120E-05
   143.300003        -1.43605894E-05
   143.490005        -1.64083831E-05
   143.679993        -1.96585333E-05
   143.869995        -2.40371464E-05
   144.059998        -2.93940302E-05
   144.250000        -3.54897420E-05
   144.440002        -4.20049546E-05
   144.630005        -4.85727651E-05
   144.820007        -5.48259814E-05
   145.009995        -6.04459929E-05
   145.199997        -6.51995215E-05
   145.389999        -6.89538210E-05
   145.580002        -7.16676368E-05
   145.770004        -7.33616398E-05
   145.960007        -7.40780524E-05
   146.149994        -7.38421077E-05
   146.339996        -7.26381331E-05
   146.529999        -7.04092381E-05
   146.720001        -6.70826485E-05
   146.910004        -6.26143592E-05
   147.100006        -5.70405173E-05
   147.289993        -5.05198695E-05
   147.479996        -4.33538480E-05
   147.669998        -3.59760197E-05
   147.860001        -2.89105938E-05
   148.050003        -2.27072396E-05
   148.240005        -1.78658520E-05
   148.429993        -1.47671490E-05
   148.619995        -1.36229255E-05
   148.809998        -1.44534679E-05
   149.000000        -1.70923176E-05
   149.190002        -2.12130381E-05
   149.380005        -2.63707971E-05
   149.570007        -3.20526378E-05
   149.759995        -3.77320612E-05
   149.949997        -4.29239844E-05
   150.139999        -4.72351276E-05
   150.330002        -5.04036834E-05
   150.520004        -5.23220879E-05
   150.710007        -5.30384423E-05