  -3.00000000         0.00000000    
  -2.80999994         0.00000000    
  -2.61999989         0.00000000    
  -2.43000007         0.00000000    
  -2.24000001         0.00000000    
  -2.04999995         0.00000000    
  -1.86000001        -2.80330419E-22
  -1.66999996         1.12384785E-22
  -1.48000002         1.26232358E-20
  -1.28999996         6.20293953E-20
  -1.10000002         1.14494230E-19
 -0.910000026        -9.21839931E-20
 -0.720000029        -9.92561004E-19
 -0.529999971        -2.26828185E-18
 -0.340000004        -1.35019564E-18
 -0.150000006         5.59803124E-18
   3.99999991E-02     1.58671704E-17
  0.230000004         8.01848951E-18
  0.419999987        -5.66288906E-17
  0.610000014        -1.93348823E-16
  0.800000012        -3.17614644E-16
  0.990000010        -2.05005412E-16
   1.17999995         3.92591036E-16
   1.37000000         1.43147319E-15
   1.55999994         2.25750035E-15
   1.75000000         1.72266564E-15
   1.94000006        -9.16509978E-16
   2.13000011        -4.63009554E-15
   2.31999993        -6.02843132E-15
   2.50999999        -1.11836968E-15
   2.70000005         1.03451734E-14
   2.89000010         2.04772688E-14
   3.07999992         1.37814878E-14
   3.26999998        -2.35896728E-14
   3.46000004        -8.79570939E-14
   3.65000010        -1.45801096E-13
   3.83999991        -1.38713029E-13
   4.03000021        -1.25493784E-14
   4.21999979         2.38075618E-13
   4.40999985         5.33899422E-13
   4.59999990         7.10366824E-13
   4.78999996         5.65996306E-13
   4.98000002        -4.62091032E-14
   5.17000008        -1.10548322E-12
   5.36000013        -2.32009962E-12
   5.55000019        -3.08459898E-12
   5.73999977        -2.57612269E-12
   5.92999983        -7.41590085E-14
   6.11999989         4.48917379E-12
   6.30999994         9.92987897E-12
   6.50000000         1.35703341E-11
   6.69000006         1.18348118E-11
   6.88000011         1.89206441E-12
   7.07000017        -1.60704245E-11
   7.26000023        -3.70545018E-11
   7.44999981        -5.13442067E-11
   7.63999987        -4.73769322E-11
   7.82999992        -1.70145703E-11
   8.02000046         3.86495419E-11
   8.21000004         1.05707360E-10
   8.39999962         1.58550784E-10
   8.59000015         1.66674480E-10
   8.77999973         1.06014975E-10
   8.97000027        -2.83635910E-11
   9.15999985        -2.12753551E-10
   9.35000038        -3.93197613E-10
   9.53999996        -4.95342822E-10
   9.72999954        -4.46356452E-10
   9.92000008        -2.04843184E-10
   10.1099997         2.10600454E-10
   10.3000002         7.07040149E-10
   10.4899998         1.12857124E-09
   10.6800003         1.29713640E-09
   10.8699999         1.07402842E-09
   11.0600004         4.21430002E-10
   11.2500000        -5.61257818E-10
   11.4399996        -1.64482028E-09
   11.6300001        -2.52354448E-09
   11.8199997        -2.89807089E-09
   12.0100002        -2.56006483E-09
   12.1999998        -1.45256318E-09
   12.3900003         3.07156495E-10
   12.5799999         2.43913023E-09
   12.7700005         4.53420057E-09
   12.9600000         6.09980599E-09
   13.1499996         6.62059207E-09
   13.3400002         5.64738878E-09
   13.5299997         2.92573898E-09
   13.7200003        -1.44670309E-09
   13.9099998        -6.87988511E-09
   14.1000004        -1.22449197E-08
   14.2900000        -1.60008931E-08
   14.4799995        -1.65332192E-08
   14.6700001        -1.26603785E-08
   14.8599997        -4.17222079E-09
   15.0500002         7.79953702E-09
   15.2399998         2.07684856E-08
   15.4300003         3.13335349E-08
   15.6199999         3.60124837E-08
   15.8100004         3.22557803E-08
   16.0000000         1.93398613E-08
   16.1900005        -1.14092635E-09
   16.3799992        -2.53467398E-08
   16.5699997        -4.78298325E-08
   16.7600002        -6.26004208E-08
   16.9500008        -6.44152394E-08
   17.1399994        -5.00788069E-08
   17.3299999        -1.95626662E-08
   17.5200005         2.32605064E-08
   17.7099991         7.05105876E-08
   17.8999996         1.11083565E-07
   18.0900002         1.32505264E-07
   18.2800007         1.23800362E-07
   18.4699993         7.89533416E-08
   18.6599998         1.44065371E-10
   18.8500004        -1.00308199E-07
   19.0400009        -2.00317487E-07
   19.2299995        -2.71356640E-07
   19.4200001        -2.84706175E-07
   19.6100006        -2.19833439E-07
   19.7999992        -7.34792920E-08
   19.9899998         1.32294659E-07
   20.1800003         3.44801180E-07
   20.3700008         4.79510106E-07
   20.5599995         4.23743217E-07
   20.7500000         4.55171474E-08
   20.9400005        -7.92823414E-07
   21.1299992        -2.21720893E-06
   21.3199997        -4.32248589E-06
   21.5100002        -7.15373926E-06
   21.7000008        -1.06916450E-05
   21.8899994        -1.48453610E-05
   22.0799999        -1.94558324E-05
   22.2700005        -2.43107625E-05
   22.4599991        -2.91701399E-05
   22.6499996        -3.37986094E-05
   22.8400002        -3.79990342E-05
   23.0300007        -4.16407529E-05
   23.2199993        -4.46769263E-05
   23.4099998        -4.71473504E-05
   23.6000004        -4.91663523E-05
   23.7900009        -5.08983321E-05
   23.9799995        -5.25257092E-05
   24.1700001        -5.42151538E-05
   24.3600006        -5.60875997E-05
   24.5499992        -5.81965505E-05
   24.7399998        -6.05170208E-05
   24.9300003        -6.29459682E-05
   25.1200008        -6.53135139E-05
   25.3099995        -6.74029943E-05
   25.5000000        -6.89772787E-05
   25.6900005        -6.98080912E-05
   25.8799992        -6.97045180E-05
   26.0699997        -6.85367995E-05
   26.2600002        -6.62516613E-05
   26.4500008        -6.28766793E-05
   26.6399994        -5.85126436E-05
   26.8299999        -5.33155035E-05
   27.0200005        -4.74714288E-05
   27.2099991        -4.11701767E-05
   27.3999996        -3.45818116E-05
   27.5900002        -2.78413245E-05
   27.7800007        -2.10437138E-05
   27.9699993        -1.42495164E-05
   28.1599998        -7.49868195E-06
   28.3500004        -8.28623001E-07
   28.5400009         5.70836801E-06
   28.7299995         1.20327559E-05
   28.9200001         1.80337356E-05
   29.1100006         2.35748357E-05
   29.2999992         2.85086589E-05
   29.4899998         3.26983791E-05
   29.6800003         3.60419908E-05
   29.8700008         3.84944942E-05
   30.0599995         4.00832469E-05
   30.2500000         4.09127242E-05
   30.4400005         4.11569345E-05
   30.6299992         4.10400025E-05
   30.8199997         4.08077321E-05
   31.0100002         4.06946747E-05
   31.2000008         4.08921915E-05
   31.3899994         4.15229842E-05
   31.5799999         4.26266306E-05
   31.7700005         4.41586271E-05
   31.9599991         4.60029187E-05
   32.1500015         4.79956689E-05
   32.3400002         4.99558591E-05
   32.5299988         5.17176013E-05
   32.7200012         5.31584119E-05
   32.9099998         5.42186390E-05
   33.0999985         5.49080760E-05
   33.2900009         5.52983365E-05
   33.4799995         5.55022780E-05
   33.6699982         5.56449158E-05
   33.8600006         5.58326828E-05
   34.0499992         5.61287197E-05
   34.2400017         5.65407281E-05
   34.4300003         5.70250268E-05
   34.6199989         5.75060221E-05
   34.8100014         5.79061489E-05
   35.0000000         5.81780259E-05
   35.1899986         5.83292531E-05
   35.3800011         5.84318695E-05
   35.5699997         5.86123024E-05
   35.7599983         5.90230047E-05
   35.9500008         5.98020124E-05
   36.1399994         6.10301759E-05
   36.3300018         6.26965630E-05
   36.5200005         6.46809567E-05
   36.7099991         6.67584536E-05
   36.9000015         6.86265994E-05
   37.0900002         6.99504599E-05
   37.2799988         7.04178819E-05
   37.4700012         6.97950454E-05
   37.6599998         6.79730219E-05
   37.8499985         6.49976355E-05
   38.0400009         6.10776260E-05
   38.2299995         5.65692899E-05
   38.4199982         5.19392306E-05
   38.6100006         4.77103458E-05
   38.7999992         4.43995596E-05
   38.9900017         4.24578575E-05
   39.1800003         4.22231751E-05
   39.3699989         4.38946699E-05
   39.5600014         4.75326415E-05
   39.7500000         5.30827965E-05
   39.9399986         6.04184679E-05
   40.1300011         6.93897964E-05
   40.3199997         7.98674009E-05
   40.5099983         9.17694051E-05
   40.7000008         1.05065155E-04
   40.8899994         1.19755445E-04
   41.0800018         1.35834300E-04
   41.2700005         1.53241170E-04
   41.4599991         1.71812062E-04
   41.6500015         1.91236628E-04
   41.8400002         2.11025574E-04
   42.0299988         2.30490361E-04
   42.2200012         2.48736993E-04
   42.4099998         2.64675444E-04
   42.5999985         2.77047802E-04
   42.7900009         2.84479524E-04
   42.9799995         2.85558432E-04
   43.1699982         2.78942607E-04
   43.3600006         2.63493159E-04
   43.5499992         2.38419248E-04
   43.7400017         2.03416275E-04
   43.9300003         1.58774521E-04
   44.1199989         1.05437939E-04
   44.3100014         4.49987383E-05
   44.5000000        -2.03770414E-05
   44.6899986        -8.80880325E-05
   44.8800011        -1.55285161E-04
   45.0699997        -2.19086025E-04
   45.2599983        -2.76789273E-04
   45.4500008        -3.26063280E-04
   45.6399994        -3.65088228E-04
   45.8300018        -3.92640650E-04
   46.0200005        -4.08118765E-04
   46.2099991        -4.11514484E-04
   46.4000015        -4.03343554E-04
   46.5900002        -3.84547835E-04
   46.7799988        -3.56384669E-04
   46.9700012        -3.20317049E-04
   47.1599998        -2.77915009E-04
   47.3499985        -2.30774298E-04
   47.5400009        -1.80454939E-04
   47.7299995        -1.28440282E-04
   47.9199982        -7.61156552E-05
   48.1100006        -2.47646349E-05
   48.2999992         2.44226230E-05
   48.4900017         7.03375845E-05
   48.6800003         1.11948670E-04
   48.8699989         1.48312785E-04
   49.0600014         1.78607545E-04
   49.2500000         2.02183001E-04
   49.4399986         2.18625151E-04
   49.6300011         2.27818906E-04
   49.8199997         2.29994243E-04
   50.0099983         2.25739277E-04
   50.2000008         2.15967986E-04
   50.3899994         2.01839808E-04
   50.5800018         1.84640594E-04
   50.7700005         1.65645382E-04
   50.9599991         1.45989165E-04
   51.1500015         1.26569983E-04
   51.3400002         1.08001237E-04
   51.5299988         9.06189889E-05
   51.7200012         7.45376892E-05
   51.9099998         5.97378385E-05
   52.0999985         4.61621130E-05
   52.2900009         3.37957317E-05
   52.4799995         2.27119181E-05
   52.6699982         1.30741464E-05
   52.8600006         5.09871052E-06
   53.0499992        -1.00941736E-06
   53.2400017        -5.12978249E-06
   53.4300003        -7.29144449E-06
   53.6199989        -7.71562281E-06
   53.8100014        -6.82701648E-06
   54.0000000        -5.23090557E-06
   54.1899986        -3.65898200E-06
   54.3800011        -2.89282593E-06
   54.5699997        -3.67698794E-06
   54.7599983        -6.63454921E-06
   54.9500008        -1.21956728E-05
   55.1399994        -2.05462056E-05
   55.3300018        -3.16002879E-05
   55.5200005        -4.49979125E-05
   55.7099991        -6.01258726E-05
   55.9000015        -7.61590563E-05
   56.0900002        -9.21178726E-05
   56.2799988        -1.06937725E-04
   56.4700012        -1.19546974E-04
   56.6599998        -1.28949818E-04
   56.8499985        -1.34308793E-04
   57.0400009        -1.35020018E-04
   57.2299995        -1.30772169E-04
   57.4199982        -1.21581594E-04
   57.6100006        -1.07797758E-04
   57.7999992        -9.00783562E-05
   57.9900017        -6.93382099E-05
   58.1800003        -4.66800848E-05
   58.3699989        -2.33182454E-05
   58.5600014        -5.04962088E-07
   58.7500000         2.05325832E-05
   58.9399986         3.86429383E-05
   59.1300011         5.27914453E-05
   59.3199997         6.20981737E-05
   59.5099983         6.58792997E-05
   59.7000008         6.36954355E-05
   59.8899994         5.54056096E-05
   60.0800018         4.12201844E-05
   60.2700005         2.17420820E-05
   60.4599991        -2.01653643E-06
   60.6500015        -2.86540017E-05
   60.8400002        -5.64435213E-05
   61.0299988        -8.34436069E-05
   61.2200012        -1.07647946E-04
   61.4099998        -1.27159961E-04
   61.5999985        -1.40372184E-04
   61.7900009        -1.46128019E-04
   61.9799995        -1.43845318E-04
   62.1699982        -1.33585549E-04
   62.3600006        -1.16059447E-04
   62.5499992        -9.25678687E-05
   62.7400017        -6.48847345E-05
   62.9300003        -3.50951741E-05
   63.1199989        -5.40625479E-06
   63.3100014         2.20510919E-05
   63.5000000         4.54104556E-05
   63.6899986         6.32311494E-05
   63.8800011         7.46165097E-05
   64.0699997         7.92765131E-05
   64.2600021         7.75269000E-05
   64.4499969         7.02239995E-05
   64.6399994         5.86428832E-05
   64.8300018         4.43144309E-05
   65.0199966         2.88424126E-05
   65.2099991         1.37247844E-05
   65.4000015         2.02240656E-07
   65.5899963        -1.08472586E-05
   65.7799988        -1.89570364E-05
   65.9700012        -2.40616464E-05
   66.1600037        -2.64358732E-05
   66.3499985        -2.65978597E-05
   66.5400009        -2.51948877E-05
   66.7300034        -2.28909776E-05
   66.9199982        -2.02724787E-05
   67.1100006        -1.77834572E-05
   67.3000031        -1.56966380E-05
   67.4899979        -1.41191931E-05
   67.6800003        -1.30265007E-05
   67.8700027        -1.23126556E-05
   68.0599976        -1.18447988E-05
   68.2500000        -1.15097291E-05
   68.4400024        -1.12441257E-05
   68.6299973        -1.10440478E-05
   68.8199997        -1.09534794E-05
   69.0100021        -1.10361761E-05
   69.1999969        -1.13385649E-05
   69.3899994        -1.18534626E-05
   69.5800018        -1.24938697E-05
   69.7699966        -1.30832750E-05
   69.9599991        -1.33652547E-05
   70.1500015        -1.30320386E-05
   70.3399963        -1.17691989E-05
   70.5299988        -9.31101204E-06
   70.7200012        -5.49830156E-06
   70.9100037        -3.28355185E-07
   71.0999985         6.01312604E-06
   71.2900009         1.31449278E-05
   71.4800034         2.05102024E-05
   71.6699982         2.74216563E-05
   71.8600006         3.31285846E-05
   72.0500031         3.69008376E-05
   72.2399979         3.81221689E-05
   72.4300003         3.63810577E-05
   72.6200027         3.15442412E-05
   72.8099976         2.37993154E-05
   73.0000000         1.36585195E-05
   73.1900024         1.92258562E-06
   73.3799973        -1.03914581E-05
   73.5699997        -2.21522696E-05
   73.7600021        -3.22369924E-05
   73.9499969        -3.96612668E-05
   74.1399994        -4.36978735E-05
   74.3300018        -4.39646683E-05
   74.5199966        -4.04686980E-05
   74.7099991        -3.36036865E-05
   74.9000015        -2.41068319E-05
   75.0899963        -1.29830605E-05
   75.2799988        -1.40348232E-06
   75.4700012         9.41643430E-06
   75.6600037         1.83488519E-05
   75.8499985         2.44796502E-05
   76.0400009         2.72096986E-05
   76.2300034         2.63169204E-05
   76.4199982         2.19732028E-05
   76.6100006         1.47172568E-05
   76.8000031         5.38710401E-06
   76.9899979        -4.98292320E-06
   77.1800003        -1.52913890E-05
   77.3700027        -2.45077390E-05
   77.5599976        -3.17954655E-05
   77.7500000        -3.65986452E-05
   77.9400024        -3.86803767E-05
   78.1299973        -3.81143509E-05
   78.3199997        -3.52382049E-05
   78.5100021        -3.05781541E-05
   78.6999969        -2.47535863E-05
   78.8899994        -1.83730626E-05
   79.0800018        -1.19392334E-05
   79.2699966        -5.78349227E-06
   79.4599991        -4.56859084E-08
   79.6500015         5.29880163E-06
   79.8399963         1.03757366E-05
   80.0299988         1.53306082E-05
   80.2200012         2.02469855E-05
   80.4100037         2.50792473E-05
   80.5999985         2.96126473E-05
   80.7900009         3.34623728E-05
   80.9800034         3.61182829E-05
   81.1699982         3.70306807E-05
   81.3600006         3.57195604E-05
   81.5500031         3.18810780E-05
   81.7399979         2.54668939E-05
   81.9300003         1.67213711E-05
   82.1200027         6.17285832E-06
   82.3099976        -5.41695954E-06
   82.5000000        -1.71375777E-05
   82.6900024        -2.80368477E-05
   82.8799973        -3.72353861E-05
   83.0699997        -4.40298572E-05
   83.2600021        -4.79680093E-05
   83.4499969        -4.88854930E-05
   83.6399994        -4.69041515E-05
   83.8300018        -4.23988131E-05
   84.0199966        -3.59416517E-05
   84.2099991        -2.82318069E-05
   84.4000015        -2.00159011E-05
   84.5899963        -1.20062496E-05
   84.7799988        -4.80578228E-06
   84.9700012         1.14981867E-06
   85.1600037         5.62461082E-06
   85.3499985         8.58631938E-06
   85.5400009         1.01840233E-05
   85.7300034         1.07052028E-05
   85.9199982         1.05188874E-05
   86.1100006         1.00119969E-05
   86.3000031         9.52713162E-06
   86.4899979         9.31141130E-06
   86.6800003         9.48537217E-06
   86.8700027         1.00372545E-05
   87.0599976         1.08418044E-05
   87.2500000         1.16969759E-05
   87.4400024         1.23692253E-05
   87.6299973         1.26385366E-05
   87.8199997         1.23365926E-05
   88.0100021         1.13729066E-05
   88.1999969         9.74481372E-06
   88.3899994         7.52881760E-06
   88.5800018         4.85497776E-06
   88.7699966         1.87131195E-06
   88.9599991        -1.29094985E-06
   89.1500015        -4.54069914E-06
   89.3399963        -7.83283758E-06
   89.5299988        -1.11566787E-05
   89.7200012        -1.45115828E-05
   89.9100037        -1.78767732E-05
   90.0999985        -2.11825391E-05
   90.2900009        -2.42899005E-05
   90.4800034        -2.69847988E-05
   90.6699982        -2.89903965E-05
   90.8600006        -2.99972053E-05
   91.0500031        -2.97063798E-05
   91.2399979        -2.78788302E-05
   91.4300003        -2.43824561E-05
   91.6200027        -1.92307925E-05
   91.8099976        -1.26072919E-05
   92.0000000        -4.87008811E-06
   92.1900024         3.46685988E-06
   92.3799973         1.17772815E-05
   92.5699997         1.93870565E-05
   92.7600021         2.56508993E-05
   92.9499969         3.00296397E-05
   93.1399994         3.21561711E-05
   93.3300018         3.18806196E-05
   93.5199966         2.92888726E-05
   93.7099991         2.46931122E-05
   93.9000015         1.85966655E-05
   94.0899963         1.16387428E-05
   94.2799988         4.52597442E-06
   94.4700012        -2.04203366E-06
   94.6600037        -7.44644831E-06
   94.8499985        -1.12158614E-05
   95.0400009        -1.30792478E-05
   95.2300034        -1.29985956E-05
   95.4199982        -1.11754789E-05
   95.6100006        -8.02835257E-06
   95.8000031        -4.14113174E-06
   95.9899979        -1.88253168E-07
   96.1800003         3.15440025E-06
   96.3700027         5.29970248E-06
   96.5599976         5.82655593E-06
   96.7500000         4.53202983E-06
   96.9400024         1.45105980E-06
   97.1299973        -3.15718830E-06
   97.3199997        -8.85089412E-06
   97.5100021        -1.50661072E-05
   97.6999969        -2.11858805E-05
   97.8899994        -2.66086827E-05
   98.0800018        -3.08087656E-05
   98.2699966        -3.33836833E-05
   98.4599991        -3.40861370E-05
   98.6500015        -3.28388414E-05
   98.8399963        -2.97319166E-05
   99.0299988        -2.50032081E-05
   99.2200012        -1.90035389E-05
   99.4100037        -1.21517769E-05
   99.5999985        -4.88704654E-06
   99.7900009         2.37385370E-06
   99.9800034         9.26815756E-06
   100.169998         1.55058915E-05
   100.360001         2.08767342E-05
   100.550003         2.52471182E-05
   100.739998         2.85493879E-05
   100.930000         3.07650225E-05
   101.120003         3.19054489E-05
   101.309998         3.19954233E-05
   101.500000         3.10634459E-05
   101.690002         2.91411343E-05
   101.879997         2.62699104E-05
   102.070000         2.25112562E-05
   102.260002         1.79566741E-05
   102.449997         1.27340836E-05
   102.639999         7.00783403E-06
   102.830002         9.70176302E-07
   103.019997        -5.17537001E-06
   103.209999        -1.12337548E-05
   103.400002        -1.70323310E-05
   103.589996        -2.24204359E-05
   103.779999        -2.72520847E-05
   103.970001        -3.13586243E-05
   104.160004        -3.45250846E-05
   104.349998        -3.64845837E-05
   104.540001        -3.69391564E-05
   104.730003        -3.56062956E-05
   104.919998        -3.22820088E-05
   105.110001        -2.69061857E-05
   105.300003        -1.96140936E-05
   105.489998        -1.07598953E-05
   105.680000        -9.03151658E-07
   105.870003         9.24206597E-06
   106.059998         1.88867143E-05
   106.250000         2.72594116E-05
   106.440002         3.36950652E-05
   106.629997         3.77057841E-05
   106.820000         3.90263376E-05
   107.010002         3.76319513E-05
   107.199997         3.37295824E-05
   107.389999         2.77262661E-05
   107.580002         2.01797375E-05
   107.769997         1.17384961E-05
   107.959999         3.07939399E-06
   108.150002        -5.14965950E-06
   108.339996        -1.23765112E-05
   108.529999        -1.81386986E-05
   108.720001        -2.21050614E-05
   108.910004        -2.40874124E-05
   109.099998        -2.40452573E-05
   109.290001        -2.20856382E-05
   109.480003        -1.84581168E-05
   109.669998        -1.35428336E-05
   109.860001        -7.82819552E-06
   110.050003        -1.87546050E-06
   110.239998         3.72955378E-06
   110.430000         8.43335692E-06
   110.620003         1.17724394E-05
   110.809998         1.34223083E-05
   111.000000         1.32295954E-05
   111.190002         1.12227490E-05
   111.379997         7.60129842E-06
   111.570000         2.70825353E-06
   111.760002        -3.00789929E-06
   111.949997        -9.03546425E-06
   112.139999        -1.48420941E-05
   112.330002        -1.99162878E-05
   112.519997        -2.38074954E-05
   112.709999        -2.61635687E-05
   112.900002        -2.67620417E-05
   113.089996        -2.55301748E-05
   113.279999        -2.25492313E-05
   113.470001        -1.80412553E-05
   113.660004        -1.23408972E-05
   113.849998        -5.85812541E-06
   114.040001         9.61264618E-07
   114.230003         7.67187521E-06
   114.419998         1.38591276E-05
   114.610001         1.91638574E-05
   114.800003         2.33024584E-05
   114.989998         2.60836423E-05
   115.180000         2.74216400E-05
   115.370003         2.73441728E-05
   115.559998         2.59920762E-05
   115.750000         2.36068008E-05
   115.940002         2.05032193E-05
   116.129997         1.70278636E-05
   116.320000         1.35075488E-05
   116.510002         1.01977339E-05
   116.699997         7.24219444E-06
   116.889999         4.65426820E-06
   117.080002         2.32543607E-06
   117.269997         6.07957844E-08
   117.459999        -2.36507572E-06
   117.650002        -5.14301701E-06
   117.839996        -8.36863728E-06
   118.029999        -1.19997303E-05
   118.220001        -1.58420917E-05
   118.410004        -1.95680914E-05
   118.599998        -2.27649070E-05
   118.790001        -2.50029243E-05
   118.980003        -2.59109693E-05
   119.169998        -2.52443424E-05
   119.360001        -2.29333691E-05
   119.550003        -1.91036506E-05
   119.739998        -1.40641096E-05
   119.930000        -8.26494124E-06
   120.120003        -2.23344910E-06
   120.309998         3.49998436E-06
   120.500000         8.47256342E-06
   120.690002         1.23448099E-05
   120.879997         1.49334483E-05
   121.070000         1.62177348E-05
   121.260002         1.63198056E-05
   121.449997         1.54642512E-05
   121.639999         1.39261156E-05
   121.830002         1.19784372E-05
   122.019997         9.84901908E-06
   122.209999         7.69253984E-06
   122.400002         5.57977592E-06
   122.589996         3.50334699E-06
   122.779999         1.39868200E-06
   122.970001        -8.22376705E-07
   123.160004        -3.23024892E-06
   123.349998        -5.83684596E-06
   123.540001        -8.56506358E-06
   123.730003        -1.12366806E-05
   123.919998        -1.35827231E-05
   124.110001        -1.52760531E-05
   124.300003        -1.59825377E-05
   124.489998        -1.54242498E-05
   124.680000        -1.34445290E-05
   124.870003        -1.00613033E-05
   125.059998        -5.49442893E-06
   125.250000        -1.57144584E-07
   125.440002         5.38965378E-06
   125.629997         1.05123172E-05
   125.820000         1.45945023E-05
   126.010002         1.71265674E-05
   126.199997         1.77799611E-05
   126.389999         1.64548001E-05
   126.580002         1.32923824E-05
   126.769997         8.65022776E-06
   126.959999         3.04457672E-06
   127.150002        -2.92756908E-06
   127.339996        -8.67151812E-06
   127.529999        -1.36691397E-05
   127.720001        -1.75347068E-05
   127.910004        -2.00468821E-05
   128.100006        -2.11540319E-05
   128.289993        -2.09526261E-05
   128.479996        -1.96425663E-05
   128.669998        -1.74690249E-05
   128.860001        -1.46645498E-05
   129.050003        -1.14053637E-05
   129.240005        -7.79137281E-06
   129.429993        -3.85265139E-06
   129.619995         4.20911249E-07
   129.809998         5.03456931E-06
   130.000000         9.93909271E-06
   130.190002         1.49890566E-05
   130.380005         1.99211372E-05
   130.570007         2.43604318E-05
   130.759995         2.78555672E-05
   130.949997         2.99360727E-05
   131.139999         3.01809378E-05
   131.330002         2.82871770E-05
   131.520004         2.41293128E-05
   131.710007         1.78021673E-05
   131.899994         9.63965886E-06
   132.089996         2.02578136E-07
   132.279999        -9.76829324E-06
   132.470001        -1.94305630E-05
   132.660004        -2.79392680E-05
   132.850006        -3.45504741E-05
   133.039993        -3.87129112E-05
   133.229996        -4.01345387E-05
   133.419998        -3.88155240E-05
   133.610001        -3.50435912E-05
   133.800003        -2.93520152E-05
   133.990005        -2.24455816E-05
   134.179993        -1.51059157E-05
   134.369995        -8.09197445E-06
   134.559998        -2.05151036E-06
   134.750000         2.54524775E-06
   134.940002         5.44515115E-06
   135.130005         6.62539242E-06
   135.320007         6.28224643E-06
   135.509995         4.79635764E-06
   135.699997         2.67634778E-06
   135.889999         4.86038175E-07
   136.080002        -1.23442521E-06
   136.270004        -2.04114849E-06
   136.460007        -1.64230096E-06
   136.649994         6.81617323E-08
   136.839996         3.00003785E-06
   137.029999         6.87937609E-06
   137.220001         1.12835478E-05
   137.410004         1.56970855E-05
   137.600006         1.95819921E-05
   137.789993         2.24513715E-05
   137.979996         2.39334404E-05
   138.169998         2.38157099E-05
   138.360001         2.20644670E-05
   138.550003         1.88192134E-05
   138.740005         1.43639181E-05
   138.929993         9.07886624E-06
   139.119995         3.38012660E-06
   139.309998        -2.34175945E-06
   139.500000        -7.77029436E-06
   139.690002        -1.26884388E-05
   139.880005        -1.69787345E-05
   140.070007        -2.06043824E-05
   140.259995        -2.35815660E-05
   140.449997        -2.59523094E-05
   140.639999        -2.77628696E-05
   140.830002        -2.90491444E-05
   141.020004        -2.98285067E-05
   141.210007        -3.00968750E-05
   141.399994        -2.98294563E-05
   141.589996        -2.89838281E-05
   141.779999        -2.75050352E-05
   141.970001        -2.53338985E-05
   142.160004        -2.24197138E-05
   142.350006        -1.87363748E-05
   142.539993        -1.42979716E-05
   142.729996        -9.16883073E-06
   142.919998        -3.46525280E-06
   143.110001         2.64992559E-06
   143.300003         8.97614154E-06
   143.490005         1.52838402E-05
   143.679993         2.13219500E-05
   143.869995         2.68246567E-05
   144.059998         3.15184479E-05
   144.250000         3.51304698E-05
   144.440002         3.74000592E-05
   144.630005         3.80962811E-05
   144.820007         3.70431371E-05
   145.009995         3.41497471E-05
   145.199997         2.94379097E-05
   145.389999         2.30578007E-05
   145.580002         1.52864359E-05
   145.770004         6.50984339E-06
   145.960007        -2.80536096E-06
   146.149994        -1.21460080E-05
   146.339996        -2.09902537E-05
   146.529999        -2.88493193E-05
   146.720001        -3.53104624E-05
   146.910004        -4.00737954E-05
   147.100006        -4.29736574E-05
   147.289993        -4.39787436E-05
   147.479996        -4.31730150E-05
   147.669998        -4.07253719E-05
   147.860001        -3.68574729E-05
   148.050003        -3.18156890E-05
   148.240005        -2.58495420E-05
   148.429993        -1.91978415E-05
   148.619995        -1.20842806E-05
   148.809998        -4.72356214E-06
   149.000000         2.66477082E-06
   149.190002         9.84263352E-06
   149.380005         1.65494985E-05
   149.570007         2.25140466E-05
   149.759995         2.74791819E-05
   149.949997         3.12318989E-05
   150.139999         3.36286648E-05
   150.330002         3.46114357E-05
   150.520004         3.42145540E-05
   150.710007         3.25641267E-05