  -3.00000000         0.00000000    
  -2.80999994         0.00000000    
  -2.61999989         0.00000000    
  -2.43000007         0.00000000    
  -2.24000001         0.00000000    
  -2.04999995         0.00000000    
  -1.86000001         8.12737264E-23
  -1.66999996        -8.19629207E-22
  -1.48000002        -7.00734747E-21
  -1.28999996        -8.41881728E-21
  -1.10000002         8.79107392E-20
 -0.910000026         4.84862566E-19
 -0.720000029         1.11121107E-18
 -0.529999971         6.03009135E-19
 -0.340000004        -3.96456377E-18
 -0.150000006        -1.26631078E-17
   3.99999991E-02    -1.10180201E-17
  0.230000004         3.94207148E-17
  0.419999987         1.78783218E-16
  0.610000014         3.64405618E-16
  0.800000012         3.51515894E-16
  0.990000010        -3.18407758E-16
   1.17999995        -2.01408214E-15
   1.37000000        -4.36164920E-15
   1.55999994        -5.69232653E-15
   1.75000000        -3.51647634E-15
   1.94000006         3.29751938E-15
   2.13000011         1.14726928E-14
   2.31999993         1.23989530E-14
   2.50999999        -3.02198761E-15
   2.70000005        -3.34459362E-14
   2.89000010        -5.69098195E-14
   3.07999992        -3.42756964E-14
   3.26999998         6.39718787E-14
   3.46000004         2.14486930E-13
   3.65000010         3.11520883E-13
   3.83999991         1.92263740E-13
   4.03000021        -2.61973846E-13
   4.21999979        -9.80273154E-13
   4.40999985        -1.60120918E-12
   4.59999990        -1.52338298E-12
   4.78999996        -1.62572551E-13
   4.98000002         2.63846063E-12
   5.17000008         6.21434067E-12
   5.36000013         8.91799048E-12
   5.55000019         8.39092251E-12
   5.73999977         2.35501787E-12
   5.92999983        -1.01326317E-11
   6.11999989        -2.72291183E-11
   6.30999994        -4.32121422E-11
   6.50000000        -4.85954055E-11
   6.69000006        -3.23873428E-11
   6.88000011         1.30546936E-11
   7.07000017         8.53846299E-11
   7.26000023         1.66433173E-10
   7.44999981         2.21171900E-10
   7.63999987         2.05242767E-10
   7.82999992         8.20964546E-11
   8.02000046        -1.54095917E-10
   8.21000004        -4.58746124E-10
   8.39999962        -7.31935623E-10
   8.59000015        -8.37430625E-10
   8.77999973        -6.46838805E-10
   8.97000027        -9.88548896E-11
   9.15999985         7.46736950E-10
   9.35000038         1.68512049E-09
   9.53999996         2.39275888E-09
   9.72999954         2.51008503E-09
   9.92000008         1.76630266E-09
   10.1099997         1.11358027E-10
   10.3000002        -2.19314056E-09
   10.4899998        -4.57090898E-09
   10.6800003        -6.24264596E-09
   10.8699999        -6.44233866E-09
   11.0600004        -4.68462158E-09
   11.2500000        -9.95858507E-10
   11.4399996         3.98455935E-09
   11.6300001         9.09433417E-09
   11.8199997         1.29266047E-08
   12.0100002         1.42182737E-08
   12.1999998         1.22183499E-08
   12.3900003         6.90710511E-09
   12.5799999        -1.00285458E-09
   12.7700005        -1.02561737E-08
   12.9600000        -1.93237355E-08
   13.1499996        -2.66178954E-08
   13.3400002        -3.05823846E-08
   13.5299997        -2.97039549E-08
   13.7200003        -2.25995755E-08
   13.9099998        -8.34912317E-09
   14.1000004         1.28717499E-08
   14.2900000         3.90191950E-08
   14.4799995         6.56415224E-08
   14.6700001         8.60224745E-08
   14.8599997         9.23139325E-08
   15.0500002         7.76132154E-08
   15.2399998         3.85076042E-08
   15.4300003        -2.27157475E-08
   15.6199999        -9.70487264E-08
   15.8100004        -1.69511736E-07
   16.0000000        -2.21745168E-07
   16.1900005        -2.35955653E-07
   16.3799992        -1.99324901E-07
   16.5699997        -1.07860224E-07
   16.7600002         3.11858095E-08
   16.9500008         1.98875213E-07
   17.1399994         3.66305272E-07
   17.3299999         4.98360691E-07
   17.5200005         5.59136481E-07
   17.7099991         5.18484853E-07
   17.8999996         3.58949620E-07
   18.0900002         8.21283876E-08
   18.2800007        -2.86720621E-07
   18.4699993        -6.97158384E-07
   18.6599998        -1.07641426E-06
   18.8500004        -1.33751973E-06
   19.0400009        -1.39287852E-06
   19.2299995        -1.17228115E-06
   19.4200001        -6.43036344E-07
   19.6100006         1.71326519E-07
   19.7999992         1.17798822E-06
   19.9899998         2.21135701E-06
   20.1800003         3.04179684E-06
   20.3700008         3.39696453E-06
   20.5599995         2.99352655E-06
   20.7500000         1.57465172E-06
   20.9400005        -1.05278059E-06
   21.1299992        -4.98757663E-06
   21.3199997        -1.02155745E-05
   21.5100002        -1.66064456E-05
   21.7000008        -2.39272194E-05
   21.8899994        -3.18714192E-05
   22.0799999        -4.01006000E-05
   22.2700005        -4.82930227E-05
   22.4599991        -5.61925081E-05
   22.6499996        -6.36495970E-05
   22.8400002        -7.06469800E-05
   23.0300007        -7.73029024E-05
   23.2199993        -8.38494088E-05
   23.4099998        -9.05870402E-05
   23.6000004        -9.78227035E-05
   23.7900009        -1.05801795E-04
   23.9799995        -1.14647861E-04
   24.1700001        -1.24322483E-04
   24.3600006        -1.34614296E-04
   24.5499992        -1.45159938E-04
   24.7399998        -1.55493166E-04
   24.9300003        -1.65111764E-04
   25.1200008        -1.73548935E-04
   25.3099995        -1.80435221E-04
   25.5000000        -1.85539917E-04
   25.6900005        -1.88786493E-04
   25.8799992        -1.90242237E-04
   26.0699997        -1.90086983E-04
   26.2600002        -1.88569189E-04
   26.4500008        -1.85958095E-04
   26.6399994        -1.82499367E-04
   26.8299999        -1.78380549E-04
   27.0200005        -1.73710258E-04
   27.2099991        -1.68513914E-04
   27.3999996        -1.62746612E-04
   27.5900002        -1.56321301E-04
   27.7800007        -1.49146843E-04
   27.9699993        -1.41167795E-04
   28.1599998        -1.32396075E-04
   28.3500004        -1.22926314E-04
   28.5400009        -1.12931521E-04
   28.7299995        -1.02641519E-04
   28.9200001        -9.23126863E-05
   29.1100006        -8.21995491E-05
   29.2999992        -7.25372447E-05
   29.4899998        -6.35381657E-05
   29.6800003        -5.53995087E-05
   29.8700008        -4.83132353E-05
   30.0599995        -4.24689388E-05
   30.2500000        -3.80431447E-05
   30.4400005        -3.51744238E-05
   30.6299992        -3.39299477E-05
   30.8199997        -3.42729436E-05
   31.0100002        -3.60405975E-05
   31.2000008        -3.89393281E-05
   31.3899994        -4.25594444E-05
   31.5799999        -4.64070436E-05
   31.7700005        -4.99479793E-05
   31.9599991        -5.26578769E-05
   32.1500015        -5.40726942E-05
   32.3400002        -5.38352033E-05
   32.5299988        -5.17338922E-05
   32.7200012        -4.77309150E-05
   32.9099998        -4.19761018E-05
   33.0999985        -3.48036956E-05
   33.2900009        -2.67095893E-05
   33.4799995        -1.83083921E-05
   33.6699982        -1.02726835E-05
   33.8600006        -3.26047962E-06
   34.0499992         2.15969908E-06
   34.2400017         5.57487829E-06
   34.4300003         6.77407797E-06
   34.6199989         5.76756293E-06
   34.8100014         2.77628624E-06
   35.0000000        -1.80553752E-06
   35.1899986        -7.46735805E-06
   35.3800011        -1.36489198E-05
   35.5699997        -1.98067137E-05
   35.7599983        -2.54719289E-05
   35.9500008        -3.02939770E-05
   36.1399994        -3.40661682E-05
   36.3300018        -3.67322027E-05
   36.5200005        -3.83742954E-05
   36.7099991        -3.91854846E-05
   36.9000015        -3.94306662E-05
   37.0900002        -3.94018643E-05
   37.2799988        -3.93736555E-05
   37.4700012        -3.95636525E-05
   37.6599998        -4.01016405E-05
   37.8499985        -4.10097527E-05
   38.0400009        -4.21956465E-05
   38.2299995        -4.34608337E-05
   38.4199982        -4.45265068E-05
   38.6100006        -4.50776824E-05
   38.7999992        -4.48231367E-05
   38.9900017        -4.35636830E-05
   39.1800003        -4.12561531E-05
   39.3699989        -3.80581441E-05
   39.5600014        -3.43401698E-05
   39.7500000        -3.06583570E-05
   39.9399986        -2.76903702E-05
   40.1300011        -2.61469977E-05
   40.3199997        -2.66784537E-05
   40.5099983        -2.97954266E-05
   40.7000008        -3.58201432E-05
   40.8899994        -4.48732499E-05
   41.0800018        -5.68920368E-05
   41.2700005        -7.16675422E-05
   41.4599991        -8.88851355E-05
   41.6500015        -1.08156404E-04
   41.8400002        -1.29037464E-04
   42.0299988        -1.51037792E-04
   42.2200012        -1.73629072E-04
   42.4099998        -1.96264067E-04
   42.5999985        -2.18409448E-04
   42.7900009        -2.39586807E-04
   42.9799995        -2.59408000E-04
   43.1699982        -2.77587067E-04
   43.3600006        -2.93917081E-04
   43.5499992        -3.08211223E-04
   43.7400017        -3.20222491E-04
   43.9300003        -3.29568429E-04
   44.1199989        -3.35689430E-04
   44.3100014        -3.37864418E-04
   44.5000000        -3.35290883E-04
   44.6899986        -3.27217975E-04
   44.8800011        -3.13104829E-04
   45.0699997        -2.92766548E-04
   45.2599983        -2.66471645E-04
   45.4500008        -2.34966312E-04
   45.6399994        -1.99416478E-04
   45.8300018        -1.61279371E-04
   46.0200005        -1.22130281E-04
   46.2099991        -8.34794482E-05
   46.4000015        -4.66152524E-05
   46.5900002        -1.25019151E-05
   46.7799988         1.82525800E-05
   46.9700012         4.53592838E-05
   47.1599998         6.87576903E-05
   47.3499985         8.84996844E-05
   47.5400009         1.04639548E-04
   47.7299995         1.17158663E-04
   47.9199982         1.25942664E-04
   48.1100006         1.30814107E-04
   48.2999992         1.31608453E-04
   48.4900017         1.28268861E-04
   48.6800003         1.20929246E-04
   48.8699989         1.09957909E-04
   49.0600014         9.59448735E-05
   49.2500000         7.96335371E-05
   49.4399986         6.18150298E-05
   49.6300011         4.32171582E-05
   49.8199997         2.44224393E-05
   50.0099983         5.84079180E-06
   50.2000008        -1.22567162E-05
   50.3899994        -2.96588296E-05
   50.5800018        -4.61233358E-05
   50.7700005        -6.13144730E-05
   50.9599991        -7.48000166E-05
   51.1500015        -8.61188018E-05
   51.3400002        -9.49030436E-05
   51.5299988        -1.01017395E-04
   51.7200012        -1.04666236E-04
   51.9099998        -1.06427156E-04
   52.0999985        -1.07189080E-04
   52.2900009        -1.08001928E-04
   52.4799995        -1.09870583E-04
   52.6699982        -1.13542505E-04
   52.8600006        -1.19340133E-04
   53.0499992        -1.27077321E-04
   53.2400017        -1.36077797E-04
   53.4300003        -1.45288897E-04
   53.6199989        -1.53462941E-04
   53.8100014        -1.59366144E-04
   54.0000000        -1.61973760E-04
   54.1899986        -1.60617841E-04
   54.3800011        -1.55068599E-04
   54.5699997        -1.45545113E-04
   54.7599983        -1.32663932E-04
   54.9500008        -1.17342337E-04
   55.1399994        -1.00676189E-04
   55.3300018        -8.38125707E-05
   55.5200005        -6.78336364E-05
   55.7099991        -5.36627813E-05
   55.9000015        -4.19978824E-05
   56.0900002        -3.32709205E-05
   56.2799988        -2.76308037E-05
   56.4700012        -2.49465083E-05
   56.6599998        -2.48299730E-05
   56.8499985        -2.66803800E-05
   57.0400009        -2.97513725E-05
   57.2299995        -3.32395830E-05
   57.4199982        -3.63870859E-05
   57.6100006        -3.85846542E-05
   57.7999992        -3.94581148E-05
   57.9900017        -3.89206180E-05
   58.1800003        -3.71784372E-05
   58.3699989        -3.46875422E-05
   58.5600014        -3.20696890E-05
   58.7500000        -3.00062948E-05
   58.9399986        -2.91328215E-05
   59.1300011        -2.99541352E-05
   59.3199997        -3.27925009E-05
   59.5099983        -3.77688812E-05
   59.7000008        -4.48083701E-05
   59.8899994        -5.36561274E-05
   60.0800018        -6.38925412E-05
   60.2700005        -7.49436367E-05
   60.4599991        -8.60918590E-05
   60.6500015        -9.64983119E-05
   60.8400002        -1.05248451E-04
   61.0299988        -1.11427013E-04
   61.2200012        -1.14218346E-04
   61.4099998        -1.13017923E-04
   61.5999985        -1.07533742E-04
   61.7900009        -9.78553144E-05
   61.9799995        -8.44730821E-05
   62.1699982        -6.82415921E-05
   62.3600006        -5.02918228E-05
   62.5499992        -3.19085484E-05
   62.7400017        -1.43946991E-05
   62.9300003         1.05568370E-06
   63.1199989         1.34593029E-05
   63.3100014         2.21116861E-05
   63.5000000         2.66204170E-05
   63.6899986         2.69078901E-05
   63.8800011         2.31905906E-05
   64.0699997         1.59420197E-05
   64.2600021         5.84503459E-06
   64.4499969        -6.26288556E-06
   64.6399994        -1.94500371E-05
   64.8300018        -3.27566231E-05
   65.0199966        -4.52661770E-05
   65.2099991        -5.61797460E-05
   65.4000015        -6.48871428E-05
   65.5899963        -7.10267195E-05
   65.7799988        -7.45238140E-05
   65.9700012        -7.55991277E-05
   66.1600037        -7.47411468E-05
   66.3499985        -7.26416765E-05
   66.5400009        -7.00993696E-05
   66.7300034        -6.79025979E-05
   66.9199982        -6.67084678E-05
   67.1100006        -6.69377550E-05
   67.3000031        -6.87049323E-05
   67.4899979        -7.17971197E-05
   67.6800003        -7.57073285E-05
   67.8700027        -7.97170869E-05
   68.0599976        -8.30139106E-05
   68.2500000        -8.48226264E-05
   68.4400024        -8.45268514E-05
   68.6299973        -8.17595719E-05
   68.8199997        -7.64486176E-05
   69.0100021        -6.88121872E-05
   69.1999969        -5.93101249E-05
   69.3899994        -4.85645905E-05
   69.5800018        -3.72690010E-05
   69.7699966        -2.61044133E-05
   69.9599991        -1.56787828E-05
   70.1500015        -6.49711455E-06
   70.3399963         1.03893774E-06
   70.5299988         6.61237482E-06
   70.7200012         9.96872495E-06
   70.9100037         1.09057992E-05
   71.0999985         9.28415920E-06
   71.2900009         5.05708886E-06
   71.4800034        -1.69060286E-06
   71.6699982        -1.07104461E-05
   71.8600006        -2.15787823E-05
   72.0500031        -3.37130768E-05
   72.2399979        -4.64147306E-05
   72.4300003        -5.89304145E-05
   72.6200027        -7.05211351E-05
   72.8099976        -8.05291274E-05
   73.0000000        -8.84358160E-05
   73.1900024        -9.39066085E-05
   73.3799973        -9.68196618E-05
   73.5699997        -9.72748021E-05
   73.7600021        -9.55780561E-05
   73.9499969        -9.21981045E-05
   74.1399994        -8.76951308E-05
   74.3300018        -8.26299947E-05
   74.5199966        -7.74703003E-05
   74.7099991        -7.25154168E-05
   74.9000015        -6.78617653E-05
   75.0899963        -6.34209573E-05
   75.2799988        -5.89887277E-05
   75.4700012        -5.43470669E-05
   75.6600037        -4.93705775E-05
   75.8499985        -4.41060038E-05
   76.0400009        -3.88009503E-05
   76.2300034        -3.38723839E-05
   76.4199982        -2.98228479E-05
   76.6100006        -2.71269746E-05
   76.8000031        -2.61189180E-05
   76.9899979        -2.69105331E-05
   77.1800003        -2.93607791E-05
   77.3700027        -3.31024276E-05
   77.5599976        -3.76167518E-05
   77.7500000        -4.23351157E-05
   77.9400024        -4.67415011E-05
   78.1299973        -5.04519558E-05
   78.3199997        -5.32552258E-05
   78.5100021        -5.51099038E-05
   78.6999969        -5.61052475E-05
   78.8899994        -5.64015827E-05
   79.0800018        -5.61707420E-05
   79.2699966        -5.55548286E-05
   79.4599991        -5.46542287E-05
   79.6500015        -5.35444124E-05
   79.8399963        -5.23105336E-05
   80.0299988        -5.10820282E-05
   80.2200012        -5.00496571E-05
   80.4100037        -4.94537562E-05
   80.5999985        -4.95433706E-05
   80.7900009        -5.05166718E-05
   80.9800034        -5.24605275E-05
   81.1699982        -5.53083119E-05
   81.3600006        -5.88295952E-05
   81.5500031        -6.26557667E-05
   81.7399979        -6.63348110E-05
   81.9300003        -6.94008049E-05
   82.1200027        -7.14415946E-05
   82.3099976        -7.21510660E-05
   82.5000000        -7.13590998E-05
   82.6900024        -6.90390370E-05
   82.8799973        -6.52969902E-05
   83.0699997        -6.03491135E-05
   83.2600021        -5.44917457E-05
   83.4499969        -4.80675371E-05
   83.6399994        -4.14290407E-05
   83.8300018        -3.49017682E-05
   84.0199966        -2.87507282E-05
   84.2099991        -2.31573558E-05
   84.4000015        -1.82147323E-05
   84.5899963        -1.39463627E-05
   84.7799988        -1.03472075E-05
   84.9700012        -7.43718510E-06
   85.1600037        -5.31076921E-06
   85.3499985        -4.16495641E-06
   85.5400009        -4.29300280E-06
   85.7300034        -6.04127854E-06
   85.9199982        -9.73749957E-06
   86.1100006        -1.56069163E-05
   86.3000031        -2.36962678E-05
   86.4899979        -3.38230639E-05
   86.6800003        -4.55616901E-05
   86.8700027        -5.82694738E-05
   87.0599976        -7.11480316E-05
   87.2500000        -8.33293307E-05
   87.4400024        -9.39727397E-05
   87.6299973        -1.02358943E-04
   87.8199997        -1.07968008E-04
   88.0100021        -1.10531437E-04
   88.1999969        -1.10050954E-04
   88.3899994        -1.06781234E-04
   88.5800018        -1.01179008E-04
   88.7699966        -9.38278245E-05
   88.9599991        -8.53531965E-05
   89.1500015        -7.63461867E-05
   89.3399963        -6.73114409E-05
   89.5299988        -5.86485257E-05
   89.7200012        -5.06652323E-05
   89.9100037        -4.36111914E-05
   90.0999985        -3.77135111E-05
   90.2900009        -3.31963638E-05
   90.4800034        -3.02725675E-05
   90.6699982        -2.91059041E-05
   90.8600006        -2.97545284E-05
   91.0500031        -3.21141888E-05
   91.2399979        -3.58824836E-05
   91.4300003        -4.05607680E-05
   91.6200027        -4.55001027E-05
   91.8099976        -4.99851158E-05
   92.0000000        -5.33390194E-05
   92.1900024        -5.50277800E-05
   92.3799973        -5.47423806E-05
   92.5699997        -5.24441966E-05
   92.7600021        -4.83666372E-05
   92.9499969        -4.29744214E-05
   93.1399994        -3.68886031E-05
   93.3300018        -3.07909722E-05
   93.5199966        -2.53253638E-05
   93.7099991        -2.10142971E-05
   93.9000015        -1.82063031E-05
   94.0899963        -1.70618823E-05
   94.2799988        -1.75760852E-05
   94.4700012        -1.96264082E-05
   94.6600037        -2.30292535E-05
   94.8499985        -2.75880939E-05
   95.0400009        -3.31215124E-05
   95.2300034        -3.94671006E-05
   95.4199982        -4.64655495E-05
   95.6100006        -5.39351277E-05
   95.8000031        -6.16490361E-05
   95.9899979        -6.93253605E-05
   96.1800003        -7.66338853E-05
   96.3700027        -8.32172664E-05
   96.5599976        -8.87197239E-05
   96.7500000        -9.28153750E-05
   96.9400024        -9.52309638E-05
   97.1299973        -9.57615630E-05
   97.3199997        -9.42810875E-05
   97.5100021        -9.07509457E-05
   97.6999969        -8.52292214E-05
   97.8899994        -7.78808462E-05
   98.0800018        -6.89865046E-05
   98.2699966        -5.89458214E-05
   98.4599991        -4.82698888E-05
   98.6500015        -3.75587260E-05
   98.8399963        -2.74622907E-05
   99.0299988        -1.86270045E-05
   99.2200012        -1.16331848E-05
   99.4100037        -6.93136144E-06
   99.5999985        -4.78718175E-06
   99.7900009        -5.24515190E-06
   99.9800034        -8.12051439E-06
   100.169998        -1.30250382E-05
   100.360001        -1.94262029E-05
   100.550003        -2.67308860E-05
   100.739998        -3.43768552E-05
   100.930000        -4.19111166E-05
   101.120003        -4.90357124E-05
   101.309998        -5.56093764E-05
   101.500000        -6.16057223E-05
   101.690002        -6.70414229E-05
   101.879997        -7.18972879E-05
   102.070000        -7.60579642E-05
   102.260002        -7.92907158E-05
   102.449997        -8.12725630E-05
   102.639999        -8.16605025E-05
   102.830002        -8.01872666E-05
   103.019997        -7.67569727E-05
   103.209999        -7.15146452E-05
   103.400002        -6.48690548E-05
   103.589996        -5.74592232E-05
   103.779999        -5.00682618E-05
   103.970001        -4.35008551E-05
   104.160004        -3.84498999E-05
   104.349998        -3.53811229E-05
   104.540001        -3.44607797E-05
   104.730003        -3.55415541E-05
   104.919998        -3.82079197E-05
   105.110001        -4.18682139E-05
   105.300003        -4.58697978E-05
   105.489998        -4.96094617E-05
   105.680000        -5.26144286E-05
   105.870003        -5.45796938E-05
   106.059998        -5.53613281E-05
   106.250000        -5.49385113E-05
   106.440002        -5.33648090E-05
   106.629997        -5.07295736E-05
   106.820000        -4.71431122E-05
   107.010002        -4.27480118E-05
   107.199997        -3.77474244E-05
   107.389999        -3.24337561E-05
   107.580002        -2.71999324E-05
   107.769997        -2.25213007E-05
   107.959999        -1.89065304E-05
   108.150002        -1.68272800E-05
   108.339996        -1.66439404E-05
   108.529999        -1.85460558E-05
   108.720001        -2.25208696E-05
   108.910004        -2.83547088E-05
   109.099998        -3.56632554E-05
   109.290001        -4.39413670E-05
   109.480003        -5.26215590E-05
   109.669998        -6.11318246E-05
   109.860001        -6.89459630E-05
   110.050003        -7.56226291E-05
   110.239998        -8.08310724E-05
   110.430000        -8.43635426E-05
   110.620003        -8.61349981E-05
   110.809998        -8.61721128E-05
   111.000000        -8.45940958E-05
   111.190002        -8.15888852E-05
   111.379997        -7.73885331E-05
   111.570000        -7.22472978E-05
   111.760002        -6.64246763E-05
   111.949997        -6.01741995E-05
   112.139999        -5.37376945E-05
   112.330002        -4.73441614E-05
   112.519997        -4.12125519E-05
   112.709999        -3.55573975E-05
   112.900002        -3.05951326E-05
   113.089996        -2.65474391E-05
   113.279999        -2.36371616E-05
   113.470001        -2.20730071E-05
   113.660004        -2.20219554E-05
   113.849998        -2.35725056E-05
   114.040001        -2.66962597E-05
   114.230003        -3.12185584E-05
   114.419998        -3.68093752E-05
   114.610001        -4.30023501E-05
   114.800003        -4.92432409E-05
   114.989998        -5.49607030E-05
   115.180000        -5.96449645E-05
   115.370003        -6.29169226E-05
   115.559998        -6.45721593E-05
   115.750000        -6.45913897E-05
   115.940002        -6.31176954E-05
   116.129997        -6.04091329E-05
   116.320000        -5.67801180E-05
   116.510002        -5.25457363E-05
   116.699997        -4.79800728E-05
   116.889999        -4.32947163E-05
   117.080002        -3.86381653E-05
   117.269997        -3.41129526E-05
   117.459999        -2.98047398E-05
   117.650002        -2.58167402E-05
   117.839996        -2.23021270E-05
   118.029999        -1.94865224E-05
   118.220001        -1.76724952E-05
   118.410004        -1.72193704E-05
   118.599998        -1.84956752E-05
   118.790001        -2.18081404E-05
   118.980003        -2.73189162E-05
   119.169998        -3.49691691E-05
   119.360001        -4.44297111E-05
   119.550003        -5.50960212E-05
   119.739998        -6.61364902E-05
   119.930000        -7.65898440E-05
   120.120003        -8.54952159E-05
   120.309998        -9.20291350E-05
   120.500000        -9.56212170E-05
   120.690002        -9.60254256E-05
   120.879997        -9.33347765E-05
   121.070000        -8.79407162E-05
   121.260002        -8.04503652E-05
   121.449997        -7.15820934E-05
   121.639999        -6.20614883E-05
   121.830002        -5.25362775E-05
   122.019997        -4.35217626E-05
   122.209999        -3.53807918E-05
   122.400002        -2.83349618E-05
   122.589996        -2.24987598E-05
   122.779999        -1.79248436E-05
   122.970001        -1.46475195E-05
   123.160004        -1.27123967E-05
   123.349998        -1.21837520E-05
   123.540001        -1.31271927E-05
   123.730003        -1.55728012E-05
   123.919998        -1.94708173E-05
   124.110001        -2.46555283E-05
   124.300003        -3.08314957E-05
   124.489998        -3.75899217E-05
   124.680000        -4.44535472E-05
   124.870003        -5.09396450E-05
   125.059998        -5.66251219E-05
   125.250000        -6.11973519E-05
   125.440002        -6.44792308E-05
   125.629997        -6.64249455E-05
   125.820000        -6.70916415E-05
   126.010002        -6.65987318E-05
   126.199997        -6.50888614E-05
   126.389999        -6.27020054E-05
   126.580002        -5.95686142E-05
   126.769997        -5.58201937E-05
   126.959999        -5.16096916E-05
   127.150002        -4.71309140E-05
   127.339996        -4.26264050E-05
   127.529999        -3.83771767E-05
   127.720001        -3.46737688E-05
   127.910004        -3.17745398E-05
   128.100006        -2.98623472E-05
   128.289993        -2.90123335E-05
   128.479996        -2.91812448E-05
   128.669998        -3.02224980E-05
   128.860001        -3.19237915E-05
   129.050003        -3.40574152E-05
   129.240005        -3.64301777E-05
   129.429993        -3.89205015E-05
   129.619995        -4.14941169E-05
   129.809998        -4.41953198E-05
   130.000000        -4.71163912E-05
   130.190002        -5.03524534E-05
   130.380005        -5.39520734E-05
   130.570007        -5.78752006E-05
   130.759995        -6.19687708E-05
   130.949997        -6.59670914E-05
   131.139999        -6.95189301E-05
   131.330002        -7.22374898E-05
   131.520004        -7.37644077E-05
   131.710007        -7.38356393E-05
   131.899994        -7.23361736E-05
   132.089996        -6.93320035E-05
   132.279999        -6.50714937E-05
   132.470001        -5.99539708E-05
   132.660004        -5.44700160E-05
   132.850006        -4.91246938E-05
   133.039993        -4.43596000E-05
   133.229996        -4.04906168E-05
   133.419998        -3.76748794E-05
   133.610001        -3.59130427E-05
   133.800003        -3.50837872E-05
   133.990005        -3.49985748E-05
   134.179993        -3.54597069E-05
   134.369995        -3.63045292E-05
   134.559998        -3.74241790E-05
   134.750000        -3.87543623E-05
   134.940002        -4.02452533E-05
   135.130005        -4.18242234E-05
   135.320007        -4.33664645E-05
   135.509995        -4.46846971E-05
   135.699997        -4.55423433E-05
   135.889999        -4.56875168E-05
   136.080002        -4.48999745E-05
   136.270004        -4.30410364E-05
   136.460007        -4.00959143E-05
   136.649994        -3.61996208E-05
   136.839996        -3.16400146E-05
   137.029999        -2.68356871E-05
   137.220001        -2.22913932E-05
   137.410004        -1.85382560E-05
   137.600006        -1.60691361E-05
   137.789993        -1.52797656E-05
   137.979996        -1.64241465E-05
   138.169998        -1.95889024E-05
   138.360001        -2.46874533E-05
   138.550003        -3.14717799E-05
   138.740005        -3.95577408E-05
   138.929993        -4.84592274E-05
   139.119995        -5.76270832E-05
   139.309998        -6.64895197E-05
   139.500000        -7.44922800E-05
   139.690002        -8.11371574E-05
   139.880005        -8.60174114E-05
   140.070007        -8.88473878E-05
   140.259995        -8.94829645E-05
   140.449997        -8.79298314E-05
   140.639999        -8.43378220E-05
   140.830002        -7.89824117E-05
   141.020004        -7.22361292E-05
   141.210007        -6.45338514E-05
   141.399994        -5.63358117E-05
   141.589996        -4.80915151E-05
   141.779999        -4.02074584E-05
   141.970001        -3.30215989E-05
   142.160004        -2.67875057E-05
   142.350006        -2.16706339E-05
   142.539993        -1.77574457E-05
   142.729996        -1.50755723E-05
   142.919998        -1.36199824E-05
   143.110001        -1.33774392E-05
   143.300003        -1.43405996E-05
   143.490005        -1.65053261E-05
   143.679993        -1.98503785E-05
   143.869995        -2.43059221E-05
   144.059998        -2.97233655E-05
   144.250000        -3.58603211E-05
   144.440002        -4.23899182E-05
   144.630005        -4.89350350E-05
   144.820007        -5.51188205E-05
   145.009995        -6.06174581E-05
   145.199997        -6.52005328E-05
   145.389999        -6.87486317E-05
   145.580002        -7.12444162E-05
   145.770004        -7.27406150E-05
   145.960007        -7.33145134E-05
   146.149994        -7.30227475E-05
   146.339996        -7.18706797E-05
   146.529999        -6.98070653E-05
   146.720001        -6.67472996E-05
   146.910004        -6.26195688E-05
   147.100006        -5.74210171E-05
   147.289993        -5.12673869E-05
   147.479996        -4.44208454E-05
   147.669998        -3.72860195E-05
   147.860001        -3.03721445E-05
   148.050003        -2.42280003E-05
   148.240005        -1.93636988E-05
   148.429993        -1.61764819E-05
   148.619995        -1.48959998E-05
   148.809998        -1.55579146E-05
   149.000000        -1.80066618E-05
   149.190002        -2.19218837E-05
   149.380005        -2.68608183E-05
   149.570007        -3.23098393E-05
   149.759995        -3.77402503E-05
   149.949997        -4.26642655E-05
   150.139999        -4.66863567E-05
   150.330002        -4.95440581E-05
   150.520004        -5.11323124E-05
   150.710007        -5.15067768E-05