  -3.00000000       0.00000000    
  -2.80999994       0.00000000    
  -2.61999989       0.00000000    
  -2.43000007       0.00000000    
  -2.24000001       0.00000000    
  -2.04999995       0.00000000    
  -1.86000001       5.17238614E-23
  -1.66999996      -8.52794333E-22
  -1.48000002      -1.07006023E-20
  -1.28999996      -4.63106759E-20
  -1.10000002      -8.62718553E-20
 -0.910000026       2.46521972E-20
 -0.720000029       4.24258222E-19
 -0.529999971       3.18873577E-19
 -0.340000004      -3.11300904E-18
 -0.150000006      -1.24688428E-17
   3.99999991E-02  -2.00529045E-17
  0.230000004       5.25496345E-18
  0.419999987       1.09148977E-16
  0.610000014       2.88009731E-16
  0.800000012       3.83221369E-16
  0.990000010       5.51646717E-17
   1.17999995      -9.68303607E-16
   1.37000000      -2.32054269E-15
   1.55999994      -2.50309692E-15
   1.75000000       6.65028807E-16
   1.94000006       8.00060142E-15
   2.13000011       1.60736767E-14
   2.31999993       1.63226722E-14
   2.50999999      -3.42266003E-16
   2.70000005      -3.31044667E-14
   2.89000010      -6.15139382E-14
   3.07999992      -4.88431893E-14
   3.26999998       3.22447554E-14
   3.46000004       1.59051185E-13
   3.65000010       2.33596074E-13
   3.83999991       1.13278554E-13
   4.03000021      -2.85027264E-13
   4.21999979      -8.46965239E-13
   4.40999985      -1.18849462E-12
   4.59999990      -7.60919756E-13
   4.78999996       8.28676158E-13
   4.98000002       3.38555030E-12
   5.17000008       5.82404697E-12
   5.36000013       6.26900441E-12
   5.55000019       2.72194073E-12
   5.73999977      -5.78857882E-12
   5.92999983      -1.79316544E-11
   6.11999989      -2.92562780E-11
   6.30999994      -3.25094153E-11
   6.50000000      -1.96585907E-11
   6.69000006       1.42514889E-11
   6.88000011       6.61607991E-11
   7.07000017       1.20953025E-10
   7.26000023       1.51326521E-10
   7.44999981       1.24485824E-10
   7.63999987       1.64250696E-11
   7.82999992      -1.69592895E-10
   8.02000046      -3.88426513E-10
   8.21000004      -5.52721702E-10
   8.39999962      -5.54521651E-10
   8.59000015      -3.07958214E-10
   8.77999973       1.99517416E-10
   8.97000027       8.69247285E-10
   9.15999985       1.48988988E-09
   9.35000038       1.78557302E-09
   9.53999996       1.50821944E-09
   9.72999954       5.47867196E-10
   9.92000008      -9.79330728E-10
   10.1099997      -2.70653500E-09
   10.3000002      -4.08114698E-09
   10.4899998      -4.51711202E-09
   10.6800003      -3.59838670E-09
   10.8699999      -1.26836963E-09
   11.0600004       2.07100004E-09
   11.2500000       5.60911628E-09
   11.4399996       8.33559000E-09
   11.6300001       9.35120958E-09
   11.8199997       8.16689916E-09
   12.0100002       4.86326313E-09
   12.1999998       3.44260349E-11
   12.3900003      -5.45642242E-09
   12.5799999      -1.07745741E-08
   12.7700005      -1.52840443E-08
   12.9600000      -1.84731448E-08
   13.1499996      -1.96776000E-08
   13.3400002      -1.78201649E-08
   13.5299997      -1.14661098E-08
   13.7200003       6.06832473E-10
   13.9099998       1.84000459E-08
   14.1000004       3.96541822E-08
   14.2900000       5.93894711E-08
   14.4799995       7.05602119E-08
   14.6700001       6.59653310E-08
   14.8599997       4.09805594E-08
   15.0500002      -3.82995324E-09
   15.2399998      -6.13431084E-08
   15.4300003      -1.18576367E-07
   15.6199999      -1.59588666E-07
   15.8100004      -1.69867278E-07
   16.0000000      -1.40839362E-07
   16.1900005      -7.29918028E-08
   16.3799992       2.34831159E-08
   16.5699997       1.30731394E-07
   16.7600002       2.27235120E-07
   16.9500008       2.92404991E-07
   17.1399994       3.10388543E-07
   17.3299999       2.72303453E-07
   17.5200005       1.77000857E-07
   17.7099991       3.11719610E-08
   17.8999996      -1.50313241E-07
   18.0900002      -3.43642540E-07
   18.2800007      -5.15829697E-07
   18.4699993      -6.26876385E-07
   18.6599998      -6.36100708E-07
   18.8500004      -5.12951033E-07
   19.0400009      -2.50149384E-07
   19.2299995       1.25420229E-07
   19.4200001       5.49695699E-07
   19.6100006       9.30555927E-07
   19.7999992       1.16964054E-06
   19.9899998       1.19260812E-06
   20.1800003       9.79612992E-07
   20.3700008       5.86565989E-07
   20.5599995       1.50046176E-07
   20.7500000      -1.26227746E-07
   20.9400005       2.33996350E-10
   21.1299992       7.75050694E-07
   21.3199997       2.41233920E-06
   21.5100002       5.06695278E-06
   21.7000008       8.81553842E-06
   21.8899994       1.36452500E-05
   22.0799999       1.94482291E-05
   22.2700005       2.60218385E-05
   22.4599991       3.30774747E-05
   22.6499996       4.02624610E-05
   22.8400002       4.71981984E-05
   23.0300007       5.35329273E-05
   23.2199993       5.90013005E-05
   23.4099998       6.34774115E-05
   23.6000004       6.70061927E-05
   23.7900009       6.98017902E-05
   23.9799995       7.22094701E-05
   24.1700001       7.46381702E-05
   24.3600006       7.74794535E-05
   24.5499992       8.10331912E-05
   24.7399998       8.54577374E-05
   24.9300003       9.07545400E-05
   25.1200008       9.67857559E-05
   25.3099995       1.03313185E-04
   25.5000000       1.10041881E-04
   25.6900005       1.16653217E-04
   25.8799992       1.22820202E-04
   26.0699997       1.28207903E-04
   26.2600002       1.32470508E-04
   26.4500008       1.35258364E-04
   26.6399994       1.36243863E-04
   26.8299999       1.35165683E-04
   27.0200005       1.31880835E-04
   27.2099991       1.26409330E-04
   27.3999996       1.18957156E-04
   27.5900002       1.09911045E-04
   27.7800007       9.98068936E-05
   27.9699993       8.92812095E-05
   28.1599998       7.90164122E-05
   28.3500004       6.96872157E-05
   28.5400009       6.19101338E-05
   28.7299995       5.61937122E-05
   28.9200001       5.28874152E-05
   29.1100006       5.21313850E-05
   29.2999992       5.38155255E-05
   29.4899998       5.75607846E-05
   29.6800003       6.27350746E-05
   29.8700008       6.85103587E-05
   30.0599995       7.39575626E-05
   30.2500000       7.81659619E-05
   30.4400005       8.03663934E-05
   30.6299992       8.00359776E-05
   30.8199997       7.69657054E-05
   31.0100002       7.12806650E-05
   31.2000008       6.34126482E-05
   31.3899994       5.40346118E-05
   31.5799999       4.39721771E-05
   31.7700005       3.41090381E-05
   31.9599991       2.52996597E-05
   32.1500015       1.82965796E-05
   32.3400002       1.36933868E-05
   32.5299988       1.18806556E-05
   32.7200012       1.30123426E-05
   32.9099998       1.69835257E-05
   33.0999985       2.34248109E-05
   33.2900009       3.17211779E-05
   33.4799995       4.10615794E-05
   33.6699982       5.05196258E-05
   33.8600006       5.91574826E-05
   34.0499992       6.61374725E-05
   34.2400017       7.08218286E-05
   34.4300003       7.28427913E-05
   34.6199989       7.21310134E-05
   34.8100014       6.88994987E-05
   35.0000000       6.35886317E-05
   35.1899986       5.67846146E-05
   35.3800011       4.91275932E-05
   35.5699997       4.12265217E-05
   35.7599983       3.35961886E-05
   35.9500008       2.66265488E-05
   36.1399994       2.05870329E-05
   36.3300018       1.56592614E-05
   36.5200005       1.19836795E-05
   36.7099991       9.70174642E-06
   36.9000015       8.97737391E-06
   37.0900002       9.98890664E-06
   37.2799988       1.28936053E-05
   37.4700012       1.77763122E-05
   37.6599998       2.45994142E-05
   37.8499985       3.31704869E-05
   38.0400009       4.31379012E-05
   38.2299995       5.40156434E-05
   38.4199982       6.52301387E-05
   38.6100006       7.61766642E-05
   38.7999992       8.62725283E-05
   38.9900017       9.49976748E-05
   39.1800003       1.01918762E-04
   39.3699989       1.06698353E-04
   39.5600014       1.09093584E-04
   39.7500000       1.08949920E-04
   39.9399986       1.06194078E-04
   40.1300011       1.00828511E-04
   40.3199997       9.29282760E-05
   40.5099983       8.26404648E-05
   40.7000008       7.01863391E-05
   40.8899994       5.58661995E-05
   41.0800018       4.00658391E-05
   41.2700005       2.32619586E-05
   41.4599991       6.02222963E-06
   41.6500015      -1.10050087E-05
   41.8400002      -2.71149638E-05
   42.0299988      -4.15851864E-05
   42.2200012      -5.37257183E-05
   42.4099998      -6.29335336E-05
   42.5999985      -6.87428037E-05
   42.7900009      -7.08632069E-05
   42.9799995      -6.92026661E-05
   43.1699982      -6.38760102E-05
   43.3600006      -5.52057318E-05
   43.5499992      -4.37219605E-05
   43.7400017      -3.01645759E-05
   43.9300003      -1.54821646E-05
   44.1199989      -8.14105363E-07
   44.3100014       1.25618253E-05
   44.5000000       2.33289793E-05
   44.6899986       3.02781209E-05
   44.8800011       3.24817702E-05
   45.0699997       2.94618403E-05
   45.2599983       2.13073999E-05
   45.4500008       8.70439726E-06
   45.6399994      -7.14270027E-06
   45.8300018      -2.46898253E-05
   46.0200005      -4.22963349E-05
   46.2099991      -5.84759509E-05
   46.4000015      -7.20961980E-05
   46.5900002      -8.24831513E-05
   46.7799988      -8.94179248E-05
   46.9700012      -9.30436581E-05
   47.1599998      -9.37243749E-05
   47.3499985      -9.19041049E-05
   47.5400009      -8.80041989E-05
   47.7299995      -8.23760638E-05
   47.9199982      -7.53045242E-05
   48.1100006      -6.70406444E-05
   48.2999992      -5.78378458E-05
   48.4900017      -4.79699265E-05
   48.6800003      -3.77221331E-05
   48.8699989      -2.73597398E-05
   49.0600014      -1.70882213E-05
   49.2500000      -7.02186890E-06
   49.4399986       2.82610677E-06
   49.6300011       1.25261458E-05
   49.8199997       2.21900555E-05
   50.0099983       3.19127357E-05
   50.2000008       4.17115189E-05
   50.3899994       5.14785170E-05
   50.5800018       6.09597409E-05
   50.7700005       6.97688956E-05
   50.9599991       7.74353757E-05
   51.1500015       8.34769453E-05
   51.3400002       8.74823236E-05
   51.5299988       8.91881136E-05
   51.7200012       8.85369955E-05
   51.9099998       8.57082850E-05
   52.0999985       8.11152131E-05
   52.2900009       7.53670101E-05
   52.4799995       6.91984897E-05
   52.6699982       6.33754607E-05
   52.8600006       5.85897687E-05
   53.0499992       5.53608697E-05
   53.2400017       5.39607790E-05
   53.4300003       5.43767237E-05
   53.6199989       5.63208232E-05
   53.8100014       5.92891847E-05
   54.0000000       6.26628680E-05
   54.1899986       6.58320641E-05
   54.3800011       6.83159815E-05
   54.5699997       6.98491422E-05
   54.7599983       7.04117265E-05
   54.9500008       7.01969766E-05
   55.1399994       6.95258350E-05
   55.3300018       6.87326683E-05
   55.5200005       6.80526500E-05
   55.7099991       6.75393967E-05
   55.9000015       6.70327063E-05
   56.0900002       6.61832237E-05
   56.2799988       6.45261389E-05
   56.4700012       6.15841273E-05
   56.6599998       5.69741533E-05
   56.8499985       5.04948439E-05
   57.0400009       4.21798286E-05
   57.2299995       3.23129098E-05
   57.4199982       2.14093234E-05
   57.6100006       1.01708556E-05
   57.7999992      -5.77582910E-07
   57.9900017      -9.96429480E-06
   58.1800003      -1.71558404E-05
   58.3699989      -2.14463853E-05
   58.5600014      -2.23449952E-05
   58.7500000      -1.96511173E-05
   58.9399986      -1.35051414E-05
   59.1300011      -4.40007398E-06
   59.3199997       6.85573013E-06
   59.5099983       1.92253119E-05
   59.7000008       3.15677025E-05
   59.8899994       4.27786690E-05
   60.0800018       5.19222413E-05
   60.2700005       5.83318033E-05
   60.4599991       6.16680918E-05
   60.6500015       6.19314596E-05
   60.8400002       5.94325720E-05
   61.0299988       5.47304189E-05
   61.2200012       4.85481069E-05
   61.4099998       4.16779221E-05
   61.5999985       3.48864560E-05
   61.7900009       2.88297906E-05
   61.9799995       2.39867913E-05
   62.1699982       2.06175646E-05
   62.3600006       1.87518162E-05
   62.5499992       1.82087060E-05
   62.7400017       1.86447432E-05
   62.9300003       1.96212441E-05
   63.1199989       2.06795594E-05
   63.3100014       2.14126139E-05
   63.5000000       2.15237669E-05
   63.6899986       2.08668953E-05
   63.8800011       1.94631593E-05
   64.0699997       1.74912493E-05
   64.2600021       1.52507037E-05
   64.4499969       1.31031547E-05
   64.6399994       1.14022487E-05
   64.8300018       1.04265091E-05
   65.0199966       1.03287284E-05
   65.2099991       1.11111685E-05
   65.4000015       1.26303630E-05
   65.5899963       1.46302000E-05
   65.7799988       1.67974777E-05
   65.9700012       1.88296017E-05
   66.1600037       2.05003143E-05
   66.3499985       2.17081124E-05
   66.5400009       2.24949017E-05
   66.7300034       2.30291662E-05
   66.9199982       2.35563020E-05
   67.1100006       2.43264712E-05
   67.3000031       2.55160103E-05
   67.4899979       2.71617409E-05
   67.6800003       2.91270153E-05
   67.8700027       3.11125550E-05
   68.0599976       3.27138769E-05
   68.2500000       3.35130972E-05
   68.4400024       3.31816955E-05
   68.6299973       3.15674843E-05
   68.8199997       2.87439434E-05
   69.0100021       2.50109078E-05
   69.1999969       2.08472757E-05
   69.3899994       1.68266051E-05
   69.5800018       1.35143991E-05
   69.7699966       1.13706692E-05
   69.9599991       1.06809621E-05
   70.1500015       1.15313469E-05
   70.3399963       1.38288860E-05
   70.5299988       1.73541466E-05
   70.7200012       2.18233381E-05
   70.9100037       2.69383672E-05
   71.0999985       3.24120847E-05
   71.2900009       3.79676640E-05
   71.4800034       4.33205132E-05
   71.6699982       4.81561401E-05
   71.8600006       5.21185284E-05
   72.0500031       5.48205971E-05
   72.2399979       5.58820102E-05
   72.4300003       5.49900906E-05
   72.6200027       5.19701789E-05
   72.8099976       4.68469152E-05
   73.0000000       3.98793491E-05
   73.1900024       3.15597608E-05
   73.3799973       2.25742442E-05
   73.5699997       1.37300858E-05
   73.7600021       5.85971020E-06
   73.9499969      -2.84962908E-07
   74.1399994      -4.13086036E-06
   74.3300018      -5.35755089E-06
   74.5199966      -3.93366054E-06
   74.7099991      -1.11456174E-07
   74.9000015       5.61577008E-06
   75.0899963       1.25830375E-05
   75.2799988       2.00374689E-05
   75.4700012       2.72250363E-05
   75.6600037       3.34697215E-05
   75.8499985       3.82354629E-05
   76.0400009       4.11636574E-05
   76.2300034       4.20837350E-05
   76.4199982       4.10003449E-05
   76.6100006       3.80652527E-05
   76.8000031       3.35432560E-05
   76.9899979       2.77791241E-05
   77.1800003       2.11691859E-05
   77.3700027       1.41379087E-05
   77.5599976       7.11812663E-06
   77.7500000       5.33221112E-07
   77.9400024      -5.21943684E-06
   78.1299973      -9.78255684E-06
   78.3199997      -1.28480342E-05
   78.5100021      -1.41598521E-05
   78.6999969      -1.35134642E-05
   78.8899994      -1.07590940E-05
   79.0800018      -5.81758650E-06
   79.2699966       1.28730403E-06
   79.4599991       1.03859684E-05
   79.6500015       2.11246897E-05
   79.8399963       3.29513423E-05
   80.0299988       4.51401647E-05
   80.2200012       5.68597970E-05
   80.4100037       6.72752940E-05
   80.5999985       7.56633672E-05
   80.7900009       8.15141102E-05
   80.9800034       8.45940885E-05
   81.1699982       8.49546341E-05
   81.3600006       8.28842021E-05
   81.5500031       7.88192410E-05
   81.7399979       7.32390472E-05
   81.9300003       6.65724583E-05
   82.1200027       5.91383614E-05
   82.3099976       5.11305261E-05
   82.5000000       4.26450424E-05
   82.6900024       3.37385245E-05
   82.8799973       2.44989078E-05
   83.0699997       1.51081431E-05
   83.2600021       5.87815202E-06
   83.4499969      -2.75240632E-06
   83.6399994      -1.02633448E-05
   83.8300018      -1.61321350E-05
   84.0199966      -1.99298702E-05
   84.2099991      -2.14111769E-05
   84.4000015      -2.05748493E-05
   84.5899963      -1.76775611E-05
   84.7799988      -1.31940769E-05
   84.9700012      -7.73205920E-06
   85.1600037      -1.92309835E-06
   85.3499985       3.68123006E-06
   85.5400009       8.68219013E-06
   85.7300034       1.28613019E-05
   85.9199982       1.61637727E-05
   86.1100006       1.86525758E-05
   86.3000031       2.04537555E-05
   86.4899979       2.17115630E-05
   86.6800003       2.25643380E-05
   86.8700027       2.31422582E-05
   87.0599976       2.35796397E-05
   87.2500000       2.40293757E-05
   87.4400024       2.46671170E-05
   87.6299973       2.56775329E-05
   87.8199997       2.72229736E-05
   88.0100021       2.94028323E-05
   88.1999969       3.22167180E-05
   88.3899994       3.55444281E-05
   88.5800018       3.91510002E-05
   88.7699966       4.27177765E-05
   88.9599991       4.58929717E-05
   89.1500015       4.83498479E-05
   89.3399963       4.98385416E-05
   89.5299988       5.02191870E-05
   89.7200012       4.94695050E-05
   89.9100037       4.76674031E-05
   90.0999985       4.49569270E-05
   90.2900009       4.15106224E-05
   90.4800034       3.75015297E-05
   90.6699982       3.30931653E-05
   90.8600006       2.84477101E-05
   91.0500031       2.37448767E-05
   91.2399979       1.91993877E-05
   91.4300003       1.50656761E-05
   91.6200027       1.16233277E-05
   91.8099976       9.14373868E-06
   92.0000000       7.84489748E-06
   92.1900024       7.84539952E-06
   92.3799973       9.13024178E-06
   92.5699997       1.15395151E-05
   92.7600021       1.47866122E-05
   92.9499969       1.85051449E-05
   93.1399994       2.23148836E-05
   93.3300018       2.58899599E-05
   93.5199966       2.90104745E-05
   93.7099991       3.15831130E-05
   93.9000015       3.36259909E-05
   94.0899963       3.52235948E-05
   94.2799988       3.64659827E-05
   94.4700012       3.73901858E-05
   94.6600037       3.79410267E-05
   94.8499985       3.79642661E-05
   95.0400009       3.72369723E-05
   95.2300034       3.55302000E-05
   95.4199982       3.26884074E-05
   95.6100006       2.87033545E-05
   95.8000031       2.37594850E-05
   95.9899979       1.82346848E-05
   96.1800003       1.26522946E-05
   96.3700027       7.59360228E-06
   96.5599976       3.59093747E-06
   96.7500000       1.02738579E-06
   96.9400024       6.84700012E-08
   97.1299973       6.43622343E-07
   97.3199997       2.48196056E-06
   97.5100021       5.19136938E-06
   97.6999969       8.35733954E-06
   97.8899994       1.16330875E-05
   98.0800018       1.47971350E-05
   98.2699966       1.77664424E-05
   98.4599991       2.05676024E-05
   98.6500015       2.32806269E-05
   98.8399963       2.59762710E-05
   99.0299988       2.86675822E-05
   99.2200012       3.12901648E-05
   99.4100037       3.37154379E-05
   99.5999985       3.57900171E-05
   99.7900009       3.73859839E-05
   99.9800034       3.84439663E-05
   100.169998       3.89942397E-05
   100.360001       3.91487047E-05
   100.550003       3.90658024E-05
   100.739998       3.88985027E-05
   100.930000       3.87408763E-05
   101.120003       3.85899439E-05
   101.309998       3.83360639E-05
   101.500000       3.77870638E-05
   101.690002       3.67205394E-05
   101.879997       3.49496077E-05
   102.070000       3.23828826E-05
   102.260002       2.90619537E-05
   102.449997       2.51669244E-05
   102.639999       2.09896079E-05
   102.830002       1.68819915E-05
   103.019997       1.31927482E-05
   103.209999       1.02069798E-05
   103.400002       8.10344045E-06
   103.589996       6.93922311E-06
   103.779999       6.66479809E-06
   103.970001       7.16390832E-06
   104.160004       8.30596400E-06
   104.349998       9.99485110E-06
   104.540001       1.21985850E-05
   104.730003       1.49486186E-05
   104.919998       1.83055527E-05
   105.110001       2.22985673E-05
   105.300003       2.68564563E-05
   105.489998       3.17550075E-05
   105.680000       3.66042877E-05
   105.870003       4.08886262E-05
   106.059998       4.40547774E-05
   106.250000       4.56262424E-05
   106.440002       4.53113207E-05
   106.629997       4.30734690E-05
   106.820000       3.91439789E-05
   107.010002       3.39746693E-05
   107.199997       2.81454777E-05
   107.389999       2.22531435E-05
   107.580002       1.68097322E-05
   107.769997       1.21740150E-05
   107.959999       8.52745598E-06
   108.150002       5.89410911E-06
   108.339996       4.19327353E-06
   108.529999       3.30727335E-06
   108.720001       3.14455406E-06
   108.910004       3.68029100E-06
   109.099998       4.96276016E-06
   109.290001       7.08317884E-06
   109.480003       1.01178384E-05
   109.669998       1.40608654E-05
   109.860001       1.87703317E-05
   110.050003       2.39476612E-05
   110.239998       2.91609394E-05
   110.430000       3.39098588E-05
   110.620003       3.77175966E-05
   110.809998       4.02264668E-05
   111.000000       4.12719783E-05
   111.190002       4.09149434E-05
   111.379997       3.94219751E-05
   111.570000       3.71989045E-05
   111.760002       3.46950255E-05
   111.949997       3.23043023E-05
   112.139999       3.02900426E-05
   112.330002       2.87517851E-05
   112.519997       2.76397896E-05
   112.709999       2.68084550E-05
   112.900002       2.60896504E-05
   113.089996       2.53632916E-05
   113.279999       2.46054678E-05
   113.470001       2.39019355E-05
   113.660004       2.34240906E-05
   113.849998       2.33734081E-05
   114.040001       2.39082783E-05
   114.230003       2.50728717E-05
   114.419998       2.67498472E-05
   114.610001       2.86550421E-05
   114.800003       3.03818761E-05
   114.989998       3.14881472E-05
   115.180000       3.16032929E-05
   115.370003       3.05257563E-05
   115.559998       2.82815654E-05
   115.750000       2.51263409E-05
   115.940002       2.14895899E-05
   116.129997       1.78772061E-05
   116.320000       1.47596784E-05
   116.510002       1.24766257E-05
   116.699997       1.11815189E-05
   116.889999       1.08367467E-05
   117.080002       1.12532907E-05
   117.269997       1.21576650E-05
   117.459999       1.32648047E-05
   117.650002       1.43392035E-05
   117.839996       1.52338434E-05
   118.029999       1.59033061E-05
   118.220001       1.63921559E-05
   118.410004       1.68030565E-05
   118.599998       1.72526652E-05
   118.790001       1.78268638E-05
   118.980003       1.85483786E-05
   119.169998       1.93671367E-05
   119.360001       2.01770908E-05
   119.550003       2.08549900E-05
   119.739998       2.13094190E-05
   119.930000       2.15248401E-05
   120.120003       2.15855616E-05
   120.309998       2.16689368E-05
   120.500000       2.20051752E-05
   120.690002       2.28114986E-05
   120.879997       2.42183105E-05
   121.070000       2.62103404E-05
   121.260002       2.86034410E-05
   121.449997       3.10677060E-05
   121.639999       3.31930678E-05
   121.830002       3.45802073E-05
   122.019997       3.49315596E-05
   122.209999       3.41177183E-05
   122.400002       3.22023516E-05
   122.589996       2.94215006E-05
   122.779999       2.61262958E-05
   122.970001       2.27073306E-05
   123.160004       1.95215343E-05
   123.349998       1.68381866E-05
   123.540001       1.48127974E-05
   123.730003       1.34890806E-05
   123.919998       1.28235815E-05
   124.110001       1.27247431E-05
   124.300003       1.30972649E-05
   124.489998       1.38822279E-05
   124.680000       1.50833785E-05
   124.870003       1.67715098E-05
   125.059998       1.90629835E-05
   125.250000       2.20750844E-05
   125.440002       2.58681484E-05
   125.629997       3.03898887E-05
   125.820000       3.54386066E-05
   126.010002       4.06583895E-05
   126.199997       4.55716436E-05
   126.389999       4.96443572E-05
   126.580002       5.23702474E-05
   126.769997       5.33541133E-05
   126.959999       5.23743984E-05
   127.150002       4.94108572E-05
   127.339996       4.46339473E-05
   127.529999       3.83634215E-05
   127.720001       3.10120267E-05
   127.910004       2.30317310E-05
   128.100006       1.48748468E-05
   128.289993       6.97383575E-06
   128.479996      -2.64901189E-07
   128.669998      -6.46248645E-06
   128.860001      -1.12731968E-05
   129.050003      -1.43992665E-05
   129.240005      -1.56148144E-05
   129.429993      -1.47949022E-05
   129.619995      -1.19436490E-05
   129.809998      -7.21523611E-06
   130.000000      -9.22503659E-07
   130.190002       6.47094384E-06
   130.380005       1.43779862E-05
   130.570007       2.21359551E-05
   130.759995       2.90740536E-05
   130.949997       3.45944973E-05
   131.139999       3.82559192E-05
   131.330002       3.98427910E-05
   131.520004       3.94036761E-05
   131.710007       3.72458235E-05
   131.899994       3.38837890E-05
   132.089996       2.99515832E-05
   132.279999       2.60974084E-05
   132.470001       2.28837107E-05
   132.660004       2.07121720E-05
   132.850006       1.97850168E-05
   133.039993       2.01038656E-05
   133.229996       2.14988122E-05
   133.419998       2.36760352E-05
   133.610001       2.62725116E-05
   133.800003       2.89094824E-05
   133.990005       3.12397824E-05
   134.179993       3.29856994E-05
   134.369995       3.39636645E-05
   134.559998       3.40922379E-05
   134.750000       3.33817734E-05
   134.940002       3.19091778E-05
   135.130005       2.97863153E-05
   135.320007       2.71334557E-05
   135.509995       2.40674035E-05
   135.699997       2.07078938E-05
   135.889999       1.71979373E-05
   136.080002       1.37267207E-05
   136.270004       1.05404433E-05
   136.460007       7.92909032E-06
   136.649994       6.18549029E-06
   136.839996       5.54505868E-06
   137.029999       6.12498980E-06
   137.220001       7.88514353E-06
   137.410004       1.06267962E-05
   137.600006       1.40320590E-05
   137.789993       1.77324036E-05
   137.979996       2.13856838E-05
   138.169998       2.47401986E-05
   138.360001       2.76699866E-05
   138.550003       3.01743639E-05
   138.740005       3.23435306E-05
   138.929993       3.42999265E-05
   139.119995       3.61313578E-05
   139.309998       3.78350960E-05
   139.500000       3.92903494E-05
   139.690002       4.02694386E-05
   139.880005       4.04868952E-05
   140.070007       3.96749492E-05
   140.259995       3.76663447E-05
   140.449997       3.44627369E-05
   140.639999       3.02695735E-05
   140.830002       2.54851057E-05
   141.020004       2.06422410E-05
   141.210007       1.63143050E-05
   141.399994       1.30067383E-05
   141.589996       1.10611272E-05
   141.779999       1.05943927E-05
   141.970001       1.14853883E-05
   142.160004       1.34085230E-05
   142.350006       1.59037936E-05
   142.539993       1.84666205E-05
   142.729996       2.06390996E-05
   142.919998       2.20852944E-05
   143.110001       2.26370630E-05
   143.300003       2.23036295E-05
   143.490005       2.12469113E-05
   143.679993       1.97326153E-05
   143.869995       1.80712050E-05
   144.059998       1.65619822E-05
   144.250000       1.54491481E-05
   144.440002       1.48943509E-05
   144.630005       1.49670968E-05
   144.820007       1.56526239E-05
   145.009995       1.68742044E-05
   145.199997       1.85233894E-05
   145.389999       2.04886746E-05
   145.580002       2.26731190E-05
   145.770004       2.49953991E-05
   145.960007       2.73753594E-05
   146.149994       2.97115239E-05
   146.339996       3.18617531E-05
   146.529999       3.36381272E-05
   146.720001       3.48232461E-05
   146.910004       3.52082643E-05
   147.100006       3.46446432E-05
   147.289993       3.30945950E-05
   147.479996       3.06627589E-05
   147.669998       2.75959810E-05
   147.860001       2.42480146E-05
   148.050003       2.10176695E-05
   148.240005       1.82769400E-05
   148.429993       1.63070545E-05
   148.619995       1.52559951E-05
   148.809998       1.51239674E-05
   149.000000       1.57769337E-05
   149.190002       1.69837313E-05
   149.380005       1.84688761E-05
   149.570007       1.99702154E-05
   149.759995       2.12888790E-05
   149.949997       2.23201587E-05
   150.139999       2.30589285E-05
   150.330002       2.35804928E-05
   150.520004       2.40046011E-05
   150.710007       2.44539297E-05
   150.899994       2.50180929E-05
   151.089996       2.57314114E-05
   151.279999       2.65687049E-05
   151.470001       2.74594586E-05
   151.660004       2.83163445E-05
   151.850006       2.90698881E-05
   152.039993       2.96979706E-05
   152.229996       3.02392491E-05
   152.419998       3.07842056E-05
   152.610001       3.14451281E-05
   152.800003       3.23140521E-05
   152.990005       3.34218494E-05
   153.179993       3.47111818E-05
   153.369995       3.60313861E-05
   153.559998       3.71570641E-05
   153.750000       3.78261029E-05
   153.940002       3.77885845E-05
   154.130005       3.68564106E-05
   154.320007       3.49437069E-05
   154.509995       3.20906656E-05
   154.699997       2.84668604E-05
   154.889999       2.43537615E-05
   155.080002       2.01091298E-05
   155.270004       1.61187618E-05
   155.460007       1.27431367E-05
   155.649994       1.02681915E-05
   155.839996       8.86923681E-06
   156.029999       8.59435750E-06
   156.220001       9.36886318E-06
   156.410004       1.10173405E-05
   156.600006       1.32968471E-05
   156.789993       1.59346146E-05
   156.979996       1.86652360E-05
   157.169998       2.12636660E-05
   157.360001       2.35703774E-05
   157.550003       2.55045379E-05
   157.740005       2.70618839E-05
   157.929993       2.82971505E-05
   158.119995       2.92955028E-05
   158.309998       3.01413929E-05
   158.500000       3.08941417E-05
   158.690002       3.15768921E-05
   158.880005       3.21803018E-05
   159.070007       3.26767586E-05
   159.259995       3.30374569E-05
   159.449997       3.32446834E-05
   159.639999       3.32951313E-05