  -3.00000000         0.00000000    
  -2.80999994         0.00000000    
  -2.61999989         0.00000000    
  -2.43000007         0.00000000    
  -2.24000001         0.00000000    
  -2.04999995         0.00000000    
  -1.86000001         5.78487025E-22
  -1.66999996         2.27011581E-21
  -1.48000002        -9.54313022E-21
  -1.28999996        -7.86623236E-20
  -1.10000002        -1.45231267E-19
 -0.910000026         3.03803457E-19
 -0.720000029         1.98310493E-18
 -0.529999971         3.35130447E-18
 -0.340000004        -2.59314856E-18
 -0.150000006        -2.27385201E-17
   3.99999991E-02    -3.90706355E-17
  0.230000004         1.84548511E-17
  0.419999987         2.36288073E-16
  0.610000014         5.57186161E-16
  0.800000012         5.77044319E-16
  0.990000010        -3.93270780E-16
   1.17999995        -2.68574708E-15
   1.37000000        -5.27213423E-15
   1.55999994        -5.49300909E-15
   1.75000000        -8.17714490E-16
   1.94000006         7.59824468E-15
   2.13000011         1.25989968E-14
   2.31999993         4.30474765E-15
   2.50999999        -2.00251193E-14
   2.70000005        -4.60127813E-14
   2.89000010        -4.37523146E-14
   3.07999992         1.23608221E-14
   3.26999998         1.14575707E-13
   3.46000004         2.06716114E-13
   3.65000010         2.02474471E-13
   3.83999991         3.20134950E-14
   4.03000021        -3.12026853E-13
   4.21999979        -7.52887715E-13
   4.40999985        -1.12203595E-12
   4.59999990        -1.13683553E-12
   4.78999996        -3.84414939E-13
   4.98000002         1.56702722E-12
   5.17000008         4.77813579E-12
   5.36000013         8.30089556E-12
   5.55000019         9.70820820E-12
   5.73999977         5.50890713E-12
   5.92999983        -7.02732404E-12
   6.11999989        -2.69910483E-11
   6.30999994        -4.74444373E-11
   6.50000000        -5.56827258E-11
   6.69000006        -3.75495086E-11
   6.88000011         1.49001055E-11
   7.07000017         9.54810814E-11
   7.26000023         1.79939078E-10
   7.44999981         2.29254962E-10
   7.63999987         2.00839109E-10
   7.82999992         6.53623475E-11
   8.02000046        -1.75117920E-10
   8.21000004        -4.73346529E-10
   8.39999962        -7.33965833E-10
   8.59000015        -8.28396074E-10
   8.77999973        -6.31860841E-10
   8.97000027        -7.91984672E-11
   9.15999985         7.76377351E-10
   9.35000038         1.72913672E-09
   9.53999996         2.44087861E-09
   9.72999954         2.53010857E-09
   9.92000008         1.71564285E-09
   10.1099997        -3.26997353E-11
   10.3000002        -2.40164044E-09
   10.4899998        -4.75558481E-09
   10.6800003        -6.28843333E-09
   10.8699999        -6.27080121E-09
   11.0600004        -4.31366720E-09
   11.2500000        -5.54410795E-10
   11.4399996         4.30720259E-09
   11.6300001         9.14485376E-09
   11.8199997         1.26753816E-08
   12.0100002         1.37798484E-08
   12.1999998         1.17817569E-08
   12.3900003         6.61262689E-09
   12.5799999        -1.15794130E-09
   12.7700005        -1.04049382E-08
   12.9600000        -1.95971595E-08
   13.1499996        -2.69724758E-08
   13.3400002        -3.07237542E-08
   13.5299997        -2.92073423E-08
   13.7200003        -2.12017888E-08
   13.9099998        -6.24242169E-09
   14.1000004         1.49676325E-08
   14.2900000         4.01268565E-08
   14.4799995         6.50352732E-08
   14.6700001         8.36770582E-08
   14.8599997         8.89765062E-08
   15.0500002         7.43995798E-08
   15.2399998         3.62539900E-08
   15.4300003        -2.39018849E-08
   15.6199999        -9.76841932E-08
   15.8100004        -1.70097238E-07
   16.0000000        -2.22027367E-07
   16.1900005        -2.34688940E-07
   16.3799992        -1.94866715E-07
   16.5699997        -9.93771465E-08
   16.7600002         4.26184776E-08
   16.9500008         2.10073907E-07
   17.1399994         3.73024676E-07
   17.3299999         4.97193241E-07
   17.5200005         5.49284096E-07
   17.7099991         5.02365367E-07
   17.8999996         3.41156294E-07
   18.0900002         6.71589220E-08
   18.2800007        -2.96793729E-07
   18.4699993        -7.03723856E-07
   18.6599998        -1.08326253E-06
   18.8500004        -1.34794766E-06
   19.0400009        -1.40628413E-06
   19.2299995        -1.18208277E-06
   19.4200001        -6.37362859E-07
   19.6100006         2.05895560E-07
   19.7999992         1.25078304E-06
   19.9899998         2.32218167E-06
   20.1800003         3.17778881E-06
   20.3700008         3.53288056E-06
   20.5599995         3.09522466E-06
   20.7500000         1.60456023E-06
   20.9400005        -1.12960424E-06
   21.1299992        -5.19765354E-06
   21.3199997        -1.05716999E-05
   21.5100002        -1.71029751E-05
   21.7000008        -2.45365500E-05
   21.8899994        -3.25430628E-05
   22.0799999        -4.07644256E-05
   22.2700005        -4.88674232E-05
   22.4599991        -5.65966438E-05
   22.6499996        -6.38169222E-05
   22.8400002        -7.05364364E-05
   23.0300007        -7.69045218E-05
   23.2199993        -8.31832222E-05
   23.4099998        -8.96964993E-05
   23.6000004        -9.67662054E-05
   23.7900009        -1.04646060E-04
   23.9799995        -1.13465787E-04
   24.1700001        -1.23195234E-04
   24.3600006        -1.33634734E-04
   24.5499992        -1.44433172E-04
   24.7399998        -1.55131085E-04
   24.9300003        -1.65221383E-04
   25.1200008        -1.74217435E-04
   25.3099995        -1.81716154E-04
   25.5000000        -1.87444559E-04
   25.6900005        -1.91280677E-04
   25.8799992        -1.93246582E-04
   26.0699997        -1.93477637E-04
   26.2600002        -1.92178137E-04
   26.4500008        -1.89576254E-04
   26.6399994        -1.85888886E-04
   26.8299999        -1.81302152E-04
   27.0200005        -1.75966008E-04
   27.2099991        -1.69997234E-04
   27.3999996        -1.63483550E-04
   27.5900002        -1.56484137E-04
   27.7800007        -1.49026891E-04
   27.9699993        -1.41107535E-04
   28.1599998        -1.32696907E-04
   28.3500004        -1.23761070E-04
   28.5400009        -1.14292663E-04
   28.7299995        -1.04346269E-04
   28.9200001        -9.40660830E-05
   29.1100006        -8.36955151E-05
   29.2999992        -7.35635695E-05
   29.4899998        -6.40507060E-05
   29.6800003        -5.55434308E-05
   29.8700008        -4.83888507E-05
   30.0599995        -4.28577332E-05
   30.2500000        -3.91191134E-05
   30.4400005        -3.72247305E-05
   30.6299992        -3.71003298E-05
   30.8199997        -3.85430831E-05
   31.0100002        -4.12280569E-05
   31.2000008        -4.47282182E-05
   31.3899994        -4.85503733E-05
   31.5799999        -5.21840411E-05
   31.7700005        -5.51543635E-05
   31.9599991        -5.70674601E-05
   32.1500015        -5.76387829E-05
   32.3400002        -5.67015486E-05
   32.5299988        -5.42000853E-05
   32.7200012        -5.01782561E-05
   32.9099998        -4.47728271E-05
   33.0999985        -3.82162398E-05
   33.2900009        -3.08448543E-05
   33.4799995        -2.31020040E-05
   33.6699982        -1.55233356E-05
   33.8600006        -8.69656651E-06
   34.0499992        -3.19673654E-06
   34.2400017         4.92340575E-07
   34.4300003         2.05347760E-06
   34.6199989         1.39084136E-06
   34.8100014        -1.34870152E-06
   35.0000000        -5.79240987E-06
   35.1899986        -1.13930637E-05
   35.3800011        -1.75050136E-05
   35.5699997        -2.34716244E-05
   35.7599983        -2.87103412E-05
   35.9500008        -3.27832313E-05
   36.1399994        -3.54441072E-05
   36.3300018        -3.66571112E-05
   36.5200005        -3.65855121E-05
   36.7099991        -3.55532720E-05
   36.9000015        -3.39854669E-05
   37.0900002        -3.23364038E-05
   37.2799988        -3.10165560E-05
   37.4700012        -3.03297838E-05
   37.6599998        -3.04304012E-05
   37.8499985        -3.13058590E-05
   38.0400009        -3.27857269E-05
   38.2299995        -3.45732915E-05
   38.4199982        -3.62938263E-05
   38.6100006        -3.75534291E-05
   38.7999992        -3.80034835E-05
   38.9900017        -3.74061128E-05
   39.1800003        -3.56943929E-05
   39.3699989        -3.30179791E-05
   39.5600014        -2.97622282E-05
   39.7500000        -2.65293547E-05
   39.9399986        -2.40761256E-05
   40.1300011        -2.32129059E-05
   40.3199997        -2.46810687E-05
   40.5099983        -2.90351236E-05
   40.7000008        -3.65582273E-05
   40.8899994        -4.72328138E-05
   41.0800018        -6.07734401E-05
   41.2700005        -7.67111342E-05
   41.4599991        -9.45039719E-05
   41.6500015        -1.13642338E-04
   41.8400002        -1.33721449E-04
   42.0299988        -1.54466587E-04
   42.2200012        -1.75711932E-04
   42.4099998        -1.97345944E-04
   42.5999985        -2.19242924E-04
   42.7900009        -2.41198097E-04
   42.9799995        -2.62877613E-04
   43.1699982        -2.83789122E-04
   43.3600006        -3.03274166E-04
   43.5499992        -3.20523221E-04
   43.7400017        -3.34615150E-04
   43.9300003        -3.44581786E-04
   44.1199989        -3.49496840E-04
   44.3100014        -3.48581234E-04
   44.5000000        -3.41312232E-04
   44.6899986        -3.27518210E-04
   44.8800011        -3.07439826E-04
   45.0699997        -2.81741581E-04
   45.2599983        -2.51465477E-04
   45.4500008        -2.17929221E-04
   45.6399994        -1.82582895E-04
   45.8300018        -1.46847742E-04
   46.0200005        -1.11965841E-04
   46.2099991        -7.88884645E-05
   46.4000015        -4.82234282E-05
   46.5900002        -2.02477804E-05
   46.7799988         5.02303692E-06
   46.9700012         2.77316285E-05
   47.1599998         4.80697781E-05
   47.3499985         6.61898812E-05
   47.5400009         8.21529757E-05
   47.7299995         9.59144600E-05
   47.9199982         1.07337379E-04
   48.1100006         1.16216805E-04
   48.2999992         1.22301193E-04
   48.4900017         1.25306193E-04
   48.6800003         1.24927014E-04
   48.8699989         1.20863158E-04
   49.0600014         1.12867325E-04
   49.2500000         1.00820493E-04
   49.4399986         8.48199343E-05
   49.6300011         6.52543677E-05
   49.8199997         4.28386484E-05
   50.0099983         1.85881709E-05
   50.2000008        -6.26968631E-06
   50.3899994        -3.04301993E-05
   50.5800018        -5.26628501E-05
   50.7700005        -7.19473464E-05
   50.9599991        -8.75702463E-05
   51.1500015        -9.91733541E-05
   51.3400002        -1.06759631E-04
   51.5299988        -1.10669782E-04
   51.7200012        -1.11541631E-04
   51.9099998        -1.10255882E-04
   52.0999985        -1.07863685E-04
   52.2900009        -1.05487947E-04
   52.4799995        -1.04195802E-04
   52.6699982        -1.04851249E-04
   52.8600006        -1.07971420E-04
   53.0499992        -1.13618538E-04
   53.2400017        -1.21359044E-04
   53.4300003        -1.30308661E-04
   53.6199989        -1.39261712E-04
   53.8100014        -1.46881212E-04
   54.0000000        -1.51911241E-04
   54.1899986        -1.53369096E-04
   54.3800011        -1.50682754E-04
   54.5699997        -1.43754849E-04
   54.7599983        -1.32952773E-04
   54.9500008        -1.19038385E-04
   55.1399994        -1.03058926E-04
   55.3300018        -8.62204106E-05
   55.5200005        -6.97592477E-05
   55.7099991        -5.48214157E-05
   55.9000015        -4.23542224E-05
   56.0900002        -3.30155308E-05
   56.2799988        -2.71083991E-05
   56.4700012        -2.45519841E-05
   56.6599998        -2.48994438E-05
   56.8499985        -2.74076920E-05
   57.0400009        -3.11539370E-05
   57.2299995        -3.51819435E-05
   57.4199982        -3.86521533E-05
   57.6100006        -4.09670647E-05
   57.7999992        -4.18483360E-05
   57.9900017        -4.13531125E-05
   58.1800003        -3.98307529E-05
   58.3699989        -3.78338809E-05
   58.5600014        -3.60054255E-05
   58.7500000        -3.49653419E-05
   58.9399986        -3.52166535E-05
   59.1300011        -3.70829803E-05
   59.3199997        -4.06815234E-05
   59.5099983        -4.59284456E-05
   59.7000008        -5.25691103E-05
   59.8899994        -6.02228538E-05
   60.0800018        -6.84312981E-05
   60.2700005        -7.67005695E-05
   60.4599991        -8.45312243E-05
   60.6500015        -9.14350021E-05
   60.8400002        -9.69422617E-05
   61.0299988        -1.00607664E-04
   61.2200012        -1.02022233E-04
   61.4099998        -1.00838413E-04
   61.5999985        -9.68104796E-05
   61.7900009        -8.98470898E-05
   61.9799995        -8.00662528E-05
   62.1699982        -6.78379438E-05
   62.3600006        -5.37987326E-05
   62.5499992        -3.88266490E-05
   62.7400017        -2.39725014E-05
   62.9300003        -1.03537841E-05
   63.1199989         9.74819272E-07
   63.3100014         9.15455894E-06
   63.5000000         1.36375083E-05
   63.6899986         1.42622657E-05
   63.8800011         1.12744747E-05
   64.0699997         5.28464716E-06
   64.2600021        -2.83278905E-06
   64.4499969        -1.20833665E-05
   64.6399994        -2.15135133E-05
   64.8300018        -3.03570578E-05
   65.0199966        -3.81363898E-05
   65.2099991        -4.46959457E-05
   65.4000015        -5.01612849E-05
   65.5899963        -5.48366552E-05
   65.7799988        -5.90712552E-05
   65.9700012        -6.31329385E-05
   66.1600037        -6.71245434E-05
   66.3499985        -7.09633459E-05
   66.5400009        -7.44240315E-05
   66.7300034        -7.72260610E-05
   66.9199982        -7.91341736E-05
   67.1100006        -8.00385678E-05
   67.3000031        -7.99908448E-05
   67.4899979        -7.91883649E-05
   67.6800003        -7.79166294E-05
   67.8700027        -7.64706347E-05
   68.0599976        -7.50775871E-05
   68.2500000        -7.38384624E-05
   68.4400024        -7.26978251E-05
   68.6299973        -7.14450798E-05
   68.8199997        -6.97457872E-05
   69.0100021        -6.71982780E-05
   69.1999969        -6.34072640E-05
   69.3899994        -5.80636806E-05
   69.5800018        -5.10183818E-05
   69.7699966        -4.23376150E-05
   69.9599991        -3.23293643E-05
   70.1500015        -2.15333839E-05
   70.3399963        -1.06739908E-05
   70.5299988        -5.83105418E-07
   70.7200012         7.89202932E-06
   70.9100037         1.39796284E-05
   71.0999985         1.70590447E-05
   71.2900009         1.67146572E-05
   71.4800034         1.27679714E-05
   71.6699982         5.29207500E-06
   71.8600006        -5.38687527E-06
   72.0500031        -1.86989109E-05
   72.2399979        -3.38523059E-05
   72.4300003        -4.98744048E-05
   72.6200027        -6.56782286E-05
   72.8099976        -8.01574861E-05
   73.0000000        -9.23037951E-05
   73.1900024        -1.01328857E-04
   73.3799973        -1.06766769E-04
   73.5699997        -1.08531167E-04
   73.7600021        -1.06909785E-04
   73.9499969        -1.02494821E-04
   74.1399994        -9.60646648E-05
   74.3300018        -8.84461479E-05
   74.5199966        -8.03908406E-05
   74.7099991        -7.24916026E-05
   74.9000015        -6.51509836E-05
   75.0899963        -5.85961097E-05
   75.2799988        -5.29225617E-05
   75.4700012        -4.81449897E-05
   75.6600037        -4.42357414E-05
   75.8499985        -4.11422079E-05
   76.0400009        -3.87850778E-05
   76.2300034        -3.70490561E-05
   76.4199982        -3.57810204E-05
   76.6100006        -3.48066969E-05
   76.8000031        -3.39676735E-05
   76.9899979        -3.31701449E-05
   77.1800003        -3.24296052E-05
   77.3700027        -3.18943312E-05
   77.5599976        -3.18348211E-05
   77.7500000        -3.25946603E-05
   77.9400024        -3.45082772E-05
   78.1299973        -3.78006298E-05
   78.3199997        -4.24911050E-05
   78.5100021        -4.83271288E-05
   78.6999969        -5.47702366E-05
   78.8899994        -6.10484858E-05
   79.0800018        -6.62741077E-05
   79.2699966        -6.96081188E-05
   79.4599991        -7.04387785E-05
   79.6500015        -6.85332125E-05
   79.8399963        -6.41240549E-05
   80.0299988        -5.79058142E-05
   80.2200012        -5.09351121E-05
   80.4100037        -4.44515608E-05
   80.5999985        -3.96544638E-05
   80.7900009        -3.74812189E-05
   80.9800034        -3.84328232E-05
   81.1699982        -4.24811078E-05
   81.3600006        -4.90746206E-05
   81.5500031        -5.72393838E-05
   81.7399979        -6.57516357E-05
   81.9300003        -7.33461638E-05
   82.1200027        -7.89191545E-05
   82.3099976        -8.16891697E-05
   82.5000000        -8.12923754E-05
   82.6900024        -7.78029062E-05
   82.8799973        -7.16827199E-05
   83.0699997        -6.36755649E-05
   83.2600021        -5.46673728E-05
   83.4499969        -4.55397167E-05
   83.6399994        -3.70429916E-05
   83.8300018        -2.97102724E-05
   84.0199966        -2.38228931E-05
   84.2099991        -1.94279073E-05
   84.4000015        -1.63975910E-05
   84.5899963        -1.45135755E-05
   84.7799988        -1.35531272E-05
   84.9700012        -1.33547892E-05
   85.1600037        -1.38473761E-05
   85.3499985        -1.50391616E-05
   85.5400009        -1.69782452E-05
   85.7300034        -1.97039153E-05
   85.9199982        -2.32094408E-05
   86.1100006        -2.74299982E-05
   86.3000031        -3.22589185E-05
   86.4899979        -3.75842537E-05
   86.6800003        -4.33284258E-05
   86.8700027        -4.94705928E-05
   87.0599976        -5.60363333E-05
   87.2500000        -6.30524082E-05
   87.4400024        -7.04797785E-05
   87.6299973        -7.81488270E-05
   87.8199997        -8.57215855E-05
   88.0100021        -9.26980938E-05
   88.1999969        -9.84710205E-05
   88.3899994        -1.02418664E-04
   88.5800018        -1.04015751E-04
   88.7699966        -1.02936036E-04
   88.9599991        -9.91230118E-05
   89.1500015        -9.28137670E-05
   89.3399963        -8.45129325E-05
   89.5299988        -7.49249302E-05
   89.7200012        -6.48598943E-05
   89.9100037        -5.51316334E-05
   90.0999985        -4.64650620E-05
   90.2900009        -3.94255403E-05
   90.4800034        -3.43755673E-05
   90.6699982        -3.14578137E-05
   90.8600006        -3.05999311E-05
   91.0500031        -3.15368197E-05
   91.2399979        -3.38474274E-05
   91.4300003        -3.70039452E-05
   91.6200027        -4.04304701E-05
   91.8099976        -4.35668844E-05
   92.0000000        -4.59324365E-05
   92.1900024        -4.71816311E-05
   92.3799973        -4.71433086E-05
   92.5699997        -4.58340655E-05
   92.7600021        -4.34414324E-05
   92.9499969        -4.02802470E-05
   93.1399994        -3.67331340E-05
   93.3300018        -3.31896008E-05
   93.5199966        -2.99964086E-05
   93.7099991        -2.74269914E-05
   93.9000015        -2.56718813E-05
   94.0899963        -2.48462729E-05
   94.2799988        -2.50062549E-05
   94.4700012        -2.61636742E-05
   94.6600037        -2.82928941E-05
   94.8499985        -3.13302116E-05
   95.0400009        -3.51732924E-05
   95.2300034        -3.96889591E-05
   95.4199982        -4.47314669E-05
   95.6100006        -5.01651411E-05
   95.8000031        -5.58800166E-05
   95.9899979        -6.17906990E-05
   96.1800003        -6.78150172E-05
   96.3700027        -7.38374292E-05
   96.5599976        -7.96693494E-05
   96.7500000        -8.50230645E-05
   96.9400024        -8.95148041E-05
   97.1299973        -9.27050933E-05
   97.3199997        -9.41704202E-05
   97.5100021        -9.35868884E-05
   97.6999969        -9.07995636E-05
   97.8899994        -8.58558560E-05
   98.0800018        -7.89946498E-05
   98.2699966        -7.05985876E-05
   98.4599991        -6.11281866E-05
   98.6500015        -5.10601785E-05
   98.8399963        -4.08484520E-05
   99.0299988        -3.09156494E-05
   99.2200012        -2.16703029E-05
   99.4100037        -1.35320843E-05
   99.5999985        -6.94303753E-06
   99.7900009        -2.34829145E-06
   99.9800034        -1.43802936E-07
   100.169998        -6.03918579E-07
   100.360001        -3.81072209E-06
   100.550003        -9.60751368E-06
   100.739998        -1.75921923E-05
   100.930000        -2.71564586E-05
   101.120003        -3.75655618E-05
   101.309998        -4.80622402E-05
   101.500000        -5.79702755E-05
   101.690002        -6.67719287E-05
   101.879997        -7.41413096E-05
   102.070000        -7.99300178E-05
   102.260002        -8.41154906E-05
   102.449997        -8.67324852E-05
   102.639999        -8.78108767E-05
   102.830002        -8.73407116E-05
   103.019997        -8.52777739E-05
   103.209999        -8.15901003E-05
   103.400002        -7.63302378E-05
   103.589996        -6.97058640E-05
   103.779999        -6.21190193E-05
   103.970001        -5.41532754E-05
   104.160004        -4.65057165E-05
   104.349998        -3.98779121E-05
   104.540001        -3.48528120E-05
   104.730003        -3.17888334E-05
   104.919998        -3.07585142E-05
   105.110001        -3.15471007E-05
   105.300003        -3.37095007E-05
   105.489998        -3.66675085E-05
   105.680000        -3.98200173E-05
   105.870003        -4.26402075E-05
   106.059998        -4.47429338E-05
   106.250000        -4.59170406E-05
   106.440002        -4.61259187E-05
   106.629997        -4.54838737E-05
   106.820000        -4.42167766E-05
   107.010002        -4.26141924E-05
   107.199997        -4.09782333E-05
   107.389999        -3.95732641E-05
   107.580002        -3.85816747E-05
   107.769997        -3.80739366E-05
   107.959999        -3.80028941E-05
   108.150002        -3.82289982E-05
   108.339996        -3.85747844E-05
   108.529999        -3.88955013E-05
   108.720001        -3.91447720E-05
   108.910004        -3.94125964E-05
   109.099998        -3.99192613E-05
   109.290001        -4.09612148E-05
   109.480003        -4.28208004E-05
   109.669998        -4.56661110E-05
   109.860001        -4.94746528E-05
   110.050003        -5.40099318E-05
   110.239998        -5.88632138E-05
   110.430000        -6.35493343E-05
   110.620003        -6.76250565E-05
   110.809998        -7.07901490E-05
   111.000000        -7.29373933E-05
   111.190002        -7.41358745E-05
   111.379997        -7.45547732E-05
   111.570000        -7.43560740E-05
   111.760002        -7.35962094E-05
   111.949997        -7.21756442E-05
   112.139999        -6.98589065E-05
   112.330002        -6.63626488E-05
   112.519997        -6.14835662E-05
   112.709999        -5.52234487E-05
   112.900002        -4.78686852E-05
   113.089996        -3.99958408E-05
   113.279999        -3.23965251E-05
   113.470001        -2.59373355E-05
   113.660004        -2.13892054E-05
   113.849998        -1.92701045E-05
   114.040001        -1.97423506E-05
   114.230003        -2.25902022E-05
   114.419998        -2.72799934E-05
   114.610001        -3.30826842E-05
   114.800003        -3.92247821E-05
   114.989998        -4.50303087E-05
   115.180000        -5.00220522E-05
   115.370003        -5.39617395E-05
   115.559998        -5.68253199E-05
   115.750000        -5.87273971E-05
   115.940002        -5.98240113E-05
   116.129997        -6.02275541E-05
   116.320000        -5.99603190E-05
   116.510002        -5.89573247E-05
   116.699997        -5.71116070E-05
   116.889999        -5.43423230E-05
   117.080002        -5.06601755E-05
   117.269997        -4.62065473E-05
   117.459999        -4.12524969E-05
   117.650002        -3.61592211E-05
   117.839996        -3.13168603E-05
   118.029999        -2.70860783E-05
   118.220001        -2.37630502E-05
   118.410004        -2.15756263E-05
   118.599998        -2.07035228E-05
   118.790001        -2.13049098E-05
   118.980003        -2.35290972E-05
   119.169998        -2.75001821E-05
   119.360001        -3.32684140E-05
   119.550003        -4.07407824E-05
   119.739998        -4.96150133E-05
   119.930000        -5.93454606E-05
   120.120003        -6.91627138E-05
   120.309998        -7.81536510E-05
   120.500000        -8.53904130E-05
   120.690002        -9.00822852E-05
   120.879997        -9.17166544E-05
   121.070000        -9.01560779E-05
   121.260002        -8.56676634E-05
   121.449997        -7.88763718E-05
   121.639999        -7.06510327E-05
   121.830002        -6.19477069E-05
   122.019997        -5.36437328E-05
   122.209999        -4.63976030E-05
   122.400002        -4.05629944E-05
   122.589996        -3.61730563E-05
   122.779999        -3.29944778E-05
   122.970001        -3.06349029E-05
   123.160004        -2.86751110E-05
   123.349998        -2.67927571E-05
   123.540001        -2.48485558E-05
   123.730003        -2.29172947E-05
   123.919998        -2.12614214E-05
   124.110001        -2.02595893E-05
   124.300003        -2.03116306E-05
   124.489998        -2.17436336E-05
   124.680000        -2.47325515E-05
   124.870003        -2.92624427E-05
   125.059998        -3.51163726E-05
   125.250000        -4.19007265E-05
   125.440002        -4.90938291E-05
   125.629997        -5.61085872E-05
   125.820000        -6.23599772E-05
   126.010002        -6.73302711E-05
   126.199997        -7.06260907E-05
   126.389999        -7.20208409E-05
   126.580002        -7.14756534E-05
   126.769997        -6.91339810E-05
   126.959999        -6.52904710E-05
   127.150002        -6.03407425E-05
   127.339996        -5.47233649E-05
   127.529999        -4.88664082E-05
   127.720001        -4.31490225E-05
   127.910004        -3.78834338E-05
   128.100006        -3.33156786E-05
   128.289993        -2.96369726E-05
   128.479996        -2.69944103E-05
   128.669998        -2.54924253E-05
   128.860001        -2.51830261E-05
   129.050003        -2.60499528E-05
   129.240005        -2.79960277E-05
   129.429993        -3.08433082E-05
   129.619995        -3.43524625E-05
   129.809998        -3.82619073E-05
   130.000000        -4.23390775E-05
   130.190002        -4.64285295E-05
   130.380005        -5.04785094E-05
   130.570007        -5.45322437E-05
   130.759995        -5.86819951E-05
   130.949997        -6.29975330E-05
   131.139999        -6.74510520E-05
   131.330002        -7.18636584E-05
   131.520004        -7.58938913E-05
   131.710007        -7.90777631E-05
   131.899994        -8.09146659E-05
   132.089996        -8.09783378E-05
   132.279999        -7.90230042E-05
   132.470001        -7.50550316E-05
   132.660004        -6.93505281E-05
   132.850006        -6.24152090E-05
   133.039993        -5.48980133E-05
   133.229996        -4.74807930E-05
   133.419998        -4.07704611E-05
   133.610001        -3.52171264E-05
   133.800003        -3.10730102E-05
   133.990005        -2.83948102E-05
   134.179993        -2.70800083E-05
   134.369995        -2.69204338E-05
   134.559998        -2.76557039E-05
   134.750000        -2.90146309E-05
   134.940002        -3.07405207E-05
   135.130005        -3.26031623E-05
   135.320007        -3.44038999E-05
   135.509995        -3.59803016E-05
   135.699997        -3.72141003E-05
   135.889999        -3.80414822E-05
   136.080002        -3.84609993E-05
   136.270004        -3.85327621E-05
   136.460007        -3.83646184E-05
   136.649994        -3.80859783E-05
   136.839996        -3.78150253E-05
   137.029999        -3.76287862E-05
   137.220001        -3.75459167E-05
   137.410004        -3.75293748E-05
   137.600006        -3.75105446E-05
   137.789993        -3.74292504E-05
   137.979996        -3.72775248E-05
   138.169998        -3.71318820E-05
   138.360001        -3.71613060E-05
   138.550003        -3.76054231E-05
   138.740005        -3.87265281E-05
   138.929993        -4.07469379E-05
   139.119995        -4.37872914E-05
   139.309998        -4.78216170E-05
   139.500000        -5.26613476E-05
   139.690002        -5.79731932E-05
   139.880005        -6.33266027E-05
   140.070007        -6.82580576E-05
   140.259995        -7.23355479E-05
   140.449997        -7.52085762E-05
   140.639999        -7.66360463E-05
   140.830002        -7.64926372E-05
   141.020004        -7.47610829E-05
   141.210007        -7.15202841E-05
   141.399994        -6.69379224E-05
   141.589996        -6.12700096E-05
   141.779999        -5.48623357E-05
   141.970001        -4.81428360E-05
   142.160004        -4.15939467E-05
   142.350006        -3.57009303E-05
   142.539993        -3.08830458E-05
   142.729996        -2.74236409E-05
   142.919998        -2.54189763E-05
   143.110001        -2.47626340E-05
   143.300003        -2.51739511E-05
   143.490005        -2.62674312E-05
   143.679993        -2.76478004E-05
   143.869995        -2.90062890E-05
   144.059998        -3.01917262E-05
   144.250000        -3.12369339E-05
   144.440002        -3.23344429E-05
   144.630005        -3.37700731E-05
   144.820007        -3.58335747E-05
   145.009995        -3.87300097E-05
   145.199997        -4.25143480E-05
   145.389999        -4.70651139E-05
   145.580002        -5.21021793E-05
   145.770004        -5.72406607E-05
   145.960007        -6.20628489E-05
   146.149994        -6.61866143E-05
   146.339996        -6.93135444E-05
   146.529999        -7.12492038E-05
   146.720001        -7.18971569E-05
   146.910004        -7.12355322E-05
   147.100006        -6.92893591E-05
   147.289993        -6.61128433E-05
   147.479996        -6.17915721E-05
   147.669998        -5.64650072E-05
   147.860001        -5.03581687E-05
   148.050003        -4.38043753E-05
   148.240005        -3.72427967E-05
   148.429993        -3.11833028E-05
   148.619995        -2.61423338E-05
   148.809998        -2.25621261E-05
   149.000000        -2.07307694E-05
   149.190002        -2.07221110E-05
   149.380005        -2.23720326E-05
   149.570007        -2.53000399E-05
   149.759995        -2.89738819E-05
   149.949997        -3.28037859E-05
   150.139999        -3.62463688E-05
   150.330002        -3.88974950E-05
   150.520004        -4.05564570E-05
   150.710007        -4.12492009E-05