  -3.00000000         0.00000000    
  -2.80999994         0.00000000    
  -2.61999989         0.00000000    
  -2.43000007         0.00000000    
  -2.24000001         0.00000000    
  -2.04999995         0.00000000    
  -1.86000001        -2.68799999E-22
  -1.66999996        -5.09548199E-23
  -1.48000002         1.27283532E-20
  -1.28999996         6.80190424E-20
  -1.10000002         1.29964589E-19
 -0.910000026        -1.28857188E-19
 -0.720000029        -1.28517387E-18
 -0.529999971        -2.94226055E-18
 -0.340000004        -1.68405887E-18
 -0.150000006         7.48949014E-18
   3.99999991E-02     2.03987834E-17
  0.230000004         8.57909132E-18
  0.419999987        -7.31652171E-17
  0.610000014        -2.26154276E-16
  0.800000012        -3.18436240E-16
  0.990000010        -8.48286953E-17
   1.17999995         6.53311324E-16
   1.37000000         1.61694164E-15
   1.55999994         1.93943948E-15
   1.75000000         7.30211857E-16
   1.94000006        -1.78545927E-15
   2.13000011        -3.59699487E-15
   2.31999993        -1.99667286E-15
   2.50999999         3.61810039E-15
   2.70000005         9.45201864E-15
   2.89000010         8.37705251E-15
   3.07999992        -5.41647839E-15
   3.26999998        -3.18524165E-14
   3.46000004        -6.43910787E-14
   3.65000010        -9.18187848E-14
   3.83999991        -9.56439517E-14
   4.03000021        -4.21264213E-14
   4.21999979         1.14596958E-13
   4.40999985         3.92194388E-13
   4.59999990         7.01859469E-13
   4.78999996         7.91721127E-13
   4.98000002         3.16052387E-13
   5.17000008        -9.12050058E-13
   5.36000013        -2.58433205E-12
   5.55000019        -3.74777770E-12
   5.73999977        -3.11811926E-12
   5.92999983         1.30039046E-13
   6.11999989         5.49455967E-12
   6.30999994         1.08330281E-11
   6.50000000         1.30211510E-11
   6.69000006         9.38491819E-12
   6.88000011        -8.46209496E-13
   7.07000017        -1.58239481E-11
   7.26000023        -3.12849920E-11
   7.44999981        -4.12643704E-11
   7.63999987        -3.89872058E-11
   7.82999992        -1.83628807E-11
   8.02000046         2.30114278E-11
   8.21000004         7.93532323E-11
   8.39999962         1.33021621E-10
   8.59000015         1.55857757E-10
   8.77999973         1.18700993E-10
   8.97000027         7.53197331E-12
   9.15999985        -1.61252275E-10
   9.35000038        -3.36532163E-10
   9.53999996        -4.45296300E-10
   9.72999954        -4.19673463E-10
   9.92000008        -2.26683700E-10
   10.1099997         1.12777780E-10
   10.3000002         5.23344756E-10
   10.4899998         8.91507701E-10
   10.6800003         1.09184117E-09
   10.8699999         1.01690834E-09
   11.0600004         6.08191830E-10
   11.2500000        -1.14583919E-10
   11.4399996        -1.03386710E-09
   11.6300001        -1.93811012E-09
   11.8199997        -2.55966026E-09
   12.0100002        -2.64312305E-09
   12.1999998        -2.02327688E-09
   12.3900003        -6.84546864E-10
   12.5799999         1.21593047E-09
   12.7700005         3.36013661E-09
   12.9600000         5.30226174E-09
   13.1499996         6.51572973E-09
   13.3400002         6.46499254E-09
   13.5299997         4.72249306E-09
   13.7200003         1.13462451E-09
   13.9099998        -3.99919875E-09
   14.1000004        -9.80965531E-09
   14.2900000        -1.48885526E-08
   14.4799995        -1.75227299E-08
   14.6700001        -1.61236215E-08
   14.8599997        -9.77339987E-09
   15.0500002         1.25346200E-09
   15.2399998         1.51739510E-08
   15.4300003         2.87673352E-08
   15.6199999         3.79522511E-08
   15.8100004         3.88465935E-08
   16.0000000         2.90838393E-08
   16.1900005         8.97392649E-09
   16.3799992        -1.79629769E-08
   16.5699997        -4.54226310E-08
   16.7600002        -6.57179413E-08
   16.9500008        -7.18076762E-08
   17.1399994        -5.93633445E-08
   17.3299999        -2.82755206E-08
   17.5200005         1.67929812E-08
   17.7099991         6.69076883E-08
   17.8999996         1.10285917E-07
   18.0900002         1.34417576E-07
   18.2800007         1.28656623E-07
   18.4699993         8.70423307E-08
   18.6599998         1.09805400E-08
   18.8500004        -8.88221123E-08
   19.0400009        -1.92011740E-07
   19.2299995        -2.70719909E-07
   19.4200001        -2.94775163E-07
   19.6100006        -2.39910378E-07
   19.7999992        -9.79291528E-08
   19.9899998         1.13148715E-07
   20.1800003         3.41510315E-07
   20.3700008         4.98998020E-07
   20.5599995         4.65206114E-07
   20.7500000         9.85103554E-08
   20.9400005        -7.47135687E-07
   21.1299992        -2.20194693E-06
   21.3199997        -4.35951370E-06
   21.5100002        -7.25852806E-06
   21.7000008        -1.08699223E-05
   21.8899994        -1.50919495E-05
   22.0799999        -1.97550908E-05
   22.2700005        -2.46376239E-05
   22.4599991        -2.94910169E-05
   22.6499996        -3.40722327E-05
   22.8400002        -3.81781756E-05
   23.0300007        -4.16760595E-05
   23.2199993        -4.45237129E-05
   23.4099998        -4.67751015E-05
   23.6000004        -4.85693126E-05
   23.7900009        -5.01042705E-05
   23.9799995        -5.15999054E-05
   24.1700001        -5.32573140E-05
   24.3600006        -5.52213241E-05
   24.5499992        -5.75526319E-05
   24.7399998        -6.02137879E-05
   24.9300003        -6.30707145E-05
   25.1200008        -6.59086654E-05
   25.3099995        -6.84598708E-05
   25.5000000        -7.04386839E-05
   25.6900005        -7.15790957E-05
   25.8799992        -7.16690047E-05
   26.0699997        -7.05761631E-05
   26.2600002        -6.82611353E-05
   26.4500008        -6.47756606E-05
   26.6399994        -6.02469554E-05
   26.8299999        -5.48525168E-05
   27.0200005        -4.87909238E-05
   27.2099991        -4.22552148E-05
   27.3999996        -3.54139156E-05
   27.5900002        -2.84024809E-05
   27.7800007        -2.13247713E-05
   27.9699993        -1.42622703E-05
   28.1599998        -7.28683608E-06
   28.3500004        -4.72713737E-07
   28.5400009         6.09550943E-06
   28.7299995         1.23207064E-05
   28.9200001         1.80965162E-05
   29.1100006         2.33150240E-05
   29.2999992         2.78771386E-05
   29.4899998         3.17042322E-05
   29.6800003         3.47496862E-05
   29.8700008         3.70088819E-05
   30.0599995         3.85260319E-05
   30.2500000         3.93960181E-05
   30.4400005         3.97594304E-05
   30.6299992         3.97902404E-05
   30.8199997         3.96771211E-05
   31.0100002         3.96016294E-05
   31.2000008         3.97175900E-05
   31.3899994         4.01359357E-05
   31.5799999         4.09175336E-05
   31.7700005         4.20737633E-05
   31.9599991         4.35729598E-05
   32.1500015         4.53497487E-05
   32.3400002         4.73150722E-05
   32.5299988         4.93657644E-05
   32.7200012         5.13939303E-05
   32.9099998         5.32962149E-05
   33.0999985         5.49827491E-05
   33.2900009         5.63842259E-05
   33.4799995         5.74552723E-05
   33.6699982         5.81730528E-05
   33.8600006         5.85319685E-05
   34.0499992         5.85380003E-05
   34.2400017         5.82069370E-05
   34.4300003         5.75696940E-05
   34.6199989         5.66843446E-05
   34.8100014         5.56504237E-05
   35.0000000         5.46180127E-05
   35.1899986         5.37840860E-05
   35.3800011         5.33721395E-05
   35.5699997         5.35966174E-05
   35.7599983         5.46196570E-05
   35.9500008         5.65105147E-05
   36.1399994         5.92178367E-05
   36.3300018         6.25615285E-05
   36.5200005         6.62453458E-05
   36.7099991         6.98872609E-05
   36.9000015         7.30620886E-05
   37.0900002         7.53505228E-05
   37.2799988         7.63897988E-05
   37.4700012         7.59218456E-05
   37.6599998         7.38342351E-05
   37.8499985         7.01882818E-05
   38.0400009         6.52285453E-05
   38.2299995         5.93696095E-05
   38.4199982         5.31597689E-05
   38.6100006         4.72254651E-05
   38.7999992         4.22047342E-05
   38.9900017         3.86804313E-05
   39.1800003         3.71244241E-05
   39.3699989         3.78615514E-05
   39.5600014         4.10574321E-05
   39.7500000         4.67285172E-05
   39.9399986         5.47682321E-05
   40.1300011         6.49805952E-05
   40.3199997         7.71132327E-05
   40.5099983         9.08838774E-05
   40.7000008         1.05997489E-04
   40.8899994         1.22154175E-04
   41.0800018         1.39049473E-04
   41.2700005         1.56369366E-04
   41.4599991         1.73782071E-04
   41.6500015         1.90926134E-04
   41.8400002         2.07393634E-04
   42.0299988         2.22707662E-04
   42.2200012         2.36295862E-04
   42.4099998         2.47465621E-04
   42.5999985         2.55391700E-04
   42.7900009         2.59128516E-04
   42.9799995         2.57656066E-04
   43.1699982         2.49963952E-04
   43.3600006         2.35166648E-04
   43.5499992         2.12634070E-04
   43.7400017         1.82115240E-04
   43.9300003         1.43831319E-04
   44.1199989         9.85195875E-05
   44.3100014         4.74175395E-05
   44.5000000        -7.81039671E-06
   44.6899986        -6.51927185E-05
   44.8800011        -1.22597601E-04
   45.0699997        -1.77883470E-04
   45.2599983        -2.29034078E-04
   45.4500008        -2.74263992E-04
   45.6399994        -3.12090240E-04
   45.8300018        -3.41372623E-04
   46.0200005        -3.61329003E-04
   46.2099991        -3.71531816E-04
   46.4000015        -3.71890725E-04
   46.5900002        -3.62624443E-04
   46.7799988        -3.44223954E-04
   46.9700012        -3.17411672E-04
   47.1599998        -2.83102068E-04
   47.3499985        -2.42370807E-04
   47.5400009        -1.96436973E-04
   47.7299995        -1.46657534E-04
   47.9199982        -9.45264110E-05
   48.1100006        -4.16638759E-05
   48.2999992         1.02190252E-05
   48.4900017         5.93909572E-05
   48.6800003         1.04204875E-04
   48.8699989         1.43221434E-04
   49.0600014         1.75326408E-04
   49.2500000         1.99815928E-04
   49.4399986         2.16431072E-04
   49.6300011         2.25337440E-04
   49.8199997         2.27060795E-04
   50.0099983         2.22398754E-04
   50.2000008         2.12329134E-04
   50.3899994         1.97929490E-04
   50.5800018         1.80312869E-04
   50.7700005         1.60576164E-04
   50.9599991         1.39755153E-04
   51.1500015         1.18781711E-04
   51.3400002         9.84449653E-05
   51.5299988         7.93620347E-05
   51.7200012         6.19667771E-05
   51.9099998         4.65217454E-05
   52.0999985         3.31517658E-05
   52.2900009         2.18886980E-05
   52.4799995         1.27120747E-05
   52.6699982         5.57128533E-06
   52.8600006         3.83066350E-07
   53.0499992        -2.99176531E-06
   53.2400017        -4.78044240E-06
   53.4300003        -5.32367085E-06
   53.6199989        -5.08029279E-06
   53.8100014        -4.60313186E-06
   54.0000000        -4.48732635E-06
   54.1899986        -5.30154057E-06
   54.3800011        -7.51758262E-06
   54.5699997        -1.14534123E-05
   54.7599983        -1.72393975E-05
   54.9500008        -2.48110009E-05
   55.1399994        -3.39256294E-05
   55.3300018        -4.41967895E-05
   55.5200005        -5.51364719E-05
   55.7099991        -6.61967788E-05
   55.9000015        -7.68056198E-05
   56.0900002        -8.63966707E-05
   56.2799988        -9.44376516E-05
   56.4700012        -1.00459445E-04
   56.6599998        -1.04084924E-04
   56.8499985        -1.05053150E-04
   57.0400009        -1.03235157E-04
   57.2299995        -9.86387604E-05
   57.4199982        -9.14010088E-05
   57.6100006        -8.17672844E-05
   57.7999992        -7.00603632E-05
   57.9900017        -5.66485833E-05
   58.1800003        -4.19254247E-05
   58.3699989        -2.63099009E-05
   58.5600014        -1.02677686E-05
   58.7500000         5.65515893E-06
   58.9399986         2.08008205E-05
   59.1300011         3.43818137E-05
   59.3199997         4.54926158E-05
   59.5099983         5.31596015E-05
   59.7000008         5.64321308E-05
   59.8899994         5.45045114E-05
   60.0800018         4.68467661E-05
   60.2700005         3.33190183E-05
   60.4599991         1.42494200E-05
   60.6500015        -9.53525341E-06
   60.8400002        -3.67304056E-05
   61.0299988        -6.56248230E-05
   61.2200012        -9.42160768E-05
   61.4099998        -1.20359131E-04
   61.5999985        -1.41935496E-04
   61.7900009        -1.57033006E-04
   61.9799995        -1.64127923E-04
   62.1699982        -1.62257420E-04
   62.3600006        -1.51161541E-04
   62.5499992        -1.31367808E-04
   62.7400017        -1.04193459E-04
   62.9300003        -7.16529976E-05
   63.1199989        -3.62731989E-05
   63.3100014        -8.33649324E-07
   63.5000000         3.19349638E-05
   63.6899986         5.96497885E-05
   63.8800011         8.05233140E-05
   64.0699997         9.35205317E-05
   64.2600021         9.84082290E-05
   64.4499969         9.57021548E-05
   64.6399994         8.65335460E-05
   64.8300018         7.24632482E-05
   65.0199966         5.52734746E-05
   65.2099991         3.67659231E-05
   65.4000015         1.85893241E-05
   65.5899963         2.10920052E-06
   65.7799988        -1.16779165E-05
   65.9700012        -2.21879582E-05
   66.1600037        -2.92513450E-05
   66.3499985        -3.30729563E-05
   66.5400009        -3.41530831E-05
   66.7300034        -3.31799711E-05
   66.9199982        -3.09098759E-05
   67.1100006        -2.80515123E-05
   67.3000031        -2.51709334E-05
   67.4899979        -2.26314442E-05
   67.6800003        -2.05798278E-05
   67.8700027        -1.89802195E-05
   68.0599976        -1.76832000E-05
   68.2500000        -1.65078436E-05
   68.4400024        -1.53140791E-05
   68.6299973        -1.40497987E-05
   68.8199997        -1.27654585E-05
   69.0100021        -1.15945850E-05
   69.1999969        -1.07052965E-05
   69.3899994        -1.02363319E-05
   69.5800018        -1.02373133E-05
   69.7699966        -1.06314346E-05
   69.9599991        -1.12086282E-05
   70.1500015        -1.16474339E-05
   70.3399963        -1.15598741E-05
   70.5299988        -1.05542558E-05
   70.7200012        -8.30898443E-06
   70.9100037        -4.64452114E-06
   71.0999985         4.23464513E-07
   71.2900009         6.66267488E-06
   71.4800034         1.36374110E-05
   71.6699982         2.07512167E-05
   71.8600006         2.73117985E-05
   72.0500031         3.26115951E-05
   72.2399979         3.60146551E-05
   72.4300003         3.70356975E-05
   72.6200027         3.53970427E-05
   72.8099976         3.10567157E-05
   73.0000000         2.42110818E-05
   73.1900024         1.52794710E-05
   73.3799973         4.87474426E-06
   73.5699997        -6.24053337E-06
   73.7600021        -1.72124164E-05
   73.9499969        -2.71643767E-05
   74.1399994        -3.52703282E-05
   74.3300018        -4.08275046E-05
   74.5199966        -4.33264649E-05
   74.7099991        -4.25130747E-05
   74.9000015        -3.84327868E-05
   75.0899963        -3.14462122E-05
   75.2799988        -2.22094950E-05
   75.4700012        -1.16201263E-05
   75.6600037        -7.33348827E-07
   75.8499985         9.34408854E-06
   76.0400009         1.75747900E-05
   76.2300034         2.31135000E-05
   76.4199982         2.54144070E-05
   76.6100006         2.43037775E-05
   76.8000031         2.00033810E-05
   76.9899979         1.30983972E-05
   77.1800003         4.45327669E-06
   77.3700027        -4.91208402E-06
   77.5599976        -1.39658723E-05
   77.7500000        -2.18026580E-05
   77.9400024        -2.77515228E-05
   78.1299973        -3.14354547E-05
   78.3199997        -3.27752787E-05
   78.5100021        -3.19448445E-05
   78.6999969        -2.92941604E-05
   78.8899994        -2.52611680E-05
   79.0800018        -2.02900574E-05
   79.2699966        -1.47683531E-05
   79.4599991        -8.98914368E-06
   79.6500015        -3.14023987E-06
   79.8399963         2.68172880E-06
   80.0299988         8.43807265E-06
   80.2200012         1.41039327E-05
   80.4100037         1.96217643E-05
   80.5999985         2.48595134E-05
   80.7900009         2.95804457E-05
   80.9800034         3.34335309E-05
   81.1699982         3.59739024E-05
   81.3600006         3.67181347E-05
   81.5500031         3.52286988E-05
   81.7399979         3.12110133E-05
   81.9300003         2.46012896E-05
   82.1200027         1.56247115E-05
   82.3099976         4.80872859E-06
   82.5000000        -7.05701495E-06
   82.6900024        -1.90127012E-05
   82.8799973        -3.00574575E-05
   83.0699997        -3.92887086E-05
   83.2600021        -4.60212250E-05
   83.4499969        -4.98632180E-05
   83.6399994        -5.07398472E-05
   83.8300018        -4.88657170E-05
   84.0199966        -4.46753183E-05
   84.2099991        -3.87274195E-05
   84.4000015        -3.16058176E-05
   84.5899963        -2.38407320E-05
   84.7799988        -1.58660641E-05
   84.9700012        -8.01289116E-06
   85.1600037        -5.28761404E-07
   85.3499985         6.38935944E-06
   85.5400009         1.25583929E-05
   85.7300034         1.77798975E-05
   85.9199982         2.18325058E-05
   86.1100006         2.44958810E-05
   86.3000031         2.56008443E-05
   86.4899979         2.50853445E-05
   86.6800003         2.30339228E-05
   86.8700027         1.96899819E-05
   87.0599976         1.54411646E-05
   87.2500000         1.07795331E-05
   87.4400024         6.23607093E-06
   87.6299973         2.29538159E-06
   87.8199997        -6.88904322E-07
   88.0100021        -2.55075020E-06
   88.1999969        -3.32539435E-06
   88.3899994        -3.22640540E-06
   88.5800018        -2.60230149E-06
   88.7699966        -1.88097249E-06
   88.9599991        -1.50115375E-06
   89.1500015        -1.83559143E-06
   89.3399963        -3.12579596E-06
   89.5299988        -5.45053263E-06
   89.7200012        -8.73208137E-06
   89.9100037        -1.27622397E-05
   90.0999985        -1.72286982E-05
   90.2900009        -2.17395882E-05
   90.4800034        -2.58566160E-05
   90.6699982        -2.91394645E-05
   90.8600006        -3.11885196E-05
   91.0500031        -3.16731021E-05
   91.2399979        -3.03504075E-05
   91.4300003        -2.70924575E-05
   91.6200027        -2.19261929E-05
   91.8099976        -1.50676469E-05
   92.0000000        -6.92390176E-06
   92.1900024         1.94412837E-06
   92.3799973         1.08811746E-05
   92.5699997         1.91999225E-05
   92.7600021         2.62425983E-05
   92.9499969         3.14477984E-05
   93.1399994         3.44177279E-05
   93.3300018         3.49659385E-05
   93.5199966         3.31292285E-05
   93.7099991         2.91486467E-05
   93.9000015         2.34386189E-05
   94.0899963         1.65537895E-05
   94.2799988         9.14442171E-06
   94.4700012         1.88867500E-06
   94.6600037        -4.59141938E-06
   94.8499985        -9.80586083E-06
   95.0400009        -1.34438351E-05
   95.2300034        -1.53906294E-05
   95.4199982        -1.57239865E-05
   95.6100006        -1.46938055E-05
   95.8000031        -1.26804252E-05
   95.9899979        -1.01326132E-05
   96.1800003        -7.50123263E-06
   96.3700027        -5.18969910E-06
   96.5599976        -3.52812185E-06
   96.7500000        -2.76005198E-06
   96.9400024        -3.02809030E-06
   97.1299973        -4.35751826E-06
   97.3199997        -6.64863182E-06
   97.5100021        -9.68500990E-06
   97.6999969        -1.31548768E-05
   97.8899994        -1.66798472E-05
   98.0800018        -1.98522885E-05
   98.2699966        -2.22854760E-05
   98.4599991        -2.36713022E-05
   98.6500015        -2.38275552E-05
   98.8399963        -2.27160181E-05
   99.0299988        -2.04272474E-05
   99.2200012        -1.71434949E-05
   99.4100037        -1.30946455E-05
   99.5999985        -8.51567984E-06
   99.7900009        -3.61044931E-06
   99.9800034         1.46973446E-06
   100.169998         6.62203547E-06
   100.360001         1.17609734E-05
   100.550003         1.67744729E-05
   100.739998         2.14893917E-05
   100.930000         2.56616840E-05
   101.120003         2.89925192E-05
   101.309998         3.11640360E-05
   101.500000         3.18895909E-05
   101.690002         3.09733296E-05
   101.879997         2.83662885E-05
   102.070000         2.41979924E-05
   102.260002         1.87663227E-05
   102.449997         1.24858734E-05
   102.639999         5.81383483E-06
   102.830002        -8.22431844E-07
   103.019997        -7.07997378E-06
   103.209999        -1.27308276E-05
   103.400002        -1.76657886E-05
   103.589996        -2.18689129E-05
   103.779999        -2.53672788E-05
   103.970001        -2.81732337E-05
   104.160004        -3.02433382E-05
   104.349998        -3.14698773E-05
   104.540001        -3.17024860E-05
   104.730003        -3.07842383E-05
   104.919998        -2.85874466E-05
   105.110001        -2.50442554E-05
   105.300003        -2.01721359E-05
   105.489998        -1.40915190E-05
   105.680000        -7.02900206E-06
   105.870003         6.95879066E-07
   106.059998         8.69282030E-06
   106.250000         1.65208912E-05
   106.440002         2.37039822E-05
   106.629997         2.97507595E-05
   106.820000         3.41907362E-05
   107.010002         3.66272798E-05
   107.199997         3.67950379E-05
   107.389999         3.46058405E-05
   107.580002         3.01744021E-05
   107.769997         2.38223165E-05
   107.959999         1.60588879E-05
   108.150002         7.53390941E-06
   108.339996        -1.03838079E-06
   108.529999        -8.97171140E-06
   108.720001        -1.56927454E-05
   108.910004        -2.07970261E-05
   109.099998        -2.40692134E-05
   109.290001        -2.54751048E-05
   109.480003        -2.51362962E-05
   109.669998        -2.32931179E-05
   109.860001        -2.02595656E-05
   110.050003        -1.63784098E-05
   110.239998        -1.19887027E-05
   110.430000        -7.41245776E-06
   110.620003        -2.95453765E-06
   110.809998         1.09753626E-06
   111.000000         4.48227183E-06
   111.190002         6.97907399E-06
   111.379997         8.42202735E-06
   111.570000         8.71021075E-06
   111.760002         7.81867493E-06
   111.949997         5.81229369E-06
   112.139999         2.85688043E-06
   112.330002        -7.82246445E-07
   112.519997        -4.75885963E-06
   112.709999        -8.67719609E-06
   112.900002        -1.21288722E-05
   113.089996        -1.47320843E-05
   113.279999        -1.61734861E-05
   113.470001        -1.62492706E-05
   113.660004        -1.48951995E-05
   113.849998        -1.21946814E-05
   114.040001        -8.36261279E-06
   114.230003        -3.71299848E-06
   114.419998         1.37922382E-06
   114.610001         6.51695427E-06
   114.800003         1.13198585E-05
   114.989998         1.54612026E-05
   115.180000         1.86957695E-05
   115.370003         2.08728070E-05
   115.559998         2.19348476E-05
   115.750000         2.19091617E-05
   115.940002         2.08962774E-05
   116.129997         1.90536812E-05
   116.320000         1.65707661E-05
   116.510002         1.36380313E-05
   116.699997         1.04206019E-05
   116.889999         7.04501190E-06
   117.080002         3.59960586E-06
   117.269997         1.42344831E-07
   117.459999        -3.28783153E-06
   117.650002        -6.65422522E-06
   117.839996        -9.89922501E-06
   118.029999        -1.29221235E-05
   118.220001        -1.55705875E-05
   118.410004        -1.76529738E-05
   118.599998        -1.89666534E-05
   118.790001        -1.93318756E-05
   118.980003        -1.86256893E-05
   119.169998        -1.68167953E-05
   119.360001        -1.39987296E-05
   119.550003        -1.04082028E-05
   119.739998        -6.41155293E-06
   119.930000        -2.45331921E-06
   120.120003         1.02136096E-06
   120.309998         3.64938683E-06
   120.500000         5.21924494E-06
   120.690002         5.71601913E-06
   120.879997         5.33164621E-06
   121.070000         4.43025556E-06
   121.260002         3.46752518E-06
   121.449997         2.88153774E-06
   121.639999         2.98734926E-06
   121.830002         3.90543573E-06
   122.019997         5.53737482E-06
   122.209999         7.58573970E-06
   122.400002         9.60861325E-06
   122.589996         1.10999526E-05
   122.779999         1.15846160E-05
   122.970001         1.07105343E-05
   123.160004         8.31763464E-06
   123.349998         4.46996546E-06
   123.540001        -5.50053699E-07
   123.730003        -6.27779991E-06
   123.919998        -1.21246903E-05
   124.110001        -1.74520137E-05
   124.300003        -2.16524168E-05
   124.489998        -2.42269307E-05
   124.680000        -2.48441702E-05
   124.870003        -2.33734572E-05
   125.059998        -1.98918733E-05
   125.250000        -1.46707607E-05
   125.440002        -8.14761734E-06
   125.629997        -8.86629891E-07
   125.820000         6.47046181E-06
   126.010002         1.32608948E-05
   126.199997         1.88607428E-05
   126.389999         2.27434721E-05
   126.580002         2.45324209E-05
   126.769997         2.40424888E-05
   126.959999         2.13052990E-05
   127.150002         1.65710990E-05
   127.339996         1.02826980E-05
   127.529999         3.02264129E-06
   127.720001        -4.55790359E-06
   127.910004        -1.18150319E-05
   128.100006        -1.81795094E-05
   128.289993        -2.32059556E-05
   128.479996        -2.65984836E-05
   128.669998        -2.82117180E-05
   128.860001        -2.80310524E-05
   129.050003        -2.61416826E-05
   129.240005        -2.26988814E-05
   129.429993        -1.79092422E-05
   129.619995        -1.20252316E-05
   129.809998        -5.34808441E-06
   130.000000         1.76876927E-06
   130.190002         8.92290154E-06
   130.380005         1.56770711E-05
   130.570007         2.15860364E-05
   130.759995         2.62337289E-05
   130.949997         2.92742461E-05
   131.139999         3.04679288E-05
   131.330002         2.97059469E-05
   131.520004         2.70209002E-05
   131.710007         2.25840904E-05
   131.899994         1.66904047E-05
   132.089996         9.73176247E-06
   132.279999         2.16199146E-06
   132.470001        -5.54137614E-06
   132.660004        -1.29127957E-05
   132.850006        -1.95280863E-05
   133.039993        -2.50265493E-05
   133.229996        -2.91262713E-05
   133.419998        -3.16338883E-05
   133.610001        -3.24516150E-05
   133.800003        -3.15849611E-05
   133.990005        -2.91522483E-05
   134.179993        -2.53921989E-05
   134.369995        -2.06618279E-05
   134.559998        -1.54173740E-05
   134.750000        -1.01749793E-05
   134.940002        -5.45282546E-06
   135.130005        -1.70097530E-06
   135.320007         7.70064446E-07
   135.509995         1.84690816E-06
   135.699997         1.64167932E-06
   135.889999         4.81926520E-07
   136.080002        -1.13753345E-06
   136.270004        -2.63267930E-06
   136.460007        -3.42650469E-06
   136.649994        -3.04970968E-06
   136.839996        -1.22949427E-06
   137.029999         2.05157471E-06
   137.220001         6.54107271E-06
   137.410004         1.17511718E-05
   137.600006         1.70351614E-05
   137.789993         2.16918925E-05
   137.979996         2.50807025E-05
   138.169998         2.67278883E-05
   138.360001         2.64042537E-05
   138.550003         2.41559592E-05
   138.740005         2.02808260E-05
   138.929993         1.52569392E-05
   139.119995         9.64295850E-06
   139.309998         3.97422127E-06
   139.500000        -1.32423588E-06
   139.690002        -5.99320811E-06
   139.880005        -9.95582741E-06
   140.070007        -1.32951027E-05
   140.259995        -1.62004453E-05
   140.449997        -1.88977465E-05
   140.639999        -2.15806049E-05
   140.830002        -2.43572122E-05
   141.020004        -2.72210946E-05
   141.210007        -3.00469092E-05
   141.399994        -3.26077752E-05
   141.589996        -3.46088746E-05
   141.779999        -3.57320969E-05
   141.970001        -3.56850906E-05
   142.160004        -3.42466410E-05
   142.350006        -3.12997508E-05
   142.539993        -2.68469175E-05
   142.729996        -2.10081525E-05
   142.919998        -1.40069087E-05
   143.110001        -6.14925830E-06
   143.300003         2.20081370E-06
   143.490005         1.06487405E-05
   143.679993         1.87962651E-05
   143.869995         2.62633257E-05
   144.059998         3.27027119E-05
   144.250000         3.78104924E-05
   144.440002         4.13373709E-05
   144.630005         4.31022636E-05
   144.820007         4.30034088E-05
   145.009995         4.10215835E-05
   145.199997         3.72157192E-05
   145.389999         3.17164850E-05
   145.580002         2.47225653E-05
   145.770004         1.64983157E-05
   145.960007         7.36864922E-06
   146.149994        -2.29027864E-06
   146.339996        -1.20620080E-05
   146.529999        -2.15013479E-05
   146.720001        -3.01513101E-05
   146.910004        -3.75710406E-05
   147.100006        -4.33731584E-05
   147.289993        -4.72596512E-05
   147.479996        -4.90448801E-05
   147.669998        -4.86625941E-05
   147.860001        -4.61625386E-05
   148.050003        -4.17022384E-05
   148.240005        -3.55340635E-05
   148.429993        -2.79863525E-05
   148.619995        -1.94421627E-05
   148.809998        -1.03221964E-05
   149.000000        -1.07301821E-06
   149.190002         7.84754684E-06
   149.380005         1.59969459E-05
   149.570007         2.29854049E-05
   149.759995         2.85128208E-05
   149.949997         3.23935783E-05
   150.139999         3.45674744E-05
   150.330002         3.51007548E-05
   150.520004         3.41773957E-05
   150.710007         3.20749750E-05