  -3.00000000         0.00000000    
  -2.88124990         0.00000000    
  -2.76250005         0.00000000    
  -2.64374995         0.00000000    
  -2.52500010         0.00000000    
  -2.40625000         0.00000000    
  -2.28749990        -9.53190887E-25
  -2.16875005        -7.79493340E-24
  -2.04999995        -2.44039801E-23
  -1.93124998         6.36978794E-24
  -1.81250000         4.10419666E-22
  -1.69375002         2.19000490E-21
  -1.57500005         7.38450628E-21
  -1.45624995         1.84878405E-20
  -1.33749998         3.53345062E-20
  -1.21875000         4.81176552E-20
  -1.10000002         2.78212764E-20
 -0.981249988        -7.89829918E-20
 -0.862500012        -3.37329139E-19
 -0.743749976        -7.77884060E-19
 -0.625000000        -1.31552520E-18
 -0.506250024        -1.66390141E-18
 -0.387499988        -1.32611931E-18
 -0.268750012         2.21263964E-19
 -0.150000006         3.05459602E-18
  -3.12500000E-02     6.06897328E-18
   8.74999985E-02     6.25302014E-18
  0.206249997        -1.47089587E-18
  0.324999988        -2.31150411E-17
  0.443749994        -6.26485751E-17
  0.562500000        -1.17306400E-16
  0.681249976        -1.72493151E-16
  0.800000012        -1.98895089E-16
  0.918749988        -1.55148497E-16
   1.03750002         1.25309353E-18
   1.15625000         2.94751293E-16
   1.27499998         7.08505050E-16
   1.39374995         1.16621053E-15
   1.51250005         1.53084455E-15
   1.63125002         1.63056415E-15
   1.75000000         1.31428343E-15
   1.86874998         5.26450247E-16
   1.98749995        -6.23884341E-16
   2.10625005        -1.83411432E-15
   2.22499990        -2.65148460E-15
   2.34375000        -2.60327424E-15
   2.46250010        -1.39664933E-15
   2.58124995         8.65066279E-16
   2.70000005         3.52938554E-15
   2.81874990         5.38671492E-15
   2.93750000         4.85940600E-15
   3.05625010         3.82659257E-16
   3.17499995        -9.09375250E-15
   3.29375005        -2.36022377E-14
   3.41249990        -4.17798900E-14
   3.53125000        -6.07059027E-14
   3.65000010        -7.59775272E-14
   3.76874995        -8.19954253E-14
   3.88750005        -7.24313255E-14
   4.00624990        -4.09272361E-14
   4.12500000         1.78053271E-14
   4.24375010         1.06240029E-13
   4.36250019         2.21479370E-13
   4.48124981         3.52056844E-13
   4.59999990         4.74853826E-13
   4.71875000         5.53581920E-13
   4.83750010         5.40779715E-13
   4.95625019         3.85195809E-13
   5.07499981         4.54545865E-14
   5.19374990        -4.91048283E-13
   5.31250000        -1.18768949E-12
   5.43125010        -1.94280833E-12
   5.55000019        -2.58619450E-12
   5.66874981        -2.89483867E-12
   5.78749990        -2.63152239E-12
   5.90625000        -1.60391340E-12
   6.02500010         2.65407704E-13
   6.14375019         2.87415361E-12
   6.26249981         5.90045894E-12
   6.38124990         8.80626214E-12
   6.50000000         1.08951129E-11
   6.61875010         1.14237925E-11
   6.73750019         9.75315054E-12
   6.85624981         5.51134355E-12
   6.97499990        -1.26419730E-12
   7.09375000        -1.00387693E-11
   7.21250010        -1.97701560E-11
   7.33125019        -2.89854061E-11
   7.44999981        -3.59380824E-11
   7.56874990        -3.88269382E-11
   7.68750000        -3.60505757E-11
   7.80625010        -2.64735508E-11
   7.92500019        -9.68283526E-12
   8.04374981         1.37829088E-11
   8.16250038         4.22528089E-11
   8.28125000         7.28247046E-11
   8.39999962         1.01396218E-10
   8.51875019         1.22887492E-10
   8.63749981         1.31713654E-10
   8.75625038         1.22536523E-10
   8.87500000         9.12665360E-11
   8.99374962         3.62042167E-11
   9.11250019        -4.08756813E-11
   9.23124981        -1.33958136E-10
   9.35000038        -2.32613928E-10
   9.46875000        -3.22634225E-10
   9.58749962        -3.87559623E-10
   9.70625019        -4.11004453E-10
   9.82499981        -3.79474979E-10
   9.94375038        -2.85220486E-10
   10.0625000        -1.28572361E-10
   10.1812496         8.07320114E-11
   10.3000002         3.23594845E-10
   10.4187498         5.73081305E-10
   10.5375004         7.97260313E-10
   10.6562500         9.62964375E-10
   10.7749996         1.03992437E-09
   10.8937502         1.00470943E-09
   11.0124998         8.43991321E-10
   11.1312504         5.56815150E-10
   11.2500000         1.55735286E-10
   11.3687496        -3.33189670E-10
   11.4875002        -8.71482775E-10
   11.6062498        -1.41035927E-09
   11.7250004        -1.89385285E-09
   11.8437500        -2.26295427E-09
   11.9624996        -2.46071052E-09
   12.0812502        -2.43808529E-09
   12.1999998        -2.16014406E-09
   12.3187504        -1.61192404E-09
   12.4375000        -8.03174194E-10
   12.5562496         2.28841543E-10
   12.6750002         1.41910639E-09
   12.7937498         2.67746114E-09
   12.9125004         3.89394650E-09
   13.0312500         4.94637353E-09
   13.1499996         5.70942404E-09
   13.2687502         6.06455641E-09
   13.3874998         5.91018079E-09
   13.5062504         5.17182119E-09
   13.6250000         3.81217236E-09
   13.7437496         1.84090798E-09
   13.8625002        -6.76199985E-10
   13.9812498        -3.60994035E-09
   14.1000004        -6.76379397E-09
   14.2187500        -9.87589210E-09
   14.3374996        -1.26291564E-08
   14.4562502        -1.46715280E-08
   14.5749998        -1.56469397E-08
   14.6937504        -1.52358162E-08
   14.8125000        -1.32018041E-08
   14.9312496        -9.43939860E-09
   15.0500002        -4.01563405E-09
   15.1687498         2.80153345E-09
   15.2875004         1.05348716E-08
   15.4062500         1.85146991E-08
   15.5249996         2.59231001E-08
   15.6437502         3.18645696E-08
   15.7624998         3.54583456E-08
   15.8812504         3.59442502E-08
   16.0000000         3.27909362E-08
   16.1187496         2.57936055E-08
   16.2374992         1.51475046E-08
   16.3562508         1.48465562E-09
   16.4750004        -1.41361367E-08
   16.5937500        -3.02913037E-08
   16.7124996        -4.53061446E-08
   16.8312492        -5.74128336E-08
   16.9500008        -6.49386322E-08
   17.0687504        -6.65048461E-08
   17.1875000        -6.12134201E-08
   17.3062496        -4.87974852E-08
   17.4249992        -2.97154070E-08
   17.5437508        -5.17335152E-09
   17.6625004         2.29294148E-08
   17.7812500         5.21304209E-08
   17.8999996         7.95977471E-08
   18.0187492         1.02369960E-07
   18.1375008         1.17621731E-07
   18.2562504         1.22933344E-07
   18.3750000         1.16544285E-07
   18.4937496         9.75740164E-08
   18.6124992         6.61954118E-08
   18.7312508         2.37476687E-08
   18.8500004        -2.72247345E-08
   18.9687500        -8.30226909E-08
   19.0874996        -1.38949360E-07
   19.2062492        -1.89589869E-07
   19.3250008        -2.29227297E-07
   19.4437504        -2.52398621E-07
   19.5625000        -2.54581749E-07
   19.6812496        -2.32986352E-07
   19.7999992        -1.87401426E-07
   19.9187508        -1.21033835E-07
   20.0375004        -4.12572554E-08
   20.1562500         3.98176176E-08
   20.2749996         1.05035937E-07
   20.3937492         1.32229900E-07
   20.5125008         9.46381959E-08
   20.6312504        -3.82643854E-08
   20.7500000        -2.99542677E-07
   20.8687496        -7.23232233E-07
   20.9874992        -1.34251127E-06
   21.1062508        -2.18772175E-06
   21.2250004        -3.28437113E-06
   21.3437500        -4.65124322E-06
   21.4624996        -6.29876513E-06
   21.5812492        -8.22772563E-06
   21.7000008        -1.04284518E-05
   21.8187504        -1.28805341E-05
   21.9375000        -1.55531070E-05
   22.0562496        -1.84057208E-05
   22.1749992        -2.13897874E-05
   22.2937508        -2.44505318E-05
   22.4125004        -2.75294224E-05
   22.5312500        -3.05669309E-05
   22.6499996        -3.35055011E-05
   22.7687492        -3.62925966E-05
   22.8875008        -3.88835797E-05
   23.0062504        -4.12443369E-05
   23.1250000        -4.33532987E-05
   23.2437496        -4.52028326E-05
   23.3624992        -4.67997233E-05
   23.4812508        -4.81647694E-05
   23.6000004        -4.93313564E-05
   23.7187500        -5.03431584E-05
   23.8374996        -5.12510560E-05
   23.9562492        -5.21094225E-05
   24.0750008        -5.29721947E-05
   24.1937504        -5.38888089E-05
   24.3125000        -5.49004981E-05
   24.4312496        -5.60370718E-05
   24.5499992        -5.73144498E-05
   24.6687508        -5.87331706E-05
   24.7875004        -6.02778491E-05
   24.9062500        -6.19177226E-05
   25.0249996        -6.36080731E-05
   25.1437492        -6.52925810E-05
   25.2625008        -6.69062501E-05
   25.3812504        -6.83788821E-05
   25.5000000        -6.96387069E-05
   25.6187496        -7.06161081E-05
   25.7374992        -7.12471447E-05
   25.8562508        -7.14766647E-05
   25.9750004        -7.12609399E-05
   26.0937500        -7.05695566E-05
   26.2124996        -6.93865732E-05
   26.3312492        -6.77109492E-05
   26.4500008        -6.55560507E-05
   26.5687504        -6.29484202E-05
   26.6875000        -5.99258565E-05
   26.8062496        -5.65349692E-05
   26.9249992        -5.28283636E-05
   27.0437508        -4.88616133E-05
   27.1625004        -4.46904087E-05
   27.2812500        -4.03679041E-05
   27.3999996        -3.59426704E-05
   27.5187492        -3.14572171E-05
   27.6375008        -2.69472894E-05
   27.7562504        -2.24418563E-05
   27.8750000        -1.79638610E-05
   27.9937496        -1.35314085E-05
   28.1124992        -9.15927285E-06
   28.2312508        -4.86060799E-06
   28.3500004        -6.48470689E-07
   28.4687500         3.46287516E-06
   28.5874996         7.45707575E-06
   28.7062492         1.13153283E-05
   28.8250008         1.50164497E-05
   28.9437504         1.85374120E-05
   29.0625000         2.18542718E-05
   29.1812496         2.49433069E-05
   29.2999992         2.77823074E-05
   29.4187508         3.03518973E-05
   29.5375004         3.26367335E-05
   29.6562500         3.46265879E-05
   29.7749996         3.63171712E-05
   29.8937492         3.77107353E-05
   30.0125008         3.88163789E-05
   30.1312504         3.96501164E-05
   30.2500000         4.02346050E-05
   30.3687496         4.05986830E-05
   30.4874992         4.07765801E-05
   30.6062508         4.08069354E-05
   30.7250004         4.07315347E-05
   30.8437500         4.05939136E-05
   30.9624996         4.04377715E-05
   31.0812492         4.03053200E-05
   31.2000008         4.02356636E-05
   31.3187504         4.02632322E-05
   31.4375000         4.04164566E-05
   31.5562496         4.07167245E-05
   31.6749992         4.11776819E-05
   31.7937508         4.18049785E-05
   31.9125004         4.25964208E-05
   32.0312500         4.35424627E-05
   32.1500015         4.46270569E-05
   32.2687492         4.58286631E-05
   32.3875008         4.71213498E-05
   32.5062485         4.84759221E-05
   32.6250000         4.98609734E-05
   32.7437515         5.12438419E-05
   32.8624992         5.25915129E-05
   32.9812508         5.38714739E-05
   33.0999985         5.50526238E-05
   33.2187500         5.61062407E-05
   33.3375015         5.70070952E-05
   33.4562492         5.77345636E-05
   33.5750008         5.82737885E-05
   33.6937485         5.86167007E-05
   33.8125000         5.87627837E-05
   33.9312515         5.87195063E-05
   34.0499992         5.85022935E-05
   34.1687508         5.81339955E-05
   34.2874985         5.76439197E-05
   34.4062500         5.70664852E-05
   34.5250015         5.64396723E-05
   34.6437492         5.58033826E-05
   34.7625008         5.51978846E-05
   34.8812485         5.46624469E-05
   35.0000000         5.42342095E-05
   35.1187515         5.39473112E-05
   35.2374992         5.38321146E-05
   35.3562508         5.39145331E-05
   35.4749985         5.42152447E-05
   35.5937500         5.47487616E-05
   35.7125015         5.55223305E-05
   35.8312492         5.65347291E-05
   35.9500008         5.77750798E-05
   36.0687485         5.92219367E-05
   36.1875000         6.08427545E-05
   36.3062515         6.25940957E-05
   36.4249992         6.44225584E-05
   36.5437508         6.62664897E-05
   36.6624985         6.80584853E-05
   36.7812500         6.97284268E-05
   36.9000015         7.12067485E-05
   37.0187492         7.24278070E-05
   37.1375008         7.33328634E-05
   37.2562485         7.38725648E-05
   37.3750000         7.40087999E-05
   37.4937515         7.37158116E-05
   37.6124992         7.29807070E-05
   37.7312508         7.18035881E-05
   37.8499985         7.01973258E-05
   37.9687500         6.81874371E-05
   38.0875015         6.58120043E-05
   38.2062492         6.31218427E-05
   38.3250008         6.01807478E-05
   38.4437485         5.70657212E-05
   38.5625000         5.38669592E-05
   38.6812515         5.06873039E-05
   38.7999992         4.76409587E-05
   38.9187508         4.48513456E-05
   39.0374985         4.24480422E-05
   39.1562500         4.05629071E-05
   39.2750015         3.93256014E-05
   39.3937492         3.88587614E-05
   39.5125008         3.92731818E-05
   39.6312485         4.06633408E-05
   39.7500000         4.31035296E-05
   39.8687515         4.66448510E-05
   39.9874992         5.13131890E-05
   40.1062508         5.71082055E-05
   40.2249985         6.40033468E-05
   40.3437500         7.19467134E-05
   40.4625015         8.08626792E-05
   40.5812492         9.06541318E-05
   40.7000008         1.01205143E-04
   40.8187485         1.12384019E-04
   40.9375000         1.24046506E-04
   41.0562515         1.36039147E-04
   41.1749992         1.48202525E-04
   41.2937508         1.60374504E-04
   41.4124985         1.72393047E-04
   41.5312500         1.84098739E-04
   41.6500015         1.95336688E-04
   41.7687492         2.05957811E-04
   41.8875008         2.15819557E-04
   42.0062485         2.24785734E-04
   42.1250000         2.32725768E-04
   42.2437515         2.39513392E-04
   42.3624992         2.45025061E-04
   42.4812508         2.49138044E-04
   42.5999985         2.51728779E-04
   42.7187500         2.52671714E-04
   42.8375015         2.51838908E-04
   42.9562492         2.49100907E-04
   43.0750008         2.44328869E-04
   43.1937485         2.37398388E-04
   43.3125000         2.28194680E-04
   43.4312515         2.16619184E-04
   43.5499992         2.02597177E-04
   43.6687508         1.86085657E-04
   43.7874985         1.67081162E-04
   43.9062500         1.45626633E-04
   44.0250015         1.21816789E-04
   44.1437492         9.58014280E-05
   44.2625008         6.77861244E-05
   44.3812485         3.80303027E-05
   44.5000000         6.84247561E-06
   44.6187515        -2.54268962E-05
   44.7374992        -5.83945402E-05
   44.8562508        -9.16547506E-05
   44.9749985        -1.24790196E-04
   45.0937500        -1.57382456E-04
   45.2125015        -1.89021317E-04
   45.3312492        -2.19312496E-04
   45.4500008        -2.47883465E-04
   45.5687485        -2.74387305E-04
   45.6875000        -2.98504485E-04
   45.8062515        -3.19943705E-04
   45.9249992        -3.38441634E-04
   46.0437508        -3.53762589E-04
   46.1624985        -3.65698623E-04
   46.2812500        -3.74070340E-04
   46.4000015        -3.78729106E-04
   46.5187492        -3.79560166E-04
   46.6375008        -3.76487180E-04
   46.7562485        -3.69477202E-04
   46.8750000        -3.58546298E-04
   46.9937515        -3.43764608E-04
   47.1124992        -3.25260771E-04
   47.2312508        -3.03224369E-04
   47.3499985        -2.77907064E-04
   47.4687500        -2.49620905E-04
   47.5875015        -2.18734669E-04
   47.7062492        -1.85667814E-04
   47.8250008        -1.50882595E-04
   47.9437485        -1.14874594E-04
   48.0625000        -7.81621129E-05
   48.1812515        -4.12751942E-05
   48.2999992        -4.74428361E-06
   48.4187508         3.09106981E-05
   48.5374985         6.51909213E-05
   48.6562500         9.76284864E-05
   48.7750015         1.27795647E-04
   48.8937492         1.55313086E-04
   49.0125008         1.79857467E-04
   49.1312485         2.01167888E-04
   49.2500000         2.19051086E-04
   49.3687515         2.33385159E-04
   49.4874992         2.44121125E-04
   49.6062508         2.51282414E-04
   49.7249985         2.54961778E-04
   49.8437500         2.55315681E-04
   49.9625015         2.52556405E-04
   50.0812492         2.46942276E-04
   50.2000008         2.38766675E-04
   50.3187485         2.28346937E-04
   50.4375000         2.16013301E-04
   50.5562515         2.02099473E-04
   50.6749992         1.86934776E-04
   50.7937508         1.70838626E-04
   50.9124985         1.54116875E-04
   51.0312500         1.37060240E-04
   51.1500015         1.19943979E-04
   51.2687492         1.03028273E-04
   51.3875008         8.65585534E-05
   51.5062485         7.07652071E-05
   51.6250000         5.58621323E-05
   51.7437515         4.20440629E-05
   51.8624992         2.94827714E-05
   51.9812508         1.83225020E-05
   52.0999985         8.67534345E-06
   52.2187500         6.17038268E-07
   52.3375015        -5.81599807E-06
   52.4562492        -1.06281659E-05
   52.5750008        -1.38643882E-05
   52.6937485        -1.56081915E-05
   52.8125000        -1.59784231E-05
   52.9312515        -1.51250497E-05
   53.0499992        -1.32245477E-05
   53.1687508        -1.04752307E-05
   53.2874985        -7.09280812E-06
   53.4062500        -3.30613580E-06
   53.5250015         6.46872309E-07
   53.6437492         4.52358290E-06
   53.7625008         8.08155801E-06
   53.8812485         1.10843439E-05
   54.0000000         1.33084432E-05
   54.1187515         1.45513077E-05
   54.2374992         1.46401644E-05
   54.3562508         1.34411248E-05
   54.4749985         1.08678250E-05
   54.5937500         6.88870068E-06
   54.7125015         1.53203428E-06
   54.8312492        -5.11203234E-06
   54.9500008        -1.28930733E-05
   55.0687485        -2.16057269E-05
   55.1875000        -3.09988063E-05
   55.3062515        -4.07875959E-05
   55.4249992        -5.06685465E-05
   55.5437508        -6.03353110E-05
   55.6624985        -6.94949704E-05
   55.7812500        -7.78830872E-05
   55.9000015        -8.52766098E-05
   56.0187492        -9.15035489E-05
   56.1375008        -9.64490027E-05
   56.2562485        -1.00057048E-04
   56.3750000        -1.02328777E-04
   56.4937515        -1.03316728E-04
   56.6124992        -1.03116501E-04
   56.7312508        -1.01856378E-04
   56.8499985        -9.96857270E-05
   56.9687500        -9.67632368E-05
   57.0875015        -9.32456751E-05
   57.2062492        -8.92778553E-05
   57.3250008        -8.49844582E-05
   57.4437485        -8.04639858E-05
   57.5625000        -7.57851376E-05
   57.6812515        -7.09857268E-05
   57.7999992        -6.60740625E-05
   57.9187508        -6.10325260E-05
   58.0374985        -5.58231768E-05
   58.1562500        -5.03948722E-05
   58.2750015        -4.46916310E-05
   58.3937492        -3.86615466E-05
   58.5125008        -3.22659980E-05
   58.6312485        -2.54885090E-05
   58.7500000        -1.83427237E-05
   58.8687515        -1.08790446E-05
   58.9874992        -3.18931984E-06
   59.1062508         4.59085277E-06
   59.2249985         1.22826186E-05
   59.3437500         1.96674064E-05
   59.4625015         2.64935643E-05
   59.5812492         3.24859611E-05
   59.7000008         3.73582225E-05
   59.8187485         4.08269880E-05
   59.9375000         4.26275219E-05
   60.0562515         4.25297512E-05
   60.1749992         4.03537924E-05
   60.2937508         3.59839760E-05
   60.4124985         2.93803587E-05
   60.5312500         2.05869965E-05
   60.6500015         9.73617989E-06
   60.7687492        -2.95159907E-06
   60.8875008        -1.71721695E-05
   61.0062485        -3.25464716E-05
   61.1250000        -4.86331737E-05
   61.2437515        -6.49444264E-05
   61.3624992        -8.09640187E-05
   61.4812508        -9.61670521E-05
   61.5999985        -1.10040040E-04
   61.7187500        -1.22100755E-04
   61.8375015        -1.31916822E-04
   61.9562492        -1.39122101E-04
   62.0750008        -1.43430792E-04
   62.1937485        -1.44648002E-04
   62.3125000        -1.42677280E-04
   62.4312515        -1.37524665E-04
   62.5499992        -1.29299093E-04
   62.6687508        -1.18209864E-04
   62.7874985        -1.04560575E-04
   62.9062500        -8.87401693E-05
   63.0250015        -7.12108231E-05
   63.1437492        -5.24930292E-05
   63.2625008        -3.31479605E-05
   63.3812485        -1.37576535E-05
   63.5000000         5.09642541E-06
   63.6187515         2.28556091E-05
   63.7374992         3.90061105E-05
   63.8562508         5.30998259E-05
   63.9749985         6.47728666E-05
   64.0937500         7.37606169E-05
   64.2125015         7.99083937E-05
   64.3312531         8.31768339E-05
   64.4499969         8.36413601E-05
   64.5687485         8.14855812E-05
   64.6875000         7.69887411E-05
   64.8062515         7.05079947E-05
   64.9250031         6.24567183E-05
   65.0437469         5.32804770E-05
   65.1624985         4.34323265E-05
   65.2812500         3.33493517E-05
   65.4000015         2.34319523E-05
   65.5187531         1.40270795E-05
   65.6374969         5.41618601E-06
   65.7562485        -2.19171966E-06
   65.8750000        -8.66201390E-06
   65.9937515        -1.39318026E-05
   66.1125031        -1.80033403E-05
   66.2312469        -2.09344580E-05
   66.3499985        -2.28270546E-05
   66.4687500        -2.38147713E-05
   66.5875015        -2.40508780E-05
   66.7062531        -2.36972246E-05
   66.8249969        -2.29148027E-05
   66.9437485        -2.18561017E-05
   67.0625000        -2.06592340E-05
   67.1812515        -1.94436088E-05
   67.3000031        -1.83068551E-05
   67.4187469        -1.73228946E-05
   67.5374985        -1.65409765E-05
   67.6562500        -1.59858064E-05
   67.7750015        -1.56588030E-05
   67.8937531        -1.55404850E-05
   68.0124969        -1.55939215E-05
   68.1312485        -1.57690411E-05
   68.2500000        -1.60075670E-05
   68.3687515        -1.62482247E-05
   68.4875031        -1.64319754E-05
   68.6062469        -1.65069723E-05
   68.7249985        -1.64329667E-05
   68.8437500        -1.61847638E-05
   68.9625015        -1.57544255E-05
   69.0812531        -1.51518379E-05
   69.1999969        -1.44034466E-05
   69.3187485        -1.35491455E-05
   69.4375000        -1.26375808E-05
   69.5562515        -1.17203735E-05
   69.6750031        -1.08459299E-05
   69.7937469        -1.00535490E-05
   69.9124985        -9.36846845E-06
   70.0312500        -8.79828258E-06
   70.1500015        -8.33106060E-06
   70.2687531        -7.93524850E-06
   70.3874969        -7.56142981E-06
   70.5062485        -7.14583030E-06
   70.6250000        -6.61541389E-06
   70.7437515        -5.89428009E-06
   70.8625031        -4.91084529E-06
   70.9812469        -3.60518902E-06
   71.0999985        -1.93583742E-06
   71.2187500         1.14739493E-07
   71.3375015         2.53644885E-06
   71.4562531         5.29000818E-06
   71.5749969         8.30756562E-06
   71.6937485         1.14952854E-05
   71.8125000         1.47376140E-05
   71.9312515         1.79028866E-05
   72.0500031         2.08498914E-05
   72.1687469         2.34351301E-05
   72.2874985         2.55203522E-05
   72.4062500         2.69799984E-05
   72.5250015         2.77080126E-05
   72.6437531         2.76235623E-05
   72.7624969         2.66752595E-05
   72.8812485         2.48436463E-05
   73.0000000         2.21419032E-05
   73.1187515         1.86150464E-05
   73.2375031         1.43378938E-05
   73.3562469         9.41217149E-06
   73.4749985         3.96301948E-06
   73.5937500        -1.86485806E-06
   73.7125015        -7.91135699E-06
   73.8312531        -1.40053144E-05
   73.9499969        -1.99689457E-05
   74.0687485        -2.56222902E-05
   74.1875000        -3.07875744E-05
   74.3062515        -3.52934403E-05
   74.4250031        -3.89791567E-05
   74.5437469        -4.16990151E-05
   74.6624985        -4.33270616E-05
   74.7812500        -4.37622912E-05
   74.9000015        -4.29342253E-05
   75.0187531        -4.08086053E-05
   75.1374969        -3.73926196E-05
   75.2562485        -3.27391353E-05
   75.3750000        -2.69492266E-05
   75.4937515        -2.01726125E-05
   75.6125031        -1.26055984E-05
   75.7312469        -4.48639139E-06
   75.8499985         3.91218555E-06
   75.9687500         1.22924230E-05
   76.0875015         2.03435884E-05
   76.2062531         2.77554172E-05
   76.3249969         3.42325402E-05
   76.4437485         3.95089301E-05
   76.5625000         4.33614114E-05
   76.6812515         4.56212110E-05
   76.8000031         4.61826749E-05
   76.9187469         4.50086663E-05
   77.0374985         4.21321965E-05
   77.1562500         3.76544631E-05
   77.2750015         3.17394115E-05
   77.3937531         2.46052550E-05
   77.5124969         1.65135043E-05
   77.6312485         7.75605804E-06
   77.7500000        -1.35888797E-06
   77.8687515        -1.05212403E-05
   77.9875031        -1.94328277E-05
   78.1062469        -2.78196439E-05
   78.2249985        -3.54418298E-05
   78.3437500        -4.21007317E-05
   78.4625015        -4.76429050E-05
   78.5812531        -5.19611312E-05
   78.6999969        -5.49927245E-05
   78.8187485        -5.67157003E-05
   78.9375000        -5.71433484E-05
   79.0562515        -5.63177600E-05
   79.1750031        -5.43030146E-05
   79.2937469        -5.11786493E-05
   79.4124985        -4.70340565E-05
   79.5312500        -4.19644857E-05
   79.6500015        -3.60689664E-05
   79.7687531        -2.94503752E-05
   79.8874969        -2.22173185E-05
   80.0062485        -1.44872702E-05
   80.1250000        -6.39009340E-06
   80.2437515         1.92894800E-06
   80.3625031         1.03074726E-05
   80.4812469         1.85661684E-05
   80.5999985         2.65110393E-05
   80.7187500         3.39378130E-05
   80.8375015         4.06382205E-05
   80.9562531         4.64078294E-05
   81.0749969         5.10550162E-05
   81.1937485         5.44104550E-05
   81.3125000         5.63365102E-05
   81.4312515         5.67357347E-05
   81.5500031         5.55577280E-05
   81.6687469         5.28037162E-05
   81.7874985         4.85284399E-05
   81.9062500         4.28393578E-05
   82.0250015         3.58933212E-05
   82.1437531         2.78912939E-05
   82.2624969         1.90715673E-05
   82.3812485         9.70192195E-06
   82.5000000         7.10356787E-08
   82.6187515        -9.52076880E-06
   82.7375031        -1.87714013E-05
   82.8562469        -2.73874466E-05
   82.9749985        -3.50948758E-05
   83.0937500        -4.16497714E-05
   83.2125015        -4.68484577E-05
   83.3312531        -5.05365679E-05
   83.4499969        -5.26164622E-05
   83.5687485        -5.30525831E-05
   83.6875000        -5.18743509E-05
   83.8062515        -4.91762512E-05
   83.9250031        -4.51148408E-05
   84.0437469        -3.99025193E-05
   84.1624985        -3.37979945E-05
   84.2812500        -2.70937799E-05
   84.4000015        -2.01012826E-05
   84.5187531        -1.31344877E-05
   84.6374969        -6.49337062E-06
   84.7562485        -4.48329502E-07
   84.8750000         4.77319281E-06
   84.9937515         8.99702536E-06
   85.1125031         1.21089261E-05
   85.2312469         1.40573593E-05
   85.3499985         1.48525087E-05
   85.4687500         1.45617705E-05
   85.5875015         1.33022932E-05
   85.7062531         1.12311027E-05
   85.8249969         8.53366055E-06
   85.9437485         5.41163809E-06
   86.0625000         2.07083735E-06
   86.1812515        -1.28990223E-06
   86.3000031        -4.48813807E-06
   86.4187469        -7.36510174E-06
   86.5374985        -9.79066135E-06
   86.6562500        -1.16660494E-05
   86.7750015        -1.29245727E-05
   86.8937531        -1.35307237E-05
   87.0124969        -1.34780212E-05
   87.1312485        -1.27859757E-05
   87.2500000        -1.14964796E-05
   87.3687515        -9.66985681E-06
   87.4875031        -7.38082235E-06
   87.6062469        -4.71463272E-06
   87.7249985        -1.76354843E-06
   87.8437500         1.37623772E-06
   87.9625015         4.60712863E-06
   88.0812531         7.83223277E-06
   88.1999969         1.09571056E-05
   88.3187485         1.38913265E-05
   88.4375000         1.65500478E-05
   88.5562515         1.88556023E-05
   88.6750031         2.07392077E-05
   88.7937469         2.21426490E-05
   88.9124985         2.30199457E-05
   89.0312500         2.33387054E-05
   89.1500015         2.30811929E-05
   89.2687531         2.22448762E-05
   89.3874969         2.08424499E-05
   89.5062485         1.89012680E-05
   89.6250000         1.64621815E-05
   89.7437515         1.35778355E-05
   89.8625031         1.03104612E-05
   89.9812469         6.72931901E-06
   90.0999985         2.90791786E-06
   90.2187500        -1.07875951E-06
   90.3375015        -5.15679767E-06
   90.4562531        -9.25541462E-06
   90.5749969        -1.33083213E-05
   90.6937485        -1.72542550E-05
   90.8125000        -2.10366452E-05
   90.9312515        -2.46025102E-05
   91.0500031        -2.79008800E-05
   91.1687469        -3.08809977E-05
   91.2874985        -3.34907782E-05
   91.4062500        -3.56757882E-05
   91.5250015        -3.73791081E-05
   91.6437531        -3.85422063E-05
   91.7624969        -3.91069188E-05
   91.8812485        -3.90184432E-05
   92.0000000        -3.82292383E-05
   92.1187515        -3.67035245E-05
   92.2375031        -3.44220425E-05
   92.3562469        -3.13866767E-05
   92.4749985        -2.76243827E-05
   92.5937500        -2.31899467E-05
   92.7125015        -1.81671239E-05
   92.8312531        -1.26678551E-05
   92.9499969        -6.82938071E-06
   93.0687485        -8.09416917E-07