  -3.00000000         0.00000000    
  -2.80999994         0.00000000    
  -2.61999989         0.00000000    
  -2.43000007         0.00000000    
  -2.24000001         0.00000000    
  -2.04999995         0.00000000    
  -1.86000001         5.78487025E-22
  -1.66999996         2.27011581E-21
  -1.48000002        -9.54313022E-21
  -1.28999996        -7.86623236E-20
  -1.10000002        -1.45231267E-19
 -0.910000026         3.03803457E-19
 -0.720000029         1.98310493E-18
 -0.529999971         3.35130447E-18
 -0.340000004        -2.59314856E-18
 -0.150000006        -2.27385201E-17
   3.99999991E-02    -3.90706355E-17
  0.230000004         1.84548511E-17
  0.419999987         2.36288073E-16
  0.610000014         5.57186161E-16
  0.800000012         5.77044319E-16
  0.990000010        -3.93270753E-16
   1.17999995        -2.68574708E-15
   1.37000000        -5.27213466E-15
   1.55999994        -5.49300909E-15
   1.75000000        -8.17714014E-16
   1.94000006         7.59824553E-15
   2.13000011         1.25989968E-14
   2.31999993         4.30474849E-15
   2.50999999        -2.00251159E-14
   2.70000005        -4.60127779E-14
   2.89000010        -4.37523112E-14
   3.07999992         1.23608314E-14
   3.26999998         1.14575734E-13
   3.46000004         2.06716155E-13
   3.65000010         2.02474498E-13
   3.83999991         3.20135154E-14
   4.03000021        -3.12026826E-13
   4.21999979        -7.52887553E-13
   4.40999985        -1.12203573E-12
   4.59999990        -1.13683531E-12
   4.78999996        -3.84414505E-13
   4.98000002         1.56702765E-12
   5.17000008         4.77813535E-12
   5.36000013         8.30089383E-12
   5.55000019         9.70820559E-12
   5.73999977         5.50890366E-12
   5.92999983        -7.02732273E-12
   6.11999989        -2.69910379E-11
   6.30999994        -4.74444199E-11
   6.50000000        -5.56827119E-11
   6.69000006        -3.75495156E-11
   6.88000011         1.49000690E-11
   7.07000017         9.54810328E-11
   7.26000023         1.79939050E-10
   7.44999981         2.29254976E-10
   7.63999987         2.00839206E-10
   7.82999992         6.53625210E-11
   8.02000046        -1.75117698E-10
   8.21000004        -4.73346307E-10
   8.39999962        -7.33965722E-10
   8.59000015        -8.28396074E-10
   8.77999973        -6.31861174E-10
   8.97000027        -7.91990917E-11
   9.15999985         7.76376519E-10
   9.35000038         1.72913606E-09
   9.53999996         2.44087839E-09
   9.72999954         2.53010923E-09
   9.92000008         1.71564496E-09
   10.1099997        -3.26968522E-11
   10.3000002        -2.40163822E-09
   10.4899998        -4.75558481E-09
   10.6800003        -6.28843733E-09
   10.8699999        -6.27080876E-09
   11.0600004        -4.31367564E-09
   11.2500000        -5.54416901E-10
   11.4399996         4.30720393E-09
   11.6300001         9.14486442E-09
   11.8199997         1.26753994E-08
   12.0100002         1.37798661E-08
   12.1999998         1.17817676E-08
   12.3900003         6.61262645E-09
   12.5799999        -1.15795362E-09
   12.7700005        -1.04049604E-08
   12.9600000        -1.95971968E-08
   13.1499996        -2.69725238E-08
   13.3400002        -3.07237933E-08
   13.5299997        -2.92073388E-08
   13.7200003        -2.12017053E-08
   13.9099998        -6.24226892E-09
   14.1000004         1.49677799E-08
   14.2900000         4.01268778E-08
   14.4799995         6.50350884E-08
   14.6700001         8.36767100E-08
   14.8599997         8.89761864E-08
   15.0500002         7.43995230E-08
   15.2399998         3.62543275E-08
   15.4300003        -2.39012987E-08
   15.6199999        -9.76837100E-08
   15.8100004        -1.70097167E-07
   16.0000000        -2.22027822E-07
   16.1900005        -2.34689622E-07
   16.3799992        -1.94867198E-07
   16.5699997        -9.93771678E-08
   16.7600002         4.26188151E-08
   16.9500008         2.10074234E-07
   17.1399994         3.73024676E-07
   17.3299999         4.97193014E-07
   17.5200005         5.49284152E-07
   17.7099991         5.02366106E-07
   17.8999996         3.41157630E-07
   18.0900002         6.71599807E-08
   18.2800007        -2.96793928E-07
   18.4699993        -7.03725902E-07
   18.6599998        -1.08326572E-06
   18.8500004        -1.34795027E-06
   19.0400009        -1.40628424E-06
   19.2299995        -1.18207936E-06
   19.4200001        -6.37357005E-07
   19.6100006         2.05901529E-07
   19.7999992         1.25078577E-06
   19.9899998         2.32217872E-06
   20.1800003         3.17777994E-06
   20.3700008         3.53286828E-06
   20.5599995         3.09521442E-06
   20.7500000         1.60455772E-06
   20.9400005        -1.12959594E-06
   21.1299992        -5.19763489E-06
   21.3199997        -1.05716772E-05
   21.5100002        -1.71029569E-05
   21.7000008        -2.45365482E-05
   21.8899994        -3.25430810E-05
   22.0799999        -4.07644657E-05
   22.2700005        -4.88674777E-05
   22.4599991        -5.65966911E-05
   22.6499996        -6.38169440E-05
   22.8400002        -7.05364073E-05
   23.0300007        -7.69044418E-05
   23.2199993        -8.31830839E-05
   23.4099998        -8.96963684E-05
   23.6000004        -9.67661254E-05
   23.7900009        -1.04646075E-04
   23.9799995        -1.13465911E-04
   24.1700001        -1.23195452E-04
   24.3600006        -1.33634967E-04
   24.5499992        -1.44433347E-04
   24.7399998        -1.55131129E-04
   24.9300003        -1.65221267E-04
   25.1200008        -1.74217144E-04
   25.3099995        -1.81715761E-04
   25.5000000        -1.87444151E-04
   25.6900005        -1.91280385E-04
   25.8799992        -1.93246538E-04
   26.0699997        -1.93477928E-04
   26.2600002        -1.92178821E-04
   26.4500008        -1.89577215E-04
   26.6399994        -1.85889876E-04
   26.8299999        -1.81302792E-04
   27.0200005        -1.75965906E-04
   27.2099991        -1.69996158E-04
   27.3999996        -1.63481542E-04
   27.5900002        -1.56481547E-04
   27.7800007        -1.49024432E-04
   27.9699993        -1.41106095E-04
   28.1599998        -1.32697387E-04
   28.3500004        -1.23764039E-04
   28.5400009        -1.14298120E-04
   28.7299995        -1.04353378E-04
   28.9200001        -9.40731916E-05
   29.1100006        -8.37003608E-05
   29.2999992        -7.35637223E-05
   29.4899998        -6.40442086E-05
   29.6800003        -5.55295301E-05
   29.8700008        -4.83686272E-05
   30.0599995        -4.28344865E-05
   30.2500000        -3.90982714E-05
   30.4400005        -3.72132090E-05
   30.6299992        -3.71052192E-05
   30.8199997        -3.85699168E-05
   31.0100002        -4.12788722E-05
   31.2000008        -4.47998900E-05
   31.3899994        -4.86337522E-05
   31.5799999        -5.22642149E-05
   31.7700005        -5.52123347E-05
   31.9599991        -5.70830343E-05
   32.1500015        -5.75942759E-05
   32.3400002        -5.65856644E-05
   32.5299988        -5.40113288E-05
   32.7200012        -4.99273156E-05
   32.9099998        -4.44834805E-05
   33.0999985        -3.79245284E-05
   33.2900009        -3.05962567E-05
   33.4799995        -2.29465040E-05
   33.6699982        -1.55084981E-05
   33.8600006        -8.85908685E-06
   34.0499992        -3.55343241E-06
   34.2400017        -4.75211017E-08
   34.4300003         1.37411303E-06
   34.6199989         6.47862464E-07
   34.8100014        -2.05432252E-06
   35.0000000        -6.34862226E-06
   35.1899986        -1.16959627E-05
   35.3800011        -1.74799279E-05
   35.5699997        -2.30914957E-05
   35.7599983        -2.80067088E-05
   35.9500008        -3.18462808E-05
   36.1399994        -3.44105720E-05
   36.3300018        -3.56874843E-05
   36.5200005        -3.58348152E-05
   36.7099991        -3.51414128E-05
   36.9000015        -3.39734215E-05
   37.0900002        -3.27135349E-05
   37.2799988        -3.17018457E-05
   37.4700012        -3.11867734E-05
   37.6599998        -3.12927332E-05
   37.8499985        -3.20081999E-05
   38.0400009        -3.31940282E-05
   38.2299995        -3.46088273E-05
   38.4199982        -3.59471524E-05
   38.6100006        -3.68865803E-05
   38.7999992        -3.71408460E-05
   38.9900017        -3.65159249E-05
   39.1800003        -3.49637085E-05
   39.3699989        -3.26241643E-05
   39.5600014        -2.98439136E-05
   39.7500000        -2.71598456E-05
   39.9399986        -2.52424361E-05
   40.1300011        -2.48039505E-05
   40.3199997        -2.64886676E-05
   40.5099983        -3.07708178E-05
   40.7000008        -3.78869772E-05
   40.8899994        -4.78215916E-05
   41.0800018        -6.03489170E-05
   41.2700005        -7.51174157E-05
   41.4599991        -9.17492216E-05
   41.6500015        -1.09923858E-04
   41.8400002        -1.29421664E-04
   42.0299988        -1.50117281E-04
   42.2200012        -1.71929976E-04
   42.4099998        -1.94749300E-04
   42.5999985        -2.18359783E-04
   42.7900009        -2.42382812E-04
   42.9799995        -2.66247254E-04
   43.1699982        -2.89189979E-04
   43.3600006        -3.10283765E-04
   43.5499992        -3.28488211E-04
   43.7400017        -3.42720305E-04
   43.9300003        -3.51941999E-04
   44.1199989        -3.55260592E-04
   44.3100014        -3.52033065E-04
   44.5000000        -3.41961015E-04
   44.6899986        -3.25160130E-04
   44.8800011        -3.02187400E-04
   45.0699997        -2.74015212E-04
   45.2599983        -2.41948481E-04
   45.4500008        -2.07493300E-04
   45.6399994        -1.72194166E-04
   45.8300018        -1.37465424E-04
   46.0200005        -1.04445709E-04
   46.2099991        -7.39008756E-05
   46.4000015        -4.61927775E-05
   46.5900002        -2.13174444E-05
   46.7799988         9.98544806E-07
   46.9700012         2.11676252E-05
   47.1599998         3.96067189E-05
   47.3499985         5.66261660E-05
   47.5400009         7.23598423E-05
   47.7299995         8.67407871E-05
   47.9199982         9.95150040E-05
   48.1100006         1.10279005E-04
   48.2999992         1.18527423E-04
   48.4900017         1.23703634E-04
   48.6800003         1.25254912E-04
   48.8699989         1.22698519E-04
   49.0600014         1.15703217E-04
   49.2500000         1.04180450E-04
   49.4399986         8.83667672E-05
   49.6300011         6.88709697E-05
   49.8199997         4.66605634E-05
   50.0099983         2.29758189E-05
   50.2000008        -8.20005937E-07
   50.3899994        -2.34246490E-05
   50.5800018        -4.37735034E-05
   50.7700005        -6.11683208E-05
   50.9599991        -7.53319473E-05
   51.1500015        -8.63856112E-05
   51.3400002        -9.47658191E-05
   51.5299988        -1.01110309E-04
   51.7200012        -1.06141735E-04
   51.9099998        -1.10567227E-04
   52.0999985        -1.14998642E-04
   52.2900009        -1.19888609E-04
   52.4799995        -1.25476188E-04
   52.6699982        -1.31742505E-04
   52.8600006        -1.38386284E-04
   53.0499992        -1.44835882E-04
   53.2400017        -1.50312058E-04
   53.4300003        -1.53944420E-04
   53.6199989        -1.54926282E-04
   53.8100014        -1.52676410E-04
   54.0000000        -1.46969280E-04
   54.1899986        -1.38000090E-04
   54.3800011        -1.26368352E-04
   54.5699997        -1.12985021E-04
   54.7599983        -9.89273613E-05
   54.9500008        -8.52766825E-05
   55.1399994        -7.29733729E-05
   55.3300018        -6.27133268E-05
   55.5200005        -5.48949101E-05
   55.7099991        -4.96119865E-05
   55.9000015        -4.66805323E-05
   56.0900002        -4.56859379E-05
   56.2799988        -4.60427291E-05
   56.4700012        -4.70640116E-05
   56.6599998        -4.80406306E-05
   56.8499985        -4.83280091E-05
   57.0400009        -4.74335175E-05
   57.2299995        -4.50914449E-05
   57.4199982        -4.13103517E-05
   57.6100006        -3.63805702E-05
   57.7999992        -3.08372437E-05
   57.9900017        -2.53843737E-05
   58.1800003        -2.07938810E-05
   58.3699989        -1.77982656E-05
   58.5600014        -1.69948198E-05
   58.7500000        -1.87749702E-05
   58.9399986        -2.32853854E-05
   59.1300011        -3.04210134E-05
   59.3199997        -3.98453994E-05
   59.5099983        -5.10314349E-05
   59.7000008        -6.33149466E-05
   59.8899994        -7.59538889E-05
   60.0800018        -8.81857632E-05
   60.2700005        -9.92767455E-05
   60.4599991        -1.08558066E-04
   60.6500015        -1.15449046E-04
   60.8400002        -1.19470227E-04
   61.0299988        -1.20253047E-04
   61.2200012        -1.17552874E-04
   61.4099998        -1.11270310E-04
   61.5999985        -1.01481397E-04
   61.7900009        -8.84722031E-05
   61.9799995        -7.27678052E-05
   62.1699982        -5.51421836E-05
   62.3600006        -3.65966698E-05
   62.5499992        -1.82995245E-05
   62.7400017        -1.48865161E-06
   62.9300003         1.26518871E-05
   63.1199989         2.31243448E-05
   63.3100014         2.92386394E-05
   63.5000000         3.07024093E-05
   63.6899986         2.76627579E-05
   63.8800011         2.06885634E-05
   64.0699997         1.06915104E-05
   64.2600021        -1.20496497E-06
   64.4499969        -1.38287305E-05
   64.6399994        -2.61261248E-05
   64.8300018        -3.73021285E-05
   65.0199966        -4.69058978E-05
   65.2099991        -5.48440330E-05
   65.4000015        -6.13200755E-05
   65.5899963        -6.67170025E-05
   65.7799988        -7.14541675E-05
   65.9700012        -7.58556926E-05
   66.1600037        -8.00623457E-05
   66.3499985        -8.40043431E-05
   66.5400009        -8.74350226E-05
   66.7300034        -9.00088198E-05
   66.9199982        -9.13773983E-05
   67.1100006        -9.12759933E-05
   67.3000031        -8.95793637E-05
   67.4899979        -8.63187670E-05
   67.6800003        -8.16644897E-05
   67.8700027        -7.58859969E-05
   68.0599976        -6.93035108E-05
   68.2500000        -6.22421067E-05
   68.4400024        -5.49955475E-05
   68.6299973        -4.78046750E-05
   68.8199997        -4.08527812E-05
   69.0100021        -3.42770400E-05
   69.1999969        -2.81906559E-05
   69.3899994        -2.27068776E-05
   69.5800018        -1.79552317E-05
   69.7699966        -1.40830443E-05
   69.9599991        -1.12404077E-05
   70.1500015        -9.55300220E-06
   70.3399963        -9.09286882E-06
   70.5299988        -9.86032774E-06
   70.7200012        -1.17881200E-05
   70.9100037        -1.47706260E-05
   71.0999985        -1.87093483E-05
   71.2900009        -2.35558418E-05
   71.4800034        -2.93305220E-05
   71.6699982        -3.61021594E-05
   71.8600006        -4.39264004E-05
   72.0500031        -5.27577358E-05
   72.2399979        -6.23621818E-05
   72.4300003        -7.22635086E-05
   72.6200027        -8.17505133E-05
   72.8099976        -8.99571314E-05
   73.0000000        -9.60050893E-05
   73.1900024        -9.91770285E-05
   73.3799973        -9.90748886E-05
   73.5699997        -9.57189623E-05
   73.7600021        -8.95579142E-05
   73.9499969        -8.13854276E-05
   74.1399994        -7.21858378E-05
   74.3300018        -6.29514470E-05
   74.5199966        -5.45195035E-05
   74.7099991        -4.74671542E-05
   74.9000015        -4.20808137E-05
   75.0899963        -3.83924344E-05
   75.2799988        -3.62566752E-05
   75.4700012        -3.54358563E-05
   75.6600037        -3.56647397E-05
   75.8499985        -3.66810928E-05
   76.0400009        -3.82251637E-05
   76.2300034        -4.00249228E-05
   76.4199982        -4.17887895E-05
   76.6100006        -4.32222150E-05
   76.8000031        -4.40712247E-05
   76.9899979        -4.41817829E-05
   77.1800003        -4.35540096E-05
   77.3700027        -4.23693236E-05
   77.5599976        -4.09755012E-05
   77.7500000        -3.98268749E-05
   77.9400024        -3.93900664E-05
   78.1299973        -4.00360259E-05
   78.3199997        -4.19443677E-05
   78.5100021        -4.50444822E-05
   78.6999969        -4.90100720E-05
   78.8899994        -5.33113998E-05
   79.0800018        -5.73153666E-05
   79.2699966        -6.04113011E-05
   79.4599991        -6.21338986E-05
   79.6500015        -6.22552907E-05
   79.8399963        -6.08267110E-05
   80.0299988        -5.81626045E-05
   80.2200012        -5.47737291E-05
   80.4100037        -5.12666738E-05
   80.5999985        -4.82327887E-05
   80.7900009        -4.61493255E-05
   80.9800034        -4.53099492E-05
   81.1699982        -4.57936512E-05
   81.3600006        -4.74724111E-05
   81.5500031        -5.00512106E-05
   81.7399979        -5.31292135E-05
   81.9300003        -5.62688692E-05
   82.1200027        -5.90603922E-05
   82.3099976        -6.11723372E-05
   82.5000000        -6.23833694E-05
   82.6900024        -6.25941320E-05
   82.8799973        -6.18197591E-05
   83.0699997        -6.01652209E-05
   83.2600021        -5.77881910E-05
   83.4499969        -5.48583666E-05
   83.6399994        -5.15251195E-05
   83.8300018        -4.79043556E-05
   84.0199966        -4.40899057E-05
   84.2099991        -4.01863690E-05
   84.4000015        -3.63518993E-05
   84.5899963        -3.28330316E-05
   84.7799988        -2.99719559E-05
   84.9700012        -2.81715293E-05
   85.1600037        -2.78166735E-05
   85.3499985        -2.91689266E-05
   85.5400009        -3.22664127E-05
   85.7300034        -3.68660149E-05
   85.9199982        -4.24550162E-05
   86.1100006        -4.83389231E-05
   86.3000031        -5.37882079E-05
   86.4899979        -5.82064094E-05
   86.6800003        -6.12721997E-05
   86.8700027        -6.30117574E-05
   87.0599976        -6.37768608E-05
   87.2500000        -6.41326333E-05
   87.4400024        -6.46874469E-05
   87.6299973        -6.59149155E-05
   87.8199997        -6.80181620E-05
   88.0100021        -7.08709194E-05
   88.1999969        -7.40459363E-05
   88.3899994        -7.69166509E-05
   88.5800018        -7.88001125E-05
   88.7699966        -7.91017010E-05
   88.9599991        -7.74275322E-05
   89.1500015        -7.36441434E-05
   89.3399963        -6.78827855E-05
   89.5299988        -6.05001696E-05
   89.7200012        -5.20148023E-05
   89.9100037        -4.30383297E-05
   90.0999985        -3.42154672E-05
   90.2900009        -2.61772730E-05
   90.4800034        -1.95041903E-05
   90.6699982        -1.46908487E-05
   90.8600006        -1.21064795E-05
   91.0500031        -1.19516735E-05
   91.2399979        -1.42199124E-05
   91.4300003        -1.86765446E-05
   91.6200027        -2.48669039E-05
   91.8099976        -3.21599618E-05
   92.0000000        -3.98256343E-05
   92.1900024        -4.71343956E-05
   92.3799973        -5.34594037E-05
   92.5699997        -5.83581495E-05
   92.7600021        -6.16151447E-05
   92.9499969        -6.32388401E-05
   93.1399994        -6.34196476E-05
   93.3300018        -6.24651730E-05
   93.5199966        -6.07316360E-05
   93.7099991        -5.85672788E-05
   93.9000015        -5.62767127E-05
   94.0899963        -5.41072695E-05
   94.2799988        -5.22505106E-05
   94.4700012        -5.08481135E-05
   94.6600037        -4.99935086E-05
   94.8499985        -4.97280162E-05
   95.0400009        -5.00380957E-05
   95.2300034        -5.08624071E-05
   95.4199982        -5.21119218E-05
   95.6100006        -5.36974876E-05
   95.8000031        -5.55529259E-05
   95.9899979        -5.76418170E-05
   96.1800003        -5.99420164E-05
   96.3700027        -6.24107270E-05
   96.5599976        -6.49418071E-05
   96.7500000        -6.73333998E-05
   96.9400024        -6.92842586E-05
   97.1299973        -7.04295016E-05
   97.3199997        -7.04113627E-05
   97.5100021        -6.89646913E-05
   97.6999969        -6.59883517E-05
   97.8899994        -6.15777462E-05
   98.0800018        -5.60082735E-05
   98.2699966        -4.96774883E-05
   98.4599991        -4.30276777E-05
   98.6500015        -3.64757470E-05
   98.8399963        -3.03730631E-05
   99.0299988        -2.50054236E-05
   99.2200012        -2.06265886E-05
   99.4100037        -1.75033674E-05
   99.5999985        -1.59437077E-05
   99.7900009        -1.62853303E-05
   99.9800034        -1.88389695E-05
   100.169998        -2.37991007E-05
   100.360001        -3.11477488E-05
   100.550003        -4.05803185E-05
   100.739998        -5.14774656E-05
   100.930000        -6.29374263E-05
   101.120003        -7.38702074E-05
   101.309998        -8.31405705E-05
   101.500000        -8.97330610E-05
   101.690002        -9.29054004E-05
   101.879997        -9.22988474E-05
   102.070000        -8.79845829E-05
   102.260002        -8.04397787E-05
   102.449997        -7.04610575E-05
   102.639999        -5.90344607E-05
   102.830002        -4.71902567E-05
   103.019997        -3.58731959E-05
   103.209999        -2.58536675E-05
   103.400002        -1.76907979E-05
   103.589996        -1.17416948E-05
   103.779999        -8.19820707E-06
   103.970001        -7.12918245E-06
   104.160004        -8.51090863E-06
   104.349998        -1.22376287E-05
   104.540001        -1.81139239E-05
   104.730003        -2.58388354E-05
   104.919998        -3.49958536E-05
   105.110001        -4.50613188E-05
   105.300003        -5.54364342E-05
   105.489998        -6.54981195E-05
   105.680000        -7.46569131E-05
   105.870003        -8.24089584E-05
   106.059998        -8.83727553E-05
   106.250000        -9.23069601E-05
   106.440002        -9.41094768E-05
   106.629997        -9.38012745E-05
   106.820000        -9.15001583E-05
   107.010002        -8.73906902E-05
   107.199997        -8.16961838E-05
   107.389999        -7.46571750E-05
   107.580002        -6.65195985E-05
   107.769997        -5.75350350E-05
   107.959999        -4.79738264E-05
   108.150002        -3.81482314E-05
   108.339996        -2.84374582E-05
   108.529999        -1.93027263E-05
   108.720001        -1.12804537E-05
   108.910004        -4.94662618E-06
   109.099998        -8.52935273E-07
   109.290001         5.56505086E-07
   109.480003        -9.68006361E-07
   109.669998        -5.41177633E-06
   109.860001        -1.24631360E-05
   110.050003        -2.15325344E-05
   110.239998        -3.18250532E-05
   110.430000        -4.24530408E-05
   110.620003        -5.25637952E-05
   110.809998        -6.14531600E-05
   111.000000        -6.86407948E-05
   111.190002        -7.38938543E-05
   111.379997        -7.71995983E-05
   111.570000        -7.87007448E-05
   111.760002        -7.86165328E-05
   111.949997        -7.71753475E-05
   112.139999        -7.45785219E-05
   112.330002        -7.10013337E-05
   112.519997        -6.66224223E-05
   112.709999        -6.16623365E-05
   112.900002        -5.64105394E-05
   113.089996        -5.12258484E-05
   113.279999        -4.65049961E-05
   113.470001        -4.26243714E-05
   113.660004        -3.98696684E-05
   113.849998        -3.83741790E-05
   114.040001        -3.80863967E-05
   114.230003        -3.87794680E-05
   114.419998        -4.01017169E-05
   114.610001        -4.16549810E-05
   114.800003        -4.30808250E-05
   114.989998        -4.41341181E-05
   115.180000        -4.47268831E-05
   115.370003        -4.49310646E-05
   115.559998        -4.49382133E-05
   115.750000        -4.49860636E-05
   115.940002        -4.52737731E-05
   116.129997        -4.58920804E-05
   116.320000        -4.67902610E-05
   116.510002        -4.77892936E-05
   116.699997        -4.86368917E-05
   116.889999        -4.90876955E-05
   117.080002        -4.89842532E-05
   117.269997        -4.83127369E-05
   117.459999        -4.72141292E-05
   117.650002        -4.59465628E-05
   117.839996        -4.48122082E-05
   118.029999        -4.40745716E-05
   118.220001        -4.38938223E-05
   118.410004        -4.42990204E-05
   118.599998        -4.52022941E-05
   118.790001        -4.64462246E-05
   118.980003        -4.78654365E-05
   119.169998        -4.93394800E-05
   119.360001        -5.08176345E-05
   119.550003        -5.23077215E-05
   119.739998        -5.38351560E-05
   119.930000        -5.53899008E-05
   120.120003        -5.68828109E-05
   120.309998        -5.81284730E-05
   120.500000        -5.88629409E-05
   120.690002        -5.87941613E-05
   120.879997        -5.76733983E-05
   121.070000        -5.53694408E-05
   121.260002        -5.19250061E-05
   121.449997        -4.75787238E-05
   121.639999        -4.27440646E-05
   121.830002        -3.79470657E-05
   122.019997        -3.37345846E-05
   122.209999        -3.05723042E-05
   122.400002        -2.87553521E-05
   122.589996        -2.83529025E-05
   122.779999        -2.92010063E-05
   122.970001        -3.09462339E-05
   123.160004        -3.31302472E-05
   123.349998        -3.52950628E-05
   123.540001        -3.70840316E-05
   123.730003        -3.83154147E-05
   123.919998        -3.90130663E-05
   124.110001        -3.93899209E-05
   124.300003        -3.97910771E-05
   124.489998        -4.06115905E-05
   124.680000        -4.22080921E-05
   124.870003        -4.48229512E-05
   125.059998        -4.85353630E-05
   125.250000        -5.32464073E-05
   125.440002        -5.86965289E-05
   125.629997        -6.45069958E-05
   125.820000        -7.02334437E-05
   126.010002        -7.54200082E-05
   126.199997        -7.96450477E-05
   126.389999        -8.25529860E-05
   126.580002        -8.38705819E-05
   126.769997        -8.34105740E-05
   126.959999        -8.10695637E-05
   127.150002        -7.68279424E-05
   127.339996        -7.07570362E-05
   127.529999        -6.30336435E-05
   127.720001        -5.39568828E-05
   127.910004        -4.39589785E-05
   128.100006        -3.36003468E-05
   128.289993        -2.35414118E-05
   128.479996        -1.44888090E-05
   128.669998        -7.12188694E-06
   128.860001        -2.01290959E-06
   129.050003         4.42335477E-07
   129.240005         6.94348543E-08
   129.429993        -3.07178948E-06
   129.619995        -8.70659187E-06
   129.809998        -1.63904551E-05
   130.000000        -2.55687610E-05
   130.190002        -3.56368510E-05
   130.380005        -4.59876574E-05
   130.570007        -5.60402732E-05
   130.759995        -6.52516610E-05
   130.949997        -7.31208493E-05
   131.139999        -7.91972197E-05
   131.330002        -8.31013604E-05
   131.520004        -8.45611066E-05
   131.710007        -8.34582170E-05
   131.899994        -7.98747496E-05
   132.089996        -7.41238400E-05
   132.279999        -6.67495042E-05
   132.470001        -5.84856098E-05
   132.660004        -5.01741379E-05
   132.850006        -4.26538318E-05
   133.039993        -3.66385357E-05
   133.229996        -3.26084191E-05
   133.419998        -3.07364826E-05
   133.610001        -3.08675044E-05
   133.800003        -3.25567817E-05
   133.990005        -3.51632661E-05
   134.179993        -3.79784651E-05
   134.369995        -4.03637569E-05
   134.559998        -4.18666095E-05
   134.750000        -4.22920712E-05
   134.940002        -4.17169358E-05
   135.130005        -4.04475031E-05
   135.320007        -3.89343077E-05
   135.509995        -3.76659118E-05
   135.699997        -3.70667003E-05
   135.889999        -3.74198935E-05
   136.080002        -3.88283734E-05
   136.270004        -4.12147856E-05
   136.460007        -4.43532081E-05
   136.649994        -4.79188784E-05
   136.839996        -5.15420543E-05
   137.029999        -5.48550415E-05
   137.220001        -5.75273698E-05
   137.410004        -5.92895340E-05
   137.600006        -5.99496998E-05
   137.789993        -5.94079720E-05
   137.979996        -5.76702951E-05
   138.169998        -5.48598400E-05
   138.360001        -5.12207662E-05
   138.550003        -4.71087333E-05
   138.740005        -4.29643296E-05
   138.929993        -3.92688453E-05
   139.119995        -3.64857042E-05
   139.309998        -3.49950715E-05
   139.500000        -3.50327828E-05
   139.690002        -3.66463537E-05
   139.880005        -3.96786818E-05
   140.070007        -4.37846065E-05
   140.259995        -4.84781449E-05
   140.449997        -5.32019731E-05
   140.639999        -5.74064179E-05
   140.830002        -6.06241556E-05
   141.020004        -6.25280736E-05
   141.210007        -6.29639908E-05
   141.399994        -6.19556813E-05
   141.589996        -5.96847167E-05
   141.779999        -5.64512702E-05
   141.970001        -5.26227705E-05
   142.160004        -4.85776145E-05
   142.350006        -4.46516533E-05
   142.539993        -4.10959838E-05
   142.729996        -3.80533165E-05
   142.919998        -3.55570082E-05
   143.110001        -3.35520890E-05
   143.300003        -3.19333485E-05
   143.490005        -3.05920585E-05
   143.679993        -2.94606452E-05
   143.869995        -2.85434508E-05
   144.059998        -2.79243250E-05
   144.250000        -2.77481286E-05
   144.440002        -2.81817647E-05
   144.630005        -2.93669891E-05
   144.820007        -3.13787314E-05
   145.009995        -3.41994746E-05
   145.199997        -3.77148463E-05
   145.389999        -4.17300580E-05
   145.580002        -4.60017654E-05
   145.770004        -5.02757466E-05
   145.960007        -5.43194074E-05
   146.149994        -5.79408625E-05
   146.339996        -6.09925155E-05
   146.529999        -6.33630625E-05
   146.720001        -6.49645517E-05
   146.910004        -6.57207274E-05
   147.100006        -6.55619297E-05
   147.289993        -6.44308675E-05
   147.479996        -6.23020460E-05
   147.669998        -5.92125216E-05
   147.860001        -5.52948040E-05
   148.050003        -5.07985606E-05
   148.240005        -4.60887532E-05
   148.429993        -4.16145194E-05
   148.619995        -3.78508557E-05
   148.809998        -3.52220923E-05
   149.000000        -3.40213883E-05
   149.190002        -3.43441425E-05
   149.380005        -3.60534832E-05
   149.570007        -3.87903492E-05
   149.759995        -4.20295146E-05
   149.949997        -4.51702690E-05
   150.139999        -4.76419664E-05
   150.330002        -4.90024468E-05
   150.520004        -4.90105631E-05
   150.710007        -4.76599234E-05