  -3.00000000         0.00000000    
  -2.80999994         0.00000000    
  -2.61999989         0.00000000    
  -2.43000007         0.00000000    
  -2.24000001         0.00000000    
  -2.04999995         0.00000000    
  -1.86000001         1.79285491E-22
  -1.66999996         4.67648912E-22
  -1.48000002        -1.37089808E-21
  -1.28999996        -4.94709946E-21
  -1.10000002         1.29870402E-20
 -0.910000026         6.02175724E-20
 -0.720000029        -2.07089319E-19
 -0.529999971        -2.22293044E-18
 -0.340000004        -8.65450206E-18
 -0.150000006        -2.02099216E-17
   3.99999991E-02    -2.70223544E-17
  0.230000004         6.28945850E-21
  0.419999987         9.97118914E-17
  0.610000014         2.72486979E-16
  0.800000012         4.05256693E-16
  0.990000010         2.49735965E-16
   1.17999995        -4.21801841E-16
   1.37000000        -1.44792384E-15
   1.55999994        -1.93151612E-15
   1.75000000        -4.36560146E-16
   1.94000006         3.84106911E-15
   2.13000011         9.28498204E-15
   2.31999993         1.10163843E-14
   2.50999999         3.07610497E-15
   2.70000005        -1.58195465E-14
   2.89000010        -3.60769052E-14
   3.07999992        -3.71978246E-14
   3.26999998         2.32518670E-16
   3.46000004         7.23899700E-14
   3.65000010         1.33629558E-13
   3.83999991         1.02525498E-13
   4.03000021        -9.35891650E-14
   4.21999979        -4.45549305E-13
   4.40999985        -8.00006057E-13
   4.59999990        -8.61267925E-13
   4.78999996        -2.93922303E-13
   4.98000002         1.08303850E-12
   5.17000008         3.07341847E-12
   5.36000013         4.95096585E-12
   5.55000019         5.48187407E-12
   5.73999977         3.21100915E-12
   5.92999983        -2.93947657E-12
   6.11999989        -1.27983952E-11
   6.30999994        -2.40165769E-11
   6.50000000        -3.15561466E-11
   6.69000006        -2.82903076E-11
   6.88000011        -7.33136381E-12
   7.07000017         3.39005421E-11
   7.26000023         8.89892118E-11
   7.44999981         1.39570855E-10
   7.63999987         1.57017413E-10
   7.82999992         1.10724735E-10
   8.02000046        -1.76340817E-11
   8.21000004        -2.18082635E-10
   8.39999962        -4.41644776E-10
   8.59000015        -6.02581429E-10
   8.77999973        -5.98214978E-10
   8.97000027        -3.44944934E-10
   9.15999985         1.78313905E-10
   9.35000038         8.94115004E-10
   9.53999996         1.61492264E-09
   9.72999954         2.06958428E-09
   9.92000008         1.97187888E-09
   10.1099997         1.12091858E-09
   10.3000002        -4.92390684E-10
   10.4899998        -2.61017874E-09
   10.6800003        -4.70240158E-09
   10.8699999        -6.05685502E-09
   11.0600004        -5.96174576E-09
   11.2500000        -3.94277944E-09
   11.4399996         1.32391320E-11
   11.6300001         5.32687672E-09
   11.8199997         1.08482654E-08
   12.0100002         1.50531765E-08
   12.1999998         1.63812697E-08
   12.3900003         1.36420555E-08
   12.5799999         6.39525721E-09
   12.7700005        -4.77995732E-09
   12.9600000        -1.81882402E-08
   13.1499996        -3.11302344E-08
   13.3400002        -4.02431652E-08
   13.5299997        -4.20753956E-08
   13.7200003        -3.38711246E-08
   13.9099998        -1.44797569E-08
   14.1000004         1.47886619E-08
   14.2900000         4.96342487E-08
   14.4799995         8.28756512E-08
   14.6700001         1.05435113E-07
   14.8599997         1.08231568E-07
   15.0500002         8.47036929E-08
   15.2399998         3.33698047E-08
   15.4300003        -4.03617442E-08
   15.6199999        -1.23878650E-07
   15.8100004        -1.98986683E-07
   16.0000000        -2.45396080E-07
   16.1900005        -2.45436638E-07
   16.3799992        -1.88935431E-07
   16.5699997        -7.70339099E-08
   16.7600002         7.61106591E-08
   16.9500008         2.44361843E-07
   17.1399994         3.93436068E-07
   17.3299999         4.87026909E-07
   17.5200005         4.94262054E-07
   17.7099991         3.97212517E-07
   17.8999996         1.96995373E-07
   18.0900002        -8.30017015E-08
   18.2800007        -3.98032000E-07
   18.4699993        -6.87751481E-07
   18.6599998        -8.86631142E-07
   18.8500004        -9.37619063E-07
   19.0400009        -8.06425021E-07
   19.2299995        -4.92953177E-07
   19.4200001        -3.63449040E-08
   19.6100006         4.88957369E-07
   19.7999992         9.86845635E-07
   19.9899998         1.36123924E-06
   20.1800003         1.54200552E-06
   20.3700008         1.50989410E-06
   20.5599995         1.31509807E-06
   20.7500000         1.08508721E-06
   20.9400005         1.01924161E-06
   21.1299992         1.37003519E-06
   21.3199997         2.41259136E-06
   21.5100002         4.40613940E-06
   21.7000008         7.55220572E-06
   21.8899994         1.19553661E-05
   22.0799999         1.75929745E-05
   22.2700005         2.43002269E-05
   22.4599991         3.17757949E-05
   22.6499996         3.96105970E-05
   22.8400002         4.73383407E-05
   23.0300007         5.45016337E-05
   23.2199993         6.07230686E-05
   23.4099998         6.57678684E-05
   23.6000004         6.95851631E-05
   23.7900009         7.23181511E-05
   23.9799995         7.42800985E-05
   24.1700001         7.59003597E-05
   24.3600006         7.76515590E-05
   24.5499992         7.99728587E-05
   24.7399998         8.32039805E-05
   24.9300003         8.75408296E-05
   25.1200008         9.30166061E-05
   25.3099995         9.95058799E-05
   25.5000000         1.06744141E-04
   25.6900005         1.14354378E-04
   25.8799992         1.21874735E-04
   26.0699997         1.28785847E-04
   26.2600002         1.34540576E-04
   26.4500008         1.38601099E-04
   26.6399994         1.40485936E-04
   26.8299999         1.39825512E-04
   27.0200005         1.36419083E-04
   27.2099991         1.30281653E-04
   27.3999996         1.21670011E-04
   27.5900002         1.11079236E-04
   27.7800007         9.92077548E-05
   27.9699993         8.68953648E-05
   28.1599998         7.50433101E-05
   28.3500004         6.45273103E-05
   28.5400009         5.61136731E-05
   28.7299995         5.03858901E-05
   28.9200001         4.76867208E-05
   29.1100006         4.80791023E-05
   29.2999992         5.13289742E-05
   29.4899998         5.69132280E-05
   29.6800003         6.40555591E-05
   29.8700008         7.17908333E-05
   30.0599995         7.90553750E-05
   30.2500000         8.47958800E-05
   30.4400005         8.80858934E-05
   30.6299992         8.82361273E-05
   30.8199997         8.48840646E-05
   31.0100002         7.80502378E-05
   31.2000008         6.81519596E-05
   31.3899994         5.59707769E-05
   31.5799999         4.25758881E-05
   31.7700005         2.92119166E-05
   31.9599991         1.71645206E-05
   32.1500015         7.62031095E-06
   32.3400002         1.53773067E-06
   32.5299988        -4.56789053E-07
   32.7200012         1.86273337E-06
   32.9099998         8.29410419E-06
   33.0999985         1.82212625E-05
   33.2900009         3.06691873E-05
   33.4799995         4.43961180E-05
   33.6699982         5.80176020E-05
   33.8600006         7.01532772E-05
   34.0499992         7.95820670E-05
   34.2400017         8.53859165E-05
   34.4300003         8.70591466E-05
   34.6199989         8.45621471E-05
   34.8100014         7.83065989E-05
   35.0000000         6.90728557E-05
   35.1899986         5.78757754E-05
   35.3800011         4.58075956E-05
   35.5699997         3.38918617E-05
   35.7599983         2.29775360E-05
   35.9500008         1.36896788E-05
   36.1399994         6.43577641E-06
   36.3300018         1.45100137E-06
   36.5200005        -1.14332568E-06
   36.7099991        -1.29328146E-06
   36.9000015         1.00605007E-06
   37.0900002         5.69879512E-06
   37.2799988         1.26373616E-05
   37.4700012         2.15509626E-05
   37.6599998         3.20317558E-05
   37.8499985         4.35492329E-05
   38.0400009         5.54925718E-05
   38.2299995         6.72305614E-05
   38.4199982         7.81736671E-05
   38.6100006         8.78231949E-05
   38.7999992         9.57986049E-05
   38.9900017         1.01841091E-04
   39.1800003         1.05798637E-04
   39.3699989         1.07600717E-04
   39.5600014         1.07231426E-04
   39.7500000         1.04707433E-04
   39.9399986         1.00064753E-04
   40.1300011         9.33557603E-05
   40.3199997         8.46561888E-05
   40.5099983         7.40805335E-05
   40.7000008         6.18023259E-05
   40.8899994         4.80745039E-05
   41.0800018         3.32437339E-05
   41.2700005         1.77531911E-05
   41.4599991         2.13010094E-06
   41.6500015        -1.30418030E-05
   41.8400002        -2.71610843E-05
   42.0299988        -3.96517062E-05
   42.2200012        -5.00023816E-05
   42.4099998        -5.77957471E-05
   42.5999985        -6.27244881E-05
   42.7900009        -6.45965338E-05
   42.9799995        -6.33356758E-05
   43.1699982        -5.89861447E-05
   43.3600006        -5.17279186E-05
   43.5499992        -4.19044081E-05
   43.7400017        -3.00559059E-05
   43.9300003        -1.69443574E-05
   44.1199989        -3.55051338E-06
   44.3100014         8.97332666E-06
   44.5000000         1.94024160E-05
   44.6899986         2.65831131E-05
   44.8800011         2.95977134E-05
   45.0699997         2.79162432E-05
   45.2599983         2.14990832E-05
   45.4500008         1.08229951E-05
   45.6399994        -3.17930790E-06
   45.8300018        -1.92551852E-05
   46.0200005        -3.60148151E-05
   46.2099991        -5.21219154E-05
   46.4000015        -6.64544932E-05
   46.5900002        -7.82080169E-05
   46.7799988        -8.69298819E-05
   46.9700012        -9.24909255E-05
   47.1599998        -9.50132526E-05
   47.3499985        -9.47796580E-05
   47.5400009        -9.21483588E-05
   47.7299995        -8.74893958E-05
   47.9199982        -8.11484570E-05
   48.1100006        -7.34343921E-05
   48.2999992        -6.46206099E-05
   48.4900017        -5.49490542E-05
   48.6800003        -4.46292797E-05
   48.8699989        -3.38306781E-05
   49.0600014        -2.26726042E-05
   49.2500000        -1.12207017E-05
   49.4399986         5.02308637E-07
   49.6300011         1.24876151E-05
   49.8199997         2.46962554E-05
   50.0099983         3.70102134E-05
   50.2000008         4.91931569E-05
   50.3899994         6.08749178E-05
   50.5800018         7.15689312E-05
   50.7700005         8.07236938E-05
   50.9599991         8.78000792E-05
   51.1500015         9.23597036E-05
   51.3400002         9.41459002E-05
   51.5299988         9.31403847E-05
   51.7200012         8.95846024E-05
   51.9099998         8.39618733E-05
   52.0999985         7.69448670E-05
   52.2900009         6.93182883E-05
   52.4799995         6.18896738E-05
   52.6699982         5.54009530E-05
   52.8600006         5.04517229E-05
   53.0499992         4.74418957E-05
   53.2400017         4.65389276E-05
   53.4300003         4.76717178E-05
   53.6199989         5.05510980E-05
   53.8100014         5.47147720E-05
   54.0000000         5.95920937E-05
   54.1899986         6.45817927E-05
   54.3800011         6.91329042E-05
   54.5699997         7.28168889E-05
   54.7599983         7.53782879E-05
   54.9500008         7.67536985E-05
   55.1399994         7.70536863E-05
   55.3300018         7.65097357E-05
   55.5200005         7.53960994E-05
   55.7099991         7.39424358E-05
   55.9000015         7.22564073E-05
   56.0900002         7.02743491E-05
   56.2799988         6.77535791E-05
   56.4700012         6.43109961E-05
   56.6599998         5.95029196E-05
   56.8499985         5.29313838E-05
   57.0400009         4.43558056E-05
   57.2299995         3.37873571E-05
   57.4199982         2.15463879E-05
   57.6100006         8.27017993E-06
   57.7999992        -5.13289797E-06
   57.9900017        -1.75774840E-05
   58.1800003        -2.79300002E-05
   58.3699989        -3.51525632E-05
   58.5600014        -3.84399536E-05
   58.7500000        -3.73289149E-05
   58.9399986        -3.17640151E-05
   59.1300011        -2.21112787E-05
   59.3199997        -9.11870575E-06
   59.5099983         6.16991611E-06
   59.7000008         2.25352505E-05
   59.8899994         3.87192267E-05
   60.0800018         5.35586951E-05
   60.2700005         6.60967489E-05
   60.4599991         7.56568625E-05
   60.6500015         8.18719127E-05
   60.8400002         8.46688126E-05
   61.0299988         8.42176742E-05
   61.2200012         8.08603872E-05
   61.4099998         7.50359104E-05
   61.5999985         6.72180104E-05
   61.7900009         5.78754334E-05
   61.9799995         4.74569897E-05
   62.1699982         3.63969375E-05
   62.3600006         2.51309684E-05
   62.5499992         1.41120618E-05
   62.7400017         3.81681730E-06
   62.9300003        -5.26355507E-06
   63.1199989        -1.26493478E-05
   63.3100014        -1.79131075E-05
   63.5000000        -2.07287030E-05
   63.6899986        -2.09195787E-05
   63.8800011        -1.84962119E-05
   64.0699997        -1.36741382E-05
   64.2600021        -6.86717203E-06
   64.4499969         1.34536060E-06
   64.6399994         1.02744416E-05
   64.8300018         1.91934851E-05
   65.0199966         2.74171998E-05
   65.2099991         3.43760767E-05
   65.4000015         3.96758296E-05
   65.5899963         4.31334665E-05
   65.7799988         4.47852872E-05
   65.9700012         4.48653009E-05
   66.1600037         4.37557246E-05
   66.3499985         4.19140670E-05
   66.5400009         3.97855147E-05
   66.7300034         3.77145079E-05
   66.9199982         3.58733123E-05
   67.1100006         3.42257845E-05
   67.3000031         3.25391084E-05
   67.4899979         3.04460464E-05
   67.6800003         2.75473030E-05
   67.8700027         2.35326497E-05
   68.0599976         1.82925523E-05
   68.2500000         1.19927681E-05
   68.4400024         5.09188749E-06
   68.6299973        -1.70457838E-06
   68.8199997        -7.54462280E-06
   69.0100021        -1.15631019E-05
   69.1999969        -1.30207554E-05
   69.3899994        -1.14235227E-05
   69.5800018        -6.60435717E-06
   69.7699966         1.24129713E-06
   69.9599991         1.15677549E-05
   70.1500015         2.35354528E-05
   70.3399963         3.61043640E-05
   70.5299988         4.81540592E-05
   70.7200012         5.86165734E-05
   70.9100037         6.66048945E-05
   71.0999985         7.15186980E-05
   71.2900009         7.31099935E-05
   71.4800034         7.14965063E-05
   71.6699982         6.71194866E-05
   71.8600006         6.06543144E-05
   72.0500031         5.28930868E-05
   72.2399979         4.46244849E-05
   72.4300003         3.65350643E-05
   72.6200027         2.91476190E-05
   72.8099976         2.27999808E-05
   73.0000000         1.76570938E-05
   73.1900024         1.37428260E-05
   73.3799973         1.09780067E-05
   73.5699997         9.21511582E-06
   73.7600021         8.26606083E-06
   73.9499969         7.92448554E-06
   74.1399994         7.98656311E-06
   74.3300018         8.27325312E-06
   74.5199966         8.65333095E-06
   74.7099991         9.06238256E-06
   74.9000015         9.51075435E-06
   75.0899963         1.00749958E-05
   75.2799988         1.08719141E-05
   75.4700012         1.20197647E-05
   75.6600037         1.35950904E-05
   75.8499985         1.55949729E-05
   76.0400009         1.79134095E-05
   76.2300034         2.03380660E-05
   76.4199982         2.25704280E-05
   76.6100006         2.42683236E-05
   76.8000031         2.51053370E-05
   76.9899979         2.48372089E-05
   77.1800003         2.33623796E-05
   77.3700027         2.07632074E-05
   77.5599976         1.73168810E-05
   77.7500000         1.34704387E-05
   77.9400024         9.78194294E-06
   78.1299973         6.83805183E-06
   78.3199997         5.16448517E-06
   78.5100021         5.14785415E-06
   78.6999969         6.98388430E-06
   78.8899994         1.06593288E-05
   79.0800018         1.59659485E-05
   79.2699966         2.25380445E-05
   79.4599991         2.99022704E-05
   79.6500015         3.75297932E-05
   79.8399963         4.48847313E-05
   80.0299988         5.14669482E-05
   80.2200012         5.68500836E-05
   80.4100037         6.07159272E-05
   80.5999985         6.28838970E-05
   80.7900009         6.33308882E-05
   80.9800034         6.21943982E-05
   81.1699982         5.97521903E-05
   81.3600006         5.63769026E-05
   81.5500031         5.24705683E-05
   81.7399979         4.83916701E-05
   81.9300003         4.43913086E-05
   82.1200027         4.05747523E-05
   82.3099976         3.68997680E-05
   82.5000000         3.32139498E-05
   82.6900024         2.93229368E-05
   82.8799973         2.50718040E-05
   83.0699997         2.04170137E-05
   83.2600021         1.54679456E-05
   83.4499969         1.04853007E-05
   83.6399994         5.83594510E-06
   83.8300018         1.91600748E-06
   84.0199966        -9.37685627E-07
   84.2099991        -2.52498558E-06
   84.4000015        -2.82908718E-06
   84.5899963        -2.02078263E-06
   84.7799988        -4.19349590E-07
   84.9700012         1.57999818E-06
   85.1600037         3.59380351E-06
   85.3499985         5.33166485E-06
   85.5400009         6.65213202E-06
   85.7300034         7.58141550E-06
   85.9199982         8.29242981E-06
   86.1100006         9.05070283E-06
   86.3000031         1.01405822E-05
   86.4899979         1.17891668E-05
   86.6800003         1.41056616E-05
   86.8700027         1.70500371E-05
   87.0599976         2.04374828E-05
   87.2500000         2.39761375E-05
   87.4400024         2.73278092E-05
   87.6299973         3.01771270E-05
   87.8199997         3.22944652E-05
   88.0100021         3.35808472E-05
   88.1999969         3.40875704E-05
   88.3899994         3.40080005E-05
   88.5800018         3.36434205E-05
   88.7699966         3.33486314E-05
   88.9599991         3.34656979E-05
   89.1500015         3.42556959E-05
   89.3399963         3.58386387E-05
   89.5299988         3.81516584E-05
   89.7200012         4.09346903E-05
   89.9100037         4.37507078E-05
   90.0999985         4.60431002E-05
   90.2900009         4.72255051E-05
   90.4800034         4.67913451E-05
   90.6699982         4.44234101E-05
   90.8600006         4.00809877E-05
   91.0500031         3.40442930E-05
   91.2399979         2.69029388E-05
   91.4300003         1.94856821E-05
   91.6200027         1.27403928E-05
   91.8099976         7.58382475E-06
   92.0000000         4.74828448E-06
   92.1900024         4.65436824E-06
   92.3799973         7.33511433E-06
   92.5699997         1.24273201E-05
   92.7600021         1.92324551E-05
   92.9499969         2.68351687E-05
   93.1399994         3.42552739E-05
   93.3300018         4.06021427E-05
   93.5199966         4.52009881E-05
   93.7099991         4.76682399E-05
   93.9000015         4.79263435E-05
   94.0899963         4.61629606E-05
   94.2799988         4.27514678E-05
   94.4700012         3.81562095E-05
   94.6600037         3.28455972E-05
   94.8499985         2.72302968E-05
   95.0400009         2.16341359E-05
   95.2300034         1.62951965E-05
   95.4199982         1.13867818E-05
   95.6100006         7.04443573E-06
   95.8000031         3.38668679E-06
   95.9899979         5.22370669E-07
   96.1800003        -1.45611079E-06
   96.3700027        -2.48864467E-06
   96.5599976        -2.56429780E-06
   96.7500000        -1.73091018E-06
   96.9400024        -9.13712270E-08
   97.1299973         2.21511004E-06
   97.3199997         5.04308036E-06
   97.5100021         8.27375334E-06
   97.6999969         1.18396920E-05
   97.8899994         1.57312188E-05
   98.0800018         1.99791702E-05
   98.2699966         2.46156378E-05
   98.4599991         2.96216622E-05
   98.6500015         3.48763315E-05
   98.8399963         4.01240941E-05
   99.0299988         4.49749568E-05
   99.2200012         4.89455888E-05
   99.4100037         5.15389947E-05
   99.5999985         5.23487543E-05
   99.7900009         5.11640392E-05
   99.9800034         4.80477283E-05
   100.169998         4.33632958E-05
   100.360001         3.77370088E-05
   100.550003         3.19574283E-05
   100.739998         2.68304993E-05
   100.930000         2.30212627E-05
   101.120003         2.09186965E-05
   101.309998         2.05566266E-05
   101.500000         2.16111584E-05
   101.690002         2.34767485E-05
   101.879997         2.54036404E-05
   102.070000         2.66642528E-05
   102.260002         2.67094947E-05
   102.449997         2.52794089E-05
   102.639999         2.24451778E-05
   102.830002         1.85774516E-05
   103.019997         1.42542194E-05
   103.209999         1.01351688E-05
   103.400002         6.83471762E-06
   103.589996         4.82218275E-06
   103.779999         4.36655910E-06
   103.970001         5.52912752E-06
   104.160004         8.19428715E-06
   104.349998         1.21209714E-05
   104.540001         1.69955329E-05
   104.730003         2.24715623E-05
   104.919998         2.81905141E-05
   105.110001         3.37863094E-05
   105.300003         3.88839326E-05
   105.489998         4.31043263E-05
   105.680000         4.60852316E-05
   105.870003         4.75205488E-05
   106.059998         4.72125394E-05
   106.250000         4.51237283E-05
   106.440002         4.14118258E-05
   106.629997         3.64323532E-05
   106.820000         3.07006594E-05
   107.010002         2.48156412E-05
   107.199997         1.93593296E-05
   107.389999         1.47952533E-05
   107.580002         1.13911401E-05
   107.769997         9.18666137E-06
   107.959999         8.01539136E-06
   108.150002         7.57554517E-06
   108.339996         7.53040649E-06
   108.529999         7.61095862E-06
   108.720001         7.69246708E-06
   108.910004         7.82417465E-06
   109.099998         8.20475452E-06
   109.290001         9.11170446E-06
   109.480003         1.08056665E-05
   109.669998         1.34369930E-05
   109.860001         1.69802297E-05
   110.050003         2.12137547E-05
   110.239998         2.57495849E-05
   110.430000         3.01057753E-05
   110.620003         3.38036843E-05
   110.809998         3.64668485E-05
   111.000000         3.78979057E-05
   111.190002         3.81152640E-05
   111.379997         3.73407856E-05
   111.570000         3.59415062E-05
   111.760002         3.43395732E-05
   111.949997         3.29125869E-05
   112.139999         3.19090759E-05
   112.330002         3.14003264E-05
   112.519997         3.12803204E-05
   112.709999         3.13127421E-05
   112.900002         3.12110933E-05
   113.089996         3.07287773E-05
   113.279999         2.97339648E-05
   113.470001         2.82491819E-05
   113.660004         2.64462687E-05
   113.849998         2.46000654E-05
   114.040001         2.30148307E-05
   114.230003         2.19438298E-05
   114.419998         2.15233194E-05
   114.610001         2.17377965E-05
   114.800003         2.24248543E-05
   114.989998         2.33178907E-05
   115.180000         2.41151374E-05
   115.370003         2.45570282E-05
   115.559998         2.44916300E-05
   115.750000         2.39105684E-05
   115.940002         2.29449615E-05
   116.129997         2.18209479E-05
   116.320000         2.07858411E-05
   116.510002         2.00255417E-05
   116.699997         1.95985340E-05
   116.889999         1.94089207E-05
   117.080002         1.92302668E-05
   117.269997         1.87765327E-05
   117.459999         1.78008122E-05
   117.650002         1.61925000E-05
   117.839996         1.40421853E-05
   118.029999         1.16515048E-05
   118.220001         9.48051638E-06
   118.410004         8.04322735E-06
   118.599998         7.77790592E-06
   118.790001         8.92753633E-06
   118.980003         1.14643344E-05
   119.169998         1.50805918E-05
   119.360001         1.92497664E-05
   119.550003         2.33424271E-05
   119.739998         2.67671912E-05
   119.930000         2.91009328E-05
   120.120003         3.01761993E-05
   120.309998         3.01054260E-05
   120.500000         2.92376899E-05
   120.690002         2.80607619E-05
   120.879997         2.70746077E-05
   121.070000         2.66690167E-05
   121.260002         2.70358196E-05
   121.449997         2.81358462E-05
   121.639999         2.97252027E-05
   121.830002         3.14294157E-05
   122.019997         3.28420501E-05
   122.209999         3.36194389E-05
   122.400002         3.35467921E-05
   122.589996         3.25612746E-05
   122.779999         3.07319533E-05
   122.970001         2.82097080E-05
   123.160004         2.51686688E-05
   123.349998         2.17613106E-05
   123.540001         1.81024752E-05
   123.730003         1.42861190E-05
   123.919998         1.04262472E-05
   124.110001         6.70474674E-06
   124.300003         3.40571637E-06
   124.489998         9.19210891E-07
   124.680000        -2.94372995E-07
   124.870003         2.23054357E-07
   125.059998         2.83085478E-06
   125.250000         7.69073813E-06
   125.440002         1.46896100E-05
   125.629997         2.34055115E-05
   125.820000         3.31295669E-05
   126.010002         4.29448410E-05
   126.199997         5.18500710E-05
   126.389999         5.89057017E-05
   126.580002         6.33737654E-05
   126.769997         6.48243149E-05
   126.959999         6.31880393E-05
   127.150002         5.87469658E-05
   127.339996         5.20685098E-05
   127.529999         4.38996321E-05
   127.720001         3.50448172E-05
   127.910004         2.62522772E-05
   128.100006         1.81281412E-05
   128.289993         1.10898955E-05
   128.479996         5.36049174E-06
   128.669998         9.95926825E-07
   128.860001        -2.06664163E-06
   129.050003        -3.95508914E-06
   129.240005        -4.81584766E-06
   129.429993        -4.78320362E-06
   129.619995        -3.96707492E-06
   129.809998        -2.45667729E-06
   130.000000        -3.34011361E-07
   130.190002         2.31010949E-06
   130.380005         5.36394737E-06
   130.570007         8.69089308E-06
   130.759995         1.21350722E-05
   130.949997         1.55350008E-05
   131.139999         1.87412843E-05
   131.330002         2.16330081E-05
   131.520004         2.41278649E-05
   131.710007         2.61834030E-05
   131.899994         2.77902345E-05
   132.089996         2.89612308E-05
   132.279999         2.97221832E-05
   132.470001         3.01083073E-05
   132.660004         3.01679684E-05
   132.850006         2.99711774E-05
   133.039993         2.96173748E-05
   133.229996         2.92358764E-05
   133.419998         2.89736072E-05
   133.610001         2.89688469E-05
   133.800003         2.93151097E-05
   133.990005         3.00245611E-05
   134.179993         3.10030773E-05
   134.369995         3.20476502E-05
   134.559998         3.28716014E-05
   134.750000         3.31553019E-05
   134.940002         3.26129484E-05
   135.130005         3.10608557E-05
   135.320007         2.84714351E-05
   135.509995         2.49994409E-05
   135.699997         2.09725222E-05
   135.889999         1.68457664E-05
   136.080002         1.31279548E-05
   136.270004         1.02936692E-05
   136.460007         8.69873202E-06
   136.649994         8.51591540E-06
   136.839996         9.70391739E-06
   137.029999         1.20162131E-05
   137.220001         1.50487049E-05
   137.410004         1.83172742E-05
   137.600006         2.13496805E-05
   137.789993         2.37725235E-05
   137.979996         2.53747330E-05
   138.169998         2.61343575E-05
   138.360001         2.62042195E-05
   138.550003         2.58615219E-05
   138.740005         2.54343304E-05
   138.929993         2.52221871E-05
   139.119995         2.54284769E-05
   139.309998         2.61186779E-05
   139.500000         2.72122506E-05
   139.690002         2.85080532E-05
   139.880005         2.97356673E-05
   140.070007         3.06196816E-05
   140.259995         3.09422139E-05
   140.449997         3.05903486E-05
   140.639999         2.95794762E-05
   140.830002         2.80490603E-05
   141.020004         2.62330868E-05
   141.210007         2.44126513E-05
   141.399994         2.28613499E-05
   141.589996         2.17949309E-05
   141.779999         2.13344902E-05
   141.970001         2.14884458E-05
   142.160004         2.21540977E-05
   142.350006         2.31362264E-05
   142.539993         2.41785237E-05
   142.729996         2.50031262E-05
   142.919998         2.53532580E-05
   143.110001         2.50336434E-05
   143.300003         2.39430883E-05
   143.490005         2.20941929E-05
   143.679993         1.96167766E-05
   143.869995         1.67442959E-05
   144.059998         1.37851885E-05
   144.250000         1.10835090E-05
   144.440002         8.97450627E-06
   144.630005         7.74130967E-06
   144.820007         7.57863427E-06
   145.009995         8.56829047E-06
   145.199997         1.06696652E-05
   145.389999         1.37260249E-05
   145.580002         1.74850757E-05
   145.770004         2.16300941E-05
   145.960007         2.58166128E-05
   146.149994         2.97092010E-05
   146.339996         3.30135153E-05
   146.529999         3.55001030E-05
   146.720001         3.70184134E-05
   146.910004         3.75017262E-05
   147.100006         3.69655245E-05
   147.289993         3.55023294E-05
   147.479996         3.32750860E-05
   147.669998         3.05086778E-05
   147.860001         2.74769136E-05
   148.050003         2.44814491E-05
   148.240005         2.18210516E-05
   148.429993         1.97531426E-05
   148.619995         1.84539967E-05
   148.809998         1.79868130E-05
   149.000000         1.82872409E-05
   149.190002         1.91729614E-05
   149.380005         2.03784475E-05
   149.570007         2.16089593E-05
   149.759995         2.26017473E-05
   149.949997         2.31792619E-05
   150.139999         2.32808743E-05
   150.330002         2.29657780E-05
   150.520004         2.23881198E-05
   150.710007         2.17532070E-05