  -3.00000000         0.00000000    
  -2.88124990         0.00000000    
  -2.76250005         0.00000000    
  -2.64374995         0.00000000    
  -2.52500010         0.00000000    
  -2.40625000         0.00000000    
  -2.28749990         8.45924441E-25
  -2.16875005         6.87846793E-24
  -2.04999995         2.30009799E-23
  -1.93124998         1.78309133E-23
  -1.81250000        -1.78950888E-22
  -1.69375002        -9.75721228E-22
  -1.57500005        -2.75206827E-21
  -1.45624995        -4.49190092E-21
  -1.33749998        -7.13820568E-22
  -1.21875000         2.21978215E-20
  -1.10000002         8.49964850E-20
 -0.981249988         1.98921324E-19
 -0.862500012         3.19600462E-19
 -0.743749976         2.66243745E-19
 -0.625000000        -3.70520718E-19
 -0.506250024        -2.25929557E-18
 -0.387499988        -6.17162185E-18
 -0.268750012        -1.25000151E-17
 -0.150000006        -2.03952051E-17
  -3.12500000E-02    -2.66903308E-17
   8.74999985E-02    -2.51213958E-17
  0.206249997        -6.68626095E-18
  0.324999988         3.79285538E-17
  0.443749994         1.13361927E-16
  0.562500000         2.12672649E-16
  0.681249976         3.10841636E-16
  0.800000012         3.62675473E-16
  0.918749988         3.09758625E-16
   1.03750002         9.96513219E-17
   1.15625000        -2.83671758E-16
   1.27499998        -7.85643123E-16
   1.39374995        -1.25751168E-15
   1.51250005        -1.46151512E-15
   1.63125002        -1.12017460E-15
   1.75000000        -1.32361339E-17
   1.86874998         1.89423333E-15
   1.98749995         4.33205938E-15
   2.10625005         6.66968312E-15
   2.22499990         7.98142460E-15
   2.34375000         7.26354639E-15
   2.46250010         3.78502009E-15
   2.58124995        -2.50913457E-15
   2.70000005        -1.06785545E-14
   2.81874990        -1.87108121E-14
   2.93750000        -2.38131980E-14
   3.05625010        -2.31065150E-14
   3.17499995        -1.46198209E-14
   3.29375005         1.65168926E-15
   3.41249990         2.29511793E-14
   3.53125000         4.35481153E-14
   3.65000010         5.53193254E-14
   3.76874995         4.91418870E-14
   3.88750005         1.69108197E-14
   4.00624990        -4.61455892E-14
   4.12500000        -1.39199307E-13
   4.24375010        -2.53852549E-13
   4.36250019        -3.72578840E-13
   4.48124981        -4.67659386E-13
   4.59999990        -5.00909427E-13
   4.71875000        -4.24975322E-13
   4.83750010        -1.87615643E-13
   4.95625019         2.59189968E-13
   5.07499981         9.43701822E-13
   5.19374990         1.85222497E-12
   5.31250000         2.90271518E-12
   5.43125010         3.92031936E-12
   5.55000019         4.62470513E-12
   5.66874981         4.64130991E-12
   5.78749990         3.54779379E-12
   5.90625000         9.61724732E-13
   6.02500010        -3.33442345E-12
   6.14375019        -9.24826968E-12
   6.26249981        -1.62437390E-11
   6.38124990        -2.32599964E-11
   6.50000000        -2.87268404E-11
   6.61875010        -3.07111836E-11
   6.73750019        -2.72077257E-11
   6.85624981        -1.65555555E-11
   6.97499990         2.07333174E-12
   7.09375000         2.81993890E-11
   7.21250010         5.96799207E-11
   7.33125019         9.25777996E-11
   7.44999981         1.21337676E-10
   7.56874990         1.39310383E-10
   7.68750000         1.39610323E-10
   7.80625010         1.16231122E-10
   7.92500019         6.52915569E-11
   8.04374981        -1.37542564E-11
   8.16250038        -1.17127599E-10
   8.28125000        -2.36140274E-10
   8.39999962        -3.57179147E-10
   8.51875019        -4.62388738E-10
   8.63749981        -5.31129862E-10
   8.75625038        -5.42219880E-10
   8.87500000        -4.76864992E-10
   8.99374962        -3.22074062E-10
   9.11250019        -7.42017420E-11
   9.23124981         2.57871807E-10
   9.35000038         6.50530463E-10
   9.46875000         1.06482601E-09
   9.58749962         1.44806922E-09
   9.70625019         1.73797343E-09
   9.82499981         1.86936266E-09
   9.94375038         1.78300785E-09
   10.0625000         1.43566592E-09
   10.1812496         8.09977085E-10
   10.3000002        -7.73755018E-11
   10.4187498        -1.17084831E-09
   10.5375004        -2.37586928E-09
   10.6562500        -3.56407415E-09
   10.7749996        -4.58396121E-09
   10.8937502        -5.27614930E-09
   11.0124998        -5.49172663E-09
   11.1312504        -5.11165021E-09
   11.2500000        -4.06494616E-09
   11.3687496        -2.34356312E-09
   11.4875002        -1.21029037E-11
   11.6062498         2.78883361E-09
   11.7250004         5.84633986E-09
   11.8437500         8.88605900E-09
   11.9624996         1.15898411E-08
   12.0812502         1.36194833E-08
   12.1999998         1.46454697E-08
   12.3187504         1.43792391E-08
   12.4375000         1.26070638E-08
   12.5562496         9.22308363E-09
   12.6750002         4.25849445E-09
   12.7937498        -2.09654782E-09
   12.9125004        -9.48184375E-09
   13.0312500        -1.73702510E-08
   13.1499996        -2.50875214E-08
   13.2687502        -3.18502522E-08
   13.3874998        -3.68216462E-08
   13.5062504        -3.91828898E-08
   13.6250000        -3.82159762E-08
   13.7437496        -3.33919417E-08
   13.8625002        -2.44569058E-08
   13.9812498        -1.15071890E-08
   14.1000004         4.95576291E-09
   14.2187500         2.39997462E-08
   14.3374996         4.42735697E-08
   14.4562502         6.40623199E-08
   14.5749998         8.13891745E-08
   14.6937504         9.41625586E-08
   14.8125000         1.00362499E-07
   14.9312496         9.82541692E-08
   15.0500002         8.66112018E-08
   15.1687498         6.49265317E-08
   15.2875004         3.35853265E-08
   15.4062500        -6.02552186E-09
   15.5249996        -5.14947374E-08
   15.6437502        -9.94675418E-08
   15.7624998        -1.45837873E-07
   15.8812504        -1.86047643E-07
   16.0000000        -2.15476021E-07
   16.1187496        -2.29888357E-07
   16.2374992        -2.25904458E-07
   16.3562508        -2.01437359E-07
   16.4750004        -1.56052963E-07
   16.5937500        -9.12033045E-08
   16.7124996        -1.02961675E-08
   16.8312492         8.14215824E-08
   16.9500008         1.77170818E-07
   17.0687504         2.69120591E-07
   17.1875000         3.49005404E-07
   17.3062496         4.08826736E-07
   17.4249992         4.41574116E-07
   17.5437508         4.41898777E-07
   17.6625004         4.06675952E-07
   17.7812500         3.35403882E-07
   17.8999996         2.30404041E-07
   18.0187492         9.68071916E-08
   18.1375008        -5.76718904E-08
   18.2562504        -2.23151460E-07
   18.3750000        -3.88161027E-07
   18.4937496        -5.40344558E-07
   18.6124992        -6.67251300E-07
   18.7312508        -7.57177474E-07
   18.8500004        -8.00022235E-07
   18.9687500        -7.88120246E-07
   19.0874996        -7.17002592E-07
   19.2062492        -5.86029444E-07
   19.3250008        -3.98824909E-07
   19.4437504        -1.63431793E-07
   19.5625000         1.07893143E-07
   19.6812496         3.99315553E-07
   19.7999992         6.92533092E-07
   19.9187508         9.68356971E-07
   20.0375004         1.20870595E-06
   20.1562500         1.39889141E-06
   20.2749996         1.53000940E-06
   20.3937492         1.60121124E-06
   20.5125008         1.62160200E-06
   20.6312504         1.61151991E-06
   20.7500000         1.60299351E-06
   20.8687496         1.63923892E-06
   20.9874992         1.77314780E-06
   21.1062508         2.06482082E-06
   21.2250004         2.57828606E-06
   21.3437500         3.37763026E-06
   21.4624996         4.52281984E-06
   21.5812492         6.06551112E-06
   21.7000008         8.04514548E-06
   21.8187504         1.04856053E-05
   21.9375000         1.33926351E-05
   22.0562496         1.67522285E-05
   22.1749992         2.05300657E-05
   22.2937508         2.46721047E-05
   22.4125004         2.91063207E-05
   22.5312500         3.37456040E-05
   22.6499996         3.84916893E-05
   22.7687492         4.32400448E-05
   22.8875008         4.78854527E-05
   23.0062504         5.23279814E-05
   23.1250000         5.64790535E-05
   23.2437496         6.02670589E-05
   23.3624992         6.36421973E-05
   23.4812508         6.65799525E-05
   23.6000004         6.90829911E-05
   23.7187500         7.11811226E-05
   23.8374996         7.29293097E-05
   23.9562492         7.44038625E-05
   24.0750008         7.56971058E-05
   24.1937504         7.69109756E-05
   24.3125000         7.81501585E-05
   24.4312496         7.95153392E-05
   24.5499992         8.10971469E-05
   24.6687508         8.29711789E-05
   24.7875004         8.51943987E-05
   24.9062500         8.78030041E-05
   25.0249996         9.08116490E-05
   25.1437492         9.42137121E-05
   25.2625008         9.79823963E-05
   25.3812504         1.02072197E-04
   25.5000000         1.06420550E-04
   25.6187496         1.10949368E-04
   25.7374992         1.15566458E-04
   25.8562508         1.20167038E-04
   25.9750004         1.24635219E-04
   26.0937500         1.28846063E-04
   26.2124996         1.32668254E-04
   26.3312492         1.35967668E-04
   26.4500008         1.38611969E-04
   26.5687504         1.40475910E-04
   26.6875000         1.41447526E-04
   26.8062496         1.41434459E-04
   26.9249992         1.40370073E-04
   27.0437508         1.38218966E-04
   27.1625004         1.34981106E-04
   27.2812500         1.30694432E-04
   27.3999996         1.25435676E-04
   27.5187492         1.19318916E-04
   27.6375008         1.12492533E-04
   27.7562504         1.05134146E-04
   27.8750000         9.74443101E-05
   27.9937496         8.96389975E-05
   28.1124992         8.19414927E-05
   28.2312508         7.45739162E-05
   28.3500004         6.77486751E-05
   28.4687500         6.16602920E-05
   28.5874996         5.64777256E-05
   28.7062492         5.23375420E-05
   28.8250008         4.93381449E-05
   28.9437504         4.75353663E-05
   29.0625000         4.69396509E-05
   29.1812496         4.75150446E-05
   29.2999992         4.91801766E-05
   29.4187508         5.18112502E-05
   29.5375004         5.52469319E-05
   29.6562500         5.92950310E-05
   29.7749996         6.37404737E-05
   29.8937492         6.83541948E-05
   30.0125008         7.29024032E-05
   30.1312504         7.71556879E-05
   30.2500000         8.08974291E-05
   30.3687496         8.39312997E-05
   30.4874992         8.60874134E-05
   30.6062508         8.72272722E-05
   30.7250004         8.72474702E-05
   30.8437500         8.60824221E-05
   30.9624996         8.37063126E-05
   31.0812492         8.01345159E-05
   31.2000008         7.54246503E-05
   31.3187504         6.96771240E-05
   31.4375000         6.30351060E-05
   31.5562496         5.56834311E-05
   31.6749992         4.78460024E-05
   31.7937508         3.97811637E-05
   31.9125004         3.17746490E-05
   32.0312500         2.41297894E-05
   32.1500015         1.71551728E-05
   32.2687492         1.11501113E-05
   32.3875008         6.38874735E-06
   32.5062485         3.10391874E-06
   32.6250000         1.47208470E-06
   32.7437515         1.60068305E-06
   32.8624992         3.51913604E-06
   32.9812508         7.17446665E-06
   33.0999985         1.24320331E-05
   33.2187500         1.90814608E-05
   33.3375015         2.68472886E-05
   33.4562492         3.54035001E-05
   33.5750008         4.43907375E-05
   33.6937485         5.34348837E-05
   33.8125000         6.21656509E-05
   33.9312515         7.02339748E-05
   34.0499992         7.73272695E-05
   34.1687508         8.31817670E-05
   34.2874985         8.75917467E-05
   34.4062500         9.04153203E-05
   34.5250015         9.15770579E-05
   34.6437492         9.10676026E-05
   34.7625008         8.89406001E-05
   34.8812485         8.53073143E-05
   35.0000000         8.03292423E-05
   35.1187515         7.42091433E-05
   35.2374992         6.71807575E-05
   35.3562508         5.94978119E-05
   35.4749985         5.14226595E-05
   35.5937500         4.32152337E-05
   35.7125015         3.51228919E-05
   35.8312492         2.73717724E-05
   35.9500008         2.01601106E-05
   36.0687485         1.36539966E-05
   36.1875000         7.98558995E-06
   36.3062515         3.25372889E-06
   36.4249992        -4.73481862E-07
   36.5437508        -3.15468515E-06
   36.6624985        -4.77064214E-06
   36.7812500        -5.31970272E-06
   36.9000015        -4.81404277E-06
   37.0187492        -3.27714156E-06
   37.1375008        -7.42692691E-07
   37.2562485         2.74511331E-06
   37.3750000         7.13030931E-06
   37.4937515         1.23433656E-05
   37.6124992         1.82995500E-05
   37.7312508         2.48980214E-05
   37.8499985         3.20220752E-05
   37.9687500         3.95408533E-05
   38.0875015         4.73124419E-05
   38.2062492         5.51881567E-05
   38.3250008         6.30175200E-05
   38.4437485         7.06533756E-05
   38.5625000         7.79565162E-05
   38.6812515         8.47993797E-05
   38.7999992         9.10683812E-05
   38.9187508         9.66647567E-05
   39.0374985         1.01504083E-04
   39.1562500         1.05514766E-04
   39.2750015         1.08635882E-04
   39.3937492         1.10815075E-04
   39.5125008         1.12006914E-04
   39.6312485         1.12172187E-04
   39.7500000         1.11278343E-04
   39.8687515         1.09301152E-04
   39.9874992         1.06227257E-04
   40.1062508         1.02057427E-04
   40.2249985         9.68098102E-05
   40.3437500         9.05227353E-05
   40.4625015         8.32566220E-05
   40.5812492         7.50945183E-05
   40.7000008         6.61412996E-05
   40.8187485         5.65213268E-05
   40.9375000         4.63751312E-05
   41.0562515         3.58551879E-05
   41.1749992         2.51215497E-05
   41.2937508         1.43375837E-05
   41.4124985         3.66635049E-06
   41.5312500        -6.73217482E-06
   41.6500015        -1.67029884E-05
   41.7687492        -2.60971465E-05
   41.8875008        -3.47724053E-05
   42.0062485        -4.25937433E-05
   42.1250000        -4.94342530E-05
   42.2437515        -5.51767807E-05
   42.3624992        -5.97165526E-05
   42.4812508        -6.29648639E-05
   42.5999985        -6.48537098E-05
   42.7187500        -6.53409297E-05
   42.8375015        -6.44154134E-05
   42.9562492        -6.21016225E-05
   43.0750008        -5.84628542E-05
   43.1937485        -5.36026455E-05
   43.3125000        -4.76639216E-05
   43.4312515        -4.08257656E-05
   43.5499992        -3.32979034E-05
   43.6687508        -2.53132785E-05
   43.7874985        -1.71193187E-05
   43.9062500        -8.96857273E-06
   44.0250015        -1.10944438E-06
   44.1437492         6.22231119E-06
   44.2625008         1.28108459E-05
   44.3812485         1.84659129E-05
   44.5000000         2.30269361E-05
   44.6187515         2.63656057E-05
   44.7374992         2.83872268E-05
   44.8562508         2.90312200E-05
   44.9749985         2.82710880E-05
   45.0937500         2.61141122E-05
   45.2125015         2.26008724E-05
   45.3312492         1.78045811E-05
   45.4500008         1.18300295E-05
   45.5687485         4.81184770E-06
   45.6875000        -3.08821109E-06
   45.8062515        -1.16851816E-05
   45.9249992        -2.07761550E-05
   46.0437508        -3.01467644E-05
   46.1624985        -3.95786046E-05
   46.2812500        -4.88571095E-05
   46.4000015        -5.77792816E-05
   46.5187492        -6.61605809E-05
   46.6375008        -7.38404051E-05
   46.7562485        -8.06857061E-05
   46.8750000        -8.65926195E-05
   46.9937515        -9.14860138E-05
   47.1124992        -9.53173803E-05
   47.2312508        -9.80614423E-05
   47.3499985        -9.97122552E-05
   47.4687500        -1.00279191E-04
   47.5875015        -9.97835814E-05
   47.7062492        -9.82562851E-05
   47.8250008        -9.57363445E-05
   47.9437485        -9.22707841E-05
   48.0625000        -8.79152140E-05
   48.1812515        -8.27348704E-05
   48.2999992        -7.68055324E-05
   48.4187508        -7.02138714E-05
   48.5374985        -6.30567374E-05
   48.6562500        -5.54391700E-05
   48.7750015        -4.74710760E-05
   48.8937492        -3.92627735E-05
   49.0125008        -3.09199131E-05
   49.1312485        -2.25383756E-05
   49.2500000        -1.41998853E-05
   49.3687515        -5.96910422E-06
   49.4874992         2.10731309E-06
   49.6062508         9.99938038E-06
   49.7249985         1.76902086E-05
   49.8437500         2.51706479E-05
   49.9625015         3.24329012E-05
   50.0812492         3.94640228E-05
   50.2000008         4.62403259E-05
   50.3187485         5.27235970E-05
   50.4375000         5.88597795E-05
   50.5562515         6.45803229E-05
   50.6749992         6.98060467E-05
   50.7937508         7.44530844E-05
   50.9124985         7.84399890E-05
   51.0312500         8.16951651E-05
   51.1500015         8.41636429E-05
   51.2687492         8.58125422E-05
   51.3875008         8.66346672E-05
   51.5062485         8.66501068E-05
   51.6250000         8.59060528E-05
   51.7437515         8.44748429E-05
   51.8624992         8.24510062E-05
   51.9812508         7.99474656E-05
   52.0999985         7.70912739E-05
   52.2187500         7.40190371E-05
   52.3375015         7.08720036E-05
   52.4562492         6.77906428E-05
   52.5750008         6.49087451E-05
   52.6937485         6.23468513E-05
   52.8125000         6.02052532E-05
   52.9312515         5.85570087E-05
   53.0499992         5.74415280E-05
   53.1687508         5.68596552E-05
   53.2874985         5.67711868E-05
   53.4062500         5.70956254E-05
   53.5250015         5.77167339E-05
   53.6437492         5.84911249E-05
   53.7625008         5.92604883E-05
   53.8812485         5.98665829E-05
   54.0000000         6.01676766E-05
   54.1187515         6.00546882E-05
   54.2374992         5.94652229E-05
   54.3562508         5.83937581E-05
   54.4749985         5.68964970E-05
   54.5937500         5.50901132E-05
   54.7125015         5.31440128E-05
   54.8312492         5.12666520E-05
   54.9500008         4.96870598E-05
   55.0687485         4.86331337E-05
   55.1875000         4.83088697E-05
   55.3062515         4.88726582E-05
   55.4249992         5.04187265E-05
   55.5437508         5.29635145E-05
   55.6624985         5.64383590E-05
   55.7812500         6.06890753E-05
   55.9000015         6.54826654E-05
   56.0187492         7.05204511E-05
   56.1375008         7.54567081E-05
   56.2562485         7.99210829E-05
   56.3750000         8.35431929E-05
   56.4937515         8.59774591E-05
   56.6124992         8.69263386E-05
   56.7312508         8.61604276E-05
   56.8499985         8.35341489E-05
   56.9687500         7.89961487E-05
   57.0875015         7.25940045E-05
   57.2062492         6.44730681E-05
   57.3250008         5.48699572E-05
   57.4437485         4.41009433E-05
   57.5625000         3.25463880E-05
   57.6812515         2.06318437E-05
   57.7999992         8.80712378E-06
   57.9187508        -2.47574349E-06
   58.0374985        -1.27844496E-05
   58.1562500        -2.17271736E-05
   58.2750015        -2.89711334E-05
   58.3937492        -3.42580170E-05
   58.5125008        -3.74154952E-05
   58.6312485        -3.83642655E-05
   58.7500000        -3.71203023E-05
   58.8687515        -3.37921701E-05
   58.9874992        -2.85735896E-05
   59.1062508        -2.17316447E-05
   59.2249985        -1.35912705E-05
   59.3437500        -4.51686401E-06
   59.4625015         5.10796644E-06
   59.5812492         1.49013058E-05
   59.7000008         2.45032370E-05
   59.8187485         3.35942314E-05
   59.9375000         4.19104181E-05
   60.0562515         4.92546496E-05
   60.1749992         5.55025617E-05
   60.2937508         6.06032663E-05
   60.4124985         6.45745822E-05
   60.5312500         6.74933472E-05
   60.6500015         6.94816117E-05
   60.7687492         7.06900319E-05
   60.8875008         7.12798574E-05
   61.0062485         7.14052439E-05
   61.1250000         7.11973044E-05
   61.2437515         7.07515064E-05
   61.3624992         7.01192039E-05
   61.4812508         6.93041875E-05
   61.5999985         6.82643004E-05
   61.7187500         6.69177462E-05
   61.8375015         6.51534792E-05
   61.9562492         6.28444686E-05
   62.0750008         5.98626211E-05
   62.1937485         5.60939297E-05
   62.3125000         5.14526364E-05
   62.4312515         4.58932518E-05
   62.5499992         3.94195849E-05
   62.6687508         3.20903164E-05
   62.7874985         2.40207901E-05
   62.9062500         1.53811197E-05
   63.0250015         6.39079417E-06
   63.1437492        -2.68977374E-06
   63.2625008        -1.15702969E-05
   63.3812485        -1.99436927E-05
   63.5000000        -2.75005877E-05
   63.6187515        -3.39446451E-05
   63.7374992        -3.90079840E-05
   63.8562508        -4.24659811E-05
   63.9749985        -4.41506709E-05
   64.0937500        -4.39618889E-05
   64.2125015        -4.18753079E-05
   64.3312531        -3.79466946E-05
   64.4499969        -3.23116692E-05
   64.5687485        -2.51807051E-05
   64.6875000        -1.68293118E-05
   64.8062515        -7.58372607E-06
   64.9250031         2.19706794E-06
   65.0437469         1.21418370E-05
   65.1624985         2.18886253E-05
   65.2812500         3.11055992E-05
   65.4000015         3.95094612E-05
   65.5187531         4.68798135E-05
   65.6374969         5.30681464E-05
   65.7562485         5.80007109E-05
   65.8750000         6.16750185E-05
   65.9937515         6.41504885E-05
   66.1125031         6.55344775E-05
   66.2312469         6.59652142E-05
   66.3499985         6.55938493E-05
   66.4687500         6.45675536E-05
   66.5875015         6.30157228E-05
   66.7062531         6.10405914E-05
   66.8249969         5.87131690E-05
   66.9437485         5.60744775E-05
   67.0625000         5.31414807E-05
   67.1812515         4.99163434E-05
   67.3000031         4.63973993E-05
   67.4187469         4.25899234E-05
   67.5374985         3.85150815E-05
   67.6562500         3.42157873E-05
   67.7750015         2.97586321E-05
   67.8937531         2.52319096E-05
   68.0124969         2.07401717E-05
   68.1312485         1.63964160E-05
   68.2500000         1.23131613E-05
   68.3687515         8.59385000E-06
   68.4875031         5.32577769E-06
   68.6062469         2.57543547E-06
   68.7249985         3.86708763E-07
   68.8437500        -1.21814219E-06
   68.9625015        -2.23522215E-06
   69.0812531        -2.67426958E-06
   69.1999969        -2.55343889E-06
   69.3187485        -1.89455568E-06
   69.4375000        -7.19671391E-07
   69.5562515         9.50562878E-07
   69.6750031         3.09648613E-06
   69.7937469         5.69714121E-06
   69.9124985         8.72654164E-06
   70.0312500         1.21491685E-05
   70.1500015         1.59154715E-05
   70.2687531         1.99581737E-05
   70.3874969         2.41900507E-05
   70.5062485         2.85037258E-05
   70.6250000         3.27737253E-05
   70.7437515         3.68608853E-05
   70.8625031         4.06188010E-05
   70.9812469         4.39019750E-05
   71.0999985         4.65749326E-05
   71.2187500         4.85216042E-05
   71.3375015         4.96540670E-05
   71.4562531         4.99198941E-05
   71.5749969         4.93072585E-05
   71.6937485         4.78473739E-05
   71.8125000         4.56139023E-05
   71.9312515         4.27192936E-05
   72.0500031         3.93084265E-05
   72.1687469         3.55499942E-05
   72.2874985         3.16264523E-05
   72.4062500         2.77232502E-05
   72.5250015         2.40181362E-05
   72.6437531         2.06712793E-05
   72.7624969         1.78167193E-05
   72.8812485         1.55556118E-05
   73.0000000         1.39515314E-05
   73.1187515         1.30279823E-05
   73.2375031         1.27681960E-05
   73.3562469         1.31171555E-05
   73.4749985         1.39857339E-05
   73.5937500         1.52567227E-05
   73.7125015         1.67924609E-05
   73.8312531         1.84436740E-05
   73.9499969         2.00590803E-05
   74.0687485         2.14952161E-05
   74.1875000         2.26259363E-05
   74.3062515         2.33509691E-05
   74.4250031         2.36029082E-05
   74.5437469         2.33521314E-05
   74.6624985         2.26091452E-05
   74.7812500         2.14240790E-05
   74.9000015         1.98832386E-05
   75.0187531         1.81029045E-05
   75.1374969         1.62207834E-05
   75.2562485         1.43857851E-05
   75.3750000         1.27469903E-05
   75.4937515         1.14427239E-05
   75.6125031         1.05907193E-05
   75.7312469         1.02801823E-05
   75.8499985         1.05664258E-05
   75.9687500         1.14684362E-05
   76.0875015         1.29694345E-05
   76.2062531         1.50201558E-05
   76.3249969         1.75442983E-05
   76.4437485         2.04453463E-05
   76.5625000         2.36139040E-05
   76.6812515         2.69346619E-05
   76.8000031         3.02922836E-05
   76.9187469         3.35758014E-05
   77.0374985         3.66813001E-05
   77.1562500         3.95131356E-05
   77.2750015         4.19841817E-05
   77.3937531         4.40156400E-05
   77.5124969         4.55372538E-05
   77.6312485         4.64884179E-05
   77.7500000         4.68206636E-05
   77.8687515         4.65015983E-05
   77.9875031         4.55199443E-05
   78.1062469         4.38911266E-05
   78.2249985         4.16623952E-05
   78.3437500         3.89164270E-05
   78.4625015         3.57722820E-05
   78.5812531         3.23828681E-05
   78.6999969         2.89283871E-05
   78.8187485         2.56058338E-05
   78.9375000         2.26151733E-05
   79.0562515         2.01433540E-05
   79.1750031         1.83478733E-05
   79.2937469         1.73416884E-05
   79.4124985         1.71813863E-05
   79.5312500         1.78601858E-05
   79.6500015         1.93068427E-05
   79.7687531         2.13908734E-05
   79.8874969         2.39337733E-05
   80.0062485         2.67251035E-05
   80.1250000         2.95418213E-05
   80.2437515         3.21687221E-05
   80.3625031         3.44177715E-05
   80.4812469         3.61441853E-05
   80.5999985         3.72575596E-05
   80.7187500         3.77268225E-05
   80.8375015         3.75786585E-05
   80.9562531         3.68896726E-05
   81.0749969         3.57733697E-05
   81.1937485         3.43636275E-05
   81.3125000         3.27966191E-05
   81.4312515         3.11934236E-05
   81.5500031         2.96454018E-05
   81.6687469         2.82040328E-05
   81.7874985         2.68764416E-05
   81.9062500         2.56270887E-05
   82.0250015         2.43853974E-05
   82.1437531         2.30583246E-05
   82.2624969         2.15463042E-05
   82.3812485         1.97605259E-05
   82.5000000         1.76393714E-05
   82.6187515         1.51618506E-05
   82.7375031         1.23563032E-05
   82.8562469         9.30311126E-06
   82.9749985         6.13098473E-06
   83.0937500         3.00710781E-06
   83.2125015         1.22243591E-07
   83.3312531        -2.32748221E-06
   83.4499969        -4.15999011E-06
   83.5687485        -5.22554774E-06
   83.6875000        -5.42184989E-06
   83.8062515        -4.70416899E-06
   83.9250031        -3.08954054E-06
   84.0437469        -6.54695100E-07
   84.1624985         2.47174216E-06
   84.2812500         6.12162012E-06
   84.4000015         1.01025325E-05
   84.5187531         1.42141271E-05
   84.6374969         1.82636304E-05
   84.7562485         2.20790407E-05
   84.8750000         2.55189661E-05
   84.9937515         2.84785547E-05
   85.1125031         3.08916497E-05
   85.2312469         3.27295966E-05
   85.3499985         3.39976541E-05
   85.4687500         3.47299210E-05
   85.5875015         3.49837828E-05
   85.7062531         3.48345275E-05
   85.8249969         3.43707034E-05
   85.9437485         3.36901867E-05
   86.0625000         3.28968781E-05
   86.1812515         3.20975996E-05
   86.3000031         3.13987439E-05
   86.4187469         3.09023817E-05
   86.5374985         3.07015071E-05
   86.6562500         3.08745948E-05
   86.7750015         3.14796962E-05
   86.8937531         3.25486217E-05
   87.0124969         3.40819097E-05
   87.1312485         3.60452359E-05
   87.2500000         3.83680235E-05
   87.3687515         4.09446366E-05
   87.4875031         4.36385235E-05
   87.6062469         4.62892640E-05
   87.7249985         4.87220968E-05
   87.8437500         5.07593577E-05
   87.9625015         5.22329210E-05
   88.0812531         5.29965582E-05
   88.1999969         5.29371791E-05
   88.3187485         5.19839923E-05
   88.4375000         5.01147988E-05
   88.5562515         4.73588516E-05
   88.6750031         4.37961644E-05
   88.7937469         3.95532988E-05
   88.9124985         3.47960449E-05
   89.0312500         2.97195656E-05
   89.1500015         2.45367646E-05
   89.2687531         1.94657041E-05
   89.3874969         1.47169667E-05
   89.5062485         1.04817309E-05
   89.6250000         6.92131562E-06
   89.7437515         4.15871227E-06
   89.8625031         2.27252053E-06
   89.9812469         1.29346938E-06
   90.0999985         1.20359812E-06
   90.2187500         1.93802430E-06
   90.3375015         3.38915606E-06
   90.4562531         5.41314512E-06
   90.5749969         7.83830637E-06
   90.6937485         1.04751707E-05
   90.8125000         1.31277384E-05
   90.9312515         1.56053848E-05
   91.0500031         1.77348120E-05
   91.1687469         1.93713131E-05
   91.2874985         2.04086355E-05
   91.4062500         2.07867524E-05
   91.5250015         2.04969292E-05
   91.6437531         1.95835983E-05
   91.7624969         1.81427822E-05
   91.8812485         1.63169316E-05
   92.0000000         1.42863200E-05
   92.1187515         1.22573820E-05
   92.2375031         1.04485980E-05
   92.3562469         9.07479807E-06
   92.4749985         8.33091690E-06
   92.5937500         8.37642892E-06
   92.7125015         9.32167040E-06
   92.8312531         1.12172365E-05
   92.9499969         1.40474731E-05
   93.0687485         1.77287620E-05