  -3.00000000         0.00000000    
  -2.80999994         0.00000000    
  -2.61999989         0.00000000    
  -2.43000007         0.00000000    
  -2.24000001         0.00000000    
  -2.04999995         0.00000000    
  -1.86000001        -2.80338396E-22
  -1.66999996         1.12413853E-22
  -1.48000002         1.26237237E-20
  -1.28999996         6.20309268E-20
  -1.10000002         1.14493700E-19
 -0.910000026        -9.22001554E-20
 -0.720000029        -9.92605982E-19
 -0.529999971        -2.26830791E-18
 -0.340000004        -1.35002835E-18
 -0.150000006         5.59854409E-18
   3.99999991E-02     1.58675526E-17
  0.230000004         8.01697825E-18
  0.419999987        -5.66345353E-17
  0.610000014        -1.93357359E-16
  0.800000012        -3.17615597E-16
  0.990000010        -2.04979234E-16
   1.17999995         3.92656866E-16
   1.37000000         1.43155323E-15
   1.55999994         2.25751158E-15
   1.75000000         1.72250354E-15
   1.94000006        -9.16857579E-16
   2.13000011        -4.63042588E-15
   2.31999993        -6.02835847E-15
   2.50999999        -1.11764240E-15
   2.70000005         1.03461805E-14
   2.89000010         2.04773908E-14
   3.07999992         1.37794786E-14
   3.26999998        -2.35935030E-14
   3.46000004        -8.79596824E-14
   3.65000010        -1.45797816E-13
   3.83999991        -1.38702011E-13
   4.03000021        -1.25360122E-14
   4.21999979         2.38079738E-13
   4.40999985         5.33886628E-13
   4.59999990         7.10346875E-13
   4.78999996         5.65995547E-13
   4.98000002        -4.61760418E-14
   5.17000008        -1.10545579E-12
   5.36000013        -2.32018267E-12
   5.55000019        -3.08488174E-12
   5.73999977        -2.57651431E-12
   5.92999983        -7.42546419E-14
   6.11999989         4.48998044E-12
   6.30999994         9.93189125E-12
   6.50000000         1.35728616E-11
   6.69000006         1.18358032E-11
   6.88000011         1.88877169E-12
   7.07000017        -1.60794295E-11
   7.26000023        -3.70668114E-11
   7.44999981        -5.13523633E-11
   7.63999987        -4.73704617E-11
   7.82999992        -1.69860931E-11
   8.02000046         3.86962580E-11
   8.21000004         1.05752226E-10
   8.39999962         1.58560470E-10
   8.59000015         1.66616540E-10
   8.77999973         1.05880124E-10
   8.97000027        -2.85410306E-11
   9.15999985        -2.12889997E-10
   9.35000038        -3.93181432E-10
   9.53999996        -4.95083141E-10
   9.72999954        -4.45848580E-10
   9.92000008        -2.04221987E-10
   10.1099997         2.11052578E-10
   10.3000002         7.06959491E-10
   10.4899998         1.12766418E-09
   10.6800003         1.29538091E-09
   10.8699999         1.07184850E-09
   11.0600004         4.19735441E-10
   11.2500000        -5.61268088E-10
   11.4399996        -1.64212233E-09
   11.6300001        -2.51792365E-09
   11.8199997        -2.89069124E-09
   12.0100002        -2.55363841E-09
   12.1999998        -1.45082291E-09
   12.3900003         3.00772768E-10
   12.5799999         2.42331488E-09
   12.7700005         4.51147253E-09
   12.9600000         6.07718098E-09
   13.1499996         6.60846355E-09
   13.3400002         5.65635050E-09
   13.5299997         2.96193470E-09
   13.7200003        -1.38621759E-09
   13.9099998        -6.80974832E-09
   14.1000004        -1.21901476E-08
   14.2900000        -1.59906897E-08
   14.4799995        -1.65907164E-08
   14.6700001        -1.27909745E-08
   14.8599997        -4.35467662E-09
   15.0500002         7.61474883E-09
   15.2399998         2.06505408E-08
   15.4300003         3.13520978E-08
   15.6199999         3.62118762E-08
   15.8100004         3.26299698E-08
   16.0000000         1.98177226E-08
   16.1900005        -6.91581736E-10
   16.3799992        -2.50921239E-08
   16.5699997        -4.79228461E-08
   16.7600002        -6.31238350E-08
   16.9500008        -6.53324932E-08
   17.1399994        -5.12112059E-08
   17.3299999        -2.06077218E-08
   17.5200005         2.26648513E-08
   17.7099991         7.06855019E-08
   17.8999996         1.12195956E-07
   18.0900002         1.34474817E-07
   18.2800007         1.26261909E-07
   18.4699993         8.12977206E-08
   18.6599998         1.64278235E-09
   18.8500004        -1.00314324E-07
   19.0400009        -2.02208241E-07
   19.2299995        -2.75058341E-07
   19.4200001        -2.89610568E-07
   19.6100006        -2.24851803E-07
   19.7999992        -7.72441737E-08
   19.9899998         1.31107925E-07
   20.1800003         3.47097682E-07
   20.3700008         4.85436431E-07
   20.5599995         4.32485706E-07
   20.7500000         5.53196884E-08
   20.9400005        -7.84385350E-07
   21.1299992        -2.21272194E-06
   21.3199997        -4.32405295E-06
   21.5100002        -7.16234626E-06
   21.7000008        -1.07066980E-05
   21.8899994        -1.48645595E-05
   22.0799999        -1.94754430E-05
   22.2700005        -2.43263130E-05
   22.4599991        -2.91774013E-05
   22.6499996        -3.37946767E-05
   22.8400002        -3.79832236E-05
   23.0300007        -4.16151233E-05
   23.2199993        -4.46461672E-05
   23.4099998        -4.71180247E-05
   23.6000004        -4.91456449E-05
   23.7900009        -5.08924095E-05
   23.9799995        -5.25381729E-05
   24.1700001        -5.42458693E-05
   24.3600006        -5.61323104E-05
   24.5499992        -5.82472894E-05
   24.7399998        -6.05634814E-05
   24.9300003        -6.29775750E-05
   25.1200008        -6.53217430E-05
   25.3099995        -6.73834438E-05
   25.5000000        -6.89309891E-05
   25.6900005        -6.97418145E-05
   25.8799992        -6.96297502E-05
   26.0699997        -6.84677216E-05
   26.2600002        -6.62023594E-05
   26.4500008        -6.28581984E-05
   26.6399994        -5.85305424E-05
   26.8299999        -5.33683815E-05
   27.0200005        -4.75508423E-05
   27.2099991        -4.12618756E-05
   27.3999996        -3.46681372E-05
   27.5900002        -2.79044034E-05
   27.7800007        -2.10687504E-05
   27.9699993        -1.42277349E-05
   28.1599998        -7.42911470E-06
   28.3500004        -7.18493652E-07
   28.5400009         5.84464988E-06
   28.7299995         1.21759122E-05
   28.9200001         1.81627875E-05
   29.1100006         2.36705964E-05
   29.2999992         2.85570404E-05
   29.4899998         3.26928093E-05
   29.6800003         3.59844853E-05
   29.8700008         3.83952865E-05
   30.0599995         3.99589408E-05
   30.2500000         4.07834887E-05
   30.4400005         4.10432003E-05
   30.6299992         4.09593194E-05
   30.8199997         4.07721673E-05
   31.0100002         4.07091502E-05
   31.2000008         4.09539389E-05
   31.3899994         4.16221410E-05
   31.5799999         4.27478299E-05
   31.7700005         4.42831770E-05
   31.9599991         4.61112759E-05
   32.1500015         4.80697672E-05
   32.3400002         4.99811431E-05
   32.5299988         5.16846085E-05
   32.7200012         5.30639736E-05
   32.9099998         5.40665096E-05
   33.0999985         5.47089548E-05
   33.2900009         5.50691984E-05
   33.4799995         5.52650636E-05
   33.6699982         5.54245344E-05
   33.8600006         5.56544328E-05
   34.0499992         5.60151457E-05
   34.2400017         5.65081755E-05
   34.4300003         5.70802622E-05
   34.6199989         5.76436942E-05
   34.8100014         5.81078166E-05
   35.0000000         5.84132031E-05
   35.1899986         5.85585331E-05
   35.3800011         5.86117567E-05
   35.5699997         5.87010800E-05
   35.7599983         5.89867159E-05
   35.9500008         5.96196805E-05
   36.1399994         6.06972317E-05
   36.3300018         6.22259322E-05
   36.5200005         6.41015795E-05
   36.7099991         6.61116501E-05
   36.9000015         6.79610166E-05
   37.0900002         6.93164766E-05
   37.2799988         6.98622243E-05
   37.4700012         6.93560723E-05
   37.6599998         6.76770505E-05
   37.8499985         6.48564819E-05
   38.0400009         6.10875359E-05
   38.2299995         5.67113493E-05
   38.4199982         5.21811162E-05
   38.6100006         4.80092458E-05
   38.7999992         4.47060484E-05
   38.9900017         4.27206178E-05
   39.1800003         4.23944257E-05
   39.3699989         4.39359028E-05
   39.5600014         4.74199405E-05
   39.7500000         5.28110686E-05
   39.9399986         6.00036328E-05
   40.1300011         6.88685686E-05
   40.3199997         7.92943174E-05
   40.5099983         9.12112519E-05
   40.7000008         1.04593266E-04
   40.8899994         1.19436678E-04
   41.0800018         1.35722192E-04
   41.2700005         1.53368601E-04
   41.4599991         1.72186919E-04
   41.6500015         1.91840983E-04
   41.8400002         2.11818464E-04
   42.0299988         2.31413534E-04
   42.2200012         2.49722769E-04
   42.4099998         2.65655224E-04
   42.5999985         2.77960236E-04
   42.7900009         2.85277172E-04
   42.9799995         2.86211696E-04
   43.1699982         2.79441010E-04
   43.3600006         2.63843773E-04
   43.5499992         2.38643319E-04
   43.7400017         2.03544638E-04
   43.9300003         1.58842682E-04
   44.1199989         1.05481551E-04
   44.3100014         4.50500338E-05
   44.5000000        -2.02913907E-05
   44.6899986        -8.79475265E-05
   44.8800011        -1.55075177E-04
   45.0699997        -2.18796951E-04
   45.2599983        -2.76415987E-04
   45.4500008        -3.25605186E-04
   45.6399994        -3.64550011E-04
   45.8300018        -3.92033689E-04
   46.0200005        -4.07462707E-04
   46.2099991        -4.10838780E-04
   46.4000015        -4.02687845E-04
   46.5900002        -3.83961044E-04
   46.7799988        -3.55922035E-04
   46.9700012        -3.20035033E-04
   47.1599998        -2.77864514E-04
   47.3499985        -2.30993086E-04
   47.5400009        -1.80960356E-04
   47.7299995        -1.29223758E-04
   47.9199982        -7.71401610E-05
   48.1100006        -2.59661265E-05
   48.2999992         2.31293998E-05
   48.4900017         6.90494780E-05
   48.6800003         1.10762041E-04
   48.8699989         1.47311046E-04
   49.0600014         1.77850437E-04
   49.2500000         2.01699513E-04
   49.4399986         2.18411369E-04
   49.6300011         2.27841112E-04
   49.8199997         2.30196791E-04
   50.0099983         2.26055636E-04
   50.2000008         2.16333166E-04
   50.3899994         2.02201802E-04
   50.5800018         1.84968885E-04
   50.7700005         1.65935271E-04
   50.9599991         1.46261009E-04
   51.1500015         1.26863859E-04
   51.3400002         1.08367742E-04
   51.5299988         9.11075986E-05
   51.7200012         7.51850093E-05
   51.9099998         6.05576970E-05
   52.0999985         4.71395506E-05
   52.2900009         3.48858448E-05
   52.4799995         2.38438479E-05
   52.6699982         1.41595428E-05
   52.8600006         6.04328261E-06
   53.0499992        -2.93141966E-07
   53.2400017        -4.71067597E-06
   53.4300003        -7.21096740E-06
   53.6199989        -7.98333349E-06
   53.8100014        -7.42101929E-06
   54.0000000        -6.10261213E-06
   54.1899986        -4.74113858E-06
   54.3800011        -4.10931989E-06
   54.5699997        -4.95305267E-06
   54.7599983        -7.90595095E-06
   54.9500008        -1.34155853E-05
   55.1399994        -2.16890094E-05
   55.3300018        -3.26618538E-05
   55.5200005        -4.59926705E-05
   55.7099991        -6.10817078E-05
   55.9000015        -7.71109917E-05
   56.0900002        -9.31015602E-05
   56.2799988        -1.07983557E-04
   56.4700012        -1.20675555E-04
   56.6599998        -1.30169050E-04
   56.8499985        -1.35612820E-04
   57.0400009        -1.36389659E-04
   57.2299995        -1.32176472E-04
   57.4199982        -1.22979633E-04
   57.6100006        -1.09140608E-04
   57.7999992        -9.13113909E-05
   57.9900017        -7.04039849E-05
   58.1800003        -4.75221132E-05
   58.3699989        -2.38856155E-05
   58.5600014        -7.57544910E-07
   58.7500000         2.06188142E-05
   58.9399986         3.90709429E-05
   59.1300011         5.35394829E-05
   59.3199997         6.31186049E-05
   59.5099983         6.71008966E-05
   59.7000008         6.50297152E-05
   59.8899994         5.67566676E-05
   60.0800018         4.24966602E-05
   60.2700005         2.28690405E-05
   60.4599991        -1.08797281E-06
   60.6500015        -2.79411652E-05
   60.8400002        -5.59318651E-05
   61.0299988        -8.30917779E-05
   61.2200012        -1.07397187E-04
   61.4099998        -1.26946325E-04
   61.5999985        -1.40138814E-04
   61.7900009        -1.45835438E-04
   61.9799995        -1.43477519E-04
   62.1699982        -1.33151159E-04
   62.3600006        -1.15587878E-04
   62.5499992        -9.21014580E-05
   62.7400017        -6.44680840E-05
   62.9300003        -3.47636924E-05
   63.1199989        -5.17566696E-06
   63.3100014         2.21921418E-05
   63.5000000         4.55030095E-05
   63.6899986         6.33428281E-05
   63.8800011         7.48329694E-05
   64.0699997         7.96889071E-05
   64.2600021         7.82176212E-05
   64.4499969         7.12534093E-05
   64.6399994         6.00392232E-05
   64.8300018         4.60684714E-05
   65.0199966         3.09076131E-05
   65.2099991         1.60227246E-05
   65.4000015         2.63218431E-06
   65.5899963        -8.39656605E-06
   65.7799988        -1.65956117E-05
   65.9700012        -2.18886162E-05
   66.1600037        -2.45334395E-05
   66.3499985        -2.50290668E-05
   66.5400009        -2.40046356E-05
   66.7300034        -2.21089031E-05
   66.9199982        -1.99162878E-05
   67.1100006        -1.78613700E-05
   67.3000031        -1.62081924E-05
   67.4899979        -1.50541246E-05
   67.6800003        -1.43622365E-05
   67.8700027        -1.40115826E-05
   68.0599976        -1.38529658E-05
   68.2500000        -1.37580364E-05
   68.4400024        -1.36523440E-05
   68.6299973        -1.35267719E-05
   68.8199997        -1.34265292E-05
   69.0100021        -1.34218690E-05
   69.1999969        -1.35689470E-05
   69.3899994        -1.38711348E-05
   69.5800018        -1.42507724E-05
   69.7699966        -1.45381618E-05
   69.9599991        -1.44812375E-05
   70.1500015        -1.37755933E-05
   70.3399963        -1.21117446E-05
   70.5299988        -9.23343578E-06
   70.7200012        -4.99767293E-06
   70.9100037         5.74694752E-07
   71.0999985         7.26822691E-06
   71.2900009         1.46686534E-05
   71.4800034         2.21870050E-05
   71.6699982         2.91100223E-05
   71.8600006         3.46727611E-05
   72.0500031         3.81474383E-05
   72.2399979         3.89395063E-05
   72.4300003         3.66778877E-05
   72.6200027         3.12843913E-05
   72.8099976         2.30092610E-05
   73.0000000         1.24262306E-05
   73.1900024         3.87521652E-07
   73.3799973        -1.20558661E-05
   73.5699997        -2.37611712E-05
   73.7600021        -3.36180638E-05
   73.9499969        -4.06760919E-05
   74.1399994        -4.42573073E-05
   74.3300018        -4.40362091E-05
   74.5199966        -4.00758581E-05
   74.7099991        -3.28186725E-05
   74.9000015        -2.30385158E-05
   75.0899963        -1.17622421E-05
   75.2799988        -1.67067597E-07
   75.4700012         1.05403915E-05
   75.6600037         1.92535626E-05
   75.8499985         2.50880330E-05
   76.0400009         2.74783906E-05
   76.2300034         2.62362337E-05
   76.4199982         2.15637901E-05
   76.6100006         1.40242400E-05
   76.8000031         4.47244884E-06
   76.9899979        -6.04879460E-06
   77.1800003        -1.64372141E-05
   77.3700027        -2.56667408E-05
   77.5599976        -3.29075192E-05
   77.7500000        -3.76096577E-05
   77.9400024        -3.95402967E-05
   78.1299973        -3.87754335E-05
   78.3199997        -3.56547753E-05
   78.5100021        -3.07085102E-05
   78.6999969        -2.45641368E-05
   78.8899994        -1.78446262E-05
   79.0800018        -1.10748933E-05
   79.2699966        -4.61648551E-06
   79.4599991         1.35503717E-06
   79.6500015         6.82793052E-06
   79.8399963         1.18976322E-05
   80.0299988         1.66920818E-05
   80.2200012         2.12950163E-05
   80.4100037         2.56807962E-05
   80.5999985         2.96734106E-05
   80.7900009         3.29416325E-05
   80.9800034         3.50374976E-05
   81.1699982         3.54742369E-05
   81.3600006         3.38269601E-05
   81.5500031         2.98315881E-05
   81.7399979         2.34590279E-05
   81.9300003         1.49505349E-05
   82.1200027         4.81035931E-06
   82.3099976        -6.24137692E-06
   82.5000000        -1.73484586E-05
   82.6900024        -2.76203045E-05
   82.8799973        -3.62401479E-05
   83.0699997        -4.25613798E-05
   83.2600021        -4.61757372E-05
   83.4499969        -4.69447732E-05
   83.6399994        -4.49954059E-05
   83.8300018        -4.06868603E-05
   84.0199966        -3.45577173E-05
   84.2099991        -2.72599864E-05
   84.4000015        -1.94857621E-05
   84.5899963        -1.18930593E-05
   84.7799988        -5.03927868E-06
   84.9700012         6.69013389E-07
   85.1600037         5.00403530E-06
   85.3499985         7.92087940E-06
   85.5400009         9.53990366E-06
   85.7300034         1.01114792E-05
   85.9199982         9.96764265E-06
   86.1100006         9.46624823E-06
   86.3000031         8.93482502E-06
   86.4899979         8.62286106E-06
   86.6800003         8.67058134E-06
   86.8700027         9.09902974E-06
   87.0599976         9.82138499E-06
   87.2500000         1.06710204E-05
   87.4400024         1.14395143E-05
   87.6299973         1.19174392E-05
   87.8199997         1.19312344E-05
   88.0100021         1.13704855E-05
   88.1999969         1.02005079E-05
   88.3899994         8.45799241E-06
   88.5800018         6.23103506E-06
   88.7699966         3.62955757E-06
   88.9599991         7.55204155E-07
   89.1500015        -2.32032312E-06
   89.3399963        -5.56222722E-06
   89.5299988        -8.96328038E-06
   89.7200012        -1.25209463E-05
   89.9100037        -1.62070155E-05
   90.0999985        -1.99376700E-05
   90.2900009        -2.35520747E-05
   90.4800034        -2.68062959E-05
   90.6699982        -2.93861613E-05
   90.8600006        -3.09387506E-05
   91.0500031        -3.11184667E-05
   91.2399979        -2.96411199E-05
   91.4300003        -2.63381207E-05
   91.6200027        -2.12024788E-05
   91.8099976        -1.44184105E-05
   92.0000000        -6.36756704E-06
   92.1900024         2.39253336E-06
   92.3799973         1.11780028E-05
   92.5699997         1.92509742E-05
   92.7600021         2.59053195E-05
   92.9499969         3.05532194E-05
   93.1399994         3.27991766E-05
   93.3300018         3.24900429E-05
   93.5199966         2.97335973E-05
   93.7099991         2.48840952E-05
   93.9000015         1.84988148E-05
   94.0899963         1.12735497E-05
   94.2799988         3.96592031E-06
   94.4700012        -2.68559234E-06
   94.6600037        -8.04029060E-06
   94.8499985        -1.16250085E-05
   95.0400009        -1.31877732E-05
   95.2300034        -1.27279827E-05
   95.4199982        -1.04974970E-05
   95.6100006        -6.97049336E-06
   95.8000031        -2.78421044E-06
   95.9899979         1.34314757E-06
   96.1800003         4.70732857E-06
   96.3700027         6.71253383E-06
   96.5599976         6.95089830E-06
   96.7500000         5.25387031E-06
   96.9400024         1.70750945E-06
   97.1299973        -3.36864218E-06
   97.3199997        -9.47236094E-06
   97.5100021        -1.59882165E-05
   97.6999969        -2.22637245E-05
   97.8899994        -2.76821156E-05
   98.0800018        -3.17242120E-05
   98.2699966        -3.40146653E-05
   98.4599991        -3.43497049E-05
   98.6500015        -3.27053167E-05
   98.8399963        -2.92262539E-05
   99.0299988        -2.41978196E-05
   99.2200012        -1.80044026E-05
   99.4100037        -1.10808223E-05
   99.5999985        -3.86419742E-06
   99.7900009         3.24638722E-06
   99.9800034         9.91754132E-06
   100.169998         1.58950952E-05
   100.360001         2.10049402E-05
   100.550003         2.51438796E-05
   100.739998         2.82635956E-05
   100.930000         3.03513516E-05
   101.120003         3.14117351E-05
   101.309998         3.14540666E-05
   101.500000         3.04884616E-05
   101.690002         2.85305832E-05
   101.879997         2.56125786E-05
   102.070000         2.17959441E-05
   102.260002         1.71824740E-05
   102.449997         1.19193855E-05
   102.639999         6.19528510E-06
   102.830002         2.25035137E-07
   103.019997        -5.77431820E-06
   103.209999        -1.16090987E-05
   103.400002        -1.71249612E-05
   103.589996        -2.22043254E-05
   103.779999        -2.67438863E-05
   103.970001        -3.06206748E-05
   104.160004        -3.36615121E-05
   104.349998        -3.56306591E-05
   104.540001        -3.62446917E-05
   104.730003        -3.52149436E-05
   104.919998        -3.23099557E-05
   105.110001        -2.74241029E-05
   105.300003        -2.06357308E-05
   105.489998        -1.22387037E-05
   105.680000        -2.73681189E-06
   105.870003         7.20021580E-06
   106.059998         1.68105234E-05
   106.250000         2.53287417E-05
   106.440002         3.20732579E-05
   106.629997         3.65194865E-05
   106.820000         3.83512888E-05
   107.010002         3.74868650E-05
   107.199997         3.40782171E-05
   107.389999         2.84861089E-05
   107.580002         2.12353316E-05
   107.769997         1.29577111E-05
   107.959999         4.33101377E-06
   108.150002        -3.97921940E-06
   108.339996        -1.13700135E-05
   108.529999        -1.73408589E-05
   108.720001        -2.15222517E-05
   108.910004        -2.36933356E-05
   109.099998        -2.37904314E-05
   109.290001        -2.19082103E-05
   109.480003        -1.82942458E-05
   109.669998        -1.33353769E-05
   109.860001        -7.53282620E-06
   110.050003        -1.46369507E-06
   110.239998         4.27029954E-06
   110.430000         9.10171821E-06
   110.620003         1.25554479E-05
   110.809998         1.42966383E-05
   111.000000         1.41612863E-05
   111.190002         1.21659441E-05
   111.379997         8.49733715E-06
   111.570000         3.48639605E-06
   111.760002        -2.42727288E-06
   111.949997        -8.73458157E-06
   112.139999        -1.48964546E-05
   112.330002        -2.03828095E-05
   112.519997        -2.47117623E-05
   112.709999        -2.74888698E-05
   112.900002        -2.84434245E-05
   113.089996        -2.74561644E-05
   113.279999        -2.45721149E-05
   113.470001        -1.99947426E-05
   113.660004        -1.40620432E-05
   113.849998        -7.20952085E-06
   114.040001         7.30748155E-08
   114.230003         7.28492023E-06
   114.419998         1.39534159E-05
   114.610001         1.96680448E-05
   114.800003         2.41085145E-05
   114.989998         2.70666678E-05
   115.180000         2.84610833E-05
   115.370003         2.83424051E-05
   115.559998         2.68873137E-05
   115.750000         2.43787599E-05
   115.940002         2.11713086E-05
   116.129997         1.76429385E-05
   116.320000         1.41387882E-05
   116.510002         1.09165703E-05
   116.699997         8.10565780E-06
   116.889999         5.69035683E-06
   117.080002         3.52302004E-06
   117.269997         1.36568656E-06
   117.459999        -1.04750882E-06
   117.650002        -3.93935943E-06
   117.839996        -7.42440852E-06
   118.029999        -1.14631894E-05
   118.220001        -1.58462262E-05
   118.410004        -2.02123847E-05
   118.599998        -2.40989848E-05
   118.790001        -2.70144064E-05
   118.980003        -2.85196402E-05
   119.169998        -2.83038025E-05
   119.360001        -2.62404737E-05
   119.550003        -2.24151336E-05
   119.739998        -1.71191423E-05
   119.930000        -1.08113936E-05
   120.120003        -4.05477704E-06
   120.309998         2.56085809E-06
   120.500000         8.49562093E-06
   120.690002         1.33236208E-05
   120.879997         1.67749622E-05
   121.070000         1.87508558E-05
   121.260002         1.93121468E-05
   121.449997         1.86460002E-05
   121.639999         1.70192616E-05
   121.830002         1.47282472E-05
   122.019997         1.20536233E-05
   122.209999         9.22595882E-06
   122.400002         6.40470262E-06
   122.589996         3.67160919E-06
   122.779999         1.03916602E-06
   122.970001        -1.52659379E-06
   123.160004        -4.07221842E-06
   123.349998        -6.61887998E-06
   123.540001        -9.12954420E-06
   123.730003        -1.14898166E-05
   123.919998        -1.35078672E-05
   124.110001        -1.49349162E-05
   124.300003        -1.55043490E-05
   124.489998        -1.49843181E-05
   124.680000        -1.32350569E-05
   124.870003        -1.02585855E-05
   125.059998        -6.22751486E-06
   125.250000        -1.48314962E-06
   125.440002         3.49940638E-06
   125.629997         8.17310229E-06
   125.820000         1.19958258E-05
   126.010002         1.45086215E-05
   126.199997         1.54024092E-05
   126.389999         1.45624845E-05
   126.580002         1.20829709E-05
   126.769997         8.24842118E-06
   126.959999         3.48638650E-06
   127.150002        -1.69856139E-06
   127.339996        -6.79568302E-06
   127.529999        -1.13513024E-05
   127.720001        -1.50161468E-05
   127.910004        -1.75725927E-05
   128.100006        -1.89400635E-05
   128.289993        -1.91586678E-05
   128.479996        -1.83543070E-05
   128.669998        -1.66928876E-05
   128.860001        -1.43352090E-05
   129.050003        -1.14041604E-05
   129.240005        -7.97205485E-06
   129.429993        -4.06986965E-06
   129.619995         2.85265685E-07
   129.809998         5.05154094E-06
   130.000000         1.01223422E-05
   130.190002         1.52951106E-05
   130.380005         2.02591982E-05
   130.570007         2.46092732E-05
   130.759995         2.78844273E-05
   130.949997         2.96263479E-05
   131.139999         2.94458350E-05
   131.330002         2.70867786E-05
   131.520004         2.24789783E-05
   131.710007         1.57732029E-05
   131.899994         7.35235608E-06
   132.089996        -2.18693140E-06
   132.279999        -1.20849345E-05
   132.470001        -2.14981810E-05
   132.660004        -2.95969276E-05
   132.850006        -3.56655000E-05
   133.039993        -3.91899121E-05
   133.229996        -3.99204182E-05
   133.419998        -3.79010999E-05
   133.610001        -3.34625583E-05
   133.800003        -2.71778717E-05
   133.990005        -1.97871086E-05
   134.179993        -1.21015919E-05
   134.369995        -4.90338834E-06
   134.559998         1.14432578E-06
   134.750000         5.56502891E-06
   134.940002         8.10993970E-06
   135.130005         8.77243383E-06
   135.320007         7.77706646E-06
   135.509995         5.54405142E-06
   135.699997         2.63092102E-06
   135.889999        -3.43262002E-07
   136.080002        -2.78104289E-06
   136.270004        -4.18448781E-06
   136.460007        -4.21705636E-06
   136.649994        -2.74289414E-06
   136.839996         1.59048497E-07
   137.029999         4.20674814E-06
   137.220001         8.95241374E-06
   137.410004         1.38425748E-05
   137.600006         1.82936583E-05
   137.789993         2.17709821E-05
   137.979996         2.38576831E-05
   138.169998         2.43027935E-05
   138.360001         2.30429232E-05
   138.550003         2.01967305E-05
   138.740005         1.60345608E-05
   138.929993         1.09281200E-05
   139.119995         5.28863302E-06
   139.309998        -4.94343396E-07
   139.500000        -6.10034522E-06
   139.690002        -1.13022943E-05
   139.880005        -1.59661104E-05
   140.070007        -2.00318827E-05
   140.259995        -2.34867748E-05
   140.449997        -2.63390266E-05
   140.639999        -2.85984315E-05
   140.830002        -3.02649496E-05
   141.020004        -3.13244309E-05
   141.210007        -3.17493577E-05
   141.399994        -3.15022880E-05
   141.589996        -3.05402573E-05
   141.779999        -2.88200608E-05
   141.970001        -2.63055590E-05
   142.160004        -2.29780253E-05
   142.350006        -1.88485556E-05
   142.539993        -1.39692011E-05
   142.729996        -8.43903399E-06
   142.919998        -2.40337658E-06
   143.110001         3.95250527E-06
   143.300003         1.04122219E-05
   143.490005         1.67370745E-05
   143.679993         2.26739721E-05
   143.869995         2.79626238E-05
   144.059998         3.23425265E-05
   144.250000         3.55607117E-05
   144.440002         3.73825569E-05
   144.630005         3.76086718E-05
   144.820007         3.60990052E-05
   145.009995         3.28007955E-05
   145.199997         2.77724521E-05
   145.389999         2.11949136E-05
   145.580002         1.33661533E-05
   145.770004         4.68089138E-06
   145.960007        -4.39891028E-06
   146.149994        -1.33778985E-05
   146.339996        -2.17640827E-05
   146.529999        -2.91081324E-05
   146.720001        -3.50423288E-05
   146.910004        -3.93122791E-05
   147.100006        -4.17931951E-05
   147.289993        -4.24862046E-05
   147.479996        -4.14970054E-05
   147.669998        -3.90042696E-05
   147.860001        -3.52265160E-05
   148.050003        -3.03935667E-05
   148.240005        -2.47260105E-05
   148.429993        -1.84247674E-05
   148.619995        -1.16724123E-05
   148.809998        -4.64588402E-06
   149.000000         2.46398099E-06
   149.190002         9.43513078E-06
   149.380005         1.60090985E-05
   149.570007         2.19034500E-05
   149.759995         2.68397998E-05
   149.949997         3.05788672E-05
   150.139999         3.29527575E-05
   150.330002         3.38877944E-05
   150.520004         3.34158540E-05
   150.710007         3.16742153E-05