  -4.50000000         0.00000000    
  -4.21500015        -7.37400057E-26
  -3.93000007        -3.31981186E-24
  -3.64499998        -1.89071105E-23
  -3.35999990        -1.49956147E-23
  -3.07500005         3.94043059E-23
  -2.78999996        -6.77737162E-23
  -2.50500011         1.23993798E-21
  -2.22000003         1.55161796E-20
  -1.93499994         7.15117156E-20
  -1.64999998         1.98672136E-19
  -1.36500001         3.77325984E-19
  -1.08000004         4.96530104E-19
 -0.795000017         3.94806973E-19
 -0.509999990         1.89336210E-21
 -0.224999994        -5.47113077E-19
   5.99999987E-02    -1.05412868E-18
  0.344999999        -1.79039439E-18
  0.629999995        -4.32685895E-18
  0.915000021        -1.24760012E-17
   1.20000005        -3.32500004E-17
   1.48500001        -7.76242433E-17
   1.76999998        -1.60307775E-16
   2.05500007        -2.97541234E-16
   2.33999991        -5.03841190E-16
   2.62500000        -7.92331454E-16
   2.91000009        -1.18404989E-15
   3.19499993        -1.72264002E-15
   3.48000002        -2.47214740E-15
   3.76500010        -3.46137939E-15
   4.05000019        -4.55082469E-15
   4.33500004        -5.24763338E-15
   4.61999989        -4.55989303E-15
   4.90500021        -1.01528397E-15
   5.19000006         7.07175526E-15
   5.47499990         2.11148915E-14
   5.76000023         4.17147565E-14
   6.04500008         6.82957448E-14
   6.32999992         9.91135613E-14
   6.61499977         1.31670635E-13
   6.90000010         1.63348908E-13
   7.18499994         1.91838773E-13
   7.46999979         2.14790805E-13
   7.75500011         2.28182219E-13
   8.03999996         2.23347396E-13
   8.32499981         1.83620412E-13
   8.60999966         8.30116547E-14
   8.89500046        -1.09156831E-13
   9.18000031        -4.13077125E-13
   9.46500015        -8.09516842E-13
   9.75000000        -1.19804275E-12
   10.0349998        -1.35034583E-12
   10.3199997        -8.74766459E-13
   10.6049995         7.85474713E-13
   10.8900003         4.29705013E-12
   11.1750002         1.03090635E-11
   11.4600000         1.92555798E-11
   11.7449999         3.11153082E-11
   12.0299997         4.51813933E-11
   12.3149996         5.99143304E-11
   12.6000004         7.29567101E-11
   12.8850002         8.13763362E-11
   13.1700001         8.21712073E-11
   13.4549999         7.30201871E-11
   13.7399998         5.32007390E-11
   14.0249996         2.45331030E-11
   14.3100004        -7.84251917E-12
   14.5950003        -3.50753905E-11
   14.8800001        -4.48115434E-11
   15.1650000        -2.21572552E-11
   15.4499998         4.85297982E-11
   15.7349997         1.81069784E-10
   16.0200005         3.84291710E-10
   16.3050003         6.58587129E-10
   16.5900002         9.92644411E-10
   16.8750000         1.36093692E-09
   17.1599998         1.72261283E-09
   17.4449997         2.02241446E-09
   17.7299995         2.19411911E-09
   18.0149994         2.16668261E-09
   18.2999992         1.87283167E-09
   18.5849991         1.25933064E-09
   18.8700008         2.97663061E-10
   19.1550007        -1.00644149E-09
   19.4400005        -2.60625099E-09
   19.7250004        -4.41139392E-09
   20.0100002        -6.29016927E-09
   20.2950001        -8.07693823E-09
   20.5799999        -9.58405710E-09
   20.8649998        -1.06172573E-08
   21.1499996        -1.09930065E-08
   21.4349995        -1.05562545E-08
   21.7199993        -9.19697918E-09
   22.0049992        -6.86415502E-09
   22.2900009        -3.57597685E-09
   22.5750008         5.74430892E-10
   22.8600006         5.41817835E-09
   23.1450005         1.07145821E-08
   23.4300003         1.61594418E-08
   23.7150002         2.13968505E-08
   24.0000000         2.60337281E-08
   24.2849998         2.96563822E-08
   24.5699997         3.18489484E-08
   24.8549995         3.22140110E-08
   25.1399994         3.03962011E-08
   25.4249992         2.61097117E-08
   25.7099991         1.91704590E-08
   25.9950008         9.53260670E-09
   26.2800007        -2.67209033E-09
   26.5650005        -1.70955730E-08
   26.8500004        -3.31404415E-08
   27.1350002        -4.99394233E-08
   27.4200001        -6.63546587E-08
   27.7049999        -8.10039680E-08
   27.9899998        -9.23196453E-08
   28.2749996        -9.86422961E-08
   28.5599995        -9.83482522E-08
   28.8449993        -9.00042565E-08
   29.1299992        -7.25384766E-08
   29.4150009        -4.54128681E-08
   29.7000008        -8.77897310E-09
   29.9850006         3.64013566E-08
   30.2700005         8.82882603E-08
   30.5550003         1.44163280E-07
   30.8400002         2.00505653E-07
   31.1250000         2.53148528E-07
   31.4099998         2.97511434E-07
   31.6949997         3.28898182E-07
   31.9799995         3.42842441E-07
   32.2649994         3.35477012E-07
   32.5499992         3.03899327E-07
   32.8349991         2.46502822E-07
   33.1199989         1.63243399E-07
   33.4049988         5.58138780E-08
   33.6899986        -7.22943767E-08
   33.9749985        -2.15855295E-07
   34.2599983        -3.68099137E-07
   34.5449982        -5.21021320E-07
   34.8300018        -6.65787695E-07
   35.1150017        -7.93210233E-07
   35.4000015        -8.94258619E-07
   35.6850014        -9.60576699E-07
   35.9700012        -9.84970825E-07
   36.2550011        -9.61847491E-07
   36.5400009        -8.87578835E-07
   36.8250008        -7.60781404E-07
   37.1100006        -5.82499354E-07
   37.3950005        -3.56283039E-07
   37.6800003        -8.81624374E-08
   37.9650002         2.13487439E-07
   38.2500000         5.38185304E-07
   38.5349998         8.73678403E-07
   38.8199997         1.20636400E-06
   39.1049995         1.52177950E-06
   39.3899994         1.80514724E-06
   39.6749992         2.04195157E-06
   39.9599991         2.21853179E-06
   40.2449989         2.32266939E-06
   40.5299988         2.34414870E-06
   40.8149986         2.27526607E-06
   41.0999985         2.11126667E-06
   41.3849983         1.85067495E-06
   41.6699982         1.49549442E-06
   41.9550018         1.05124263E-06
   42.2400017         5.26803547E-07
   42.5250015        -6.59188544E-08
   42.8100014        -7.12537656E-07
   43.0950012        -1.39688711E-06
   43.3800011        -2.10184749E-06
   43.6650009        -2.81023244E-06
   43.9500008        -3.50565620E-06
   44.2350006        -4.17332240E-06
   44.5200005        -4.80065955E-06
   44.8050003        -5.37777123E-06
   45.0900002        -5.89768752E-06
   45.3750000        -6.35641663E-06
   45.6599998        -6.75284036E-06
   45.9449997        -7.08849575E-06
   46.2299995        -7.36727861E-06
   46.5149994        -7.59513068E-06
   46.7999992        -7.77973219E-06
   47.0849991        -7.93022718E-06
   47.3699989        -8.05698164E-06
   47.6549988        -8.17136424E-06
   47.9399986        -8.28552766E-06
   48.2249985        -8.41217752E-06
   48.5099983        -8.56428960E-06
   48.7949982        -8.75477781E-06
   49.0800018        -8.99608222E-06
   49.3650017        -9.29970884E-06
   49.6500015        -9.67572851E-06
   49.9350014        -1.01322912E-05
   50.2200012        -1.06751822E-05
   50.5050011        -1.13074966E-05
   50.7900009        -1.20294499E-05
   51.0750008        -1.28383590E-05
   51.3600006        -1.37288071E-05
   51.6450005        -1.46929378E-05
   51.9300003        -1.57208706E-05
   52.2150002        -1.68011811E-05
   52.5000000        -1.79214130E-05
   52.7849998        -1.90685823E-05
   53.0699997        -2.02296305E-05
   53.3549995        -2.13918756E-05
   53.6399994        -2.25434087E-05
   53.9249992        -2.36734177E-05
   54.2099991        -2.47724511E-05
   54.4949989        -2.58325708E-05
   54.7799988        -2.68473959E-05
   55.0649986        -2.78120042E-05
   55.3499985        -2.87227031E-05
   55.6349983        -2.95766949E-05
   55.9199982        -3.03716297E-05
   56.2050018        -3.11051481E-05
   56.4900017        -3.17743761E-05
   56.7750015        -3.23754793E-05
   57.0600014        -3.29032737E-05
   57.3450012        -3.33509888E-05
   57.6300011        -3.37101483E-05
   57.9150009        -3.39706639E-05
   58.2000008        -3.41211162E-05
   58.4850006        -3.41492778E-05
   58.7700005        -3.40428160E-05
   59.0550003        -3.37901729E-05
   59.3400002        -3.33815879E-05
   59.6250000        -3.28101778E-05
   59.9099998        -3.20729523E-05
   60.1949997        -3.11717704E-05
   60.4799995        -3.01139917E-05
   60.7649994        -2.89128839E-05
   61.0499992        -2.75876191E-05
   61.3349991        -2.61628720E-05
   61.6199989        -2.46680556E-05
   61.9049988        -2.31362119E-05
   62.1899986        -2.16027111E-05
   62.4749985        -2.01038438E-05
   62.7599983        -1.86754514E-05
   63.0449982        -1.73516983E-05
   63.3300018        -1.61640928E-05
   63.6150017        -1.51408058E-05
   63.9000015        -1.43063371E-05
   64.1849976        -1.36814951E-05
   64.4700012        -1.32836549E-05
   64.7549973        -1.31272354E-05
   65.0400009        -1.32243085E-05
   65.3249969        -1.35852506E-05
   65.6100006        -1.42193594E-05
   65.8949966        -1.51353406E-05
   66.1800003        -1.63415552E-05
   66.4649963        -1.78459777E-05
   66.7500000        -1.96557885E-05
   67.0350037        -2.17766028E-05
   67.3199997        -2.42113401E-05
   67.6050034        -2.69588163E-05
   67.8899994        -3.00122010E-05
   68.1750031        -3.33574790E-05
   68.4599991        -3.69721674E-05
   68.7450027        -4.08243395E-05
   69.0299988        -4.48722676E-05
   69.3150024        -4.90647217E-05
   69.5999985        -5.33419225E-05
   69.8850021        -5.76372076E-05
   70.1699982        -6.18792837E-05
   70.4550018        -6.59947764E-05
   70.7399979        -6.99110897E-05
   71.0250015        -7.35589929E-05
   71.3099976        -7.68749014E-05
   71.5950012        -7.98026085E-05
   71.8799973        -8.22942529E-05
   72.1650009        -8.43106245E-05
   72.4499969        -8.58209241E-05
   72.7350006        -8.68019561E-05
   73.0199966        -8.72371456E-05
   73.3050003        -8.71155135E-05
   73.5899963        -8.64306421E-05
   73.8750000        -8.51799778E-05
   74.1600037        -8.33644444E-05
   74.4449997        -8.09884150E-05
   74.7300034        -7.80600385E-05
   75.0149994        -7.45919897E-05
   75.3000031        -7.06023202E-05
   75.5849991        -6.61153390E-05
   75.8700027        -6.11625583E-05
   76.1549988        -5.57831299E-05
   76.4400024        -5.00240203E-05
   76.7249985        -4.39394789E-05
   77.0100021        -3.75899835E-05
   77.2949982        -3.10404939E-05
   77.5800018        -2.43582090E-05
   77.8649979        -1.76099438E-05
   78.1500015        -1.08593476E-05
   78.4349976        -4.16430839E-06
   78.7200012         2.42522742E-06
   79.0049973         8.86868111E-06
   79.2900009         1.51353997E-05
   79.5749969         2.12041887E-05
   79.8600006         2.70619075E-05
   80.1449966         3.27013331E-05
   80.4300003         3.81186219E-05
   80.7149963         4.33106470E-05
   81.0000000         4.82727919E-05
   81.2850037         5.29973950E-05
   81.5699997         5.74731457E-05
   81.8550034         6.16854013E-05
   82.1399994         6.56174961E-05
   82.4250031         6.92526446E-05
   82.7099991         7.25761347E-05
   82.9950027         7.55776418E-05
   83.2799988         7.82530187E-05
   83.5650024         8.06055687E-05
   83.8499985         8.26464166E-05
   84.1350021         8.43940143E-05
   84.4199982         8.58727726E-05
   84.7050018         8.71109514E-05
   84.9899979         8.81381711E-05
   85.2750015         8.89827352E-05
   85.5599976         8.96692945E-05
   85.8450012         9.02169631E-05
   86.1299973         9.06382993E-05
   86.4150009         9.09391310E-05
   86.6999969         9.11193347E-05
   86.9850006         9.11744646E-05
   87.2699966         9.10978706E-05
   87.5550003         9.08831207E-05
   87.8399963         9.05263805E-05
   88.1250000         9.00283048E-05
   88.4100037         8.93954057E-05
   88.6949997         8.86403504E-05
   88.9800034         8.77816492E-05
   89.2649994         8.68423303E-05
   89.5500031         8.58481435E-05
   89.8349991         8.48252821E-05
   90.1200027         8.37981206E-05
   90.4049988         8.27870535E-05
   90.6900024         8.18067419E-05
   90.9749985         8.08649929E-05
   91.2600021         7.99621266E-05
   91.5449982         7.90911290E-05
   91.8300018         7.82381976E-05
   92.1149979         7.73838910E-05
   92.4000015         7.65047953E-05
   92.6849976         7.55754008E-05
   92.9700012         7.45704601E-05
   93.2549973         7.34673813E-05
   93.5400009         7.22485129E-05
   93.8249969         7.09030865E-05
   94.1100006         6.94285991E-05
   94.3949966         6.78312281E-05
   94.6800003         6.61254890E-05
   94.9649963         6.43326930E-05
   95.2500000         6.24787426E-05
   95.5350037         6.05913920E-05
   95.8199997         5.86972783E-05
   96.1050034         5.68191826E-05
   96.3899994         5.49738652E-05
   96.6750031         5.31706319E-05
   96.9599991         5.14107960E-05
   97.2450027         4.96879111E-05
   97.5299988         4.79889059E-05
   97.8150024         4.62956850E-05
   98.0999985         4.45872065E-05
   98.3850021         4.28417225E-05
   98.6699982         4.10389512E-05
   98.9550018         3.91620924E-05
   99.2399979         3.71993920E-05
   99.5250015         3.51452582E-05
   99.8099976         3.30008952E-05
   100.095001         3.07744231E-05
   100.379997         2.84805865E-05
   100.665001         2.61400437E-05
   100.949997         2.37781787E-05
   101.235001         2.14235879E-05
   101.519997         1.91062936E-05
   101.805000         1.68557508E-05
   102.089996         1.46987513E-05
   102.375000         1.26573996E-05
   102.660004         1.07472752E-05
   102.945000         8.97594691E-06
   103.230003         7.34188870E-06
   103.514999         5.83396513E-06
   103.800003         4.43161662E-06
   104.084999         3.10579367E-06
   104.370003         1.82067163E-06
   104.654999         5.36150992E-07
   104.940002        -7.89052251E-07
   105.224998        -2.19386288E-06
   105.510002        -3.71124474E-06
   105.794998        -5.36484959E-06
   106.080002        -7.16629711E-06
   106.364998        -9.11335428E-06
   106.650002        -1.11893369E-05
   106.934998        -1.33638341E-05
   107.220001        -1.55947455E-05
   107.504997        -1.78314294E-05
   107.790001        -2.00186769E-05
   108.074997        -2.21011778E-05
   108.360001        -2.40280242E-05
   108.644997        -2.57567463E-05
   108.930000        -2.72565521E-05
   109.214996        -2.85104943E-05
   109.500000        -2.95163718E-05
   109.785004        -3.02862809E-05
   110.070000        -3.08448834E-05
   110.355003        -3.12266311E-05
   110.639999        -3.14722456E-05
   110.925003        -3.16247606E-05
   111.209999        -3.17255108E-05
   111.495003        -3.18104285E-05
   111.779999        -3.19069877E-05
   112.065002        -3.20318359E-05
   112.349998        -3.21893967E-05
   112.635002        -3.23712520E-05
   112.919998        -3.25564943E-05
   113.205002        -3.27128291E-05
   113.489998        -3.27982671E-05
   113.775002        -3.27633861E-05
   114.059998        -3.25539113E-05
   114.345001        -3.21135885E-05
   114.629997        -3.13871133E-05
   114.915001        -3.03229117E-05
   115.199997        -2.88758183E-05
   115.485001        -2.70094497E-05
   115.769997        -2.46984127E-05
   116.055000        -2.19301801E-05
   116.339996        -1.87068017E-05
   116.625000        -1.50464139E-05
   116.910004        -1.09844559E-05
   117.195000        -6.57444343E-06
   117.480003        -1.88809656E-06
   117.764999         2.98534428E-06
   118.050003         7.94084372E-06
   118.334999         1.28604206E-05
   118.620003         1.76171379E-05
   118.904999         2.20799611E-05
   119.190002         2.61192981E-05
   119.474998         2.96128346E-05
   119.760002         3.24512803E-05
   120.044998         3.45435619E-05
   120.330002         3.58211328E-05
   120.614998         3.62410246E-05
   120.900002         3.57876670E-05
   121.184998         3.44733126E-05
   121.470001         3.23372515E-05
   121.754997         2.94440451E-05
   122.040001         2.58810778E-05
   122.324997         2.17556335E-05
   122.610001         1.71915908E-05
   122.894997         1.23257141E-05
   123.180000         7.30358806E-06
   123.464996         2.27512896E-06
   123.750000        -2.61033188E-06
   124.035004        -7.20931348E-06
   124.320000        -1.13895239E-05
   124.605003        -1.50350352E-05
   124.889999        -1.80510033E-05
   125.175003        -2.03676082E-05
   125.459999        -2.19428985E-05
   125.745003        -2.27642631E-05
   126.029999        -2.28483768E-05
   126.315002        -2.22395647E-05
   126.599998        -2.10065937E-05
   126.885002        -1.92380921E-05
   127.169998        -1.70369058E-05
   127.455002        -1.45138574E-05
   127.739998        -1.17813888E-05
   128.024994        -8.94750065E-06
   128.309998        -6.11050109E-06
   128.595001        -3.35501545E-06
   128.880005        -7.49573076E-07
   129.164993         1.65410245E-06
   129.449997         3.82013832E-06
   129.735001         5.72612453E-06
   130.020004         7.35972708E-06
   130.304993         8.71493830E-06
   130.589996         9.78859862E-06
   130.875000         1.05777081E-05
   131.160004         1.10778183E-05
   131.445007         1.12826110E-05
   131.729996         1.11845729E-05
   132.014999         1.07764026E-05
   132.300003         1.00527286E-05
   132.585007         9.01175099E-06
   132.869995         7.65648019E-06
   133.154999         5.99542045E-06
   133.440002         4.04268485E-06
   133.725006         1.81773055E-06
   134.009995        -6.54971302E-07
   134.294998        -3.34599281E-06
   134.580002        -6.22055450E-06
   134.865005        -9.23761309E-06
   135.149994        -1.23485388E-05
   135.434998        -1.54956469E-05
   135.720001        -1.86109301E-05
   136.005005        -2.16154149E-05
   136.289993        -2.44194744E-05
   136.574997        -2.69243046E-05
   136.860001        -2.90247062E-05
   137.145004        -3.06133043E-05
   137.429993        -3.15860598E-05
   137.714996        -3.18489401E-05
   138.000000        -3.13252021E-05
   138.285004        -2.99628482E-05
   138.570007        -2.77414347E-05
   138.854996        -2.46774325E-05
   139.139999        -2.08273395E-05
   139.425003        -1.62879169E-05
   139.710007        -1.11933286E-05
   139.994995        -5.70909560E-06
   140.279999        -2.33373019E-08
   140.565002         5.66401559E-06
   140.850006         1.11529862E-05
   141.134995         1.62552406E-05
   141.419998         2.08046386E-05
   141.705002         2.46657601E-05
   141.990005         2.77396284E-05
   142.274994         2.99663061E-05
   142.559998         3.13243436E-05
   142.845001         3.18273269E-05
   143.130005         3.15181533E-05
   143.414993         3.04617424E-05
   143.699997         2.87371458E-05
   143.985001         2.64300434E-05
   144.270004         2.36264386E-05
   144.554993         2.04081880E-05
   144.839996         1.68507631E-05
   145.125000         1.30233911E-05
   145.410004         8.99123552E-06
   145.695007         4.81914412E-06
   145.979996         5.76093271E-07
   146.264999        -3.66054292E-06
   146.550003        -7.80184291E-06
   146.835007        -1.17461695E-05
   147.119995        -1.53805086E-05
   147.404999        -1.85844838E-05
   147.690002        -2.12367759E-05
   147.975006        -2.32234579E-05
   148.259995        -2.44472885E-05
   148.544998        -2.48369779E-05
   148.830002        -2.43552822E-05
   149.115005        -2.30050027E-05
   149.399994        -2.08321744E-05
   149.684998        -1.79260041E-05
   149.970001        -1.44154192E-05
   150.255005        -1.04624887E-05
   150.539993        -6.25328448E-06
   150.824997        -1.98696557E-06
   151.110001         2.13597104E-06
   151.395004         5.92534388E-06
   151.679993         9.21181618E-06
   151.964996         1.18554644E-05
   152.250000         1.37517891E-05
   152.535004         1.48348772E-05
   152.820007         1.50776759E-05
   153.104996         1.44897595E-05
   153.389999         1.31131819E-05
   153.675003         1.10172186E-05
   153.960007         8.29272176E-06
   154.244995         5.04669651E-06
   154.529999         1.39745862E-06
   154.815002        -2.52942209E-06
   155.100006        -6.60452179E-06
   155.384995        -1.06974621E-05
   155.669998        -1.46794882E-05
   155.955002        -1.84258552E-05
   156.240005        -2.18180612E-05
   156.524994        -2.47460139E-05
   156.809998        -2.71102526E-05
   157.095001        -2.88242063E-05
   157.380005        -2.98166597E-05
   157.664993        -3.00344509E-05
   157.949997        -2.94453948E-05
   158.235001        -2.80412314E-05
   158.520004        -2.58401997E-05
   158.804993        -2.28888493E-05
   159.089996        -1.92626376E-05
   159.375000        -1.50648975E-05
   159.660004        -1.04238743E-05
   159.945007        -5.48778689E-06
   160.229996        -4.18093919E-07
   160.514999         4.61857235E-06
   160.800003         9.45922329E-06
   161.085007         1.39533286E-05
   161.369995         1.79708459E-05
   161.654999         2.14087122E-05
   161.940002         2.41952894E-05
   162.225006         2.62924805E-05
   162.509995         2.76953488E-05
   162.794998         2.84294783E-05
   163.080002         2.85463702E-05
   163.365005         2.81174798E-05
   163.649994         2.72275429E-05
   163.934998         2.59677345E-05
   164.220001         2.44292896E-05
   164.505005         2.26981429E-05
   164.789993         2.08508900E-05
   165.074997         1.89522198E-05
   165.360001         1.70538224E-05
   165.645004         1.51946451E-05
   165.929993         1.34021975E-05
   166.214996         1.16945694E-05
