  -4.50000000         0.00000000    
  -4.21500015         5.33341154E-26
  -3.93000007         2.25104082E-24
  -3.64499998         9.59321914E-24
  -3.35999990        -2.84045241E-23
  -3.07500005        -2.33714849E-22
  -2.78999996        -5.65127482E-22
  -2.50500011        -1.32404252E-21
  -2.22000003        -5.26644732E-21
  -1.93499994        -1.52908634E-20
  -1.64999998        -1.85790162E-20
  -1.36500001         2.96847528E-20
  -1.08000004         1.78808828E-19
 -0.795000017         3.96620567E-19
 -0.509999990         5.34594474E-19
 -0.224999994         5.57527901E-19
   5.99999987E-02     1.13343772E-18
  0.344999999         4.33125004E-18
  0.629999995         1.39061651E-17
  0.915000021         3.48071017E-17
   1.20000005         7.21897991E-17
   1.48500001         1.31147792E-16
   1.76999998         2.18835343E-16
   2.05500007         3.48978395E-16
   2.33999991         5.43565659E-16
   2.62500000         8.20246007E-16
   2.91000009         1.15421389E-15
   3.19499993         1.41616455E-15
   3.48000002         1.30679640E-15
   3.76500010         3.15338534E-16
   4.05000019        -2.28663744E-15
   4.33500004        -7.42999344E-15
   4.61999989        -1.62276791E-14
   4.90500021        -2.99301464E-14
   5.19000006        -4.97872346E-14
   5.47499990        -7.67265686E-14
   5.76000023        -1.10794423E-13
   6.04500008        -1.50396270E-13
   6.32999992        -1.91504026E-13
   6.61499977        -2.27165780E-13
   6.90000010        -2.47883989E-13
   7.18499994        -2.43679913E-13
   7.46999979        -2.08792063E-13
   7.75500011        -1.49640242E-13
   8.03999996        -9.55870108E-14
   8.32499981        -1.09966506E-13
   8.60999966        -2.96128004E-13
   8.89500046        -7.90680455E-13
   9.18000031        -1.73520020E-12
   9.46500015        -3.21985776E-12
   9.75000000        -5.19894804E-12
   10.0349998        -7.38932613E-12
   10.3199997        -9.17657183E-12
   10.6049995        -9.56704247E-12
   10.8900003        -7.23160464E-12
   11.1750002        -6.82763796E-13
   11.4600000         1.13930367E-11
   11.7449999         2.96642502E-11
   12.0299997         5.36107998E-11
   12.3149996         8.10280940E-11
   12.6000004         1.07739435E-10
   12.8850002         1.27690983E-10
   13.1700001         1.33571168E-10
   13.4549999         1.18016846E-10
   13.7399998         7.53440088E-11
   14.0249996         3.58895639E-12
   14.3100004        -9.34965647E-11
   14.5950003        -2.04954886E-10
   14.8800001        -3.12118081E-10
   15.1650000        -3.89494659E-10
   15.4499998        -4.07273215E-10
   15.7349997        -3.35411754E-10
   16.0200005        -1.48969739E-10
   16.3050003         1.65962827E-10
   16.5900002         6.06644179E-10
   16.8750000         1.14941046E-09
   17.1599998         1.74777837E-09
   17.4449997         2.33375652E-09
   17.7299995         2.82281931E-09
   18.0149994         3.12245696E-09
   18.2999992         3.14362092E-09
   18.5849991         2.81378787E-09
   18.8700008         2.08991646E-09
   19.1550007         9.69347824E-10
   19.4400005        -5.03197761E-10
   19.7250004        -2.23398744E-09
   20.0100002        -4.08475342E-09
   20.2950001        -5.88314819E-09
   20.5799999        -7.43816742E-09
   20.8649998        -8.55876880E-09
   21.1499996        -9.07346465E-09
   21.4349995        -8.84849793E-09
   21.7199993        -7.80253639E-09
   22.0049992        -5.91640870E-09
   22.2900009        -3.23710547E-09
   22.5750008         1.23784136E-10
   22.8600006         3.99646449E-09
   23.1450005         8.16295298E-09
   23.4300003         1.23692914E-08
   23.7150002         1.63385359E-08
   24.0000000         1.97835313E-08
   24.2849998         2.24186856E-08
   24.5699997         2.39706690E-08
   24.8549995         2.41879707E-08
   25.1399994         2.28500827E-08
   25.4249992         1.97772838E-08
   25.7099991         1.48420547E-08
   25.9950008         7.98337663E-09
   26.2800007        -7.75472297E-10
   26.5650005        -1.13056915E-08
   26.8500004        -2.33492958E-08
   27.1350002        -3.64955959E-08
   27.4200001        -5.01619617E-08
   27.7049999        -6.35839683E-08
   27.9899998        -7.58205516E-08
   28.2749996        -8.57791207E-08
   28.5599995        -9.22645853E-08
   28.8449993        -9.40534477E-08
   29.1299992        -8.99906567E-08
   29.4150009        -7.91033870E-08
   29.7000008        -6.07227335E-08
   29.9850006        -3.46016549E-08
   30.2700005        -1.01566511E-09
   30.5550003         3.91667427E-08
   30.8400002         8.44561896E-08
   31.1250000         1.32765308E-07
   31.4099998         1.81486698E-07
   31.6949997         2.27625321E-07
   31.9799995         2.67978891E-07
   32.2649994         2.99353644E-07
   32.5499992         3.18798698E-07
   32.8349991         3.23838947E-07
   33.1199989         3.12684620E-07
   33.4049988         2.84395242E-07
   33.6899986         2.38981443E-07
   33.9749985         1.77433009E-07
   34.2599983         1.01668434E-07
   34.5449982         1.44122829E-08
   34.8300018        -8.09846981E-08
   35.1150017        -1.80762285E-07
   35.4000015        -2.80975371E-07
   35.6850014        -3.77699678E-07
   35.9700012        -4.67195321E-07
   36.2550011        -5.46018669E-07
   36.5400009        -6.11075279E-07
   36.8250008        -6.59624391E-07
   37.1100006        -6.89257831E-07
   37.3950005        -6.97881546E-07
   37.6800003        -6.83718554E-07
   37.9650002        -6.45356124E-07
   38.2500000        -5.81846962E-07
   38.5349998        -4.92859499E-07
   38.8199997        -3.78857976E-07
   39.1049995        -2.41279622E-07
   39.3899994        -8.26890627E-08
   39.6749992         9.31183166E-08
   39.9599991         2.81083601E-07
   40.2449989         4.74940265E-07
   40.5299988         6.67341624E-07
   40.8149986         8.50054050E-07
   41.0999985         1.01421267E-06
   41.3849983         1.15062210E-06
   41.6699982         1.25008853E-06
   41.9550018         1.30377430E-06
   42.2400017         1.30356841E-06
   42.5250015         1.24246537E-06
   42.8100014         1.11493171E-06
   43.0950012         9.17231830E-07
   43.3800011         6.47693412E-07
   43.6650009         3.06893241E-07
   43.9500008        -1.02269027E-07
   44.2350006        -5.74624266E-07
   44.5200005        -1.10291171E-06
   44.8050003        -1.67805058E-06
   45.0900002        -2.28950421E-06
   45.3750000        -2.92568234E-06
   45.6599998        -3.57437102E-06
   45.9449997        -4.22314088E-06
   46.2299995        -4.85970122E-06
   46.5149994        -5.47220861E-06
   46.7999992        -6.04954630E-06
   47.0849991        -6.58154886E-06
   47.3699989        -7.05918046E-06
   47.6549988        -7.47469448E-06
   47.9399986        -7.82177267E-06
   48.2249985        -8.09563244E-06
   48.5099983        -8.29309647E-06
   48.7949982        -8.41259225E-06
   49.0800018        -8.45408067E-06
   49.3650017        -8.41893507E-06
   49.6500015        -8.30973386E-06
   49.9350014        -8.13003408E-06
   50.2200012        -7.88408306E-06
   50.5050011        -7.57655835E-06
   50.7900009        -7.21240622E-06
   51.0750008        -6.79674713E-06
   51.3600006        -6.33489026E-06
   51.6450005        -5.83245492E-06
   51.9300003        -5.29560521E-06
   52.2150002        -4.73137516E-06
   52.5000000        -4.14796932E-06
   52.7849998        -3.55498923E-06
   53.0699997        -2.96357780E-06
   53.3549995        -2.38643588E-06
   53.6399994        -1.83760267E-06
   53.9249992        -1.33192293E-06
   54.2099991        -8.84421354E-07
   54.4949989        -5.09482106E-07
   54.7799988        -2.19870145E-07
   55.0649986        -2.56086548E-08
   55.3499985         6.70128912E-08
   55.6349983         5.63205020E-08
   55.9199982        -5.41444365E-08
   56.2050018        -2.55300620E-07
   56.4900017        -5.32601348E-07
   56.7750015        -8.66655228E-07
   57.0600014        -1.23424911E-06
   57.3450012        -1.60984780E-06
   57.6300011        -1.96720976E-06
   57.9150009        -2.28109411E-06
   58.2000008        -2.52900031E-06
   58.4850006        -2.69266548E-06
   58.7700005        -2.75894627E-06
   59.0550003        -2.72010175E-06
   59.3400002        -2.57376519E-06
   59.6250000        -2.32240654E-06
   59.9099998        -1.97229338E-06
   60.1949997        -1.53224619E-06
   60.4799995        -1.01251908E-06
   60.7649994        -4.23980651E-07
   61.0499992         2.22605976E-07
   61.3349991         9.16864963E-07
   61.6199989         1.64874655E-06
   61.9049988         2.40806753E-06
   62.1899986         3.18392790E-06
   62.4749985         3.96413952E-06
   62.7599983         4.73479849E-06
   63.0449982         5.47989021E-06
   63.3300018         6.18109152E-06
   63.6150017         6.81795927E-06
   63.9000015         7.36844595E-06
   64.1849976         7.80953451E-06
   64.4700012         8.11795053E-06
   64.7549973         8.27119857E-06
   65.0400009         8.24880499E-06
   65.3249969         8.03352850E-06
   65.6100006         7.61245792E-06
   65.8949966         6.97801715E-06
   66.1800003         6.12894110E-06
   66.4649963         5.07081904E-06
   66.7500000         3.81615882E-06
   67.0350037         2.38397502E-06
   67.3199997         7.98962560E-07
   67.6050034        -9.09733615E-07
   67.8899994        -2.71001250E-06
   68.1750031        -4.56864973E-06
   68.4599991        -6.45287219E-06
   68.7450027        -8.33175818E-06
   69.0299988        -1.01770847E-05
   69.3150024        -1.19637689E-05
   69.5999985        -1.36697336E-05
   69.8850021        -1.52752618E-05
   70.1699982        -1.67618655E-05
   70.4550018        -1.81113264E-05
   70.7399979        -1.93048581E-05
   71.0250015        -2.03221425E-05
   71.3099976        -2.11411880E-05
   71.5950012        -2.17385132E-05
   71.8799973        -2.20898110E-05
   72.1650009        -2.21707560E-05
   72.4499969        -2.19577832E-05
   72.7350006        -2.14292941E-05
   73.0199966        -2.05665565E-05
   73.3050003        -1.93544165E-05
   73.5899963        -1.77820912E-05
   73.8750000        -1.58441799E-05
   74.1600037        -1.35417367E-05
   74.4449997        -1.08832519E-05
   74.7300034        -7.88596390E-06
   75.0149994        -4.57706483E-06
   75.3000031        -9.94622496E-07
   75.5849991         2.81224266E-06
   75.8700027         6.78358265E-06
   76.1549988         1.08497716E-05
   76.4400024         1.49332855E-05
   76.7249985         1.89514958E-05
   77.0100021         2.28198332E-05
   77.2949982         2.64551381E-05
   77.5800018         2.97791248E-05
   77.8649979         3.27216003E-05
   78.1500015         3.52235038E-05
   78.4349976         3.72391914E-05
   78.7200012         3.87380496E-05
   79.0049973         3.97053154E-05
   79.2900009         4.01421021E-05
   79.5749969         4.00647368E-05
   79.8600006         3.95028910E-05
   80.1449966         3.84968334E-05
   80.4300003         3.70942689E-05
   80.7149963         3.53469441E-05
   81.0000000         3.33070093E-05
   81.2850037         3.10235810E-05
   81.5699997         2.85400329E-05
   81.8550034         2.58925647E-05
   82.1399994         2.31096164E-05
   82.4250031         2.02121082E-05
   82.7099991         1.72145901E-05
   82.9950027         1.41271239E-05
   83.2799988         1.09573994E-05
   83.5650024         7.71243685E-06
   83.8499985         4.40001895E-06
   84.1350021         1.02955141E-06
   84.4199982        -2.38705115E-06
   84.7050018        -5.83548808E-06
   84.9899979        -9.29949147E-06
   85.2750015        -1.27611911E-05
   85.5599976        -1.62012602E-05
   85.8450012        -1.95991288E-05
   86.1299973        -2.29335546E-05
   86.4150009        -2.61822624E-05
   86.6999969        -2.93216999E-05
   86.9850006        -3.23264394E-05
   87.2699966        -3.51687268E-05
   87.5550003        -3.78180157E-05
   87.8399963        -4.02408041E-05
   88.1250000        -4.24002210E-05
   88.4100037        -4.42566561E-05
   88.6949997        -4.57696660E-05
   88.9800034        -4.69001352E-05
   89.2649994        -4.76130335E-05
   89.5500031        -4.78809707E-05
   89.8349991        -4.76878231E-05
   90.1200027        -4.70323321E-05
   90.4049988        -4.59298899E-05
   90.6900024        -4.44128345E-05
   90.9749985        -4.25300750E-05
   91.2600021        -4.03439517E-05
   91.5449982        -3.79262128E-05
   91.8300018        -3.53523174E-05
   92.1149979        -3.26965601E-05
   92.4000015        -3.00277497E-05
   92.6849976        -2.74055965E-05
   92.9700012        -2.48787292E-05
   93.2549973        -2.24846572E-05
   93.5400009        -2.02509582E-05
   93.8249969        -1.81974447E-05
   94.1100006        -1.63383211E-05
   94.3949966        -1.46838402E-05
   94.6800003        -1.32419445E-05
   94.9649963        -1.20187360E-05
   95.2500000        -1.10182873E-05
   95.5350037        -1.02413187E-05
   95.8199997        -9.68419226E-06
   96.1050034        -9.33792580E-06
   96.3899994        -9.18722981E-06
   96.6750031        -9.20981347E-06
   96.9599991        -9.37627556E-06
   97.2450027        -9.65096842E-06
   97.5299988        -9.99316308E-06
   97.8150024        -1.03581515E-05
   98.0999985        -1.06989928E-05
   98.3850021        -1.09687116E-05
   98.6699982        -1.11225254E-05
   98.9550018        -1.11194595E-05
   99.2399979        -1.09237753E-05
   99.5250015        -1.05062791E-05
   99.8099976        -9.84512280E-06
   100.095001        -8.92564731E-06
   100.379997        -7.73976262E-06
   100.665001        -6.28529233E-06
   100.949997        -4.56531870E-06
   101.235001        -2.58724117E-06
   101.519997        -3.61929864E-07
   101.805000         2.09676114E-06
   102.089996         4.77190633E-06
   102.375000         7.64347533E-06
   102.660004         1.06885382E-05
   102.945000         1.38813093E-05
   103.230003         1.71930878E-05
   103.514999         2.05922333E-05
   103.800003         2.40443569E-05
   104.084999         2.75123184E-05
   104.370003         3.09559036E-05
   104.654999         3.43311658E-05
   104.940002         3.75901400E-05
   105.224998         4.06809777E-05
   105.510002         4.35485599E-05
   105.794998         4.61357777E-05
   106.080002         4.83860204E-05
   106.364998         5.02468320E-05
   106.650002         5.16739674E-05
   106.934998         5.26352487E-05
   107.220001         5.31138612E-05
   107.504997         5.31105507E-05
   107.790001         5.26442818E-05
   108.074997         5.17506087E-05
   108.360001         5.04780437E-05
   108.644997         4.88833684E-05
   108.930000         4.70263258E-05
   109.214996         4.49641484E-05
   109.500000         4.27465602E-05
   109.785004         4.04122584E-05
   110.070000         3.79873163E-05
   110.355003         3.54854892E-05
   110.639999         3.29097711E-05
   110.925003         3.02552235E-05
   111.209999         2.75130515E-05
   111.495003         2.46747386E-05
   111.779999         2.17355901E-05
   112.065002         1.86974794E-05
   112.349998         1.55708531E-05
   112.635002         1.23759119E-05
   112.919998         9.14245447E-06
   113.205002         5.90862601E-06
   113.489998         2.71943100E-06
   113.775002        -3.74963122E-07
   114.059998        -3.32150671E-06
   114.345001        -6.06695039E-06
   114.629997        -8.56022143E-06
   114.915001        -1.07544511E-05
   115.199997        -1.26088617E-05
   115.485001        -1.40906832E-05
   115.769997        -1.51768063E-05
   116.055000        -1.58544572E-05
   116.339996        -1.61214066E-05
   116.625000        -1.59865122E-05
   116.910004        -1.54698555E-05
   117.195000        -1.46023831E-05
   117.480003        -1.34252032E-05
   117.764999        -1.19889492E-05
   118.050003        -1.03530510E-05
   118.334999        -8.58405383E-06
   118.620003        -6.75299270E-06
   118.904999        -4.93219159E-06
   119.190002        -3.19189849E-06
   119.474998        -1.59608214E-06
   119.760002        -1.97906417E-07
   120.044998         9.64090646E-07
   120.330002         1.86848285E-06
   120.614998         2.51202096E-06
   120.900002         2.90942921E-06
   121.184998         3.09132906E-06
   121.470001         3.10027258E-06
   121.754997         2.98565737E-06
   122.040001         2.79841788E-06
   122.324997         2.58593195E-06
   122.610001         2.38741177E-06
   122.894997         2.23007055E-06
   123.180000         2.12685018E-06
   123.464996         2.07602238E-06
   123.750000         2.06202981E-06
   124.035004         2.05718743E-06
   124.320000         2.02465321E-06
   124.605003         1.92272432E-06
   124.889999         1.70965779E-06
   125.175003         1.34838660E-06
   125.459999         8.11015354E-07
   125.745003         8.31642453E-08
   126.029999        -8.32669400E-07
   126.315002        -1.91585104E-06
   126.599998        -3.12835004E-06
   126.885002        -4.41708607E-06
   127.169998        -5.71781084E-06
   127.455002        -6.96062079E-06
   127.739998        -8.07639390E-06
   128.024994        -9.00300256E-06
   128.309998        -9.69017128E-06
   128.595001        -1.01031565E-05
   128.880005        -1.02252488E-05
   129.164993        -1.00584348E-05
   129.449997        -9.62188278E-06
   129.735001        -8.94910590E-06
   130.020004        -8.08452205E-06
   130.304993        -7.07961317E-06
   130.589996        -5.98837732E-06
   130.875000        -4.86275940E-06
   131.160004        -3.74893239E-06
   131.445007        -2.68475901E-06
   131.729996        -1.69792941E-06
   132.014999        -8.05205275E-07
   132.300003        -1.32930946E-08
   132.585007         6.78726394E-07
   132.869995         1.27612986E-06
   133.154999         1.78524022E-06
   133.440002         2.21030882E-06
   133.725006         2.55071950E-06
   134.009995         2.79947153E-06
   134.294998         2.94368056E-06
   134.580002         2.96665803E-06
   134.865005         2.85068381E-06
   135.149994         2.58015689E-06
   135.434998         2.14522970E-06
   135.720001         1.54527436E-06
   136.005005         7.90952413E-07
   136.289993        -9.55483728E-08
   136.574997        -1.08115523E-06
   136.860001        -2.12315626E-06
   137.145004        -3.17164586E-06
   137.429993        -4.17318506E-06
   137.714996        -5.07484037E-06
   138.000000        -5.82777511E-06
   138.285004        -6.39060727E-06
   138.570007        -6.73296199E-06
   138.854996        -6.83871940E-06
   139.139999        -6.70764621E-06
   139.425003        -6.35536753E-06
   139.710007        -5.81259064E-06
   139.994995        -5.12336783E-06
   140.279999        -4.34187041E-06
   140.565002        -3.52782627E-06
   140.850006        -2.74195190E-06
   141.134995        -2.04210983E-06
   141.419998        -1.47965466E-06
   141.705002        -1.09577002E-06
   141.990005        -9.18652859E-07
   142.274994        -9.62001650E-07
   142.559998        -1.22407585E-06
   142.845001        -1.68686404E-06
   143.130005        -2.31584363E-06
   143.414993        -3.06125912E-06
   143.699997        -3.86078000E-06
   143.985001        -4.64291770E-06
   144.270004        -5.33127240E-06
   144.554993        -5.85029829E-06
   144.839996        -6.13209113E-06
   145.125000        -6.12262875E-06
   145.410004        -5.78671506E-06
   145.695007        -5.11161170E-06
   145.979996        -4.10933762E-06
   146.264999        -2.81659027E-06
   146.550003        -1.29171917E-06
   146.835007         3.90101917E-07
   147.119995         2.14228976E-06
   147.404999         3.87296268E-06
   147.690002         5.49172955E-06
   147.975006         6.91620926E-06
   148.259995         8.07698052E-06
   148.544998         8.92082790E-06
   148.830002         9.41314192E-06
   149.115005         9.53943618E-06
   149.399994         9.30499573E-06
   149.684998         8.73272347E-06
   149.970001         7.86035343E-06
   150.255005         6.73761133E-06
   150.539993         5.42286398E-06
   150.824997         3.97894837E-06
   151.110001         2.46916397E-06
   151.395004         9.54441020E-07
   151.679993        -5.09041172E-07
   151.964996        -1.87256251E-06
   152.250000        -3.09748611E-06
   152.535004        -4.15720797E-06
   152.820007        -5.03850151E-06
   153.104996        -5.74315345E-06
   153.389999        -6.28948146E-06
   153.675003        -6.71228236E-06
   153.960007        -7.06064839E-06
   154.244995        -7.39452889E-06
   154.529999        -7.78016147E-06
   154.815002        -8.28390239E-06
   155.100006        -8.96475103E-06
   155.384995        -9.86752093E-06
   155.669998        -1.10179571E-05
   155.955002        -1.24200569E-05
   156.240005        -1.40551383E-05
   156.524994        -1.58832663E-05
   156.809998        -1.78475402E-05
   157.095001        -1.98798807E-05
   157.380005        -2.19063022E-05
   157.664993        -2.38513203E-05
   157.949997        -2.56417025E-05
   158.235001        -2.72095349E-05
   158.520004        -2.84932303E-05
   158.804993        -2.94370238E-05
   159.089996        -2.99904295E-05
   159.375000        -3.01086184E-05
   159.660004        -2.97531533E-05
   159.945007        -2.88928059E-05
   160.229996        -2.75054317E-05
   160.514999        -2.55813466E-05
   160.800003        -2.31270333E-05
   161.085007        -2.01677121E-05
   161.369995        -1.67487160E-05
   161.654999        -1.29361251E-05
   161.940002        -8.81602227E-06
   162.225006        -4.49115851E-06
   162.509995        -7.52527214E-08
   162.794998         4.31346143E-06
   163.080002         8.55862800E-06
   163.365005         1.25526449E-05
   163.649994         1.62033575E-05
   163.934998         1.94390814E-05
   164.220001         2.22109120E-05
   164.505005         2.44930470E-05
   164.789993         2.62817412E-05
   165.074997         2.75925140E-05
   165.360001         2.84551497E-05
   165.645004         2.89076761E-05
   165.929993         2.89909713E-05
   166.214996         2.87443800E-05
