  -4.50000000       0.00000000    
  -4.21500015      -2.38515145E-26
  -3.93000007      -1.16372692E-24
  -3.64499998      -6.42318751E-24
  -3.35999990       8.30224985E-24
  -3.07500005       1.32317457E-22
  -2.78999996       4.57986035E-22
  -2.50500011       1.49570017E-21
  -2.22000003       5.74409929E-21
  -1.93499994       1.67620800E-20
  -1.64999998       2.77606822E-20
  -1.36500001      -1.28680718E-21
  -1.08000004      -1.55911797E-19
 -0.795000017      -5.17332817E-19
 -0.509999990      -1.03862804E-18
 -0.224999994      -1.52863329E-18
   5.99999987E-02  -2.02042235E-18
  0.344999999      -3.28038200E-18
  0.629999995      -6.42375560E-18
  0.915000021      -1.11368479E-17
   1.20000005      -1.43613162E-17
   1.48500001      -1.26171248E-17
   1.76999998      -7.95408109E-18
   2.05500007      -1.16037682E-17
   2.33999991      -3.82859388E-17
   2.62500000      -9.27549782E-17
   2.91000009      -1.62603538E-16
   3.19499993      -2.33873076E-16
   3.48000002      -3.30842731E-16
   3.76500010      -5.56391167E-16
   4.05000019      -1.09339470E-15
   4.33500004      -2.13645956E-15
   4.61999989      -3.76062469E-15
   4.90500021      -5.78738395E-15
   5.19000006      -7.74752831E-15
   5.47499990      -9.02021818E-15
   5.76000023      -9.11941844E-15
   6.04500008      -7.92538490E-15
   6.32999992      -5.51303337E-15
   6.61499977      -1.23980784E-15
   6.90000010       7.97836173E-15
   7.18499994       2.97617494E-14
   7.46999979       7.76774749E-14
   7.75500011       1.70449605E-13
   8.03999996       3.27375415E-13
   8.32499981       5.58852172E-13
   8.60999966       8.52144310E-13
   8.89500046       1.15460105E-12
   9.18000031       1.35938255E-12
   9.46500015       1.30164098E-12
   9.75000000       7.74543841E-13
   10.0349998      -4.27341458E-13
   10.3199997      -2.43613029E-12
   10.6049995      -5.21902009E-12
   10.8900003      -8.48681195E-12
   11.1750002      -1.16302107E-11
   11.4600000      -1.37127228E-11
   11.7449999      -1.35422559E-11
   12.0299997      -9.83002742E-12
   12.3149996      -1.42725946E-12
   12.6000004       1.23883386E-11
   12.8850002       3.16210981E-11
   13.1700001       5.53162412E-11
   13.4549999       8.14262130E-11
   13.7399998       1.06834167E-10
   14.0249996       1.27566319E-10
   14.3100004       1.39202899E-10
   14.5950003       1.37471659E-10
   14.8800001       1.18983740E-10
   15.1650000       8.20467860E-11
   15.4499998       2.74656600E-11
   15.7349997      -4.07804172E-11
   16.0200005      -1.15109720E-10
   16.3050003      -1.84288293E-10
   16.5900002      -2.33876141E-10
   16.8750000      -2.47255855E-10
   17.1599998      -2.07286521E-10
   17.4449997      -9.85492452E-11
   17.7299995       8.99422758E-11
   18.0149994       3.61814523E-10
   18.2999992       7.10565384E-10
   18.5849991       1.11742970E-09
   18.8700008       1.55039259E-09
   19.1550007       1.96480832E-09
   19.4400005       2.30591324E-09
   19.7250004       2.51324828E-09
   20.0100002       2.52669219E-09
   20.2950001       2.29349206E-09
   20.5799999       1.77546988E-09
   20.8649998       9.55497681E-10
   21.1499996      -1.57578381E-10
   21.4349995      -1.52617829E-09
   21.7199993      -3.08376458E-09
   22.0049992      -4.73727857E-09
   22.2900009      -6.37221387E-09
   22.5750008      -7.86017917E-09
   22.8600006      -9.06869158E-09
   23.1450005      -9.87280568E-09
   23.4300003      -1.01678879E-08
   23.7150002      -9.88253124E-09
   24.0000000      -8.99025121E-09
   24.2849998      -7.51837437E-09
   24.5699997      -5.55245405E-09
   24.8549995      -3.23478733E-09
   25.1399994      -7.56054330E-10
   25.4249992       1.66025527E-09
   25.7099991       3.78017440E-09
   25.9950008       5.38710543E-09
   26.2800007       6.31306518E-09
   26.5650005       6.47042109E-09
   26.8500004       5.88043658E-09
   27.1350002       4.69436046E-09
   27.4200001       3.20267790E-09
   27.7049999       1.82855597E-09
   27.9899998       1.10271958E-09
   28.2749996       1.61896441E-09
   28.5599995       3.97181177E-09
   28.8449993       8.68050876E-09
   29.1299992       1.61057567E-08
   29.4150009       2.63671307E-08
   29.7000008       3.92699029E-08
   29.9850006       5.42497745E-08
   30.2700005       7.03429990E-08
   30.5550003       8.61880523E-08
   30.8400002       1.00063353E-07
   31.1250000       1.09963665E-07
   31.4099998       1.13715444E-07
   31.6949997       1.09129061E-07
   31.9799995       9.41825959E-08
   32.2649994       6.72282710E-08
   32.5499992       2.72084399E-08
   32.8349991      -2.61347637E-08
   33.1199989      -9.20758865E-08
   33.4049988      -1.68768466E-07
   33.6899986      -2.53174221E-07
   33.9749985      -3.41076770E-07
   34.2599983      -4.27194180E-07
   34.5449982      -5.05398077E-07
   34.8300018      -5.69038491E-07
   35.1150017      -6.11363930E-07
   35.4000015      -6.26013332E-07
   35.6850014      -6.07548714E-07
   35.9700012      -5.51983021E-07
   36.2550011      -4.57256704E-07
   36.5400009      -3.23612852E-07
   36.8250008      -1.53827415E-07
   37.1100006       4.67382790E-08
   37.3950005       2.70280225E-07
   37.6800003       5.06889251E-07
   37.9650002       7.45066359E-07
   38.2500000       9.72381372E-07
   38.5349998       1.17622983E-06
   38.8199997       1.34463198E-06
   39.1049995       1.46701552E-06
   39.3899994       1.53491851E-06
   39.6749992       1.54256190E-06
   39.9599991       1.48724178E-06
   40.2449989       1.36951428E-06
   40.5299988       1.19315791E-06
   40.8149986       9.64921696E-07
   41.0999985       6.94085941E-07
   41.3849983       3.91874266E-07
   41.6699982       7.07748384E-08
   41.9550018      -2.56176207E-07
   42.2400017      -5.76087928E-07
   42.5250015      -8.76833269E-07
   42.8100014      -1.14754812E-06
   43.0950012      -1.37898564E-06
   43.3800011      -1.56370902E-06
   43.6650009      -1.69612986E-06
   43.9500008      -1.77241463E-06
   44.2350006      -1.79029428E-06
   44.5200005      -1.74882655E-06
   44.8050003      -1.64815731E-06
   45.0900002      -1.48932997E-06
   45.3750000      -1.27417559E-06
   45.6599998      -1.00529928E-06
   45.9449997      -6.86164014E-07
   46.2299995      -3.21256067E-07
   46.5149994       8.36991347E-08
   46.7999992       5.21505342E-07
   47.0849991       9.83291102E-07
   47.3699989       1.45836611E-06
   47.6549988       1.93417623E-06
   47.9399986       2.39638098E-06
   48.2249985       2.82907718E-06
   48.5099983       3.21517791E-06
   48.7949982       3.53694577E-06
   49.0800018       3.77666970E-06
   49.3650017       3.91745334E-06
   49.6500015       3.94408244E-06
   49.9350014       3.84389614E-06
   50.2200012       3.60760646E-06
   50.5050011       3.22997107E-06
   50.7900009       2.71025374E-06
   51.0750008       2.05238371E-06
   51.3600006       1.26478176E-06
   51.6450005       3.59829073E-07
   51.9300003      -6.46989918E-07
   52.2150002      -1.73820195E-06
   52.5000000      -2.89560830E-06
   52.7849998      -4.10156463E-06
   53.0699997      -5.34013134E-06
   53.3549995      -6.59796751E-06
   53.6399994      -7.86486362E-06
   53.9249992      -9.13385702E-06
   54.2099991      -1.04009368E-05
   54.4949989      -1.16643678E-05
   54.7799988      -1.29237369E-05
   55.0649986      -1.41788232E-05
   55.3499985      -1.54284389E-05
   55.6349983      -1.66693626E-05
   55.9199982      -1.78955415E-05
   56.2050018      -1.90975661E-05
   56.4900017      -2.02625488E-05
   56.7750015      -2.13743824E-05
   57.0600014      -2.24143550E-05
   57.3450012      -2.33620467E-05
   57.6300011      -2.41963808E-05
   57.9150009      -2.48967699E-05
   58.2000008      -2.54442202E-05
   58.4850006      -2.58223499E-05
   58.7700005      -2.60182078E-05
   59.0550003      -2.60229044E-05
   59.3400002      -2.58320451E-05
   59.6250000      -2.54459646E-05
   59.9099998      -2.48697925E-05
   60.1949997      -2.41133603E-05
   60.4799995      -2.31910126E-05
   60.7649994      -2.21213049E-05
   61.0499992      -2.09266564E-05
   61.3349991      -1.96329311E-05
   61.6199989      -1.82689710E-05
   61.9049988      -1.68660590E-05
   62.1899986      -1.54572954E-05
   62.4749985      -1.40768379E-05
   62.7599983      -1.27590465E-05
   63.0449982      -1.15374987E-05
   63.3300018      -1.04439423E-05
   63.6150017      -9.50723643E-06
   63.9000015      -8.75235764E-06
   64.1849976      -8.19958495E-06
   64.4700012      -7.86393321E-06
   64.7549973      -7.75490025E-06
   65.0400009      -7.87653335E-06
   65.3249969      -8.22783750E-06
   65.6100006      -8.80346124E-06
   65.8949966      -9.59459521E-06
   66.1800003      -1.05900099E-05
   66.4649963      -1.17770924E-05
   66.7500000      -1.31428233E-05
   67.0350037      -1.46745906E-05
   67.3199997      -1.63607583E-05
   67.6050034      -1.81909636E-05
   67.8899994      -2.01561743E-05
   68.1750031      -2.22484814E-05
   68.4599991      -2.44606326E-05
   68.7450027      -2.67853666E-05
   69.0299988      -2.92145833E-05
   69.3150024      -3.17383419E-05
   69.5999985      -3.43437569E-05
   69.8850021      -3.70138187E-05
   70.1699982      -3.97263102E-05
   70.4550018      -4.24529208E-05
   70.7399979      -4.51587148E-05
   71.0250015      -4.78021429E-05
   71.3099976      -5.03357696E-05
   71.5950012      -5.27076736E-05
   71.8799973      -5.48635799E-05
   72.1650009      -5.67494899E-05
   72.4499969      -5.83146502E-05
   72.7350006      -5.95145175E-05
   73.0199966      -6.03135231E-05
   73.3050003      -6.06871654E-05
   73.5899963      -6.06233843E-05
   73.8750000      -6.01230713E-05
   74.1600037      -5.91994940E-05
   74.4449997      -5.78769104E-05
   74.7300034      -5.61883462E-05
   75.0149994      -5.41728878E-05
   75.3000031      -5.18726592E-05
   75.5849991      -4.93298357E-05
   75.8700027      -4.65839003E-05
   76.1549988      -4.36693990E-05
   76.4400024      -4.06144027E-05
   76.7249985      -3.74396368E-05
   77.0100021      -3.41583982E-05
   77.2949982      -3.07771588E-05
   77.5800018      -2.72966190E-05
   77.8649979      -2.37131590E-05
   78.1500015      -2.00203995E-05
   78.4349976      -1.62106826E-05
   78.7200012      -1.22763695E-05
   79.0049973      -8.21081539E-06
   79.2900009      -4.00902309E-06
   79.5749969       3.32045119E-07
   79.8600006       4.81333609E-06
   80.1449966       9.43370105E-06
   80.4300003       1.41899445E-05
   80.7149963       1.90769042E-05
   81.0000000       2.40875197E-05
   81.2850037       2.92129062E-05
   81.5699997       3.44424516E-05
   81.8550034       3.97639305E-05
   82.1399994       4.51636151E-05
   82.4250031       5.06263241E-05
   82.7099991       5.61354718E-05
   82.9950027       6.16730322E-05
   83.2799988       6.72195383E-05
   83.5650024       7.27540755E-05
   83.8499985       7.82544521E-05
   84.1350021       8.36974941E-05
   84.4199982       8.90595184E-05
   84.7050018       9.43169507E-05
   84.9899979       9.94469228E-05
   85.2750015       1.04427912E-04
   85.5599976       1.09240187E-04
   85.8450012       1.13865986E-04
   86.1299973       1.18289485E-04
   86.4150009       1.22496553E-04
   86.6999969       1.26474362E-04
   86.9850006       1.30211032E-04
   87.2699966       1.33694979E-04
   87.5550003       1.36914736E-04
   87.8399963       1.39858457E-04
   88.1250000       1.42513687E-04
   88.4100037       1.44866906E-04
   88.6949997       1.46903330E-04
   88.9800034       1.48606327E-04
   89.2649994       1.49957079E-04
   89.5500031       1.50934153E-04
   89.8349991       1.51513392E-04
   90.1200027       1.51667875E-04
   90.4049988       1.51368586E-04
   90.6900024       1.50585474E-04
   90.9749985       1.49289073E-04
   91.2600021       1.47452607E-04
   91.5449982       1.45054393E-04
   91.8300018       1.42080331E-04
   92.1149979       1.38525924E-04
   92.4000015       1.34397793E-04
   92.6849976       1.29714244E-04
   92.9700012       1.24504892E-04
   93.2549973       1.18809287E-04
   93.5400009       1.12674759E-04
   93.8249969       1.06154039E-04
   94.1100006       9.93028007E-05
   94.3949966       9.21777901E-05
   94.6800003       8.48355266E-05
   94.9649963       7.73319334E-05
   95.2500000       6.97227151E-05
   95.5350037       6.20640858E-05
   95.8199997       5.44137620E-05
   96.1050034       4.68316757E-05
   96.3899994       3.93802111E-05
   96.6750031       3.21238113E-05
   96.9599991       2.51278070E-05
   97.2450027       1.84566215E-05
   97.5299988       1.21714047E-05
   97.8150024       6.32736874E-06
   98.0999985       9.70990754E-07
   98.3850021      -3.86263309E-06
   98.6699982      -8.15206386E-06
   98.9550018      -1.18911048E-05
   99.2399979      -1.50896058E-05
   99.5250015      -1.77732600E-05
   99.8099976      -1.99822898E-05
   100.095001      -2.17690031E-05
   100.379997      -2.31944214E-05
   100.665001      -2.43241138E-05
   100.949997      -2.52237169E-05
   101.235001      -2.59545650E-05
   101.519997      -2.65700201E-05
   101.805000      -2.71129138E-05
   102.089996      -2.76144165E-05
   102.375000      -2.80942131E-05
   102.660004      -2.85619717E-05
   102.945000      -2.90196313E-05
   103.230003      -2.94641832E-05
   103.514999      -2.98904270E-05
   103.800003      -3.02933986E-05
   104.084999      -3.06702750E-05
   104.370003      -3.10215473E-05
   104.654999      -3.13513810E-05
   104.940002      -3.16671321E-05
   105.224998      -3.19780629E-05
   105.510002      -3.22934684E-05
   105.794998      -3.26202462E-05
   106.080002      -3.29604009E-05
   106.364998      -3.33087046E-05
   106.650002      -3.36510711E-05
   106.934998      -3.39638609E-05
   107.220001      -3.42143503E-05
   107.504997      -3.43623906E-05
   107.790001      -3.43631655E-05
   108.074997      -3.41705199E-05
   108.360001      -3.37405909E-05
   108.644997      -3.30351249E-05
   108.930000      -3.20242907E-05
   109.214996      -3.06886323E-05
   109.500000      -2.90201733E-05
   109.785004      -2.70226337E-05
   110.070000      -2.47109310E-05
   110.355003      -2.21101036E-05
   110.639999      -1.92537555E-05
   110.925003      -1.61821226E-05
   111.209999      -1.29398632E-05
   111.495003      -9.57371776E-06
   111.779999      -6.13010479E-06
   112.065002      -2.65287463E-06
   112.349998       8.18623164E-07
   112.635002       4.25089274E-06
   112.919998       7.61701131E-06
   113.205002       1.08965978E-05
   113.489998       1.40751035E-05
   113.775002       1.71424799E-05
   114.059998       2.00914583E-05
   114.345001       2.29155776E-05
   114.629997       2.56072653E-05
   114.915001       2.81561170E-05
   115.199997       3.05475805E-05
   115.485001       3.27622511E-05
   115.769997       3.47759014E-05
   116.055000       3.65603155E-05
   116.339996       3.80848578E-05
   116.625000       3.93187256E-05
   116.910004       4.02336300E-05
   117.195000       4.08067099E-05
   117.480003       4.10231769E-05
   117.764999       4.08784399E-05
   118.050003       4.03793856E-05
   118.334999       3.95446077E-05
   118.620003       3.84035629E-05
   118.904999       3.69946247E-05
   119.190002       3.53623436E-05
   119.474998       3.35541263E-05
   119.760002       3.16167207E-05
   120.044998       2.95927366E-05
   120.330002       2.75175516E-05
   120.614998       2.54169845E-05
   120.900002       2.33059018E-05
   121.184998       2.11880360E-05
   121.470001       1.90571791E-05
   121.754997       1.68998231E-05
   122.040001       1.46990742E-05
   122.324997       1.24394410E-05
   122.610001       1.01119313E-05
   122.894997       7.71873511E-06
   123.180000       5.27678776E-06
   123.464996       2.81955226E-06
   123.750000       3.96659743E-07
   124.035004      -1.92864877E-06
   124.320000      -4.08392680E-06
   124.605003      -5.99320629E-06
   124.889999      -7.58323404E-06
   125.175003      -8.78951687E-06
   125.459999      -9.56149779E-06
   125.745003      -9.86650775E-06
   126.029999      -9.69226858E-06
   126.315002      -9.04790249E-06
   126.599998      -7.96344284E-06
   126.885002      -6.48792093E-06
   127.169998      -4.68618191E-06
   127.455002      -2.63463426E-06
   127.739998      -4.16199128E-07
   128.024994       1.88510523E-06
   128.309998       4.18938998E-06
   128.595001       6.42541818E-06
   128.880005       8.53396978E-06
   129.164993       1.04698111E-05
   129.449997       1.22022120E-05
   129.735001       1.37141651E-05
   130.020004       1.50006144E-05
   130.304993       1.60662294E-05
   130.589996       1.69230298E-05
   130.875000       1.75881214E-05
   131.160004       1.80816769E-05
   131.445007       1.84250566E-05
   131.729996       1.86390334E-05
   132.014999       1.87419155E-05
   132.300003       1.87475780E-05
   132.585007       1.86635407E-05
   132.869995       1.84893797E-05
   133.154999       1.82157910E-05
   133.440002       1.78245955E-05
   133.725006       1.72899363E-05
   134.009995       1.65807705E-05
   134.294998       1.56645456E-05
   134.580002       1.45117947E-05
   134.865005       1.31012421E-05
   135.149994       1.14249688E-05
   135.434998       9.49304103E-06
   135.720001       7.33692332E-06
   136.005005       5.01109935E-06
   136.289993       2.59242029E-06
   136.574997       1.76877819E-07
   136.860001      -2.12622695E-06
   137.145004      -4.20240804E-06
   137.429993      -5.94169023E-06
   137.714996      -7.24874508E-06
   138.000000      -8.05223954E-06
   138.285004      -8.31212583E-06
   138.570007      -8.02372233E-06
   138.854996      -7.21789638E-06
   139.139999      -5.95725760E-06
   139.425003      -4.32889783E-06
   139.710007      -2.43478871E-06
   139.994995      -3.81251027E-07
   140.279999       1.73095498E-06
   140.565002       3.81452287E-06
   140.850006       5.80056303E-06
   141.134995       7.64025935E-06
   141.419998       9.30338956E-06
   141.705002       1.07743390E-05
   141.990005       1.20465284E-05
   142.274994       1.31163879E-05
   142.559998       1.39779486E-05
   142.845001       1.46189659E-05
   143.130005       1.50191281E-05
   143.414993       1.51507038E-05
   143.699997       1.49815260E-05
   143.985001       1.44798951E-05
   144.270004       1.36206645E-05
   144.554993       1.23915306E-05
   144.839996       1.07986116E-05
   145.125000       8.87035367E-06
   145.410004       6.65908829E-06
   145.695007       4.23982510E-06
   145.979996       1.70637691E-06
   146.264999      -8.34715877E-07
   146.550003      -3.27174621E-06
   146.835007      -5.49589276E-06
   147.119995      -7.40882660E-06
   147.404999      -8.92909065E-06
   147.690002      -9.99665644E-06
   147.975006      -1.05754980E-05
   148.259995      -1.06541547E-05
   148.544998      -1.02445219E-05
   148.830002      -9.37921595E-06
   149.115005      -8.10795609E-06
   149.399994      -6.49338699E-06
   149.684998      -4.60678757E-06
   149.970001      -2.52403606E-06
   150.255005      -3.22234484E-07
   150.539993       1.92277662E-06
   150.824997       4.13802945E-06
   151.110001       6.25434359E-06
   151.395004       8.20690275E-06
   151.679993       9.93589492E-06
   151.964996       1.13876167E-05
   152.250000       1.25162896E-05
   152.535004       1.32865543E-05
   152.820007       1.36763201E-05
   153.104996       1.36793897E-05
   153.389999       1.33073654E-05
   153.675003       1.25901615E-05
   153.960007       1.15748062E-05
   154.244995       1.03224465E-05
   154.529999       8.90380943E-06
   154.815002       7.39373172E-06
   155.100006       5.86542637E-06
   155.384995       4.38523102E-06
   155.669998       3.00847933E-06
   155.955002       1.77695892E-06
   156.240005       7.18048398E-07
   156.524994      -1.54532728E-07
   156.809998      -8.38609253E-07
   157.095001      -1.34041420E-06
   157.380005      -1.67086068E-06
   157.664993      -1.84170881E-06
   157.949997      -1.86206955E-06
   158.235001      -1.73564274E-06
   158.520004      -1.45907586E-06
   158.804993      -1.02181571E-06
   159.089996      -4.07585787E-07
   159.375000       4.02547414E-07
   159.660004       1.42582746E-06
   159.945007       2.67273117E-06
   160.229996       4.14186206E-06
   160.514999       5.81567974E-06
   160.800003       7.65794994E-06
   161.085007       9.61352271E-06
   161.369995       1.16107722E-05
   161.654999       1.35666478E-05
   161.940002       1.53938599E-05
   162.225006       1.70094027E-05
   162.509995       1.83432276E-05
   162.794998       1.93459509E-05
   163.080002       1.99945716E-05
   163.365005       2.02954325E-05
   163.649994       2.02839510E-05
   163.934998       2.00211289E-05
   164.220001       1.95871871E-05
   164.505005       1.90730570E-05
   164.789993       1.85706049E-05
   165.074997       1.81626037E-05
   165.360001       1.79135241E-05
   165.645004       1.78621594E-05
   165.929993       1.80167899E-05
   166.214996       1.83533866E-05
