  -4.50000000         0.00000000    
  -4.21500015        -1.68806126E-26
  -3.93000007        -8.06230143E-25
  -3.64499998        -4.55459572E-24
  -3.35999990         2.35171545E-24
  -3.07500005         6.70550134E-23
  -2.78999996         2.43794699E-22
  -2.50500011         1.00085411E-21
  -2.22000003         4.49643304E-21
  -1.93499994         1.38583384E-20
  -1.64999998         2.54943737E-20
  -1.36500001         1.74918327E-20
  -1.08000004        -5.14356964E-20
 -0.795000017        -2.19799027E-19
 -0.509999990        -4.84229669E-19
 -0.224999994        -7.88809255E-19
   5.99999987E-02    -1.13092857E-18
  0.344999999        -1.81491243E-18
  0.629999995        -3.64270820E-18
  0.915000021        -7.62336435E-18
   1.20000005        -1.40833521E-17
   1.48500001        -2.19302902E-17
   1.76999998        -2.94413300E-17
   2.05500007        -3.72851926E-17
   2.33999991        -5.25401600E-17
   2.62500000        -9.06852862E-17
   2.91000009        -1.72963784E-16
   3.19499993        -3.20223876E-16
   3.48000002        -5.49609186E-16
   3.76500010        -8.82361792E-16
   4.05000019        -1.36487035E-15
   4.33500004        -2.09275075E-15
   4.61999989        -3.21774116E-15
   4.90500021        -4.91657945E-15
   5.19000006        -7.30911252E-15
   5.47499990        -1.03249183E-14
   5.76000023        -1.35341643E-14
   6.04500008        -1.59785820E-14
   6.32999992        -1.60482640E-14
   6.61499977        -1.14145711E-14
   6.90000010         1.07513045E-15
   7.18499994         2.57722480E-14
   7.46999979         6.91487883E-14
   7.75500011         1.41357995E-13
   8.03999996         2.58055594E-13
   8.32499981         4.41471864E-13
   8.60999966         7.19217166E-13
   8.89500046         1.11923762E-12
   9.18000031         1.65992697E-12
   9.46500015         2.33578738E-12
   9.75000000         3.10122414E-12
   10.0349998         3.85802154E-12
   10.3199997         4.45515196E-12
   10.6049995         4.71156100E-12
   10.8900003         4.47155984E-12
   11.1750002         3.69655652E-12
   11.4600000         2.58624307E-12
   11.7449999         1.70856081E-12
   12.0299997         2.10493450E-12
   12.3149996         5.32990492E-12
   12.6000004         1.33854828E-11
   12.8850002         2.85218758E-11
   13.1700001         5.28964060E-11
   13.4549999         8.81085829E-11
   13.7399998         1.34659783E-10
   14.0249996         1.91413774E-10
   14.3100004         2.55157173E-10
   14.5950003         3.20368704E-10
   14.8800001         3.79300730E-10
   15.1650000         4.22451352E-10
   15.4499998         4.39467129E-10
   15.7349997         4.20461888E-10
   16.0200005         3.57677749E-10
   16.3050003         2.47348309E-10
   16.5900002         9.15548123E-11
   16.8750000        -1.00198662E-10
   17.1599998        -3.10016263E-10
   17.4449997        -5.11593823E-10
   17.7299995        -6.71474432E-10
   18.0149994        -7.51798568E-10
   18.2999992        -7.14593551E-10
   18.5849991        -5.27406563E-10
   18.8700008        -1.69794206E-10
   19.1550007         3.60103530E-10
   19.4400005         1.03988818E-09
   19.7250004         1.81920812E-09
   20.0100002         2.61905497E-09
   20.2950001         3.33481021E-09
   20.5799999         3.84338916E-09
   20.8649998         4.01430222E-09
   21.1499996         3.72386699E-09
   21.4349995         2.87123081E-09
   21.7199993         1.39445822E-09
   22.0049992        -7.15344728E-10
   22.2900009        -3.40381101E-09
   22.5750008        -6.54868737E-09
   22.8600006        -9.96189176E-09
   23.1450005        -1.33986182E-08
   23.4300003        -1.65730878E-08
   23.7150002        -1.91797191E-08
   24.0000000        -2.09179714E-08
   24.2849998        -2.15185700E-08
   24.5699997        -2.07687645E-08
   24.8549995        -1.85342586E-08
   25.1399994        -1.47756829E-08
   25.4249992        -9.55795443E-09
   25.7099991        -3.05137715E-09
   25.9950008         4.47594717E-09
   26.2800007         1.26741488E-08
   26.5650005         2.11350404E-08
   26.8500004         2.94212033E-08
   27.1350002         3.70982960E-08
   27.4200001         4.37675638E-08
   27.7049999         4.90952381E-08
   27.9899998         5.28355812E-08
   28.2749996         5.48445414E-08
   28.5599995         5.50821184E-08
   28.8449993         5.36025624E-08
   29.1299992         5.05332345E-08
   29.4150009         4.60445264E-08
   29.7000008         4.03145712E-08
   29.9850006         3.34935422E-08
   30.2700005         2.56722839E-08
   30.5550003         1.68597509E-08
   30.8400002         6.97234448E-09
   31.1250000        -4.16311119E-09
   31.4099998        -1.67932424E-08
   31.6949997        -3.12104298E-08
   31.9799995        -4.77168172E-08
   32.2649994        -6.65824658E-08
   32.5499992        -8.80017978E-08
   32.8349991        -1.12049527E-07
   33.1199989        -1.38637560E-07
   33.4049988        -1.67472834E-07
   33.6899986        -1.98015698E-07
   33.9749985        -2.29438797E-07
   34.2599983        -2.60588649E-07
   34.5449982        -2.89953078E-07
   34.8300018        -3.15642808E-07
   35.1150017        -3.35395356E-07
   35.4000015        -3.46612893E-07
   35.6850014        -3.46443869E-07
   35.9700012        -3.31915430E-07
   36.2550011        -3.00118501E-07
   36.5400009        -2.48440074E-07
   36.8250008        -1.74830589E-07
   37.1100006        -7.80847671E-08
   37.3950005         4.18864019E-08
   37.6800003         1.83822621E-07
   37.9650002         3.44946386E-07
   38.2500000         5.20883304E-07
   38.5349998         7.05687967E-07
   38.8199997         8.91985621E-07
   39.1049995         1.07122776E-06
   39.3899994         1.23405323E-06
   39.6749992         1.37073596E-06
   39.9599991         1.47169840E-06
   40.2449989         1.52805342E-06
   40.5299988         1.53214853E-06
   40.8149986         1.47806941E-06
   41.0999985         1.36207575E-06
   41.3849983         1.18293735E-06
   41.6699982         9.42147437E-07
   41.9550018         6.44001375E-07
   42.2400017         2.95536296E-07
   42.5250015        -9.36627913E-08
   42.8100014        -5.11770907E-07
   43.0950012        -9.45125919E-07
   43.3800011        -1.37869426E-06
   43.6650009        -1.79657445E-06
   43.9500008        -2.18250761E-06
   44.2350006        -2.52037762E-06
   44.5200005        -2.79468782E-06
   44.8050003        -2.99100861E-06
   45.0900002        -3.09640313E-06
   45.3750000        -3.09983784E-06
   45.6599998        -2.99259273E-06
   45.9449997        -2.76867991E-06
   46.2299995        -2.42526585E-06
   46.5149994        -1.96310020E-06
   46.7999992        -1.38691723E-06
   47.0849991        -7.05782043E-07
   47.3699989         6.66663951E-08
   47.6549988         9.12123653E-07
   47.9399986         1.80772679E-06
   48.2249985         2.72640068E-06
   48.5099983         3.63746994E-06
   48.7949982         4.50753259E-06
   49.0800018         5.30156876E-06
   49.3650017         5.98423230E-06
   49.6500015         6.52125118E-06
   49.9350014         6.88085902E-06
   50.2200012         7.03515843E-06
   50.5050011         6.96133338E-06
   50.7900009         6.64264235E-06
   51.0750008         6.06913909E-06
   51.3600006         5.23809149E-06
   51.6450005         4.15408795E-06
   51.9300003         2.82883889E-06
   52.2150002         1.28070769E-06
   52.5000000        -4.65987057E-07
   52.7849998        -2.38185316E-06
   53.0699997        -4.43341696E-06
   53.3549995        -6.58416457E-06
   53.6399994        -8.79559138E-06
   53.9249992        -1.10282062E-05
   54.2099991        -1.32424757E-05
   54.4949989        -1.53996934E-05
   54.7799988        -1.74627912E-05
   55.0649986        -1.93970955E-05
   55.3499985        -2.11710467E-05
   55.6349983        -2.27568726E-05
   55.9199982        -2.41312300E-05
   56.2050018        -2.52757600E-05
   56.4900017        -2.61775494E-05
   56.7750015        -2.68294662E-05
   57.0600014        -2.72303078E-05
   57.3450012        -2.73847236E-05
   57.6300011        -2.73029073E-05
   57.9150009        -2.70000455E-05
   58.2000008        -2.64955233E-05
   58.4850006        -2.58119981E-05
   58.7700005        -2.49743316E-05
   59.0550003        -2.40085155E-05
   59.3400002        -2.29406669E-05
   59.6250000        -2.17961715E-05
   59.9099998        -2.05990873E-05
   60.1949997        -1.93717824E-05
   60.4799995        -1.81348732E-05
   60.7649994        -1.69073555E-05
   61.0499992        -1.57069135E-05
   61.3349991        -1.45503009E-05
   61.6199989        -1.34537386E-05
   61.9049988        -1.24332846E-05
   62.1899986        -1.15051080E-05
   62.4749985        -1.06856551E-05
   62.7599983        -9.99168788E-06
   63.0449982        -9.44017575E-06
   63.3300018        -9.04805074E-06
   63.6150017        -8.83177745E-06
   63.9000015        -8.80674907E-06
   64.1849976        -8.98649978E-06
   64.4700012        -9.38174162E-06
   64.7549973        -9.99931126E-06
   65.0400009        -1.08410659E-05
   65.3249969        -1.19028809E-05
   65.6100006        -1.31738689E-05
   65.8949966        -1.46359480E-05
   66.1800003        -1.62638498E-05
   66.4649963        -1.80256466E-05
   66.7500000        -1.98837970E-05
   67.0350037        -2.17966735E-05
   67.3199997        -2.37204895E-05
   67.6050034        -2.56114945E-05
   67.8899994        -2.74283229E-05
   68.1750031        -2.91342858E-05
   68.4599991        -3.06994953E-05
   68.7450027        -3.21026673E-05
   69.0299988        -3.33324570E-05
   69.3150024        -3.43882202E-05
   69.5999985        -3.52801144E-05
   69.8850021        -3.60284357E-05
   70.1699982        -3.66622698E-05
   70.4550018        -3.72174618E-05
   70.7399979        -3.77339529E-05
   71.0250015        -3.82527396E-05
   71.3099976        -3.88126537E-05
   71.5950012        -3.94472409E-05
   71.8799973        -4.01819234E-05
   72.1650009        -4.10318316E-05
   72.4499969        -4.20002943E-05
   72.7350006        -4.30782748E-05
   73.0199966        -4.42446653E-05
   73.3050003        -4.54673864E-05
   73.5899963        -4.67052487E-05
   73.8750000        -4.79103328E-05
   74.1600037        -4.90306993E-05
   74.4449997        -5.00132119E-05
   74.7300034        -5.08061494E-05
   75.0149994        -5.13615378E-05
   75.3000031        -5.16370201E-05
   75.5849991        -5.15971624E-05
   75.8700027        -5.12141924E-05
   76.1549988        -5.04682357E-05
   76.4400024        -4.93470943E-05
   76.7249985        -4.78456459E-05
   77.0100021        -4.59649891E-05
   77.2949982        -4.37113777E-05
   77.5800018        -4.10950743E-05
   77.8649979        -3.81291393E-05
   78.1500015        -3.48282374E-05
   78.4349976        -3.12076299E-05
   78.7200012        -2.72823163E-05
   79.0049973        -2.30664809E-05
   79.2900009        -1.85731660E-05
   79.5749969        -1.38142896E-05
   79.8600006        -8.80087919E-06
   80.1449966        -3.54359054E-06
   80.4300003         1.94665222E-06
   80.7149963         7.65792993E-06
   81.0000000         1.35765258E-05
   81.2850037         1.96862293E-05
   81.5699997         2.59677363E-05
   81.8550034         3.23982567E-05
   82.1399994         3.89512570E-05
   82.4250031         4.55964728E-05
   82.7099991         5.23000053E-05
   82.9950027         5.90247400E-05
   83.2799988         6.57308119E-05
   83.5650024         7.23763878E-05
   83.8499985         7.89184269E-05
   84.1350021         8.53136444E-05
   84.4199982         9.15195415E-05
   84.7050018         9.74955183E-05
   84.9899979         1.03204009E-04
   85.2750015         1.08611704E-04
   85.5599976         1.13690847E-04
   85.8450012         1.18420416E-04
   86.1299973         1.22787096E-04
   86.4150009         1.26785904E-04
   86.6999969         1.30420492E-04
   86.9850006         1.33702721E-04
   87.2699966         1.36651623E-04
   87.5550003         1.39291849E-04
   87.8399963         1.41651413E-04
   88.1250000         1.43759273E-04
   88.4100037         1.45642611E-04
   88.6949997         1.47324186E-04
   88.9800034         1.48820123E-04
   89.2649994         1.50138061E-04
   89.5500031         1.51275832E-04
   89.8349991         1.52220731E-04
   90.1200027         1.52949564E-04
   90.4049988         1.53429035E-04
   90.6900024         1.53616696E-04
   90.9749985         1.53462344E-04
   91.2600021         1.52909721E-04
   91.5449982         1.51898959E-04
   91.8300018         1.50369175E-04
   92.1149979         1.48261533E-04
   92.4000015         1.45522848E-04
   92.6849976         1.42109027E-04
   92.9700012         1.37988405E-04
   93.2549973         1.33144727E-04
   93.5400009         1.27579289E-04
   93.8249969         1.21312070E-04
   94.1100006         1.14381910E-04
   94.3949966         1.06845633E-04
   94.6800003         9.87763851E-05
   94.9649963         9.02611719E-05
   95.2500000         8.13979786E-05
   95.5350037         7.22927944E-05
   95.8199997         6.30565119E-05
   96.1050034         5.38020504E-05
   96.3899994         4.46416670E-05
   96.6750031         3.56846031E-05
   96.9599991         2.70347828E-05
   97.2450027         1.87887235E-05
   97.5299988         1.10335923E-05
   97.8150024         3.84522355E-06
   98.0999985        -2.71368322E-06
   98.3850021        -8.59530155E-06
   98.6699982        -1.37680563E-05
   98.9550018        -1.82175881E-05
   99.2399979        -2.19471476E-05
   99.5250015        -2.49773257E-05
   99.8099976        -2.73450278E-05
   100.095001        -2.91017532E-05
   100.379997        -3.03113484E-05
   100.665001        -3.10473952E-05
   100.949997        -3.13904420E-05
   101.235001        -3.14252356E-05
   101.519997        -3.12381308E-05
   101.805000        -3.09147435E-05
   102.089996        -3.05378599E-05
   102.375000        -3.01854907E-05
   102.660004        -2.99289768E-05
   102.945000        -2.98310551E-05
   103.230003        -2.99438398E-05
   103.514999        -3.03067136E-05
   103.800003        -3.09442767E-05
   104.084999        -3.18645543E-05
   104.370003        -3.30578332E-05
   104.654999        -3.44963300E-05
   104.940002        -3.61349776E-05
   105.224998        -3.79133780E-05
   105.510002        -3.97588774E-05
   105.794998        -4.15905924E-05
   106.080002        -4.33239184E-05
   106.364998        -4.48752107E-05
   106.650002        -4.61661548E-05
   106.934998        -4.71274616E-05
   107.220001        -4.77016183E-05
   107.504997        -4.78444890E-05
   107.790001        -4.75258967E-05
   108.074997        -4.67292957E-05
   108.360001        -4.54507317E-05
   108.644997        -4.36974296E-05
   108.930000        -4.14861752E-05
   109.214996        -3.88417320E-05
   109.500000        -3.57954996E-05
   109.785004        -3.23842869E-05
   110.070000        -2.86494760E-05
   110.355003        -2.46364198E-05
   110.639999        -2.03941145E-05
   110.925003        -1.59749980E-05
   111.209999        -1.14346840E-05
   111.495003        -6.83150165E-06
   111.779999        -2.22567223E-06
   112.065002         2.32207844E-06
   112.349998         6.75244655E-06
   112.635002         1.10098945E-05
   112.919998         1.50452761E-05
   113.205002         1.88184113E-05
   113.489998         2.23003153E-05
   113.775002         2.54746992E-05
   114.059998         2.83384161E-05
   114.345001         3.09006573E-05
   114.629997         3.31809097E-05
   114.915001         3.52057177E-05
   115.199997         3.70045782E-05
   115.485001         3.86055071E-05
   115.769997         4.00307654E-05
   116.055000         4.12934096E-05
   116.339996         4.23949932E-05
   116.625000         4.33248679E-05
   116.910004         4.40610493E-05
   117.195000         4.45726582E-05
   117.480003         4.48234896E-05
   117.764999         4.47763487E-05
   118.050003         4.43975987E-05
   118.334999         4.36615010E-05
   118.620003         4.25537983E-05
   118.904999         4.10742214E-05
   119.190002         3.92377515E-05
   119.474998         3.70746056E-05
   119.760002         3.46290035E-05
   120.044998         3.19568790E-05
   120.330002         2.91227789E-05
   120.614998         2.61962468E-05
   120.900002         2.32478887E-05
   121.184998         2.03453692E-05
   121.470001         1.75495261E-05
   121.754997         1.49108864E-05
   122.040001         1.24668832E-05
   122.324997         1.02399881E-05
   122.610001         8.23702248E-06
   122.894997         6.44992133E-06
   123.180000         4.85793771E-06
   123.464996         3.43118541E-06
   123.750000         2.13518979E-06
   124.035004         9.35979870E-07
   124.320000        -1.94868463E-07
   124.605003        -1.27590170E-06
   124.889999        -2.31279614E-06
   125.175003        -3.29704130E-06
   125.459999        -4.20645756E-06
   125.745003        -5.00746819E-06
   126.029999        -5.65874689E-06
   126.315002        -6.11566020E-06
   126.599998        -6.33485843E-06
   126.885002        -6.27835334E-06
   127.169998        -5.91671323E-06
   127.455002        -5.23106337E-06
   127.739998        -4.21381628E-06
   128.024994        -2.86824866E-06
   128.309998        -1.20727384E-06
   128.595001         7.48150569E-07
   128.880005         2.97055999E-06
   129.164993         5.42707039E-06
   129.449997         8.07971628E-06
   129.735001         1.08849308E-05
   130.020004         1.37923271E-05
   130.304993         1.67432045E-05
   130.589996         1.96692345E-05
   130.875000         2.24918804E-05
   131.160004         2.51230176E-05
   131.445007         2.74671074E-05
   131.729996         2.94249621E-05
   132.014999         3.08988419E-05
   132.300003         3.17984559E-05
   132.585007         3.20472645E-05
   132.869995         3.15884754E-05
   133.154999         3.03899778E-05
   133.440002         2.84477574E-05
   133.725006         2.57875308E-05
   134.009995         2.24644755E-05
   134.294998         1.85611807E-05
   134.580002         1.41840228E-05
   134.865005         9.45832653E-06
   135.149994         4.52273207E-06
   135.434998        -4.76870184E-07
   135.720001        -5.39349639E-06
   136.005005        -1.00849893E-05
   136.289993        -1.44193336E-05
   136.574997        -1.82791282E-05
   136.860001        -2.15649943E-05
   137.145004        -2.41979160E-05
   137.429993        -2.61204605E-05
   137.714996        -2.72970137E-05
   138.000000        -2.77133804E-05
   138.285004        -2.73759797E-05
   138.570007        -2.63109705E-05
   138.854996        -2.45634565E-05
   139.139999        -2.21966966E-05
   139.425003        -1.92912867E-05
   139.710007        -1.59439096E-05
   139.994995        -1.22653000E-05
   140.279999        -8.37713196E-06
   140.565002        -4.40779786E-06
   140.850006        -4.87212731E-07
   141.134995         3.25903147E-06
   141.419998         6.71561747E-06
   141.705002         9.78295429E-06
   141.990005         1.23815262E-05
   142.274994         1.44547612E-05
   142.559998         1.59701885E-05
   142.845001         1.69188861E-05
   143.130005         1.73133594E-05
   143.414993         1.71842839E-05
   143.699997         1.65765796E-05
   143.985001         1.55454054E-05
   144.270004         1.41524479E-05
   144.554993         1.24629405E-05
   144.839996         1.05436611E-05
   145.125000         8.46200874E-06
   145.410004         6.28601765E-06
   145.695007         4.08505639E-06
   145.979996         1.93084497E-06
   146.264999        -1.01688350E-07
   146.550003        -1.93425990E-06
   146.835007        -3.48622621E-06
   147.119995        -4.67692507E-06
   147.404999        -5.42926864E-06
   147.690002        -5.67432426E-06
   147.975006        -5.35636855E-06
   148.259995        -4.43778072E-06
   148.544998        -2.90312255E-06
   148.830002        -7.61926003E-07
   149.115005         1.95006260E-06
   149.399994         5.17125591E-06
   149.684998         8.81616597E-06
   149.970001         1.27786907E-05
   150.255005         1.69364430E-05
   150.539993         2.11557817E-05
   150.824997         2.52973150E-05
   151.110001         2.92215445E-05
   151.395004         3.27944399E-05
   151.679993         3.58926736E-05
   151.964996         3.84082559E-05
   152.250000         4.02524929E-05
   152.535004         4.13589478E-05
   152.820007         4.16852236E-05
   153.104996         4.12135669E-05
   153.389999         3.99501878E-05
   153.675003         3.79235680E-05
   153.960007         3.51818380E-05
   154.244995         3.17895574E-05
   154.529999         2.78243497E-05
   154.815002         2.33736391E-05
   155.100006         1.85317967E-05
   155.384995         1.33978347E-05
   155.669998         8.07375091E-06
   155.955002         2.66350435E-06
   156.240005        -2.72750435E-06
   156.524994        -7.99270947E-06
   156.809998        -1.30246817E-05
   157.095001        -1.77158017E-05
   157.380005        -2.19596022E-05
   157.664993        -2.56531875E-05
   157.949997        -2.87007970E-05
   158.235001        -3.10184623E-05
   158.520004        -3.25393921E-05
   158.804993        -3.32195377E-05
   159.089996        -3.30425864E-05
   159.375000        -3.20235740E-05
   159.660004        -3.02104145E-05
   159.945007        -2.76828468E-05
   160.229996        -2.45487336E-05
   160.514999        -2.09378013E-05
   160.800003        -1.69933228E-05
   161.085007        -1.28625479E-05
   161.369995        -8.68689040E-06
   161.654999        -4.59287457E-06
   161.940002        -6.84717065E-07
   162.225006         2.96077610E-06
   162.509995         6.29652050E-06
   162.794998         9.30460101E-06
   163.080002         1.19931037E-05
   163.365005         1.43907437E-05
   163.649994         1.65398706E-05
   163.934998         1.84885321E-05
   164.220001         2.02823794E-05
   164.505005         2.19572412E-05
   164.789993         2.35331299E-05
   165.074997         2.50103076E-05
   165.360001         2.63678739E-05
   165.645004         2.75651273E-05
   165.929993         2.85454480E-05
   166.214996         2.92421773E-05
