  -4.50000000       0.00000000    
  -4.21500015       4.09824087E-26
  -3.93000007       1.69556185E-24
  -3.64499998       5.63765362E-24
  -3.35999990      -1.10128933E-22
  -3.07500005      -1.25951163E-21
  -2.78999996      -6.76852209E-21
  -2.50500011      -2.23796590E-20
  -2.22000003      -3.50283395E-20
  -1.93499994       7.62566239E-20
  -1.64999998       6.47517552E-19
  -1.36500001       2.02239539E-18
  -1.08000004       3.94460266E-18
 -0.795000017       5.70660779E-18
 -0.509999990       7.82677551E-18
 -0.224999994       1.16809946E-17
   5.99999987E-02   1.19299462E-17
  0.344999999      -1.33510888E-17
  0.629999995      -1.00476908E-16
  0.915000021      -2.90969370E-16
   1.20000005      -6.58336294E-16
   1.48500001      -1.39336697E-15
   1.76999998      -2.84901099E-15
   2.05500007      -5.35866839E-15
   2.33999991      -8.80473046E-15
   2.62500000      -1.22444550E-14
   2.91000009      -1.38988332E-14
   3.19499993      -1.11806265E-14
   3.48000002       2.10418826E-16
   3.76500010       2.87257841E-14
   4.05000019       9.02108588E-14
   4.33500004       2.10546682E-13
   4.61999989       4.27417785E-13
   4.90500021       7.92286538E-13
   5.19000006       1.37219847E-12
   5.47499990       2.24697214E-12
   5.76000023       3.49636899E-12
   6.04500008       5.17972817E-12
   6.32999992       7.32371108E-12
   6.61499977       9.93757507E-12
   6.90000010       1.30570268E-11
   7.18499994       1.67824626E-11
   7.46999979       2.12521546E-11
   7.75500011       2.65041929E-11
   8.03999996       3.22425801E-11
   8.32499981       3.76167812E-11
   8.60999966       4.12270496E-11
   8.89500046       4.16622639E-11
   9.18000031       3.89426130E-11
   9.46500015       3.72261735E-11
   9.75000000       4.89565090E-11
   10.0349998       1.00185693E-10
   10.3199997       2.36092729E-10
   10.6049995       5.24862875E-10
   10.8900003       1.05740439E-09
   11.1750002       1.94022398E-09
   11.4600000       3.27948602E-09
   11.7449999       5.15596810E-09
   12.0299997       7.59310304E-09
   12.3149996       1.05231051E-08
   12.6000004       1.37585596E-08
   12.8850002       1.69781220E-08
   13.1700001       1.97343972E-08
   13.4549999       2.14893330E-08
   13.7399998       2.16776925E-08
   14.0249996       1.97930810E-08
   14.3100004       1.54847619E-08
   14.5950003       8.64866756E-09
   14.8800001      -5.05669617E-10
   15.1650000      -1.14285310E-08
   15.4499998      -2.32538415E-08
   15.7349997      -3.48746632E-08
   16.0200005      -4.50618209E-08
   16.3050003      -5.26089678E-08
   16.5900002      -5.64829215E-08
   16.8750000      -5.59577309E-08
   17.1599998      -5.07151015E-08
   17.4449997      -4.09001366E-08
   17.7299995      -2.71287259E-08
   18.0149994      -1.04487059E-08
   18.2999992       7.73909559E-09
   18.5849991       2.57924562E-08
   18.8700008       4.19642738E-08
   19.1550007       5.45566010E-08
   19.4400005       6.20849789E-08
   19.7250004       6.34455048E-08
   20.0100002       5.80764947E-08
   20.2950001       4.61069334E-08
   20.5799999       2.84821482E-08
   20.8649998       7.05739600E-09
   21.1499996      -1.53540292E-08
   21.4349995      -3.49965177E-08
   21.7199993      -4.72765187E-08
   22.0049992      -4.69847272E-08
   22.2900009      -2.86645641E-08
   22.5750008       1.28560469E-08
   22.8600006       8.17758803E-08
   23.1450005       1.80514817E-07
   23.4300003       3.08872416E-07
   23.7150002       4.63266019E-07
   24.0000000       6.36187622E-07
   24.2849998       8.16017234E-07
   24.5699997       9.87302428E-07
   24.8549995       1.13155716E-06
   25.1399994       1.22856125E-06
   25.4249992       1.25805764E-06
   25.7099991       1.20167977E-06
   25.9950008       1.04488788E-06
   26.2800007       7.78687991E-07
   26.5650005       4.00929764E-07
   26.8500004      -8.29637443E-08
   27.1350002      -6.59895420E-07
   27.4200001      -1.30960757E-06
   27.7049999      -2.00571435E-06
   27.9899998      -2.71712247E-06
   28.2749996      -3.40967631E-06
   28.5599995      -4.04788807E-06
   28.8449993      -4.59663852E-06
   29.1299992      -5.02275998E-06
   29.4150009      -5.29645422E-06
   29.7000008      -5.39252414E-06
   29.9850006      -5.29139470E-06
   30.2700005      -4.97992232E-06
   30.5550003      -4.45198975E-06
   30.8400002      -3.70889006E-06
   31.1250000      -2.75952311E-06
   31.4099998      -1.62041397E-06
   31.6949997      -3.15575903E-07
   31.9799995       1.12379587E-06
   32.2649994       2.65981748E-06
   32.5499992       4.24865902E-06
   32.8349991       5.84159625E-06
   33.1199989       7.38642211E-06
   33.4049988       8.82924633E-06
   33.6899986       1.01166379E-05
   33.9749985       1.11980098E-05
   34.2599983       1.20281065E-05
   34.5449982       1.25693841E-05
   34.8300018       1.27941048E-05
   35.1150017       1.26859486E-05
   35.4000015       1.22410102E-05
   35.6850014       1.14680470E-05
   35.9700012       1.03879283E-05
   36.2550011       9.03228101E-06
   36.5400009       7.44136287E-06
   36.8250008       5.66130257E-06
   37.1100006       3.74090382E-06
   37.3950005       1.72830096E-06
   37.6800003      -3.32208288E-07
   37.9650002      -2.40280042E-06
   38.2500000      -4.45396518E-06
   38.5349998      -6.46536182E-06
   38.8199997      -8.42570080E-06
   39.1049995      -1.03317752E-05
   39.3899994      -1.21869089E-05
   39.6749992      -1.39991225E-05
   39.9599991      -1.57793529E-05
   40.2449989      -1.75399000E-05
   40.5299988      -1.92932366E-05
   40.8149986      -2.10511571E-05
   41.0999985      -2.28241461E-05
   41.3849983      -2.46209220E-05
   41.6699982      -2.64479895E-05
   41.9550018      -2.83091813E-05
   42.2400017      -3.02052904E-05
   42.5250015      -3.21338121E-05
   42.8100014      -3.40889419E-05
   43.0950012      -3.60619888E-05
   43.3800011      -3.80423007E-05
   43.6650009      -4.00187892E-05
   43.9500008      -4.19820753E-05
   44.2350006      -4.39271571E-05
   44.5200005      -4.58563954E-05
   44.8050003      -4.77823960E-05
   45.0900002      -4.97304318E-05
   45.3750000      -5.17397712E-05
   45.6599998      -5.38635104E-05
   45.9449997      -5.61665220E-05
   46.2299995      -5.87215072E-05
   46.5149994      -6.16032557E-05
   46.7999992      -6.48816640E-05
   47.0849991      -6.86141502E-05
   47.3699989      -7.28384985E-05
   47.6549988      -7.75667795E-05
   47.9399986      -8.27812692E-05
   48.2249985      -8.84327601E-05
   48.5099983      -9.44416461E-05
   48.7949982      -1.00701698E-04
   49.0800018      -1.07086169E-04
   49.3650017      -1.13455761E-04
   49.6500015      -1.19667529E-04
   49.9350014      -1.25583916E-04
   50.2200012      -1.31081033E-04
   50.5050011      -1.36055198E-04
   50.7900009      -1.40427408E-04
   51.0750008      -1.44145190E-04
   51.3600006      -1.47182131E-04
   51.6450005      -1.49535161E-04
   51.9300003      -1.51220462E-04
   52.2150002      -1.52268491E-04
   52.5000000      -1.52718756E-04
   52.7849998      -1.52614928E-04
   53.0699997      -1.52000590E-04
   53.3549995      -1.50915701E-04
   53.6399994      -1.49394138E-04
   53.9249992      -1.47461993E-04
   54.2099991      -1.45137208E-04
   54.4949989      -1.42430057E-04
   54.7799988      -1.39345182E-04
   55.0649986      -1.35884839E-04
   55.3499985      -1.32053407E-04
   55.6349983      -1.27862833E-04
   55.9199982      -1.23338192E-04
   56.2050018      -1.18522992E-04
   56.4900017      -1.13482834E-04
   56.7750015      -1.08306842E-04
   57.0600014      -1.03106308E-04
   57.3450012      -9.80101759E-05
   57.6300011      -9.31579125E-05
   57.9150009      -8.86902635E-05
   58.2000008      -8.47392730E-05
   58.4850006      -8.14187442E-05
   58.7700005      -7.88166435E-05
   59.0550003      -7.69901089E-05
   59.3400002      -7.59639224E-05
   59.6250000      -7.57320740E-05
   59.9099998      -7.62621567E-05
   60.1949997      -7.75016742E-05
   60.4799995      -7.93851068E-05
   60.7649994      -8.18409535E-05
   61.0499992      -8.47977863E-05
   61.3349991      -8.81889137E-05
   61.6199989      -9.19552695E-05
   61.9049988      -9.60467150E-05
   62.1899986      -1.00421923E-04
   62.4749985      -1.05047147E-04
   62.7599983      -1.09894187E-04
   63.0449982      -1.14937822E-04
   63.3300018      -1.20152981E-04
   63.6150017      -1.25511942E-04
   63.9000015      -1.30981687E-04
   64.1849976      -1.36521921E-04
   64.4700012      -1.42083984E-04
   64.7549973      -1.47611165E-04
   65.0400009      -1.53040470E-04
   65.3249969      -1.58306109E-04
   65.6100006      -1.63344332E-04
   65.8949966      -1.68099141E-04
   66.1800003      -1.72528496E-04
   66.4649963      -1.76609596E-04
   66.7500000      -1.80342788E-04
   67.0350037      -1.83753044E-04
   67.3199997      -1.86888457E-04
   67.6050034      -1.89815561E-04
   67.8899994      -1.92611769E-04
   68.1750031      -1.95355475E-04
   68.4599991      -1.98115129E-04
   68.7450027      -2.00938506E-04
   69.0299988      -2.03843723E-04
   69.3150024      -2.06813391E-04
   69.5999985      -2.09792677E-04
   69.8850021      -2.12691972E-04
   70.1699982      -2.15393477E-04
   70.4550018      -2.17761408E-04
   70.7399979      -2.19654234E-04
   71.0250015      -2.20937436E-04
   71.3099976      -2.21495473E-04
   71.5950012      -2.21241498E-04
   71.8799973      -2.20123882E-04
   72.1650009      -2.18129382E-04
   72.4499969      -2.15282678E-04
   72.7350006      -2.11642939E-04
   73.0199966      -2.07297882E-04
   73.3050003      -2.02356328E-04
   73.5899963      -1.96939989E-04
   73.8750000      -1.91175597E-04
   74.1600037      -1.85187921E-04
   74.4449997      -1.79094728E-04
   74.7300034      -1.73003544E-04
   75.0149994      -1.67010585E-04
   75.3000031      -1.61201810E-04
   75.5849991      -1.55654954E-04
   75.8700027      -1.50442531E-04
   76.1549988      -1.45634272E-04
   76.4400024      -1.41298733E-04
   76.7249985      -1.37503477E-04
   77.0100021      -1.34313726E-04
   77.2949982      -1.31789799E-04
   77.5800018      -1.29983790E-04
   77.8649979      -1.28936357E-04
   78.1500015      -1.28674146E-04
   78.4349976      -1.29208289E-04
   78.7200012      -1.30533837E-04
   79.0049973      -1.32630055E-04
   79.2900009      -1.35460999E-04
   79.5749969      -1.38975593E-04
   79.8600006      -1.43107391E-04
   80.1449966      -1.47773564E-04
   80.4300003      -1.52873516E-04
   80.7149963      -1.58287963E-04
   81.0000000      -1.63878503E-04
   81.2850037      -1.69489067E-04
   81.5699997      -1.74948931E-04
   81.8550034      -1.80078248E-04
   82.1399994      -1.84695498E-04
   82.4250031      -1.88627033E-04
   82.7099991      -1.91717700E-04
   82.9950027      -1.93841799E-04
   83.2799988      -1.94913475E-04
   83.5650024      -1.94894965E-04
   83.8499985      -1.93802160E-04
   84.1350021      -1.91706160E-04
   84.4199982      -1.88730395E-04
   84.7050018      -1.85042896E-04
   84.9899979      -1.80844334E-04
   85.2750015      -1.76352405E-04
   85.5599976      -1.71783831E-04
   85.8450012      -1.67335937E-04
   86.1299973      -1.63169607E-04
   86.4150009      -1.59395262E-04
   86.6999969      -1.56063950E-04
   86.9850006      -1.53164234E-04
   87.2699966      -1.50625507E-04
   87.5550003      -1.48327221E-04
   87.8399963      -1.46112783E-04
   88.1250000      -1.43806275E-04
   88.4100037      -1.41229888E-04
   88.6949997      -1.38220013E-04
   88.9800034      -1.34640213E-04
   89.2649994      -1.30389832E-04
   89.5500031      -1.25407852E-04
   89.8349991      -1.19672273E-04
   90.1200027      -1.13195521E-04
   90.4049988      -1.06017309E-04
   90.6900024      -9.81962294E-05
   90.9749985      -8.98013241E-05
   91.2600021      -8.09050616E-05
   91.5449982      -7.15782589E-05
   91.8300018      -6.18880513E-05
   92.1149979      -5.18984016E-05
   92.4000015      -4.16731673E-05
   92.6849976      -3.12808770E-05
   92.9700012      -2.07998783E-05
   93.2549973      -1.03226412E-05
   93.5400009       4.20199555E-08
   93.8249969       1.01694877E-05
   94.1100006       1.99229398E-05
   94.3949966       2.91595716E-05
   94.6800003       3.77388169E-05
   94.9649963       4.55313057E-05
   95.2500000       5.24274219E-05
   95.5350037       5.83443252E-05
   95.8199997       6.32307419E-05
   96.1050034       6.70690351E-05
   96.3899994       6.98746517E-05
   96.6750031       7.16929935E-05
   96.9599991       7.25946156E-05
   97.2450027       7.26688741E-05
   97.5299988       7.20169774E-05
   97.8150024       7.07447471E-05
   98.0999985       6.89556909E-05
   98.3850021       6.67448767E-05
   98.6699982       6.41941660E-05
   98.9550018       6.13692027E-05
   99.2399979       5.83185174E-05
   99.5250015       5.50748191E-05
   99.8099976       5.16583459E-05
   100.095001       4.80816343E-05
   100.379997       4.43549870E-05
   100.665001       4.04917082E-05
   100.949997       3.65122978E-05
   101.235001       3.24469220E-05
   101.519997       2.83358168E-05
   101.805000       2.42277038E-05
   102.089996       2.01765633E-05
   102.375000       1.62373599E-05
   102.660004       1.24613871E-05
   102.945000       8.89206331E-06
   103.230003       5.56163968E-06
   103.514999       2.48929655E-06
   103.800003      -3.19395838E-07
   104.084999      -2.87181092E-06
   104.370003      -5.18676597E-06
   104.654999      -7.29260455E-06
   104.940002      -9.22517938E-06
   105.224998      -1.10257379E-05
   105.510002      -1.27386938E-05
   105.794998      -1.44090573E-05
   106.080002      -1.60795680E-05
   106.364998      -1.77876464E-05
   106.650002      -1.95625580E-05
   106.934998      -2.14233351E-05
   107.220001      -2.33780502E-05
   107.504997      -2.54248225E-05
   107.790001      -2.75545790E-05
   108.074997      -2.97554398E-05
   108.360001      -3.20180516E-05
   108.644997      -3.43411084E-05
   108.930000      -3.67361354E-05
   109.214996      -3.92303627E-05
   109.500000      -4.18669624E-05
   109.785004      -4.47019338E-05
   110.070000      -4.77976246E-05
   110.355003      -5.12131955E-05
   110.639999      -5.49932156E-05
   110.925003      -5.91557400E-05
   111.209999      -6.36817640E-05
   111.495003      -6.85075865E-05
   111.779999      -7.35216527E-05
   112.065002      -7.85668090E-05
   112.349998      -8.34481471E-05
   112.635002      -8.79461149E-05
   112.919998      -9.18336591E-05
   113.205002      -9.48957677E-05
   113.489998      -9.69491812E-05
   113.775002      -9.78601311E-05
   114.059998      -9.75579314E-05
   114.345001      -9.60429243E-05
   114.629997      -9.33878619E-05
   114.915001      -8.97327409E-05
   115.199997      -8.52737794E-05
   115.485001      -8.02478826E-05
   115.769997      -7.49143364E-05
   116.055000      -6.95357303E-05
   116.339996      -6.43598032E-05
   116.625000      -5.96038117E-05
   116.910004      -5.54424551E-05
   117.195000      -5.20002250E-05
   117.480003      -4.93482257E-05
   117.764999      -4.75053857E-05
   118.050003      -4.64433833E-05
   118.334999      -4.60945885E-05
   118.620003      -4.63619326E-05
   118.904999      -4.71296771E-05
   119.190002      -4.82740033E-05
   119.474998      -4.96725224E-05
   119.760002      -5.12119332E-05
   120.044998      -5.27932934E-05
   120.330002      -5.43346978E-05
   120.614998      -5.57714993E-05
   120.900002      -5.70545053E-05
   121.184998      -5.81468739E-05
   121.470001      -5.90204727E-05
   121.754997      -5.96527534E-05
   122.040001      -6.00246203E-05
   122.324997      -6.01198444E-05
   122.610001      -5.99258892E-05
   122.894997      -5.94359226E-05
   123.180000      -5.86513088E-05
   123.464996      -5.75840204E-05
   123.750000      -5.62582645E-05
   124.035004      -5.47110067E-05
   124.320000      -5.29912286E-05
   124.605003      -5.11580547E-05
   124.889999      -4.92778854E-05
   125.175003      -4.74210283E-05
   125.459999      -4.56583257E-05
   125.745003      -4.40581825E-05
   126.029999      -4.26843981E-05
   126.315002      -4.15950017E-05
   126.599998      -4.08420165E-05
   126.885002      -4.04719940E-05
   127.169998      -4.05268256E-05
   127.455002      -4.10442408E-05
   127.739998      -4.20575379E-05
   128.024994      -4.35942784E-05
   128.309998      -4.56737907E-05
   128.595001      -4.83038930E-05
   128.880005      -5.14770800E-05
   129.164993      -5.51668600E-05
   129.449997      -5.93248151E-05
   129.735001      -6.38788770E-05
   130.020004      -6.87332868E-05
   130.304993      -7.37706432E-05
   130.589996      -7.88560428E-05
   130.875000      -8.38432898E-05
   131.160004      -8.85825721E-05
   131.445007      -9.29289090E-05
   131.729996      -9.67504020E-05
   132.014999      -9.99354161E-05
   132.300003      -1.02397942E-04
   132.585007      -1.04080740E-04
   132.869995      -1.04956525E-04
   133.154999      -1.05027400E-04
   133.440002      -1.04322971E-04
   133.725006      -1.02897720E-04
   134.009995      -1.00827805E-04
   134.294998      -9.82072524E-05
   134.580002      -9.51436232E-05
   134.865005      -9.17528159E-05
   135.149994      -8.81533051E-05
   135.434998      -8.44598908E-05
   135.720001      -8.07775577E-05
   136.005005      -7.71958512E-05
   136.289993      -7.37845839E-05
   136.574997      -7.05912535E-05
   136.860001      -6.76406780E-05
   137.145004      -6.49368158E-05
   137.429993      -6.24665481E-05
   137.714996      -6.02049658E-05
   138.000000      -5.81213972E-05
   138.285004      -5.61854577E-05
   138.570007      -5.43724273E-05
   138.854996      -5.26675867E-05
   139.139999      -5.10690843E-05
   139.425003      -4.95891400E-05
   139.710007      -4.82533760E-05
   139.994995      -4.70983359E-05
   140.279999      -4.61672571E-05
   140.565002      -4.55045738E-05
   140.850006      -4.51497326E-05
   141.134995      -4.51312735E-05
   141.419998      -4.54619585E-05
   141.705002      -4.61356249E-05
   141.990005      -4.71259300E-05
   142.274994      -4.83870135E-05
   142.559998      -4.98556983E-05
   142.845001      -5.14546919E-05
   143.130005      -5.30964644E-05
   143.414993      -5.46874035E-05
   143.699997      -5.61322668E-05
   143.985001      -5.73389189E-05
   144.270004      -5.82235334E-05
   144.554993      -5.87162867E-05
   144.839996      -5.87674003E-05
   145.125000      -5.83531000E-05
   145.410004      -5.74807491E-05
   145.695007      -5.61921952E-05
   145.979996      -5.45643779E-05
   146.264999      -5.27064767E-05
   146.550003      -5.07534169E-05
   146.835007      -4.88559817E-05
   147.119995      -4.71687490E-05
   147.404999      -4.58373033E-05
   147.690002      -4.49863401E-05
   147.975006      -4.47101083E-05
   148.259995      -4.50662192E-05
   148.544998      -4.60732881E-05
   148.830002      -4.77120811E-05
   149.115005      -4.99296621E-05
   149.399994      -5.26454569E-05
   149.684998      -5.57584826E-05
   149.970001      -5.91549178E-05
   150.255005      -6.27154077E-05
   150.539993      -6.63217506E-05
   150.824997      -6.98628210E-05
   151.110001      -7.32395347E-05
   151.395004      -7.63686548E-05
   151.679993      -7.91850980E-05
   151.964996      -8.16424144E-05
   152.250000      -8.37114567E-05
   152.535004      -8.53771198E-05
   152.820007      -8.66337286E-05
   153.104996      -8.74796897E-05
   153.389999      -8.79126310E-05
   153.675003      -8.79257277E-05
   153.960007      -8.75061596E-05
   154.244995      -8.66358387E-05
   154.529999      -8.52944795E-05
   154.815002      -8.34645616E-05
   155.100006      -8.11374339E-05
   155.384995      -7.83197756E-05
   155.669998      -7.50397812E-05
   155.955002      -7.13519912E-05
   156.240005      -6.73400427E-05
   156.524994      -6.31165894E-05
   156.809998      -5.88198891E-05
   157.095001      -5.46070914E-05
   157.380005      -5.06445722E-05
   157.664993      -4.70961495E-05
   157.949997      -4.41105476E-05
   158.235001      -4.18096279E-05
   158.520004      -4.02787227E-05
   158.804993      -3.95603529E-05
   159.089996      -3.96518881E-05
   159.375000      -4.05075843E-05
   159.660004      -4.20445031E-05
   159.945007      -4.41514640E-05
   160.229996      -4.66997590E-05
   160.514999      -4.95543791E-05
   160.800003      -5.25844407E-05
   161.085007      -5.56720297E-05
   161.369995      -5.87187787E-05
   161.654999      -6.16499237E-05
   161.940002      -6.44159300E-05
   162.225006      -6.69916917E-05
   162.509995      -6.93735055E-05
   162.794998      -7.15741407E-05
   163.080002      -7.36163274E-05
   163.365005      -7.55252331E-05
   163.649994      -7.73206702E-05
   163.934998      -7.90098711E-05
   164.220001      -8.05818127E-05
   164.505005      -8.20037967E-05
   164.789993      -8.32208025E-05
   165.074997      -8.41579968E-05
   165.360001      -8.47263582E-05
   165.645004      -8.48309937E-05
   165.929993      -8.43812813E-05
   166.214996      -8.33017039E-05
