  -4.50000000       0.00000000    
  -4.21500015       3.08473580E-27
  -3.93000007      -3.53516847E-25
  -3.64499998      -1.43220648E-23
  -3.35999990      -1.36754137E-22
  -3.07500005      -5.09325002E-22
  -2.78999996      -4.16893046E-22
  -2.50500011       4.02880660E-21
  -2.22000003       2.91015484E-20
  -1.93499994       1.47247907E-19
  -1.64999998       5.67854993E-19
  -1.36500001       1.56975605E-18
  -1.08000004       3.02649194E-18
 -0.795000017       3.91003395E-18
 -0.509999990       2.90874443E-18
 -0.224999994       2.87472534E-20
   5.99999987E-02  -4.27994250E-18
  0.344999999      -1.68287050E-17
  0.629999995      -6.42835604E-17
  0.915000021      -1.97339116E-16
   1.20000005      -4.69086105E-16
   1.48500001      -8.88644288E-16
   1.76999998      -1.38792447E-15
   2.05500007      -1.85338326E-15
   2.33999991      -2.21570838E-15
   2.62500000      -2.46760285E-15
   2.91000009      -2.40147817E-15
   3.19499993      -9.68185764E-16
   3.48000002       4.52578089E-15
   3.76500010       1.88691056E-14
   4.05000019       4.86161302E-14
   4.33500004       1.01144943E-13
   4.61999989       1.83975041E-13
   4.90500021       3.05301791E-13
   5.19000006       4.75764014E-13
   5.47499990       7.09962579E-13
   5.76000023       1.02528489E-12
   6.04500008       1.43593958E-12
   6.32999992       1.94144158E-12
   6.61499977       2.51010259E-12
   6.90000010       3.05916577E-12
   7.18499994       3.43525360E-12
   7.46999979       3.40370462E-12
   7.75500011       2.66291459E-12
   8.03999996       9.06434107E-13
   8.32499981      -2.04612000E-12
   8.60999966      -6.04489245E-12
   8.89500046      -1.03631019E-11
   9.18000031      -1.34866805E-11
   9.46500015      -1.30665270E-11
   9.75000000      -6.18603953E-12
   10.0349998       9.91681737E-12
   10.3199997       3.66006357E-11
   10.6049995       7.20915203E-11
   10.8900003       1.09480362E-10
   11.1750002       1.34829287E-10
   11.4600000       1.25935373E-10
   11.7449999       5.24207205E-11
   12.0299997      -1.22165486E-10
   12.3149996      -4.35710190E-10
   12.6000004      -9.20226728E-10
   12.8850002      -1.59234981E-09
   13.1700001      -2.44283171E-09
   13.4549999      -3.42690232E-09
   13.7399998      -4.45773507E-09
   14.0249996      -5.40526068E-09
   14.3100004      -6.10210593E-09
   14.5950003      -6.35761976E-09
   14.8800001      -5.97974514E-09
   15.1650000      -4.80309037E-09
   15.4499998      -2.71999512E-09
   15.7349997       2.89998164E-10
   16.0200005       4.13763956E-09
   16.3050003       8.61365645E-09
   16.5900002       1.33944349E-08
   16.8750000       1.80651316E-08
   17.1599998       2.21587388E-08
   17.4449997       2.52068055E-08
   17.7299995       2.67954849E-08
   18.0149994       2.66194657E-08
   18.2999992       2.45264982E-08
   18.5849991       2.05462580E-08
   18.8700008       1.48992063E-08
   19.1550007       7.98350186E-09
   19.4400005       3.40647094E-10
   19.7250004      -7.39692574E-09
   20.0100002      -1.45712082E-08
   20.2950001      -2.05698427E-08
   20.5799999      -2.48954830E-08
   20.8649998      -2.72246119E-08
   21.1499996      -2.74478289E-08
   21.4349995      -2.56849333E-08
   21.7199993      -2.22709229E-08
   22.0049992      -1.77134840E-08
   22.2900009      -1.26277913E-08
   22.5750008      -7.65933628E-09
   22.8600006      -3.40914652E-09
   23.1450005      -3.76694759E-10
   23.4300003       1.06811782E-09
   23.7150002       6.77204515E-10
   24.0000000      -1.71631165E-09
   24.2849998      -6.26071062E-09
   24.5699997      -1.31535733E-08
   24.8549995      -2.26955255E-08
   25.1399994      -3.53123113E-08
   25.4249992      -5.15332665E-08
   25.7099991      -7.19223010E-08
   25.9950008      -9.69636815E-08
   26.2800007      -1.26914387E-07
   26.5650005      -1.61637473E-07
   26.8500004      -2.00439715E-07
   27.1350002      -2.41937130E-07
   27.4200001      -2.83977869E-07
   27.7049999      -3.23648266E-07
   27.9899998      -3.57383783E-07
   28.2749996      -3.81187192E-07
   28.5599995      -3.90944933E-07
   28.8449993      -3.82806036E-07
   29.1299992      -3.53571778E-07
   29.4150009      -3.01040814E-07
   29.7000008      -2.24258642E-07
   29.9850006      -1.23636312E-07
   30.2700005      -9.30612032E-10
   30.5550003       1.40906891E-07
   30.8400002       2.97974708E-07
   31.1250000       4.65722394E-07
   31.4099998       6.39264726E-07
   31.6949997       8.13670908E-07
   31.9799995       9.84199687E-07
   32.2649994       1.14644718E-06
   32.5499992       1.29640011E-06
   32.8349991       1.43038505E-06
   33.1199989       1.54491852E-06
   33.4049988       1.63649850E-06
   33.6899986       1.70137355E-06
   33.9749985       1.73534715E-06
   34.2599983       1.73367619E-06
   34.5449982       1.69110274E-06
   34.8300018       1.60203979E-06
   35.1150017       1.46090508E-06
   35.4000015       1.26257464E-06
   35.6850014       1.00290060E-06
   35.9700012       6.79248899E-07
   36.2550011       2.91010679E-07
   36.5400009      -1.59937088E-07
   36.8250008      -6.68833707E-07
   37.1100006      -1.22771098E-06
   37.3950005      -1.82515566E-06
   37.6800003      -2.44619196E-06
   37.9650002      -3.07233836E-06
   38.2500000      -3.68190740E-06
   38.5349998      -4.25060762E-06
   38.8199997      -4.75248953E-06
   39.1049995      -5.16121372E-06
   39.3899994      -5.45156308E-06
   39.6749992      -5.60106446E-06
   39.9599991      -5.59156661E-06
   40.2449989      -5.41057716E-06
   40.5299988      -5.05222806E-06
   40.8149986      -4.51775759E-06
   41.0999985      -3.81545033E-06
   41.3849983      -2.96006147E-06
   41.6699982      -1.97175518E-06
   41.9550018      -8.74687544E-07
   42.2400017       3.04644033E-07
   42.5250015       1.53911560E-06
   42.8100014       2.80259178E-06
   43.0950012       4.07128346E-06
   43.3800011       5.32472632E-06
   43.6650009       6.54629321E-06
   43.9500008       7.72324347E-06
   44.2350006       8.84633209E-06
   44.5200005       9.90910121E-06
   44.8050003       1.09069424E-05
   45.0900002       1.18361277E-05
   45.3750000       1.26929026E-05
   45.6599998       1.34727870E-05
   45.9449997       1.41701430E-05
   46.2299995       1.47780620E-05
   46.5149994       1.52885787E-05
   46.7999992       1.56931692E-05
   47.0849991       1.59834362E-05
   47.3699989       1.61519274E-05
   47.6549988       1.61929565E-05
   47.9399986       1.61032985E-05
   48.2249985       1.58826970E-05
   48.5099983       1.55340967E-05
   48.7949982       1.50636070E-05
   49.0800018       1.44802143E-05
   49.3650017       1.37953211E-05
   49.6500015       1.30221697E-05
   49.9350014       1.21753237E-05
   50.2200012       1.12702310E-05
   50.5050011       1.03229731E-05
   50.7900009       9.35018579E-06
   51.0750008       8.36913750E-06
   51.3600006       7.39791130E-06
   51.6450005       6.45551518E-06
   51.9300003       5.56186524E-06
   52.2150002       4.73749833E-06
   52.5000000       4.00299632E-06
   52.7849998       3.37808729E-06
   53.0699997       2.88044339E-06
   53.3549995       2.52433711E-06
   53.6399994       2.31923218E-06
   53.9249992       2.26847351E-06
   54.2099991       2.36831306E-06
   54.4949989       2.60740626E-06
   54.7799988       2.96692019E-06
   55.0649986       3.42132171E-06
   55.3499985       3.93986920E-06
   55.6349983       4.48866012E-06
   55.9199982       5.03307092E-06
   56.2050018       5.54035250E-06
   56.4900017       5.98205679E-06
   56.7750015       6.33623040E-06
   57.0600014       6.58902309E-06
   57.3450012       6.73572822E-06
   57.6300011       6.78107972E-06
   57.9150009       6.73886825E-06
   58.2000008       6.63088622E-06
   58.4850006       6.48531159E-06
   58.7700005       6.33471291E-06
   59.0550003       6.21389700E-06
   59.3400002       6.15777390E-06
   59.6250000       6.19943557E-06
   59.9099998       6.36855157E-06
   60.1949997       6.69012843E-06
   60.4799995       7.18354568E-06
   60.7649994       7.86186320E-06
   61.0499992       8.73124554E-06
   61.3349991       9.79035212E-06
   61.6199989       1.10298397E-05
   61.9049988       1.24318613E-05
   62.1899986       1.39697459E-05
   62.4749985       1.56080314E-05
   62.7599983       1.73030548E-05
   63.0449982       1.90042738E-05
   63.3300018       2.06563418E-05
   63.6150017       2.22017861E-05
   63.9000015       2.35843090E-05
   64.1849976       2.47520711E-05
   64.4700012       2.56609655E-05
   64.7549973       2.62772646E-05
   65.0400009       2.65795843E-05
   65.3249969       2.65599283E-05
   65.6100006       2.62237681E-05
   65.8949966       2.55892664E-05
   66.1800003       2.46856689E-05
   66.4649963       2.35511943E-05
   66.7500000       2.22304861E-05
   67.0350037       2.07720659E-05
   67.3199997       1.92257339E-05
   67.6050034       1.76403446E-05
   67.8899994       1.60619675E-05
   68.1750031       1.45325794E-05
   68.4599991       1.30891131E-05
   68.7450027       1.17628661E-05
   69.0299988       1.05791196E-05
   69.3150024       9.55672476E-06
   69.5999985       8.70765962E-06
   69.8850021       8.03645162E-06
   70.1699982       7.53953236E-06
   70.4550018       7.20487878E-06
   70.7399979       7.01213139E-06
   71.0250015       6.93349102E-06
   71.3099976       6.93556331E-06
   71.5950012       6.98224039E-06
   71.8799973       7.03841852E-06
   72.1650009       7.07403797E-06
   72.4499969       7.06774745E-06
   72.7350006       7.00990040E-06
   73.0199966       6.90385332E-06
   73.3050003       6.76562468E-06
   73.5899963       6.62179855E-06
   73.8750000       6.50592483E-06
   74.1600037       6.45405862E-06
   74.4449997       6.49991898E-06
   74.7300034       6.67056156E-06
   75.0149994       6.98312761E-06
   75.3000031       7.44309182E-06
   75.5849991       8.04432057E-06
   75.8700027       8.77080220E-06
   76.1549988       9.59978297E-06
   76.4400024       1.05057452E-05
   76.7249985       1.14645372E-05
   77.0100021       1.24569315E-05
   77.2949982       1.34712363E-05
   77.5800018       1.45044405E-05
   77.8649979       1.55619637E-05
   78.1500015       1.66559275E-05
   78.4349976       1.78021473E-05
   78.7200012       1.90165938E-05
   79.0049973       2.03114996E-05
   79.2900009       2.16920471E-05
   79.5749969       2.31539307E-05
   79.8600006       2.46823074E-05
   80.1449966       2.62522044E-05
   80.4300003       2.78302596E-05
   80.7149963       2.93773719E-05
   81.0000000       3.08519884E-05
   81.2850037       3.22135056E-05
   81.5699997       3.34255237E-05
   81.8550034       3.44585969E-05
   82.1399994       3.52922325E-05
   82.4250031       3.59161822E-05
   82.7099991       3.63306790E-05
   82.9950027       3.65458400E-05
   83.2799988       3.65800624E-05
   83.5650024       3.64579319E-05
   83.8499985       3.62077408E-05
   84.1350021       3.58589423E-05
   84.4199982       3.54398362E-05
   84.7050018       3.49757502E-05
   84.9899979       3.44878936E-05
   85.2750015       3.39928702E-05
   85.5599976       3.35028490E-05
   85.8450012       3.30260373E-05
   86.1299973       3.25673755E-05
   86.4150009       3.21289954E-05
   86.6999969       3.17103077E-05
   86.9850006       3.13076525E-05
   87.2699966       3.09137504E-05
   87.5550003       3.05172543E-05
   87.8399963       3.01026375E-05
   88.1250000       2.96506805E-05
   88.4100037       2.91396009E-05
   88.6949997       2.85466613E-05
   88.9800034       2.78499010E-05
   89.2649994       2.70296750E-05
   89.5500031       2.60698253E-05
   89.8349991       2.49583281E-05
   90.1200027       2.36874257E-05
   90.4049988       2.22533017E-05
   90.6900024       2.06554287E-05
   90.9749985       1.88957692E-05
   91.2600021       1.69780451E-05
   91.5449982       1.49070538E-05
   91.8300018       1.26882833E-05
   92.1149979       1.03279563E-05
   92.4000015       7.83349060E-06
   92.6849976       5.21423908E-06
   92.9700012       2.48245328E-06
   93.2549973      -3.45756774E-07
   93.5400009      -3.24970051E-06
   93.8249969      -6.20379478E-06
   94.1100006      -9.17783927E-06
   94.3949966      -1.21377034E-05
   94.6800003      -1.50463493E-05
   94.9649963      -1.78651080E-05
   95.2500000      -2.05550077E-05
   95.5350037      -2.30779242E-05
   95.8199997      -2.53974067E-05
   96.1050034      -2.74793565E-05
   96.3899994      -2.92925415E-05
   96.6750031      -3.08092167E-05
   96.9599991      -3.20057879E-05
   97.2450027      -3.28638853E-05
   97.5299988      -3.33716525E-05
   97.8150024      -3.35252735E-05
   98.0999985      -3.33303797E-05
   98.3850021      -3.28029346E-05
   98.6699982      -3.19693863E-05
   98.9550018      -3.08658200E-05
   99.2399979      -2.95360187E-05
   99.5250015      -2.80284785E-05
   99.8099976      -2.63929287E-05
   100.095001      -2.46766558E-05
   100.379997      -2.29211073E-05
   100.665001      -2.11592524E-05
   100.949997      -1.94138574E-05
   101.235001      -1.76968788E-05
   101.519997      -1.60098461E-05
   101.805000      -1.43449561E-05
   102.089996      -1.26867053E-05
   102.375000      -1.10139154E-05
   102.660004      -9.30196984E-06
   102.945000      -7.52529650E-06
   103.230003      -5.66012795E-06
   103.514999      -3.68764449E-06
   103.800003      -1.59743092E-06
   104.084999       6.09049266E-07
   104.370003       2.91558808E-06
   104.654999       5.28947476E-06
   104.940002       7.68141399E-06
   105.224998       1.00275520E-05
   105.510002       1.22536176E-05
   105.794998       1.42809595E-05
   106.080002       1.60338077E-05
   106.364998       1.74470661E-05
   106.650002       1.84737910E-05
   106.934998       1.90915689E-05
   107.220001       1.93069300E-05
   107.504997       1.91571180E-05
   107.790001       1.87088972E-05
   108.074997       1.80541138E-05
   108.360001       1.73022399E-05
   108.644997       1.65706078E-05
   108.930000       1.59733554E-05
   109.214996       1.56105052E-05
   109.500000       1.55584530E-05
   109.785004       1.58630191E-05
   110.070000       1.65360343E-05
   110.355003       1.75556725E-05
   110.639999       1.88703816E-05
   110.925003       2.04055323E-05
   111.209999       2.20718193E-05
   111.495003       2.37741406E-05
   111.779999       2.54198912E-05
   112.065002       2.69255979E-05
   112.349998       2.82214151E-05
   112.635002       2.92532295E-05
   112.919998       2.99827188E-05
   113.205002       3.03856286E-05
   113.489998       3.04490404E-05
   113.775002       3.01683649E-05
   114.059998       2.95446353E-05
   114.345001       2.85827628E-05
   114.629997       2.72908783E-05
   114.915001       2.56809835E-05
   115.199997       2.37706881E-05
   115.485001       2.15855016E-05
   115.769997       1.91610670E-05
   116.055000       1.65447946E-05
   116.339996       1.37962315E-05
   116.625000       1.09859238E-05
   116.910004       8.19261277E-06
   117.195000       5.49898550E-06
   117.480003       2.98651753E-06
   117.764999       7.29985686E-07
   118.050003      -1.20776849E-06
   118.334999      -2.78025891E-06
   118.620003      -3.96050154E-06
   118.904999      -4.74261469E-06
   119.190002      -5.14177054E-06
   119.474998      -5.19262176E-06
   119.760002      -4.94633832E-06
   120.044998      -4.46646300E-06
   120.330002      -3.82394319E-06
   120.614998      -3.09171264E-06
   120.900002      -2.33925448E-06
   121.184998      -1.62758226E-06
   121.470001      -1.00513932E-06
   121.754997      -5.05209869E-07
   122.040001      -1.45291381E-07
   122.324997       7.14941066E-08
   122.610001       1.53022881E-07
   122.894997       1.13302704E-07
   123.180000      -3.30148957E-08
   123.464996      -2.75656959E-07
   123.750000      -6.12273311E-07
   124.035004      -1.04971650E-06
   124.320000      -1.60275135E-06
   124.605003      -2.29029843E-06
   124.889999      -3.12973657E-06
   125.175003      -4.13036878E-06
   125.459999      -5.28720466E-06
   125.745003      -6.57618466E-06
   126.029999      -7.95171491E-06
   126.315002      -9.34701802E-06
   126.599998      -1.06774896E-05
   126.885002      -1.18467688E-05
   127.169998      -1.27548356E-05
   127.455002      -1.33071580E-05
   127.739998      -1.34238826E-05
   128.024994      -1.30479875E-05
   128.309998      -1.21514049E-05
   128.595001      -1.07384558E-05
   128.880005      -8.84624842E-06
   129.164993      -6.54208725E-06
   129.449997      -3.91827552E-06
   129.735001      -1.08483937E-06
   130.020004       1.83894963E-06
   130.304993       4.73345381E-06
   130.589996       7.48718594E-06
   130.875000       1.00044081E-05
   131.160004       1.22112797E-05
   131.445007       1.40600132E-05
   131.729996       1.55308262E-05
   132.014999       1.66313912E-05
   132.300003       1.73937933E-05
   132.585007       1.78690079E-05
   132.869995       1.81193609E-05
   133.154999       1.82098429E-05
   133.440002       1.81993655E-05
   133.725006       1.81331779E-05
   134.009995       1.80375973E-05
   134.294998       1.79177823E-05
   134.580002       1.77589973E-05
   134.865005       1.75311307E-05
   135.149994       1.71955471E-05
   135.434998       1.67131875E-05
   135.720001       1.60525324E-05
   136.005005       1.51961185E-05
   136.289993       1.41446071E-05
   136.574997       1.29178025E-05
   136.860001       1.15527182E-05
   137.145004       1.00992056E-05
   137.429993       8.61416720E-06
   137.714996       7.15547685E-06
   138.000000       5.77675428E-06
   138.285004       4.52372387E-06
   138.570007       3.43228021E-06
   138.854996       2.52797372E-06
   139.139999       1.82635847E-06
   139.425003       1.33356195E-06
   139.710007       1.04662445E-06
   139.994995       9.53318022E-07
   140.279999       1.03158163E-06
   140.565002       1.24903988E-06
   140.850006       1.56304372E-06
   141.134995       1.92168363E-06
   141.419998       2.26602015E-06
   141.705002       2.53353346E-06
   141.990005       2.66264351E-06
   142.274994       2.59785043E-06
   142.559998       2.29489478E-06
   142.845001       1.72543969E-06
   143.130005       8.80833852E-07
   143.414993      -2.25436594E-07
   143.699997      -1.55681710E-06
   143.985001      -3.05433491E-06
   144.270004      -4.63888955E-06
   144.554993      -6.21517256E-06
   144.839996      -7.67706206E-06
   145.125000      -8.91419040E-06
   145.410004      -9.81907033E-06
   145.695007      -1.02942240E-05
   145.979996      -1.02587619E-05
   146.264999      -9.65391700E-06
   146.550003      -8.44724673E-06
   146.835007      -6.63530091E-06
   147.119995      -4.24470500E-06
   147.404999      -1.33160984E-06
   147.690002       2.02055890E-06
   147.975006       5.70517614E-06
   148.259995       9.59812860E-06
   148.544998       1.35648033E-05
   148.830002       1.74678134E-05
   149.115005       2.11746428E-05
   149.399994       2.45644696E-05
   149.684998       2.75334260E-05
   149.970001       2.99978037E-05
   150.255005       3.18951352E-05
   150.539993       3.31833653E-05
   150.824997       3.38385798E-05
   151.110001       3.38520476E-05
   151.395004       3.32273667E-05
   151.679993       3.19782630E-05
   151.964996       3.01275632E-05
   152.250000       2.77074196E-05
   152.535004       2.47605367E-05
   152.820007       2.13420117E-05
   153.104996       1.75210225E-05
   153.389999       1.33814647E-05
   153.675003       9.02112970E-06
   153.960007       4.54900919E-06
   154.244995       8.09041367E-08
   154.529999      -4.26615679E-06
   154.815002      -8.37998232E-06
   155.100006      -1.21587636E-05
   155.384995      -1.55153430E-05
   155.669998      -1.83797820E-05
   155.955002      -2.07001831E-05
   156.240005      -2.24420273E-05
   156.524994      -2.35865391E-05
   156.809998      -2.41286634E-05
   157.095001      -2.40751324E-05
   157.380005      -2.34429135E-05
   157.664993      -2.22580456E-05
   157.949997      -2.05548658E-05
   158.235001      -1.83755383E-05
   158.520004      -1.57697232E-05
   158.804993      -1.27942840E-05
   159.089996      -9.51301354E-06
   159.375000      -5.99621262E-06
   159.660004      -2.31998729E-06
   159.945007       1.43500654E-06
   160.229996       5.18563775E-06
   160.514999       8.84930523E-06
   160.800003       1.23478212E-05
   161.085007       1.56118949E-05
   161.369995       1.85855752E-05
   161.654999       2.12299165E-05
   161.940002       2.35250609E-05
   162.225006       2.54700481E-05
   162.509995       2.70802539E-05
   162.794998       2.83826066E-05
   163.080002       2.94091988E-05
   163.365005       3.01902201E-05
   163.649994       3.07473892E-05
   163.934998       3.10887699E-05
   164.220001       3.12058037E-05
   164.505005       3.10731521E-05
   164.789993       3.06512702E-05
   165.074997       2.98915984E-05
   165.360001       2.87436633E-05
   165.645004       2.71631852E-05
   165.929993       2.51203073E-05
   166.214996       2.26067477E-05
