  -4.50000000       0.00000000    
  -4.21500015      -2.71792164E-26
  -3.93000007       6.08713326E-25
  -3.64499998       2.90734434E-23
  -3.35999990       2.18155407E-22
  -3.07500005       8.33278747E-22
  -2.78999996       2.77757980E-21
  -2.50500011       5.91544967E-21
  -2.22000003      -1.24573424E-20
  -1.93499994      -1.06532927E-19
  -1.64999998      -1.47053145E-19
  -1.36500001       5.38855333E-19
  -1.08000004       2.42652233E-18
 -0.795000017       3.64420995E-18
 -0.509999990       1.33036492E-18
 -0.224999994       4.33114845E-19
   5.99999987E-02   1.72979960E-17
  0.344999999       5.92766097E-17
  0.629999995       9.65155265E-17
  0.915000021       7.02262907E-17
   1.20000005      -8.15347364E-17
   1.48500001      -5.11258340E-16
   1.76999998      -1.77738683E-15
   2.05500007      -5.30280572E-15
   2.33999991      -1.37702121E-14
   2.62500000      -3.15470035E-14
   2.91000009      -6.57343104E-14
   3.19499993      -1.28200781E-13
   3.48000002      -2.37501940E-13
   3.76500010      -4.18263379E-13
   4.05000019      -6.96572899E-13
   4.33500004      -1.09276423E-12
   4.61999989      -1.61356616E-12
   4.90500021      -2.24089584E-12
   5.19000006      -2.90840485E-12
   5.47499990      -3.45856785E-12
   5.76000023      -3.58769243E-12
   6.04500008      -2.80710372E-12
   6.32999992      -4.62337091E-13
   6.61499977       4.14763146E-12
   6.90000010       1.15174675E-11
   7.18499994       2.15274014E-11
   7.46999979       3.28869570E-11
   7.75500011       4.25005031E-11
   8.03999996       4.49206922E-11
   8.32499981       3.21538907E-11
   8.60999966      -5.86176810E-12
   8.89500046      -7.97863026E-11
   9.18000031      -1.98174227E-10
   9.46500015      -3.63452712E-10
   9.75000000      -5.66761693E-10
   10.0349998      -7.82172771E-10
   10.3199997      -9.61152380E-10
   10.6049995      -1.02839148E-09
   10.8900003      -8.80288509E-10
   11.1750002      -3.87449212E-10
   11.4600000       5.97410621E-10
   11.7449999       2.22485785E-09
   12.0299997       4.62656669E-09
   12.3149996       7.88567878E-09
   12.6000004       1.20013386E-08
   12.8850002       1.68512635E-08
   13.1700001       2.21585612E-08
   13.4549999       2.74711436E-08
   13.7399998       3.21633138E-08
   14.0249996       3.54686058E-08
   14.3100004       3.65501371E-08
   14.5950003       3.46091724E-08
   14.8800001       2.90247417E-08
   15.1650000       1.95077572E-08
   15.4499998       6.24455687E-09
   15.7349997      -1.00004476E-08
   16.0200005      -2.78526056E-08
   16.3050003      -4.53881093E-08
   16.5900002      -6.02969905E-08
   16.8750000      -7.01382277E-08
   17.1599998      -7.26579685E-08
   17.4449997      -6.61255015E-08
   17.7299995      -4.96335169E-08
   18.0149994      -2.33105979E-08
   18.2999992       1.15935990E-08
   18.5849991       5.27686339E-08
   18.8700008       9.70430989E-08
   19.1550007       1.40694340E-07
   19.4400005       1.79820475E-07
   19.7250004       2.10719762E-07
   20.0100002       2.30224629E-07
   20.2950001       2.35950054E-07
   20.5799999       2.26432022E-07
   20.8649998       2.01153924E-07
   21.1499996       1.60474869E-07
   21.4349995       1.05491203E-07
   21.7199993       3.78713594E-08
   22.0049992      -4.02915177E-08
   22.2900009      -1.26567969E-07
   22.5750008      -2.18192653E-07
   22.8600006      -3.11966460E-07
   23.1450005      -4.04073802E-07
   23.4300003      -4.89860497E-07
   23.7150002      -5.63639560E-07
   24.0000000      -6.18609988E-07
   24.2849998      -6.46972069E-07
   24.5699997      -6.40297799E-07
   24.8549995      -5.90175262E-07
   25.1399994      -4.89094134E-07
   25.4249992      -3.31486603E-07
   25.7099991      -1.14796379E-07
   25.9950008       1.59579685E-07
   26.2800007       4.85611793E-07
   26.5650005       8.52332619E-07
   26.8500004       1.24396809E-06
   27.1350002       1.64051687E-06
   27.4200001       2.01872535E-06
   27.7049999       2.35337143E-06
   27.9899998       2.61875334E-06
   28.2749996       2.79025858E-06
   28.5599995       2.84590169E-06
   28.8449993       2.76773426E-06
   29.1299992       2.54303222E-06
   29.4150009       2.16522835E-06
   29.7000008       1.63456025E-06
   29.9850006       9.58423129E-07
   30.2700005       1.51464988E-07
   30.5550003      -7.64557797E-07
   30.8400002      -1.76112485E-06
   31.1250000      -2.80350696E-06
   31.4099998      -3.85155681E-06
   31.6949997      -4.86078216E-06
   31.9799995      -5.78374329E-06
   32.2649994      -6.57181135E-06
   32.5499992      -7.17732928E-06
   32.8349991      -7.55606789E-06
   33.1199989      -7.66983703E-06
   33.4049988      -7.48909906E-06
   33.6899986      -6.99534439E-06
   33.9749985      -6.18301328E-06
   34.2599983      -5.06076958E-06
   34.5449982      -3.65197684E-06
   34.8300018      -1.99435772E-06
   35.1150017      -1.38807493E-07
   35.4000015       1.85257852E-06
   35.6850014       3.90916102E-06
   35.9700012       5.95491156E-06
   36.2550011       7.91188995E-06
   36.5400009       9.70376459E-06
   36.8250008       1.12591561E-05
   37.1100006       1.25145316E-05
   37.3950005       1.34163975E-05
   37.6800003       1.39226222E-05
   37.9650002       1.40029488E-05
   38.2500000       1.36387935E-05
   38.5349998       1.28225074E-05
   38.8199997       1.15564180E-05
   39.1049995       9.85196857E-06
   39.3899994       7.72916155E-06
   39.6749992       5.21626407E-06
   39.9599991       2.34978279E-06
   40.2449989      -8.25589041E-07
   40.5299988      -4.25726603E-06
   40.8149986      -7.88562102E-06
   41.0999985      -1.16456104E-05
   41.3849983      -1.54691570E-05
   41.6699982      -1.92881471E-05
   41.9550018      -2.30378300E-05
   42.2400017      -2.66603583E-05
   42.5250015      -3.01079126E-05
   42.8100014      -3.33450807E-05
   43.0950012      -3.63501895E-05
   43.3800011      -3.91154135E-05
   43.6650009      -4.16454750E-05
   43.9500008      -4.39549985E-05
   44.2350006      -4.60648043E-05
   44.5200005      -4.79975388E-05
   44.8050003      -4.97731235E-05
   45.0900002      -5.14045896E-05
   45.3750000      -5.28948258E-05
   45.6599998      -5.42348098E-05
   45.9449997      -5.54033795E-05
   46.2299995      -5.63688045E-05
   46.5149994      -5.70915545E-05
   46.7999992      -5.75281701E-05
   47.0849991      -5.76355778E-05
   47.3699989      -5.73753132E-05
   47.6549988      -5.67170173E-05
   47.9399986      -5.56409286E-05
   48.2249985      -5.41392583E-05
   48.5099983      -5.22164264E-05
   48.7949982      -4.98883019E-05
   49.0800018      -4.71807325E-05
   49.3650017      -4.41279662E-05
   49.6500015      -4.07711850E-05
   49.9350014      -3.71576352E-05
   50.2200012      -3.33402859E-05
   50.5050011      -2.93779558E-05
   50.7900009      -2.53356411E-05
   51.0750008      -2.12843479E-05
   51.3600006      -1.73003245E-05
   51.6450005      -1.34629572E-05
   51.9300003      -9.85112092E-06
   52.2150002      -6.53851203E-06
   52.5000000      -3.58835632E-06
   52.7849998      -1.04851927E-06
   53.0699997       1.05266940E-06
   53.3549995       2.70899932E-06
   53.6399994       3.93618984E-06
   53.9249992       4.76990817E-06
   54.2099991       5.26209806E-06
   54.4949989       5.47624904E-06
   54.7799988       5.48182879E-06
   55.0649986       5.34900801E-06
   55.3499985       5.14441308E-06
   55.6349983       4.92795152E-06
   55.9199982       4.75023398E-06
   56.2050018       4.65098083E-06
   56.4900017       4.65821631E-06
   56.7750015       4.78831453E-06
   57.0600014       5.04636955E-06
   57.3450012       5.42691669E-06
   57.6300011       5.91502203E-06
   57.9150009       6.48805280E-06
   58.2000008       7.11766552E-06
   58.4850006       7.77163677E-06
   58.7700005       8.41502697E-06
   59.0550003       9.01174553E-06
   59.3400002       9.52570917E-06
   59.6250000       9.92158857E-06
   59.9099998       1.01650949E-05
   60.1949997       1.02237336E-05
   60.4799995       1.00685193E-05
   60.7649994       9.67590222E-06
   61.0499992       9.02990905E-06
   61.3349991       8.12488270E-06
   61.6199989       6.96828329E-06
   61.9049988       5.58298962E-06
   62.1899986       4.00791623E-06
   62.4749985       2.29718512E-06
   62.7599983       5.17793467E-07
   63.0449982      -1.25394331E-06
   63.3300018      -2.93731682E-06
   63.6150017      -4.45264459E-06
   63.9000015      -5.72557474E-06
   64.1849976      -6.69031397E-06
   64.4700012      -7.29103385E-06
   64.7549973      -7.48176990E-06
   65.0400009      -7.22513960E-06
   65.3249969      -6.49010281E-06
   65.6100006      -5.25028736E-06
   65.8949966      -3.48365870E-06
   66.1800003      -1.17385218E-06
   66.4649963       1.68694385E-06
   66.7500000       5.09406254E-06
   67.0350037       9.02634383E-06
   67.3199997       1.34426882E-05
   67.6050034       1.82802469E-05
   67.8899994       2.34563340E-05
   68.1750031       2.88727842E-05
   68.4599991       3.44220243E-05
   68.7450027       3.99955352E-05
   69.0299988       4.54929868E-05
   69.3150024       5.08306839E-05
   69.5999985       5.59476903E-05
   69.8850021       6.08091468E-05
   70.1699982       6.54074465E-05
   70.4550018       6.97597134E-05
   70.7399979       7.39023235E-05
   71.0250015       7.78832473E-05
   71.3099976       8.17535692E-05
   71.5950012       8.55595208E-05
   71.8799973       8.93343167E-05
   72.1650009       9.30920287E-05
   72.4499969       9.68241438E-05
   72.7350006       1.00499419E-04
   73.0199966       1.04065955E-04
   73.3050003       1.07455082E-04
   73.5899963       1.10586821E-04
   73.8750000       1.13377551E-04
   74.1600037       1.15746268E-04
   74.4449997       1.17619420E-04
   74.7300034       1.18934280E-04
   75.0149994       1.19641591E-04
   75.3000031       1.19705801E-04
   75.5849991       1.19103024E-04
   75.8700027       1.17818527E-04
   76.1549988       1.15844829E-04
   76.4400024       1.13180009E-04
   76.7249985       1.09826753E-04
   77.0100021       1.05792395E-04
   77.2949982       1.01090918E-04
   77.5800018       9.57457378E-05
   77.8649979       8.97923819E-05
   78.1500015       8.32803853E-05
   78.4349976       7.62740528E-05
   78.7200012       6.88512227E-05
   79.0049973       6.11001014E-05
   79.2900009       5.31135011E-05
   79.5749969       4.49811778E-05
   79.8600006       3.67821085E-05
   80.1449966       2.85770784E-05
   80.4300003       2.04020253E-05
   80.7149963       1.22639058E-05
   81.0000000       4.13953148E-06
   81.2850037      -4.02203341E-06
   81.5699997      -1.22940064E-05
   81.8550034      -2.07640514E-05
   82.1399994      -2.95241516E-05
   82.4250031      -3.86590145E-05
   82.7099991      -4.82346950E-05
   82.9950027      -5.82891516E-05
   83.2799988      -6.88249202E-05
   83.5650024      -7.98046531E-05
   83.8499985      -9.11504321E-05
   84.1350021      -1.02747370E-04
   84.4199982      -1.14450631E-04
   84.7050018      -1.26094645E-04
   84.9899979      -1.37503957E-04
   85.2750015      -1.48504128E-04
   85.5599976      -1.58932307E-04
   85.8450012      -1.68645682E-04
   86.1299973      -1.77526992E-04
   86.4150009      -1.85486555E-04
   86.6999969      -1.92462452E-04
   86.9850006      -1.98418711E-04
   87.2699966      -2.03341260E-04
   87.5550003      -2.07233155E-04
   87.8399963      -2.10110185E-04
   88.1250000      -2.11997656E-04
   88.4100037      -2.12927887E-04
   88.6949997      -2.12938263E-04
   88.9800034      -2.12070168E-04
   89.2649994      -2.10368613E-04
   89.5500031      -2.07882680E-04
   89.8349991      -2.04665179E-04
   90.1200027      -2.00772149E-04
   90.4049988      -1.96262728E-04
   90.6900024      -1.91199550E-04
   90.9749985      -1.85648867E-04
   91.2600021      -1.79680515E-04
   91.5449982      -1.73367240E-04
   91.8300018      -1.66784914E-04
   92.1149979      -1.60011434E-04
   92.4000015      -1.53124522E-04
   92.6849976      -1.46198538E-04
   92.9700012      -1.39301570E-04
   93.2549973      -1.32492045E-04
   93.5400009      -1.25815088E-04
   93.8249969      -1.19299657E-04
   94.1100006      -1.12956550E-04
   94.3949966      -1.06778018E-04
   94.6800003      -1.00738391E-04
   94.9649963      -9.47957815E-05
   95.2500000      -8.88958384E-05
   95.5350037      -8.29772471E-05
   95.8199997      -7.69785111E-05
   96.1050034      -7.08452353E-05
   96.3899994      -6.45378896E-05
   96.6750031      -5.80392116E-05
   96.9599991      -5.13597915E-05
   97.2450027      -4.45404330E-05
   97.5299988      -3.76512544E-05
   97.8150024      -3.07877744E-05
   98.0999985      -2.40638565E-05
   98.3850021      -1.76016783E-05
   98.6699982      -1.15204657E-05
   98.9550018      -5.92588549E-06
   99.2399979      -9.00890086E-07
   99.5250015       3.50124355E-06
   99.8099976       7.26112967E-06
   100.095001       1.03937946E-05
   100.379997       1.29455220E-05
   100.665001       1.49883390E-05
   100.949997       1.66132777E-05
   101.235001       1.79225681E-05
   101.519997       1.90212068E-05
   101.805000       2.00092691E-05
   102.089996       2.09761529E-05
   102.375000       2.19967060E-05
   102.660004       2.31284830E-05
   102.945000       2.44104067E-05
   103.230003       2.58634991E-05
   103.514999       2.74929989E-05
   103.800003       2.92906079E-05
   104.084999       3.12365737E-05
   104.370003       3.33018106E-05
   104.654999       3.54500844E-05
   104.940002       3.76393291E-05
   105.224998       3.98218763E-05
   105.510002       4.19443422E-05
   105.794998       4.39481191E-05
   106.080002       4.57704737E-05
   106.364998       4.73461914E-05
   106.650002       4.86107092E-05
   106.934998       4.95052009E-05
   107.220001       4.99832095E-05
   107.504997       5.00173774E-05
   107.790001       4.96052271E-05
   108.074997       4.87738107E-05
   108.360001       4.75819324E-05
   108.644997       4.61181880E-05
   108.930000       4.44944926E-05
   109.214996       4.28362582E-05
   109.500000       4.12700792E-05
   109.785004       3.99097298E-05
   110.070000       3.88417611E-05
   110.355003       3.81132922E-05
   110.639999       3.77246215E-05
   110.925003       3.76270582E-05
   111.209999       3.77257966E-05
   111.495003       3.78883560E-05
   111.779999       3.79584344E-05
   112.065002       3.77733522E-05
   112.349998       3.71819369E-05
   112.635002       3.60606973E-05
   112.919998       3.43274005E-05
   113.205002       3.19508035E-05
   113.489998       2.89542822E-05
   113.775002       2.54127790E-05
   114.059998       2.14449301E-05
   114.345001       1.72020355E-05
   114.629997       1.28545353E-05
   114.915001       8.57680971E-06
   115.199997       4.53237772E-06
   115.485001       8.62196487E-07
   115.769997      -2.32360640E-06
   116.055000      -4.95140830E-06
   116.339996      -6.98693475E-06
   116.625000      -8.43384169E-06
   116.910004      -9.32895182E-06
   117.195000      -9.73636088E-06
   117.480003      -9.74100112E-06
   117.764999      -9.44112253E-06
   118.050003      -8.93966626E-06
   118.334999      -8.33605191E-06
   118.620003      -7.71952091E-06
   118.904999      -7.16312616E-06
   119.190002      -6.71772159E-06
   119.474998      -6.40749158E-06
   119.760002      -6.22858533E-06
   120.044998      -6.15051340E-06
   120.330002      -6.11921223E-06
   120.614998      -6.06218236E-06
   120.900002      -5.89660067E-06
   121.184998      -5.53925838E-06
   121.470001      -4.91585160E-06
   121.754997      -3.96872383E-06
   122.040001      -2.66349434E-06
   122.324997      -9.94283369E-07
   122.610001       1.01407682E-06
   122.894997       3.30753869E-06
   123.180000       5.80654068E-06
   123.464996       8.41074234E-06
   123.750000       1.10056862E-05
   124.035004       1.34721140E-05
   124.320000       1.56962997E-05
   124.605003       1.75793848E-05
   124.889999       1.90454157E-05
   125.175003       2.00485756E-05
   125.459999       2.05783635E-05
   125.745003       2.06603727E-05
   126.029999       2.03524833E-05
   126.315002       1.97384688E-05
   126.599998       1.89200509E-05
   126.885002       1.80069546E-05
   127.169998       1.71057891E-05
   127.455002       1.63104032E-05
   127.739998       1.56956503E-05
   128.024994       1.53137280E-05
   128.309998       1.51919348E-05
   128.595001       1.53326873E-05
   128.880005       1.57166742E-05
   129.164993       1.63077821E-05
   129.449997       1.70573821E-05
   129.735001       1.79077633E-05
   130.020004       1.87958831E-05
   130.304993       1.96570891E-05
   130.589996       2.04268108E-05
   130.875000       2.10399721E-05
   131.160004       2.14304819E-05
   131.445007       2.15321434E-05
   131.729996       2.12799969E-05
   132.014999       2.06116420E-05
   132.300003       1.94705499E-05
   132.585007       1.78124501E-05
   132.869995       1.56127207E-05
   133.154999       1.28725624E-05
   133.440002       9.62336981E-06
   133.725006       5.92973265E-06
   134.009995       1.88931733E-06
   134.294998      -2.37246650E-06
   134.580002      -6.71185035E-06
   134.865005      -1.09780694E-05
   135.149994      -1.50249371E-05
   135.434998      -1.87224505E-05
   135.720001      -2.19675094E-05
   136.005005      -2.46909149E-05
   136.289993      -2.68594194E-05
   136.574997      -2.84745802E-05
   136.860001      -2.95696464E-05
   137.145004      -3.02038079E-05
   137.429993      -3.04537371E-05
   137.714996      -3.04039804E-05
   138.000000      -3.01388391E-05
   138.285004      -2.97349397E-05
   138.570007      -2.92533296E-05
   138.854996      -2.87326166E-05
   139.139999      -2.81854464E-05
   139.425003      -2.75982620E-05
   139.710007      -2.69333887E-05
   139.994995      -2.61335317E-05
   140.279999      -2.51298152E-05
   140.565002      -2.38533175E-05
   140.850006      -2.22467552E-05
   141.134995      -2.02740430E-05
   141.419998      -1.79277667E-05
   141.705002      -1.52345228E-05
   141.990005      -1.22561996E-05
   142.274994      -9.08580660E-06
   142.559998      -5.83946894E-06
   142.845001      -2.64743881E-06
   143.130005       3.55364023E-07
   143.414993       3.04003538E-06
   143.699997       5.29430190E-06
   143.985001       7.03041451E-06
   144.270004       8.19015895E-06
   144.554993       8.74850775E-06
   144.839996       8.71597695E-06
   145.125000       8.13786937E-06
   145.410004       7.08943617E-06
   145.695007       5.66896551E-06
   145.979996       3.99006240E-06
   146.264999       2.17271213E-06
   146.550003       3.32995484E-07
   146.835007      -1.42597037E-06
   147.119995      -3.01953833E-06
   147.404999      -4.38351162E-06
   147.690002      -5.47436730E-06
   147.975006      -6.26788233E-06
   148.259995      -6.75497540E-06
   148.544998      -6.93624770E-06
   148.830002      -6.81859501E-06
   149.115005      -6.41454926E-06
   149.399994      -5.74230444E-06
   149.684998      -4.82587348E-06
   149.970001      -3.69667760E-06
   150.255005      -2.39622386E-06
   150.539993      -9.77424861E-07
   150.824997       4.97262988E-07
   151.110001       1.95933944E-06
   151.395004       3.33756861E-06
   151.679993       4.56197768E-06
   151.964996       5.56947816E-06
   152.250000       6.30936802E-06
   152.535004       6.74632020E-06
   152.820007       6.86116027E-06
   153.104996       6.65110701E-06
   153.389999       6.12965368E-06
   153.675003       5.32429976E-06
   153.960007       4.27226541E-06
   154.244995       3.01669752E-06
   154.529999       1.60427476E-06
   154.815002       8.25899207E-08
   155.100006      -1.50340077E-06
   155.384995      -3.11435247E-06
   155.669998      -4.71731119E-06
   155.955002      -6.28553971E-06
   156.240005      -7.79903985E-06
   156.524994      -9.24461801E-06
   156.809998      -1.06136858E-05
   157.095001      -1.18988492E-05
   157.380005      -1.30915050E-05
   157.664993      -1.41806531E-05
   157.949997      -1.51515014E-05
   158.235001      -1.59840747E-05
   158.520004      -1.66540194E-05
   158.804993      -1.71363481E-05
   159.089996      -1.74096222E-05
   159.375000      -1.74591896E-05
   159.660004      -1.72807686E-05
   159.945007      -1.68844908E-05
   160.229996      -1.62972028E-05
   160.514999      -1.55613707E-05
   160.800003      -1.47316614E-05
   161.085007      -1.38710247E-05
   161.369995      -1.30457674E-05
   161.654999      -1.23184655E-05
   161.940002      -1.17402033E-05
   162.225006      -1.13446895E-05
   162.509995      -1.11445006E-05
   162.794998      -1.11283935E-05
   163.080002      -1.12597518E-05
   163.365005      -1.14782270E-05
   163.649994      -1.17052969E-05
   163.934998      -1.18516591E-05
   164.220001      -1.18249873E-05
   164.505005      -1.15388357E-05
   164.789993      -1.09231441E-05
   165.074997      -9.93359208E-06
   165.360001      -8.55758390E-06
   165.645004      -6.81675374E-06
   165.929993      -4.76732521E-06
   166.214996      -2.49782784E-06
