  -4.50000000       0.00000000    
  -4.21500015       0.00000000    
  -3.93000007       0.00000000    
  -3.64499998       0.00000000    
  -3.35999990       0.00000000    
  -3.07500005       0.00000000    
  -2.78999996       0.00000000    
  -2.50500011       0.00000000    
  -2.22000003       5.08250953E-42
  -1.93499994      -1.34538666E-41
  -1.64999998       1.44584294E-39
  -1.36500001       1.10374198E-38
  -1.08000004       3.67830589E-38
 -0.795000017       1.15954690E-37
 -0.509999990       6.53888059E-37
 -0.224999994       1.90905800E-36
   5.99999987E-02   2.61453093E-36
  0.344999999       1.99915584E-37
  0.629999995      -1.58206100E-35
  0.915000021      -5.25982007E-35
   1.20000005      -7.36182438E-35
   1.48500001       5.61694421E-35
   1.76999998       6.76486438E-34
   2.05500007       2.29885498E-33
   2.33999991       5.36064362E-33
   2.62500000       9.83469194E-33
   2.91000009       1.47806836E-32
   3.19499993       1.74756866E-32
   3.48000002       9.36669898E-33
   3.76500010      -3.67916214E-32
   4.05000019      -1.93707810E-31
   4.33500004      -6.15974509E-31
   4.61999989      -1.56433312E-30
   4.90500021      -3.38062696E-30
   5.19000006      -6.37845052E-30
   5.47499990      -1.06348249E-29
   5.76000023      -1.56825707E-29
   6.04500008      -2.00829219E-29
   6.32999992      -2.08140952E-29
   6.61499977      -1.24287813E-29
   6.90000010       1.38624029E-29
   7.18499994       7.05766056E-29
   7.46999979       1.72598194E-28
   7.75500011       3.32344153E-28
   8.03999996       5.49613847E-28
   8.32499981       7.94842410E-28
   8.60999966       9.86001020E-28
   8.89500046       9.62631786E-28
   9.18000031       4.66464710E-28
   9.46500015      -8.52376823E-28
   9.75000000      -3.37337222E-27
   10.0349998      -7.35062903E-27
   10.3199997      -1.26362868E-26
   10.6049995      -1.82899697E-26
   10.8900003      -2.21526271E-26
   11.1750002      -2.05635238E-26
   11.4600000      -8.50911980E-27
   11.7449999       1.94329028E-26
   12.0299997       6.70171790E-26
   12.3149996       1.32995206E-25
   12.6000004       2.06865485E-25
   12.8850002       2.64787350E-25
   13.1700001       2.67569811E-25
   13.4549999       1.63239579E-25
   13.7399998      -1.03411714E-25
   14.0249996      -5.73158083E-25
   14.3100004      -1.24787343E-24
   14.5950003      -2.06379266E-24
   14.8800001      -2.86966416E-24
   15.1650000      -3.41734544E-24
   15.4499998      -3.36834061E-24
   15.7349997      -2.31133681E-24
   16.0200005       2.25162941E-25
   16.3050003       4.78840502E-24
   16.5900002       1.20627734E-23
   16.8750000       2.29660823E-23
   17.1599998       3.87137434E-23
   17.4449997       6.07072769E-23
   17.7299995       9.00316917E-23
   18.0149994       1.26327012E-22
   18.2999992       1.65889156E-22
   18.5849991       1.99109616E-22
   18.8700008       2.07793119E-22
   19.1550007       1.63447612E-22
   19.4400005       2.81636344E-23
   19.7250004      -2.40048808E-22
   20.0100002      -6.75922024E-22
   20.2950001      -1.28920834E-21
   20.5799999      -2.04227824E-21
   20.8649998      -2.82755920E-21
   21.1499996      -3.45226737E-21
   21.4349995      -3.63999092E-21
   21.7199993      -3.05875578E-21
   22.0049992      -1.38209733E-21
   22.2900009       1.61709125E-21
   22.5750008       5.95036817E-21
   22.8600006       1.12975100E-20
   23.1450005       1.69233253E-20
   23.4300003       2.16663741E-20
   23.7150002       2.40355082E-20
   24.0000000       2.24356198E-20
   24.2849998       1.55173978E-20
   24.5699997       2.61010461E-21
   24.8549995      -1.58421792E-20
   25.1399994      -3.79521677E-20
   25.4249992      -6.02939445E-20
   25.7099991      -7.81516301E-20
   25.9950008      -8.61750171E-20
   26.2800007      -7.94232975E-20
   26.5650005      -5.46731941E-20
   26.8500004      -1.17581422E-20
   27.1350002       4.53822982E-20
   27.4200001       1.08298880E-19
   27.7049999       1.64589012E-19
   27.9899998       1.99591534E-19
   28.2749996       1.99174920E-19
   28.5599995       1.53288135E-19
   28.8449993       5.96499004E-20
   29.1299992      -7.32809386E-20
   29.4150009      -2.25004113E-19
   29.7000008      -3.64181774E-19
   29.9850006      -4.52830514E-19
   30.2700005      -4.53407110E-19
   30.5550003      -3.37965707E-19
   30.8400002      -9.78281437E-20
   31.1250000       2.48366562E-19
   31.4099998       6.50599369E-19
   31.6949997       1.02949824E-18
   31.9799995       1.28573739E-18
   32.2649994       1.31676473E-18
   32.5499992       1.03914585E-18
   32.8349991       4.13132488E-19
   33.1199989      -5.35313397E-19
   33.4049988      -1.70044428E-18
   33.6899986      -2.89565906E-18
   33.9749985      -3.86900786E-18
   34.2599983      -4.33627185E-18
   34.5449982      -4.02930306E-18
   34.8300018      -2.75377256E-18
   35.1150017      -4.47338086E-19
   35.4000015       2.77275491E-18
   35.6850014       6.58391720E-18
   35.9700012       1.04637992E-17
   36.2550011       1.37327930E-17
   36.5400009       1.56333926E-17
   36.8250008       1.54397397E-17
   37.1100006       1.25841576E-17
   37.3950005       6.78239505E-18
   37.6800003      -1.86340383E-18
   37.9650002      -1.28042232E-17
   38.2500000      -2.50420460E-17
   38.5349998      -3.71941498E-17
   38.8199997      -4.76220055E-17
   39.1049995      -5.46121780E-17
   39.3899994      -5.65871809E-17
   39.6749992      -5.23178436E-17
   39.9599991      -4.11067207E-17
   40.2449989      -2.29150338E-17
   40.5299988       1.58594057E-18
   40.8149986       3.10470001E-17
   41.0999985       6.35505858E-17
   41.3849983       9.67787685E-17
   41.6699982       1.28210480E-16
   41.9550018       1.55313483E-16
   42.2400017       1.75697503E-16
   42.5250015       1.87202977E-16
   42.8100014       1.87914220E-16
   43.0950012       1.76102438E-16
   43.3800011       1.50126995E-16
   43.6650009       1.08339326E-16
   43.9500008       4.90491402E-17
   44.2350006      -2.93830105E-17
   44.5200005      -1.28267827E-16
   44.8050003      -2.48085601E-16
   45.0900002      -3.87753710E-16
   45.3750000      -5.43701926E-16
   45.6599998      -7.08847145E-16
   45.9449997      -8.71613685E-16
   46.2299995      -1.01519482E-15
   46.5149994      -1.11728686E-15
   46.7999992      -1.15053417E-15
   47.0849991      -1.08390561E-15
   47.3699989      -8.85162400E-16
   47.6549988      -5.24481742E-16
   47.9399986       2.08429761E-17
   48.2249985       7.60859574E-16
   48.5099983       1.68700439E-15
   48.7949982       2.76635413E-15
   49.0800018       3.93684185E-15
   49.3650017       5.10434040E-15
   49.6500015       6.14252708E-15
   49.9350014       6.89640631E-15
   50.2200012       7.19019503E-15
   50.5050011       6.83996638E-15
   50.7900009       5.67106304E-15
   51.0750008       3.53972485E-15
   51.3600006       3.57799793E-16
   51.6450005      -3.88123075E-15
   51.9300003      -9.07731159E-15
   52.2150002      -1.50028254E-14
   52.5000000      -2.12887654E-14
   52.7849998      -2.74214025E-14
   53.0699997      -3.27525245E-14
   53.3549995      -3.65257717E-14
   53.6399994      -3.79206215E-14
   53.9249992      -3.61143237E-14
   54.2099991      -3.03603205E-14
   54.4949989      -2.00798478E-14
   54.7799988      -4.96120877E-15
   55.0649986       1.49407583E-14
   55.3499985       3.91144568E-14
   55.6349983       6.65212921E-14
   55.9199982       9.55569174E-14
   56.2050018       1.24055104E-13
   56.4900017       1.49344025E-13
   56.7750015       1.68361798E-13
   57.0600014       1.77834649E-13
   57.3450012       1.74515445E-13
   57.6300011       1.55474673E-13
   57.9150009       1.18429084E-13
   58.2000008       6.20870000E-14
   58.4850006      -1.35170339E-14
   58.7700005      -1.06729580E-13
   59.0550003      -2.14062072E-13
   59.3400002      -3.30084592E-13
   59.6250000      -4.47460401E-13
   59.9099998      -5.57145638E-13
   60.1949997      -6.48767606E-13
   60.4799995      -7.11184854E-13
   60.7649994      -7.33214487E-13
   61.0499992      -7.04498797E-13
   61.3349991      -6.16466025E-13
   61.6199989      -4.63326317E-13
   61.9049988      -2.43031588E-13
   62.1899986       4.18798568E-14
   62.4749985       3.83635018E-13
   62.7599983       7.68854164E-13
   63.0449982       1.17852440E-12
   63.3300018       1.58837396E-12
   63.6150017       1.96968353E-12
   63.9000015       2.29053950E-12
   64.1849976       2.51751398E-12
   64.4700012       2.61771225E-12
   64.7549973       2.56110888E-12
   65.0400009       2.32305169E-12
   65.3249969       1.88679476E-12
   65.6100006       1.24589011E-12
   65.8949966       4.06270666E-13
   66.1800003      -6.12167868E-13
   66.4649963      -1.77464835E-12
   66.7500000      -3.03141518E-12
   67.0350037      -4.31858065E-12
   67.3199997      -5.55999431E-12
   67.6050034      -6.67016659E-12
   67.8899994      -7.55821360E-12
   68.1750031      -8.13272019E-12
   68.4599991      -8.30735741E-12
   68.7450027      -8.00700738E-12
   69.0299988      -7.17409422E-12
   69.3150024      -5.77475741E-12
   69.5999985      -3.80445675E-12
   69.8850021      -1.29259461E-12
   70.1699982       1.69428436E-12
   70.4550018       5.05111404E-12
   70.7399979       8.63509351E-12
   71.0250015       1.22689098E-11
   71.3099976       1.57465378E-11
   71.5950012       1.88416262E-11
   71.8799973       2.13183117E-11
   72.1650009       2.29441119E-11
   72.4499969       2.35043790E-11
   72.7350006       2.28176263E-11
   73.0199966       2.07508351E-11
   73.3050003       1.72338168E-11
   73.5899963       1.22715553E-11
   73.8750000       5.95352717E-12
   74.1600037      -1.54100409E-12
   74.4449997      -9.94250082E-12
   74.7300034      -1.88961260E-11
   75.0149994      -2.79724265E-11
   75.3000031      -3.66837706E-11
   75.5849991      -4.45061071E-11
   75.8700027      -5.09052973E-11
   76.1549988      -5.53668569E-11
   76.4400024      -5.74276043E-11
   76.7249985      -5.67075137E-11
   77.0100021      -5.29398747E-11
   77.2949982      -4.59976779E-11
   77.5800018      -3.59144763E-11
   77.8649979      -2.28978590E-11
   78.1500015      -7.33419488E-12
   78.4349976       1.02163365E-11
   78.7200012       2.90349897E-11
   79.0049973       4.82698152E-11
   79.2900009       6.69705472E-11
   79.5749969       8.41317294E-11
   79.8600006       9.87422158E-11
   80.1449966       1.09838937E-10
   80.4300003       1.16562052E-10
   80.7149963       1.18208610E-10
   81.0000000       1.14281723E-10
   81.2850037       1.04532202E-10
   81.5699997       8.89898086E-11
   81.8550034       6.79818563E-11
   82.1399994       4.21371375E-11
   82.4250031       1.23741893E-11
   82.7099991      -2.01266556E-11
   82.9950027      -5.39669906E-11
   83.2799988      -8.75885267E-11
   83.5650024      -1.19343702E-10
   83.8499985      -1.47575743E-10
   84.1350021      -1.70704728E-10
   84.4199982      -1.87315316E-10
   84.7050018      -1.96241828E-10
   84.9899979      -1.96645630E-10
   85.2750015      -1.88080176E-10
   85.5599976      -1.70539097E-10
   85.8450012      -1.44483286E-10
   86.1299973      -1.10843786E-10
   86.4150009      -7.09979991E-11
   86.6999969      -2.67188684E-11
   86.9850006       1.99031312E-11
   87.2699966       6.65623667E-11
   87.5550003       1.10861278E-10
   87.8399963       1.50448251E-10
   88.1250000       1.83163151E-10
   88.4100037       2.07181522E-10
   88.6949997       2.21148003E-10
   88.9800034       2.24288615E-10
   89.2649994       2.16492851E-10
   89.5500031       1.98356179E-10
   89.8349991       1.71176781E-10
   90.1200027       1.36902406E-10
   90.4049988       9.80265522E-11
   90.6900024       5.74369441E-11
   90.9749985       1.82232736E-11
   91.2600021      -1.65449390E-11
   91.5449982      -4.40565431E-11
   91.8300018      -6.19963872E-11
   92.1149979      -6.87640916E-11
   92.4000015      -6.36560041E-11
   92.6849976      -4.69929547E-11
   92.9700012      -2.01793599E-11
   93.2549973       1.43164976E-11
   93.5400009       5.30663569E-11
   93.8249969       9.18691165E-11
   94.1100006       1.26013755E-10
   94.3949966       1.50604113E-10
   94.6800003       1.60925981E-10
   94.9649963       1.52832136E-10
   95.2500000       1.23118168E-10
   95.5350037       6.98602495E-11
   95.8199997      -7.31165562E-12
   96.1050034      -1.07029587E-10
   96.3899994      -2.26110908E-10
   96.6750031      -3.59600294E-10
   96.9599991      -5.00934239E-10
   97.2450027      -6.42222053E-10
   97.5299988      -7.74629583E-10
   97.8150024      -8.88843110E-10
   98.0999985      -9.75586834E-10
   98.3850021      -1.02615993E-09
   98.6699982      -1.03296049E-09
   98.9550018      -9.89964222E-10
   99.2399979      -8.93128627E-10
   99.5250015      -7.40702333E-10
   99.8099976      -5.33422306E-10
   100.095001      -2.74595013E-10
   100.379997       2.99366816E-11
   100.665001       3.71932485E-10
   100.949997       7.40982997E-10
   101.235001       1.12480980E-09
   101.519997       1.50961876E-09
   101.805000       1.88048954E-09
   102.089996       2.22179142E-09
   102.375000       2.51761367E-09
   102.660004       2.75221446E-09
   102.945000       2.91049163E-09
   103.230003       2.97847857E-09
   103.514999       2.94387603E-09
   103.800003       2.79662538E-09
   104.084999       2.52951837E-09
   104.370003       2.13883156E-09
   104.654999       1.62496261E-09
   104.940002       9.93032101E-10
   105.224998       2.53395249E-10
   105.510002      -5.77990433E-10
   105.794998      -1.47941170E-09
   106.080002      -2.42352027E-09
   106.364998      -3.37778361E-09
   106.650002      -4.30530278E-09
   106.934998      -5.16600895E-09
   107.220001      -5.91822724E-09
   107.504997      -6.52054899E-09
   107.790001      -6.93394275E-09
   108.074997      -7.12397430E-09
   108.360001      -7.06300884E-09
   108.644997      -6.73224321E-09
   108.930000      -6.12340090E-09
   109.214996      -5.23996002E-09
   109.500000      -4.09778611E-09
   109.785004      -2.72508882E-09
   110.070000      -1.16166488E-09
   110.355003       5.42557499E-10
   110.639999       2.32959718E-09
   110.925003       4.13601375E-09
   111.209999       5.89584515E-09
   111.495003       7.54369989E-09
   111.779999       9.01780339E-09
   112.065002       1.02627817E-08
   112.349998       1.12320215E-08
   112.635002       1.18894308E-08
   112.919998       1.22105321E-08
   113.205002       1.21828272E-08
   113.489998       1.18054739E-08
   113.775002       1.10883356E-08
   114.059998       1.00505444E-08
   114.345001       8.71874217E-09
   114.629997       7.12519510E-09
   114.915001       5.30596722E-09
   115.199997       3.29933392E-09
   115.485001       1.14457377E-09
   115.769997      -1.11876852E-09
   116.055000      -3.45112072E-09
   116.339996      -5.81265214E-09
   116.625000      -8.16267232E-09
   116.910004      -1.04587965E-08
   117.195000      -1.26560717E-08
   117.480003      -1.47062540E-08
   117.764999      -1.65574416E-08
   118.050003      -1.81542301E-08
   118.334999      -1.94385095E-08
   118.620003      -2.03509654E-08
   118.904999      -2.08332871E-08
   119.190002      -2.08309636E-08
   119.474998      -2.02965271E-08
   119.760002      -1.91930152E-08
   120.044998      -1.74973867E-08
   120.330002      -1.52036286E-08
   120.614998      -1.23252510E-08
   120.900002      -8.89697471E-09
   121.184998      -4.97540098E-09
   121.470001      -6.38570474E-10
   121.754997       4.01561584E-09
   122.040001       8.87203999E-09
   122.324997       1.38019427E-08
   122.610001       1.86672420E-08
   122.894997       2.33252813E-08
   123.180000       2.76337975E-08
   123.464996       3.14557873E-08
   123.750000       3.46640157E-08
   124.035004       3.71450035E-08
   124.320000       3.88022912E-08
   124.605003       3.95589232E-08
   124.889999       3.93591577E-08
   125.175003       3.81694072E-08
   125.459999       3.59785446E-08
   125.745003       3.27977112E-08
   126.029999       2.86597519E-08
   126.315002       2.36184619E-08
   126.599998       1.77477695E-08
   126.885002       1.11408900E-08
   127.169998       3.90955357E-09
   127.455002      -3.81677578E-09
   127.739998      -1.18917214E-08
   128.024994      -2.01529993E-08
   128.309998      -2.84237647E-08
   128.595001      -3.65144395E-08
   128.880005      -4.42252457E-08
   129.164993      -5.13495522E-08
   129.449997      -5.76780828E-08
   129.735001      -6.30040589E-08
   130.020004      -6.71292000E-08
   130.304993      -6.98703531E-08
   130.589996      -7.10666441E-08
   130.875000      -7.05866157E-08
   131.160004      -6.83351900E-08
   131.445007      -6.42599787E-08
   131.729996      -5.83564379E-08
   132.014999      -5.06716944E-08
   132.300003      -4.13065457E-08
   132.585007      -3.04155314E-08
   132.869995      -1.82048563E-08
   133.154999      -4.92828534E-09
   133.440002       9.11895359E-09
   133.725006       2.36079956E-08
   134.009995       3.81856289E-08
   134.294998       5.24846122E-08
   134.580002       6.61345823E-08
   134.865005       7.87732262E-08
   135.149994       9.00570711E-08
   135.434998       9.96715883E-08
   135.720001       1.07340298E-07
   136.005005       1.12832502E-07
   136.289993       1.15969463E-07
   136.574997       1.16628840E-07
   136.860001       1.14747444E-07
   137.145004       1.10322183E-07
   137.429993       1.03409313E-07
   137.714996       9.41220932E-08
   138.000000       8.26270821E-08
   138.285004       6.91391833E-08
   138.570007       5.39157021E-08
   138.854996       3.72496238E-08
   139.139999       1.94624032E-08
   139.425003       8.96381747E-10
   139.710007      -1.80928907E-08
   139.994995      -3.71442326E-08
   140.279999      -5.58981945E-08
   140.565002      -7.40038999E-08
   140.850006      -9.11253935E-08
   141.134995      -1.06947255E-07
   141.419998      -1.21179582E-07
   141.705002      -1.33562025E-07
   141.990005      -1.43867140E-07
   142.274994      -1.51903023E-07
   142.559998      -1.57515217E-07
   142.845001      -1.60588016E-07
   143.130005      -1.61045435E-07
   143.414993      -1.58851705E-07
   143.699997      -1.54011644E-07
   143.985001      -1.46570713E-07
   144.270004      -1.36614972E-07
   144.554993      -1.24270883E-07
   144.839996      -1.09704793E-07
   145.125000      -9.31219049E-08
   145.410004      -7.47646993E-08
   145.695007      -5.49102950E-08
   145.979996      -3.38667974E-08
   146.264999      -1.19683383E-08
   146.550003       1.04312949E-08
   146.835007       3.29664189E-08
   147.119995       5.52685719E-08
   147.404999       7.69771020E-08
   147.690002       9.77507000E-08
   147.975006       1.17279875E-07
   148.259995       1.35299260E-07
   148.544998       1.51600261E-07
   148.830002       1.66042668E-07
   149.115005       1.78565131E-07
   149.399994       1.89194125E-07
   149.684998       1.98051026E-07
   149.970001       2.05356628E-07
   150.255005       2.11433189E-07
   150.539993       2.16703654E-07
   150.824997       2.21687728E-07
   151.110001       2.26995169E-07
   151.395004       2.33315831E-07
   151.679993       2.41407150E-07
   151.964996       2.52078792E-07
   152.250000       2.66174936E-07
   152.535004       2.84554545E-07
   152.820007       3.08069986E-07
   153.104996       3.37544009E-07
   153.389999       3.73746389E-07
   153.675003       4.17369705E-07
   153.960007       4.69006181E-07
   154.244995       5.29125145E-07
   154.529999       5.98051031E-07
   154.815002       6.75945785E-07
   155.100006       7.62791160E-07
   155.384995       8.58375643E-07
   155.669998       9.62285867E-07
   155.955002       1.07390008E-06
   156.240005       1.19238882E-06
   156.524994       1.31671891E-06
   156.809998       1.44566275E-06
   157.095001       1.57781233E-06
   157.380005       1.71159957E-06
   157.664993       1.84531939E-06
   157.949997       1.97716076E-06
   158.235001       2.10523763E-06
   158.520004       2.22762606E-06
   158.804993       2.34240065E-06
   159.089996       2.44767716E-06
   159.375000       2.54164820E-06
   159.660004       2.62262438E-06
   159.945007       2.68907183E-06
   160.229996       2.73964656E-06
   160.514999       2.77322351E-06
   160.800003       2.78892458E-06
   161.085007       2.78613516E-06
   161.369995       2.76452056E-06
   161.654999       2.72403349E-06
   161.940002       2.66491884E-06
   162.225006       2.58771024E-06
   162.509995       2.49322147E-06
   162.794998       2.38253324E-06
   163.080002       2.25697431E-06
   163.365005       2.11810197E-06
   163.649994       1.96767428E-06
   163.934998       1.80762356E-06
   164.220001       1.64002472E-06
   164.505005       1.46706032E-06
   164.789993       1.29098203E-06
   165.074997       1.11406860E-06
   165.360001       9.38580513E-07
   165.645004       7.66712276E-07
   165.929993       6.00542307E-07
   166.214996       4.41982934E-07
