  -4.50000000         0.00000000    
  -4.21500015         0.00000000    
  -3.93000007         0.00000000    
  -3.64499998         0.00000000    
  -3.35999990         0.00000000    
  -3.07500005         0.00000000    
  -2.78999996         0.00000000    
  -2.50500011         0.00000000    
  -2.22000003         0.00000000    
  -1.93499994         0.00000000    
  -1.64999998         0.00000000    
  -1.36500001         0.00000000    
  -1.08000004         0.00000000    
 -0.795000017         0.00000000    
 -0.509999990         0.00000000    
 -0.224999994         0.00000000    
   5.99999987E-02     0.00000000    
  0.344999999         0.00000000    
  0.629999995         0.00000000    
  0.915000021         0.00000000    
   1.20000005         0.00000000    
   1.48500001         0.00000000    
   1.76999998         1.39266808E-34
   2.05500007         4.74501703E-34
   2.33999991         5.69504284E-34
   2.62500000         5.70535367E-34
   2.91000009         5.49491079E-34
   3.19499993         3.81863307E-33
   3.48000002         1.37200835E-32
   3.76500010         1.65169299E-32
   4.05000019         4.96093293E-32
   4.33500004         8.97582860E-32
   4.61999989         1.23346503E-31
   4.90500021         2.60699468E-31
   5.19000006         6.33522242E-31
   5.47499990         7.85784778E-31
   5.76000023        -3.78024360E-31
   6.04500008        -2.84600893E-30
   6.32999992        -1.19751157E-29
   6.61499977        -3.85443432E-29
   6.90000010        -1.25557199E-28
   7.18499994        -2.99875502E-28
   7.46999979        -5.69842611E-28
   7.75500011        -9.69996254E-28
   8.03999996        -1.55263879E-27
   8.32499981        -2.42302556E-27
   8.60999966        -3.60570100E-27
   8.89500046        -5.04795252E-27
   9.18000031        -6.52124039E-27
   9.46500015        -7.54153568E-27
   9.75000000        -7.27732813E-27
   10.0349998        -4.40680235E-27
   10.3199997         2.82006468E-27
   10.6049995         1.63967990E-26
   10.8900003         3.80746181E-26
   11.1750002         6.84424781E-26
   11.4600000         1.05616100E-25
   11.7449999         1.43460445E-25
   12.0299997         1.69727775E-25
   12.3149996         1.64405799E-25
   12.6000004         9.91610237E-26
   12.8850002        -6.11261938E-26
   13.1700001        -3.53415849E-25
   13.4549999        -8.06707700E-25
   13.7399998        -1.42595424E-24
   14.0249996        -2.16831022E-24
   14.3100004        -2.91111545E-24
   14.5950003        -3.41307258E-24
   14.8800001        -3.27472274E-24
   15.1650000        -1.91214342E-24
   15.4499998         1.43087447E-24
   15.7349997         7.59369656E-24
   16.0200005         1.72825887E-23
   16.3050003         3.06743073E-23
   16.5900002         4.68026537E-23
   16.8750000         6.27392816E-23
   17.1599998         7.26714759E-23
   17.4449997         6.71124993E-23
   17.7299995         3.26408081E-23
   18.0149994        -4.72888633E-23
   18.2999992        -1.89855659E-22
   18.5849991        -4.08194346E-22
   18.8700008        -7.04368929E-22
   19.1550007        -1.06048967E-21
   19.4400005        -1.42939778E-21
   19.7250004        -1.72742413E-21
   20.0100002        -1.83270932E-21
   20.2950001        -1.59303263E-21
   20.5799999        -8.46640006E-22
   20.8649998         5.42235925E-22
   21.1499996         2.63475099E-21
   21.4349995         5.36186066E-21
   21.7199993         8.47303235E-21
   22.0049992         1.15049748E-20
   22.2900009         1.37882833E-20
   22.5750008         1.45081195E-20
   22.8600006         1.28279703E-20
   23.1450005         8.07291039E-21
   23.4300003        -4.82809190E-23
   23.7150002        -1.12215516E-20
   24.0000000        -2.43617954E-20
   24.2849998        -3.75658647E-20
   24.5699997        -4.82417905E-20
   24.8549995        -5.34489571E-20
   25.1399994        -5.04443560E-20
   25.4249992        -3.73767441E-20
   25.7099991        -1.40131779E-20
   25.9950008         1.76664582E-20
   26.2800007         5.31963988E-20
   26.5650005         8.58492178E-20
   26.8500004         1.07472210E-19
   27.1350002         1.09941221E-19
   27.4200001         8.70907254E-20
   27.7049999         3.68187978E-20
   27.9899998        -3.70739281E-20
   28.2749996        -1.23831238E-19
   28.5599995        -2.05975016E-19
   28.8449993        -2.61184269E-19
   29.1299992        -2.65910055E-19
   29.4150009        -2.00444758E-19
   29.7000008        -5.47455788E-20
   29.9850006         1.66069174E-19
   30.2700005         4.37884963E-19
   30.5550003         7.16775524E-19
   30.8400002         9.42300372E-19
   31.1250000         1.04542560E-18
   31.4099998         9.60726648E-19
   31.6949997         6.41521785E-19
   31.9799995         7.55784586E-20
   32.2649994        -7.01728074E-19
   32.5499992        -1.60024903E-18
   32.8349991        -2.47704528E-18
   33.1199989        -3.14966989E-18
   33.4049988        -3.42118655E-18
   33.6899986        -3.11521016E-18
   33.9749985        -2.11682757E-18
   34.2599983        -4.13103200E-19
   34.5449982         1.87461254E-18
   34.8300018         4.47480392E-18
   35.1150017         6.97349570E-18
   35.4000015         8.85022871E-18
   35.6850014         9.54308677E-18
   35.9700012         8.53873731E-18
   36.2550011         5.47823025E-18
   36.5400009         2.64614949E-19
   36.8250008        -6.84493777E-18
   37.1100006        -1.51811432E-17
   37.3950005        -2.36559941E-17
   37.6800003        -3.08206173E-17
   37.9650002        -3.49937104E-17
   38.2500000        -3.44574723E-17
   38.5349998        -2.77079118E-17
   38.8199997        -1.37358238E-17
   39.1049995         7.69386827E-18
   39.3899994         3.58028254E-17
   39.6749992         6.86403141E-17
   39.9599991         1.03042359E-16
   40.2449989         1.34738365E-16
   40.5299988         1.58621875E-16
   40.8149986         1.69185236E-16
   41.0999985         1.61097726E-16
   41.3849983         1.29886494E-16
   41.6699982         7.26606964E-17
   41.9550018        -1.11955289E-17
   42.2400017        -1.19444060E-16
   42.5250015        -2.46611207E-16
   42.8100014        -3.83877926E-16
   43.0950012        -5.19298589E-16
   43.3800011        -6.38377392E-16
   43.6650009        -7.24997628E-16
   43.9500008        -7.62663384E-16
   44.2350006        -7.35977081E-16
   44.5200005        -6.32245297E-16
   44.8050003        -4.43083861E-16
   45.0900002        -1.65882165E-16
   45.3750000         1.95010278E-16
   45.6599998         6.27495507E-16
   45.9449997         1.11142592E-15
   46.2299995         1.61884164E-15
   46.5149994         2.11476132E-15
   46.7999992         2.55850283E-15
   47.0849991         2.90548903E-15
   47.3699989         3.10947108E-15
   47.6549988         3.12510900E-15
   47.9399986         2.91084948E-15
   48.2249985         2.43205267E-15
   48.5099983         1.66432932E-15
   48.7949982         5.97042978E-16
   49.0800018        -7.63112946E-16
   49.3650017        -2.38860178E-15
   49.6500015        -4.22783832E-15
   49.9350014        -6.20263550E-15
   50.2200012        -8.20676755E-15
   50.5050011        -1.01061805E-14
   50.7900009        -1.17414462E-14
   51.0750008        -1.29329776E-14
   51.3600006        -1.34894461E-14
   51.6450005        -1.32195636E-14
   51.9300003        -1.19470804E-14
   52.2150002        -9.52842270E-15
   52.5000000        -5.87198518E-15
   52.7849998        -9.57607487E-16
   53.0699997         5.14554431E-15
   53.3549995         1.22646559E-14
   53.6399994         2.01145219E-14
   53.9249992         2.82962384E-14
   54.2099991         3.63047232E-14
   54.4949989         4.35458452E-14
   54.7799988         4.93632777E-14
   55.0649986         5.30741256E-14
   55.3499985         5.40118961E-14
   55.6349983         5.15743352E-14
   55.9199982         4.52734943E-14
   56.2050018         3.47847598E-14
   56.4900017         1.99919410E-14
   56.7750015         1.02546404E-15
   57.0600014        -2.17088073E-14
   57.3450012        -4.75116569E-14
   57.6300011        -7.53849972E-14
   57.9150009        -1.04039620E-13
   58.2000008        -1.31916762E-13
   58.4850006        -1.57224236E-13
   58.7700005        -1.77987779E-13
   59.0550003        -1.92119229E-13
   59.3400002        -1.97502577E-13
   59.6250000        -1.92099632E-13
   59.9099998        -1.74076384E-13
   60.1949997        -1.41949779E-13
   60.4799995        -9.47528731E-14
   60.7649994        -3.22140115E-14
   61.0499992         4.50596151E-14
   61.3349991         1.35405698E-13
   61.6199989         2.35955867E-13
   61.9049988         3.42530746E-13
   62.1899986         4.49604790E-13
   62.4749985         5.50365526E-13
   62.7599983         6.36890172E-13
   63.0449982         7.00456945E-13
   63.3300018         7.32000235E-13
   63.6150017         7.22707484E-13
   63.9000015         6.64740073E-13
   64.1849976         5.52044413E-13
   64.4700012         3.81203966E-13
   64.7549973         1.52262724E-13
   65.0400009        -1.30554720E-13
   65.3249969        -4.58316328E-13
   65.6100006        -8.17131302E-13
   65.8949966        -1.18824980E-12
   66.1800003        -1.54857344E-12
   66.4649963        -1.87160443E-12
   66.7500000        -2.12882836E-12
   67.0350037        -2.29149599E-12
   67.3199997        -2.33270608E-12
   67.6050034        -2.22968584E-12
   67.8899994        -1.96609829E-12
   68.1750031        -1.53420538E-12
   68.4599991        -9.36699936E-13
   68.7450027        -1.88014399E-13
   69.0299988         6.85055094E-13
   69.3150024         1.64354478E-12
   69.5999985         2.63741546E-12
   69.8850021         3.60756932E-12
   70.1699982         4.48873881E-12
   70.4550018         5.21314719E-12
   70.7399979         5.71475462E-12
   71.0250015         5.93384846E-12
   71.3099976         5.82171420E-12
   71.5950012         5.34504862E-12
   71.8799973         4.48981347E-12
   72.1650009         3.26420748E-12
   72.4499969         1.70047320E-12
   72.7350006        -1.44675599E-13
   73.0199966        -2.19116847E-12
   73.3050003        -4.33830185E-12
   73.5899963        -6.46904752E-12
   73.8750000        -8.45580203E-12
   74.1600037        -1.01673297E-11
   74.4449997        -1.14765706E-11
   74.7300034        -1.22688535E-11
   75.0149994        -1.24500410E-11
   75.3000031        -1.19540202E-11
   75.5849991        -1.07490562E-11
   75.8700027        -8.84247797E-12
   76.1549988        -6.28327295E-12
   76.4400024        -3.16225388E-12
   76.7249985         3.90358617E-13
   77.0100021         4.20997742E-12
   77.2949982         8.10513288E-12
   77.5800018         1.18670984E-11
   77.8649979         1.52811080E-11
   78.1500015         1.81385792E-11
   78.4349976         2.02496006E-11
   78.7200012         2.14548882E-11
   79.0049973         2.16364773E-11
   79.2900009         2.07264032E-11
   79.5749969         1.87127449E-11
   79.8600006         1.56426278E-11
   80.1449966         1.16218875E-11
   80.4300003         6.81137785E-12
   80.7149963         1.42002295E-12
   81.0000000        -4.30488848E-12
   81.2850037        -1.00898161E-11
   81.5699997        -1.56486161E-11
   81.8550034        -2.06971142E-11
   82.1399994        -2.49677258E-11
   82.4250031        -2.82233854E-11
   82.7099991        -3.02700434E-11
   82.9950027        -3.09671663E-11
   83.2799988        -3.02357202E-11
   83.5650024        -2.80632878E-11
   83.8499985        -2.45062685E-11
   84.1350021        -1.96888911E-11
   84.4199982        -1.37994208E-11
   84.7050018        -7.08334520E-12
   84.9899979         1.65781953E-13
   85.2750015         7.61791238E-12
   85.5599976         1.49199299E-11
   85.8450012         2.17105726E-11
   86.1299973         2.76363828E-11
   86.4150009         3.23682817E-11
   86.6999969         3.56181924E-11
   86.9850006         3.71551540E-11
   87.2699966         3.68200886E-11
   87.5550003         3.45386879E-11
   87.8399963         3.03313694E-11
   88.1250000         2.43198118E-11
   88.4100037         1.67289949E-11
   88.6949997         7.88449427E-12
   88.9800034        -1.79547913E-12
   89.2649994        -1.18135371E-11
   89.5500031        -2.16117783E-11
   89.8349991        -3.05952520E-11
   90.1200027        -3.81596976E-11
   90.4049988        -4.37221856E-11
   90.6900024        -4.67540416E-11
   90.9749985        -4.68141394E-11
   91.2600021        -4.35813191E-11
   91.5449982        -3.68844018E-11
   91.8300018        -2.67283730E-11
   92.1149979        -1.33149368E-11
   92.4000015         2.94377283E-12
   92.6849976         2.14199700E-11
   92.9700012         4.12750285E-11
   93.2549973         6.14754705E-11
   93.5400009         8.08213843E-11
   93.8249969         9.79879372E-11
   94.1100006         1.11580314E-10
   94.3949966         1.20201613E-10
   94.6800003         1.22532220E-10
   94.9649963         1.17418478E-10
   95.2500000         1.03966502E-10
   95.5350037         8.16364892E-11
   95.8199997         5.03309408E-11
   96.1050034         1.04697761E-11
   96.3899994        -3.69553589E-11
   96.6750031        -9.03549527E-11
   96.9599991        -1.47550361E-10
   97.2450027        -2.05822442E-10
   97.5299988        -2.62002614E-10
   97.8150024        -3.12605941E-10
   98.0999985        -3.54002633E-10
   98.3850021        -3.82620796E-10
   98.6699982        -3.95170008E-10
   98.9550018        -3.88872212E-10
   99.2399979        -3.61684599E-10
   99.5250015        -3.12498999E-10
   99.8099976        -2.41300591E-10
   100.095001        -1.49273080E-10
   100.379997        -3.88379398E-11
   100.665001         8.63788832E-11
   100.949997         2.21655957E-10
   101.235001         3.61358554E-10
   101.519997         4.99185471E-10
   101.805000         6.28468666E-10
   102.089996         7.42509110E-10
   102.375000         8.34927072E-10
   102.660004         9.00007791E-10
   102.945000         9.33019328E-10
   103.230003         9.30483357E-10
   103.514999         8.90380603E-10
   103.800003         8.12280465E-10
   104.084999         6.97384483E-10
   104.370003         5.48483758E-10
   104.654999         3.69831832E-10
   104.940002         1.66943306E-10
   105.224998        -5.36656969E-11
   105.510002        -2.84778173E-10
   105.794998        -5.18798782E-10
   106.080002        -7.48073659E-10
   106.364998        -9.65190927E-10
   106.650002        -1.16324084E-09
   106.934998        -1.33602429E-09
   107.220001        -1.47819867E-09
   107.504997        -1.58535807E-09
   107.790001        -1.65405423E-09
   108.074997        -1.68176117E-09
   108.360001        -1.66680747E-09
   108.644997        -1.60828173E-09
   108.930000        -1.50593915E-09
   109.214996        -1.36012468E-09
   109.500000        -1.17172827E-09
   109.785004        -9.42186551E-10
   110.070000        -6.73534284E-10
   110.355003        -3.68508363E-10
   110.639999        -3.06914424E-11
   110.925003         3.35318301E-10
   111.209999         7.23731519E-10
   111.495003         1.12741971E-09
   111.779999         1.53781321E-09
   112.065002         1.94488581E-09
   112.349998         2.33723885E-09
   112.635002         2.70231015E-09
   112.919998         3.02671110E-09
   113.205002         3.29668781E-09
   113.489998         3.49869045E-09
   113.775002         3.62002162E-09
   114.059998         3.64952868E-09
   114.345001         3.57828989E-09
   114.629997         3.40024275E-09
   114.915001         3.11270454E-09
   115.199997         2.71673528E-09
   115.485001         2.21730567E-09
   115.769997         1.62325153E-09
   116.055000         9.47003143E-10
   116.339996         2.04107953E-10
   116.625000        -5.87429494E-10
   116.910004        -1.40793688E-09
   117.195000        -2.23693863E-09
   117.480003        -3.05401771E-09
   117.764999        -3.83960685E-09
   118.050003        -4.57564608E-09
   118.334999        -5.24604271E-09
   118.620003        -5.83690429E-09
   118.904999        -6.33653041E-09
   119.190002        -6.73517420E-09
   119.474998        -7.02461911E-09
   119.760002        -7.19762161E-09
   120.044998        -7.24729832E-09
   120.330002        -7.16655757E-09
   120.614998        -6.94765845E-09
   120.900002        -6.58199317E-09
   121.184998        -6.06015549E-09
   121.470001        -5.37234435E-09
   121.754997        -4.50912152E-09
   122.040001        -3.46249562E-09
   122.324997        -2.22727903E-09
   122.610001        -8.02631350E-10
   122.894997         8.06320233E-10
   123.180000         2.58691935E-09
   123.464996         4.51762761E-09
   123.750000         6.56700516E-09
   124.035004         8.69316619E-09
   124.320000         1.08437943E-08
   124.605003         1.29568170E-08
   124.889999         1.49617279E-08
   125.175003         1.67816001E-08
   125.459999         1.83356619E-08
   125.745003         1.95424015E-08
   126.029999         2.03230393E-08
   126.315002         2.06052153E-08
   126.599998         2.03267092E-08
   126.885002         1.94389589E-08
   127.169998         1.79102813E-08
   127.455002         1.57285278E-08
   127.739998         1.29030431E-08
   128.024994         9.46583167E-09
   128.309998         5.47183188E-09
   128.595001         9.98278793E-10
   128.880005        -3.85683130E-09
   129.164993        -8.97716479E-09
   129.449997        -1.42311647E-08
   129.735001        -1.94758396E-08
   130.020004        -2.45609542E-08
   130.304993        -2.93335400E-08
   130.589996        -3.36424826E-08
   130.875000        -3.73430460E-08
   131.160004        -4.03011668E-08
   131.445007        -4.23974456E-08
   131.729996        -4.35306369E-08
   132.014999        -4.36206982E-08
   132.300003        -4.26112408E-08
   132.585007        -4.04714342E-08
   132.869995        -3.71973528E-08
   133.154999        -3.28127037E-08
   133.440002        -2.73690119E-08
   133.725006        -2.09453113E-08
   134.009995        -1.36472122E-08
   134.294998        -5.60546765E-09
   134.580002         3.02597347E-09
   134.865005         1.20724666E-08
   135.149994         2.13416591E-08
   135.434998         3.06269392E-08
   135.720001         3.97113524E-08
   136.005005         4.83718274E-08
   136.289993         5.63837830E-08
   136.574997         6.35258530E-08
   136.860001         6.95847646E-08
   137.145004         7.43602655E-08
   137.429993         7.76699451E-08
   137.714996         7.93538888E-08
   138.000000         7.92791326E-08
   138.285004         7.73437492E-08
   138.570007         7.34807131E-08
   138.854996         6.76612046E-08
   139.139999         5.98974950E-08
   139.425003         5.02453297E-08
   139.710007         3.88057231E-08
   139.994995         2.57260062E-08
   140.279999         1.12001919E-08
   140.565002        -4.53165061E-09
   140.850006        -2.11849738E-08
   141.134995        -3.84334626E-08
   141.419998        -5.59130129E-08
   141.705002        -7.32270493E-08
   141.990005        -8.99532751E-08
   142.274994        -1.05651743E-07
   142.559998        -1.19874244E-07
   142.845001        -1.32174975E-07
   143.130005        -1.42121891E-07
   143.414993        -1.49308974E-07
   143.699997        -1.53368688E-07
   143.985001        -1.53984374E-07
   144.270004        -1.50902011E-07
   144.554993        -1.43941008E-07
   144.839996        -1.33003596E-07
   145.125000        -1.18082404E-07
   145.410004        -9.92659963E-08
   145.695007        -7.67422108E-08
   145.979996        -5.07990805E-08
   146.264999        -2.18233041E-08
   146.550003         9.70341940E-09
   146.835007         4.32103384E-08
   147.119995         7.80455736E-08
   147.404999         1.13485576E-07
   147.690002         1.48746011E-07
   147.975006         1.82993759E-07
   148.259995         2.15359705E-07
   148.544998         2.44952332E-07
   148.830002         2.70871567E-07
   149.115005         2.92223262E-07
   149.399994         3.08133508E-07
   149.684998         3.17763494E-07
   149.970001         3.20324318E-07
   150.255005         3.15091768E-07
   150.539993         3.01421494E-07
   150.824997         2.78763764E-07
   151.110001         2.46678184E-07
   151.395004         2.04847439E-07
   151.679993         1.53090213E-07
   151.964996         9.13724350E-08
   152.250000         1.98168131E-08
   152.535004        -6.12902937E-08
   152.820007        -1.51495314E-07
   153.104996        -2.50177351E-07
   153.389999        -3.56552931E-07
   153.675003        -4.69684949E-07
   153.960007        -5.88496221E-07
   154.244995        -7.11788573E-07
   154.529999        -8.38264896E-07
   154.815002        -9.66555490E-07
   155.100006        -1.09524763E-06
   155.384995        -1.22291669E-06
   155.669998        -1.34815878E-06
   155.955002        -1.46962236E-06
   156.240005        -1.58603916E-06
   156.524994        -1.69625184E-06
   156.809998        -1.79923757E-06
   157.095001        -1.89412901E-06
   157.380005        -1.98022735E-06
   157.664993        -2.05701303E-06
   157.949997        -2.12415057E-06
   158.235001        -2.18148762E-06
   158.520004        -2.22905032E-06
   158.804993        -2.26703355E-06
   159.089996        -2.29578973E-06
   159.375000        -2.31581316E-06
   159.660004        -2.32772345E-06
   159.945007        -2.33224932E-06
   160.229996        -2.33021024E-06
   160.514999        -2.32249863E-06
   160.800003        -2.31006425E-06
   161.085007        -2.29389480E-06
   161.369995        -2.27500141E-06
   161.654999        -2.25440112E-06
   161.940002        -2.23310326E-06
   162.225006        -2.21209166E-06
   162.509995        -2.19231288E-06
   162.794998        -2.17465913E-06
   163.080002        -2.15995510E-06
   163.365005        -2.14894180E-06
   163.649994        -2.14226179E-06
   163.934998        -2.14044530E-06
   164.220001        -2.14389797E-06
   164.505005        -2.15288946E-06
   164.789993        -2.16754574E-06
   165.074997        -2.18784248E-06
   165.360001        -2.21360187E-06
   165.645004        -2.24449082E-06
   165.929993        -2.28002659E-06
   166.214996        -2.31958484E-06
