  -4.50000000      -5.06841120E-24
  -4.21500015      -2.96713046E-19
  -3.93000007      -3.09334675E-18
  -3.64499998      -5.54751490E-18
  -3.35999990      -7.42679646E-18
  -3.07500005      -5.62718861E-17
  -2.78999996       1.55065289E-16
  -2.50500011       2.65573226E-15
  -2.22000003       1.18640923E-14
  -1.93499994       3.17125036E-14
  -1.64999998       6.10626390E-14
  -1.36500001       9.52781419E-14
  -1.08000004       1.38492123E-13
 -0.795000017       2.16349697E-13
 -0.509999990       3.66003208E-13
 -0.224999994       5.86415085E-13
   5.99999987E-02   7.56512528E-13
  0.344999999       5.43349328E-13
  0.629999995      -6.99337561E-13
  0.915000021      -4.09146501E-12
   1.20000005      -1.15310591E-11
   1.48500001      -2.62214313E-11
   1.76999998      -5.34580435E-11
   2.05500007      -1.01670894E-10
   2.33999991      -1.83680696E-10
   2.62500000      -3.18043758E-10
   2.91000009      -5.30164190E-10
   3.19499993      -8.52534376E-10
   3.48000002      -1.32320754E-09
   3.76500010      -1.98173966E-09
   4.05000019      -2.86262347E-09
   4.33500004      -3.98756272E-09
   4.61999989      -5.35927391E-09
   4.90500021      -6.95993618E-09
   5.19000006      -8.75623840E-09
   5.47499990      -1.07096039E-08
   5.76000023      -1.27851356E-08
   6.04500008      -1.49471617E-08
   6.32999992      -1.71254868E-08
   6.61499977      -1.91376355E-08
   6.90000010      -2.05614139E-08
   7.18499994      -2.05704094E-08
   7.46999979      -1.77720221E-08
   7.75500011      -1.01174527E-08
   8.03999996       5.02324937E-09
   8.32499981       3.05226244E-08
   8.60999966       6.88193822E-08
   8.89500046       1.20890263E-07
   9.18000031       1.84948064E-07
   9.46500015       2.55053976E-07
   9.75000000       3.19931985E-07
   10.0349998       3.62334930E-07
   10.3199997       3.59308814E-07
   10.6049995       2.83616941E-07
   10.8900003       1.06429987E-07
   11.1750002      -1.98828729E-07
   11.4600000      -6.51836672E-07
   11.7449999      -1.26047269E-06
   12.0299997      -2.01636772E-06
   12.3149996      -2.89163222E-06
   12.6000004      -3.83739234E-06
   12.8850002      -4.78454513E-06
   13.1700001      -5.64681295E-06
   13.4549999      -6.32580850E-06
   13.7399998      -6.71746739E-06
   14.0249996      -6.71894350E-06
   14.3100004      -6.23496362E-06
   14.5950003      -5.18272691E-06
   14.8800001      -3.49465677E-06
   15.1650000      -1.11873794E-06
   15.4499998       1.98344060E-06
   15.7349997       5.84047211E-06
   16.0200005       1.04760093E-05
   16.3050003       1.59137799E-05
   16.5900002       2.21820101E-05
   16.8750000       2.93165449E-05
   17.1599998       3.73623152E-05
   17.4449997       4.63730066E-05
   17.7299995       5.64091715E-05
   18.0149994       6.75354968E-05
   18.2999992       7.98180263E-05
   18.5849991       9.33219781E-05
   18.8700008       1.08111606E-04
   19.1550007       1.24251615E-04
   19.4400005       1.41810771E-04
   19.7250004       1.60866533E-04
   20.0100002       1.81509429E-04
   20.2950001       2.03845761E-04
   20.5799999       2.27996614E-04
   20.8649998       2.54091952E-04
   21.1499996       2.82259338E-04
   21.4349995       3.12606804E-04
   21.7199993       3.45201959E-04
   22.0049992       3.80048266E-04
   22.2900009       4.17061790E-04
   22.5750008       4.56050184E-04
   22.8600006       4.96697030E-04
   23.1450005       5.38552762E-04
   23.4300003       5.81033935E-04
   23.7150002       6.23430707E-04
   24.0000000       6.64921768E-04
   24.2849998       7.04596285E-04
   24.5699997       7.41480384E-04
   24.8549995       7.74567248E-04
   25.1399994       8.02847790E-04
   25.4249992       8.25341151E-04
   25.7099991       8.41123401E-04
   25.9950008       8.49353557E-04
   26.2800007       8.49296979E-04
   26.5650005       8.40346736E-04
   26.8500004       8.22042231E-04
   27.1350002       7.94087420E-04
   27.4200001       7.56366469E-04
   27.7049999       7.08958425E-04
   27.9899998       6.52147632E-04
   28.2749996       5.86429960E-04
   28.5599995       5.12511702E-04
   28.8449993       4.31300519E-04
   29.1299992       3.43887223E-04
   29.4150009       2.51519261E-04
   29.7000008       1.55567250E-04
   29.9850006       5.74869482E-05
   30.2700005      -4.12210466E-05
   30.5550003      -1.39051015E-04
   30.8400002      -2.34529973E-04
   31.1250000      -3.26251669E-04
   31.4099998      -4.12907219E-04
   31.6949997      -4.93310508E-04
   31.9799995      -5.66420029E-04
   32.2649994      -6.31355506E-04
   32.5499992      -6.87410648E-04
   32.8349991      -7.34060945E-04
   33.1199989      -7.70966872E-04
   33.4049988      -7.97973247E-04
   33.6899986      -8.15103587E-04
   33.9749985      -8.22551025E-04
   34.2599983      -8.20664514E-04
   34.5449982      -8.09932419E-04
   34.8300018      -7.90964405E-04
   35.1150017      -7.64471130E-04
   35.4000015      -7.31244567E-04
   35.6850014      -6.92138274E-04
   35.9700012      -6.48048881E-04
   36.2550011      -5.99899446E-04
   36.5400009      -5.48623619E-04
   36.8250008      -4.95151267E-04
   37.1100006      -4.40394448E-04
   37.3950005      -3.85234423E-04
   37.6800003      -3.30508134E-04
   37.9650002      -2.76995328E-04
   38.2500000      -2.25405587E-04
   38.5349998      -1.76366491E-04
   38.8199997      -1.30412605E-04
   39.1049995      -8.79771978E-05
   39.3899994      -4.93870648E-05
   39.6749992      -1.48605586E-05
   39.9599991       1.54903391E-05
   40.2449989       4.16542680E-05
   40.5299988       6.37117191E-05
   40.8149986       8.18237531E-05
   41.0999985       9.62189079E-05
   41.3849983       1.07178836E-04
   41.6699982       1.15023387E-04
   41.9550018       1.20095850E-04
   42.2400017       1.22749305E-04
   42.5250015       1.23335005E-04
   42.8100014       1.22193669E-04
   43.0950012       1.19650460E-04
   43.3800011       1.16013449E-04
   43.6650009       1.11575013E-04
   43.9500008       1.06614883E-04
   44.2350006       1.01403552E-04
   44.5200005       9.62042395E-05
   44.8050003       9.12726973E-05
   45.0900002       8.68536663E-05
   45.3750000       8.31741054E-05
   45.6599998       8.04341107E-05
   45.9449997       7.87963072E-05
   46.2299995       7.83754367E-05
   46.5149994       7.92288702E-05
   46.7999992       8.13495499E-05
   47.0849991       8.46618132E-05
   47.3699989       8.90203301E-05
   47.6549988       9.42126135E-05
   47.9399986       9.99653130E-05
   48.2249985       1.05955158E-04
   48.5099983       1.11824636E-04
   48.7949982       1.17202530E-04
   49.0800018       1.21728590E-04
   49.3650017       1.25080711E-04
   49.6500015       1.27002364E-04
   49.9350014       1.27326799E-04
   50.2200012       1.25995284E-04
   50.5050011       1.23066391E-04
   50.7900009       1.18714379E-04
   51.0750008       1.13216098E-04
   51.3600006       1.06927168E-04
   51.6450005       1.00249425E-04
   51.9300003       9.35931821E-05
   52.2150002       8.73381141E-05
   52.5000000       8.17968757E-05
   52.7849998       7.71851264E-05
   53.0699997       7.36015427E-05
   53.3549995       7.10200911E-05
   53.6399994       6.92958201E-05
   53.9249992       6.81842575E-05
   54.2099991       6.73724790E-05
   54.4949989       6.65190455E-05
   54.7799988       6.52974559E-05
   55.0649986       6.34383978E-05
   55.3499985       6.07648653E-05
   55.6349983       5.72160970E-05
   55.9199982       5.28572964E-05
   56.2050018       4.78740221E-05
   56.4900017       4.25521212E-05
   56.7750015       3.72461109E-05
   57.0600014       3.23398963E-05
   57.3450012       2.82046276E-05
   57.6300011       2.51582514E-05
   57.9150009       2.34320887E-05
   58.2000008       2.31469694E-05
   58.4850006       2.43012491E-05
   58.7700005       2.67707437E-05
   59.0550003       3.03197994E-05
   59.3400002       3.46215420E-05
   59.6250000       3.92847141E-05
   59.9099998       4.38842981E-05
   60.1949997       4.79935297E-05
   60.4799995       5.12150764E-05
   60.7649994       5.32092527E-05
   61.0499992       5.37179767E-05
   61.3349991       5.25836367E-05
   61.6199989       4.97623369E-05
   61.9049988       4.53312859E-05
   62.1899986       3.94898962E-05
   62.4749985       3.25544788E-05
   62.7599983       2.49457116E-05
   63.0449982       1.71681168E-05
   63.3300018       9.78143362E-06
   63.6150017       3.36391486E-06
   63.9000015      -1.53044039E-06
   64.1849976      -4.41774046E-06
   64.4700012      -4.92911795E-06
   64.7549973      -2.84941166E-06
   65.0400009       1.85532770E-06
   65.3249969       9.02605825E-06
   65.6100006       1.83177235E-05
   65.8949966       2.92249897E-05
   66.1800003       4.11251276E-05
   66.4649963       5.33334642E-05
   66.7500000       6.51649316E-05
   67.0350037       7.59940376E-05
   67.3199997       8.53062884E-05
   67.6050034       9.27350557E-05
   67.8899994       9.80800614E-05
   68.1750031       1.01306738E-04
   68.4599991       1.02527738E-04
   68.7450027       1.01970894E-04
   69.0299988       9.99385447E-05
   69.3150024       9.67641608E-05
   69.5999985       9.27716246E-05
   69.8850021       8.82412933E-05
   70.1699982       8.33855083E-05
   70.4550018       7.83351206E-05
   70.7399979       7.31366890E-05
   71.0250015       6.77597418E-05
   71.3099976       6.21124200E-05
   71.5950012       5.60642147E-05
   71.8799973       4.94728738E-05
   72.1650009       4.22134763E-05
   72.4499969       3.42067142E-05
   72.7350006       2.54435781E-05
   73.0199966       1.60036652E-05
   73.3050003       6.06487583E-06
   73.5899963      -4.09689665E-06
   73.8750000      -1.41184883E-05
   74.1600037      -2.35704010E-05
   74.4449997      -3.19861101E-05
   74.7300034      -3.88975059E-05
   75.0149994      -4.38729694E-05
   75.3000031      -4.65545600E-05
   75.5849991      -4.66909514E-05
   75.8700027      -4.41627672E-05
   76.1549988      -3.89979286E-05
   76.4400024      -3.13754754E-05
   76.7249985      -2.16169865E-05
   77.0100021      -1.01663381E-05
   77.2949982       2.44161743E-06
   77.5800018       1.56205442E-05
   77.8649979       2.87768053E-05
   78.1500015       4.13540693E-05
   78.4349976       5.28737837E-05
   78.7200012       6.29672213E-05
   79.0049973       7.13959816E-05
   79.2900009       7.80592381E-05
   79.5749969       8.29877536E-05
   79.8600006       8.63263558E-05
   80.1449966       8.83073808E-05
   80.4300003       8.92182288E-05
   80.7149963       8.93666002E-05
   81.0000000       8.90465453E-05
   81.2850037       8.85083136E-05
   81.5699997       8.79343352E-05
   81.8550034       8.74233010E-05
   82.1399994       8.69834694E-05
   82.4250031       8.65358379E-05
   82.7099991       8.59263309E-05
   82.9950027       8.49454518E-05
   83.2799988       8.33534141E-05
   83.5650024       8.09076591E-05
   83.8499985       7.73902211E-05
   84.1350021       7.26319413E-05
   84.4199982       6.65314874E-05
   84.7050018       5.90675954E-05
   84.9899979       5.03041556E-05
   85.2750015       4.03878366E-05
   85.5599976       2.95400750E-05
   85.8450012       1.80445659E-05
   86.1299973       6.23252254E-06
   86.4150009      -5.53269410E-06
   86.6999969      -1.68705828E-05
   86.9850006      -2.73974110E-05
   87.2699966      -3.67394678E-05
   87.5550003      -4.45463011E-05
   87.8399963      -5.05044009E-05
   88.1250000      -5.43513888E-05
   88.4100037      -5.58898973E-05
   88.6949997      -5.49999677E-05
   88.9800034      -5.16485052E-05
   89.2649994      -4.58943541E-05
   89.5500031      -3.78881996E-05
   89.8349991      -2.78668285E-05
   90.1200027      -1.61423450E-05
   90.4049988      -3.08702738E-06
   90.6900024       1.08851391E-05
   90.9749985       2.53389189E-05
   91.2600021       3.98387165E-05
   91.5449982       5.39686007E-05
   91.8300018       6.73500108E-05
   92.1149979       7.96560198E-05
   92.4000015       9.06214336E-05
   92.6849976       1.00047902E-04
   92.9700012       1.07804328E-04
   93.2549973       1.13822964E-04
   93.5400009       1.18092161E-04
   93.8249969       1.20647062E-04
   94.1100006       1.21559679E-04
   94.3949966       1.20930003E-04
   94.6800003       1.18878605E-04
   94.9649963       1.15541130E-04
   95.2500000       1.11064110E-04
   95.5350037       1.05601262E-04
   95.8199997       9.93095382E-05
   96.1050034       9.23442349E-05
   96.3899994       8.48535929E-05
   96.6750031       7.69733888E-05
   96.9599991       6.88225846E-05
   97.2450027       6.05009554E-05
   97.5299988       5.20894064E-05
   97.8150024       4.36528717E-05
   98.0999985       3.52453972E-05
   98.3850021       2.69167122E-05
   98.6699982       1.87189962E-05
   98.9550018       1.07134383E-05
   99.2399979       2.97559177E-06
   99.5250015      -4.40063877E-06
   99.8099976      -1.13009219E-05
   100.095001      -1.75905134E-05
   100.379997      -2.31165759E-05
   100.665001      -2.77124909E-05
   100.949997      -3.12044795E-05
   101.235001      -3.34204378E-05
   101.519997      -3.42003332E-05
   101.805000      -3.34081815E-05
   102.089996      -3.09447969E-05
   102.375000      -2.67606756E-05
   102.660004      -2.08682814E-05
   102.945000      -1.33522026E-05
   103.230003      -4.37544850E-06
   103.514999       5.81985387E-06
   103.800003       1.69187897E-05
   104.084999       2.85475762E-05
   104.370003       4.02948972E-05
   104.654999       5.17381668E-05
   104.940002       6.24725362E-05
   105.224998       7.21387551E-05
   105.510002       8.04471711E-05
   105.794998       8.71951852E-05
   106.080002       9.22766485E-05
   106.364998       9.56828226E-05
   106.650002       9.74953073E-05
   106.934998       9.78717362E-05
   107.220001       9.70259571E-05
   107.504997       9.52046539E-05
   107.790001       9.26628636E-05
   108.074997       8.96410129E-05
   108.360001       8.63455061E-05
   108.644997       8.29345736E-05
   108.930000       7.95107189E-05
   109.214996       7.61196134E-05
   109.500000       7.27554579E-05
   109.785004       6.93715992E-05
   110.070000       6.58946519E-05
   110.355003       6.22406078E-05
   110.639999       5.83305300E-05
   110.925003       5.41039954E-05
   111.209999       4.95288223E-05
   111.495003       4.46068298E-05
   111.779999       3.93755145E-05
   112.065002       3.39070684E-05
   112.349998       2.83054924E-05
   112.635002       2.27029086E-05
   112.919998       1.72552609E-05
   113.205002       1.21366938E-05
   113.489998       7.53195673E-06
   113.775002       3.62595620E-06
   114.059998       5.90061518E-07
   114.345001      -1.43421255E-06
   114.629997      -2.35258176E-06
   114.915001      -2.13414864E-06
   115.199997      -8.22994934E-07
   115.485001       1.45715819E-06
   115.769997       4.50742709E-06
   116.055000       8.06786829E-06
   116.339996       1.18402841E-05
   116.625000       1.55170274E-05
   116.910004       1.88120466E-05
   117.195000       2.14901156E-05
   117.480003       2.33903065E-05
   117.764999       2.44409530E-05
   118.050003       2.46647141E-05
   118.334999       2.41731468E-05
   118.620003       2.31520244E-05
   118.904999       2.18394853E-05
   119.190002       2.04994558E-05
   119.474998       1.93936630E-05
   119.760002       1.87554488E-05
   120.044998       1.87684782E-05
   120.330002       1.95524044E-05
   120.614998       2.11567331E-05
   120.900002       2.35628977E-05
   121.184998       2.66934476E-05
   121.470001       3.04264540E-05
   121.754997       3.46126762E-05
   122.040001       3.90928180E-05
   122.324997       4.37126073E-05
   122.610001       4.83340809E-05
   122.894997       5.28421697E-05
   123.180000       5.71461824E-05
   123.464996       6.11771320E-05
   123.750000       6.48821224E-05
   124.035004       6.82173195E-05
   124.320000       7.11407993E-05
   124.605003       7.36070360E-05
   124.889999       7.55634319E-05
   125.175003       7.69502585E-05
   125.459999       7.77038804E-05
   125.745003       7.77633686E-05
   126.029999       7.70799888E-05
   126.315002       7.56282825E-05
   126.599998       7.34162895E-05
   126.885002       7.04937338E-05
   127.169998       6.69558576E-05
   127.455002       6.29426140E-05
   127.739998       5.86331807E-05
   128.024994       5.42366688E-05
   128.309998       4.99806265E-05
   128.595001       4.60986303E-05
   128.880005       4.28176063E-05
   129.164993       4.03453450E-05
   129.449997       3.88584995E-05
   129.735001       3.84909254E-05
   130.020004       3.93231167E-05
   130.304993       4.13728485E-05
   130.589996       4.45877813E-05
   130.875000       4.88407059E-05
   131.160004       5.39282664E-05
   131.445007       5.95738566E-05
   131.729996       6.54357500E-05
   132.014999       7.11214016E-05
   132.300003       7.62084528E-05
   132.585007       8.02720970E-05
   132.869995       8.29167402E-05
   133.154999       8.38092747E-05
   133.440002       8.27104959E-05
   133.725006       7.95006854E-05
   134.009995       7.41960466E-05
   134.294998       6.69539513E-05
   134.580002       5.80658998E-05
   134.865005       4.79383052E-05
   135.149994       3.70627567E-05
   135.434998       2.59777844E-05
   135.720001       1.52261937E-05
   136.005005       5.31208570E-06
   136.289993      -3.33770231E-06
   136.574997      -1.04035853E-05
   136.860001      -1.56915612E-05
   137.145004      -1.91384443E-05
   137.429993      -2.08045021E-05
   137.714996      -2.08553047E-05
   138.000000      -1.95359808E-05
   138.285004      -1.71407391E-05
   138.570007      -1.39812191E-05
   138.854996      -1.03568036E-05
   139.139999      -6.52915332E-06
   139.425003      -2.70324881E-06
   139.710007       9.84089525E-07
   139.994995       4.46749982E-06
   140.279999       7.74915316E-06
   140.565002       1.08889362E-05
   140.850006       1.39905642E-05
   141.134995       1.71854299E-05
   141.419998       2.06152999E-05
   141.705002       2.44148505E-05
   141.990005       2.86948925E-05
   142.274994       3.35267941E-05
   142.559998       3.89293346E-05
   142.845001       4.48589562E-05
   143.130005       5.12052975E-05
   143.414993       5.77933315E-05
   143.699997       6.43923340E-05
   143.985001       7.07321815E-05
   144.270004       7.65253062E-05
   144.554993       8.14929735E-05
   144.839996       8.53927268E-05
   145.125000       8.80438456E-05
   145.410004       8.93479300E-05
   145.695007       8.93016331E-05
   145.979996       8.79994914E-05
   146.264999       8.56262341E-05
   146.550003       8.24390154E-05
   146.835007       7.87419485E-05
   147.119995       7.48562597E-05
   147.404999       7.10898603E-05
   147.690002       6.77101198E-05
   147.975006       6.49226349E-05
   148.259995       6.28577109E-05
   148.544998       6.15644676E-05
   148.830002       6.10122443E-05
   149.115005       6.10973948E-05
   149.399994       6.16546458E-05
   149.684998       6.24712557E-05
   149.970001       6.33029777E-05
   150.255005       6.38909914E-05
   150.539993       6.39787977E-05
   150.824997       6.33286836E-05
   151.110001       6.17370752E-05
   151.395004       5.90480013E-05
   151.679993       5.51647499E-05
   151.964996       5.00588903E-05
   152.250000       4.37760391E-05
   152.535004       3.64378429E-05
   152.820007       2.82396977E-05
   153.104996       1.94433997E-05
   153.389999       1.03653256E-05
   153.675003       1.36003177E-06
   153.960007      -7.19985519E-06
   154.244995      -1.49462549E-05
   154.529999      -2.15393102E-05
   154.815002      -2.66907355E-05
   155.100006      -3.01844429E-05
   155.384995      -3.18923194E-05
   155.669998      -3.17827762E-05
   155.955002      -2.99204312E-05
   156.240005      -2.64565406E-05
   156.524994      -2.16109820E-05
   156.809998      -1.56481328E-05
   157.095001      -8.85005738E-06
   157.380005      -1.49063419E-06
   157.664993       6.18645936E-06
   157.949997       1.39836975E-05
   158.235001       2.17587094E-05
   158.520004       2.94259971E-05
   158.804993       3.69516201E-05
   159.089996       4.43414829E-05
   159.375000       5.16241962E-05
   159.660004       5.88299918E-05
   159.945007       6.59680227E-05
   160.229996       7.30048705E-05
   160.514999       7.98480323E-05
   160.800003       8.63372043E-05
   161.085007       9.22455874E-05
   161.369995       9.72922644E-05
   161.654999       1.01165118E-04
   161.940002       1.03551931E-04
   162.225006       1.04176055E-04
   162.509995       1.02832448E-04
   162.794998       9.94190777E-05
   163.080002       9.39598831E-05
   163.365005       8.66155169E-05
   163.649994       7.76802844E-05
   163.934998       6.75652846E-05
   164.220001       5.67699753E-05
   164.505005       4.58454560E-05
   164.789993       3.53536234E-05
   165.074997       2.58265736E-05
   165.360001       1.77299844E-05
   165.645004       1.14336390E-05
   165.929993       7.19082846E-06
   166.214996       5.12771976E-06
