  -4.50000000         2.22408929E-25
  -4.21500015        -7.68474377E-20
  -3.93000007        -7.44424811E-19
  -3.64499998        -1.01298358E-18
  -3.35999990        -1.17962511E-18
  -3.07500005        -1.57197486E-17
  -2.78999996         1.24423035E-17
  -2.50500011         4.40394293E-16
  -2.22000003         1.89509985E-15
  -1.93499994         4.88545353E-15
  -1.64999998         1.01695352E-14
  -1.36500001         2.03008878E-14
  -1.08000004         3.99950187E-14
 -0.795000017         7.36215085E-14
 -0.509999990         1.23439304E-13
 -0.224999994         1.92597159E-13
   5.99999987E-02     2.86563281E-13
  0.344999999         3.97226739E-13
  0.629999995         4.59263324E-13
  0.915000021         2.81609615E-13
   1.20000005        -5.38957279E-13
   1.48500001        -2.72196306E-12
   1.76999998        -7.43388510E-12
   2.05500007        -1.64623835E-11
   2.33999991        -3.24573979E-11
   2.62500000        -5.92468435E-11
   2.91000009        -1.02168100E-10
   3.19499993        -1.68235884E-10
   3.48000002        -2.65828415E-10
   3.76500010        -4.03505535E-10
   4.05000019        -5.87695725E-10
   4.33500004        -8.19408041E-10
   4.61999989        -1.09083409E-09
   4.90500021        -1.38353151E-09
   5.19000006        -1.67043368E-09
   5.47499990        -1.92366900E-09
   5.76000023        -2.12858131E-09
   6.04500008        -2.30119324E-09
   6.32999992        -2.50201482E-09
   6.61499977        -2.83482993E-09
   6.90000010        -3.41696049E-09
   7.18499994        -4.31027347E-09
   7.46999979        -5.41237499E-09
   7.75500011        -6.32599040E-09
   8.03999996        -6.24942897E-09
   8.32499981        -3.95630240E-09
   8.60999966         2.05120143E-09
   8.89500046         1.31348656E-08
   9.18000031         2.98112219E-08
   9.46500015         5.07563769E-08
   9.75000000         7.16302893E-08
   10.0349998         8.39234531E-08
   10.3199997         7.41121724E-08
   10.6049995         2.34532003E-08
   10.8900003        -9.12725753E-08
   11.1750002        -2.95852828E-07
   11.4600000        -6.15515091E-07
   11.7449999        -1.07074038E-06
   12.0299997        -1.67239114E-06
   12.3149996        -2.41671228E-06
   12.6000004        -3.28085503E-06
   12.8850002        -4.21957975E-06
   13.1700001        -5.16364662E-06
   13.4549999        -6.02022510E-06
   13.7399998        -6.67536915E-06
   14.0249996        -6.99837256E-06
   14.3100004        -6.84759698E-06
   14.5950003        -6.07724496E-06
   14.8800001        -4.54447490E-06
   15.1650000        -2.11630640E-06
   15.4499998         1.32416972E-06
   15.7349997         5.87260411E-06
   16.0200005         1.15995017E-05
   16.3050003         1.85476802E-05
   16.5900002         2.67311734E-05
   16.8750000         3.61356069E-05
   17.1599998         4.67202117E-05
   17.4449997         5.84214868E-05
   17.7299995         7.11588800E-05
   18.0149994         8.48426425E-05
   18.2999992         9.93835856E-05
   18.5849991         1.14704555E-04
   18.8700008         1.30752756E-04
   19.1550007         1.47511761E-04
   19.4400005         1.65011414E-04
   19.7250004         1.83334007E-04
   20.0100002         2.02615061E-04
   20.2950001         2.23037947E-04
   20.5799999         2.44821131E-04
   20.8649998         2.68199627E-04
   21.1499996         2.93400517E-04
   21.4349995         3.20615596E-04
   21.7199993         3.49972775E-04
   22.0049992         3.81509046E-04
   22.2900009         4.15147690E-04
   22.5750008         4.50681051E-04
   22.8600006         4.87761397E-04
   23.1450005         5.25899639E-04
   23.4300003         5.64473041E-04
   23.7150002         6.02740562E-04
   24.0000000         6.39866106E-04
   24.2849998         6.74946117E-04
   24.5699997         7.07041414E-04
   24.8549995         7.35210022E-04
   25.1399994         7.58538721E-04
   25.4249992         7.76172616E-04
   25.7099991         7.87341560E-04
   25.9950008         7.91381812E-04
   26.2800007         7.87754834E-04
   26.5650005         7.76061148E-04
   26.8500004         7.56050926E-04
   27.1350002         7.27630977E-04
   27.4200001         6.90866786E-04
   27.7049999         6.45981403E-04
   27.9899998         5.93349687E-04
   28.2749996         5.33489045E-04
   28.5599995         4.67047124E-04
   28.8449993         3.94786650E-04
   29.1299992         3.17569240E-04
   29.4150009         2.36337553E-04
   29.7000008         1.52098073E-04
   29.9850006         6.59038196E-05
   30.2700005        -2.11621173E-05
   30.5550003        -1.08002743E-04
   30.8400002        -1.93522341E-04
   31.1250000        -2.76641658E-04
   31.4099998        -3.56313045E-04
   31.6949997        -4.31535911E-04
   31.9799995        -5.01372560E-04
   32.2649994        -5.64964488E-04
   32.5499992        -6.21549028E-04
   32.8349991        -6.70474197E-04
   33.1199989        -7.11213739E-04
   33.4049988        -7.43378536E-04
   33.6899986        -7.66725163E-04
   33.9749985        -7.81161594E-04
   34.2599983        -7.86749064E-04
   34.5449982        -7.83700089E-04
   34.8300018        -7.72373285E-04
   35.1150017        -7.53265340E-04
   35.4000015        -7.26998725E-04
   35.6850014        -6.94306393E-04
   35.9700012        -6.56012679E-04
   36.2550011        -6.13009674E-04
   36.5400009        -5.66231087E-04
   36.8250008        -5.16623200E-04
   37.1100006        -4.65115794E-04
   37.3950005        -4.12594294E-04
   37.6800003        -3.59876547E-04
   37.9650002        -3.07694398E-04
   38.2500000        -2.56683154E-04
   38.5349998        -2.07378005E-04
   38.8199997        -1.60216849E-04
   39.1049995        -1.15548843E-04
   39.3899994        -7.36468064E-05
   39.6749992        -3.47219757E-05
   39.9599991         1.06030711E-06
   40.2449989         3.35659715E-05
   40.5299988         6.26800320E-05
   40.8149986         8.82986060E-05
   41.0999985         1.10325658E-04
   41.3849983         1.28675762E-04
   41.6699982         1.43282261E-04
   41.9550018         1.54110283E-04
   42.2400017         1.61172444E-04
   42.5250015         1.64546102E-04
   42.8100014         1.64390134E-04
   43.0950012         1.60958531E-04
   43.3800011         1.54609370E-04
   43.6650009         1.45806844E-04
   43.9500008         1.35114562E-04
   44.2350006         1.23179299E-04
   44.5200005         1.10704670E-04
   44.8050003         9.84157305E-05
   45.0900002         8.70170406E-05
   45.3750000         7.71476261E-05
   45.6599998         6.93370894E-05
   45.9449997         6.39675854E-05
   46.2299995         6.12458025E-05
   46.5149994         6.11881187E-05
   46.7999992         6.36204495E-05
   47.0849991         6.81934689E-05
   47.3699989         7.44118588E-05
   47.6549988         8.16747342E-05
   47.9399986         8.93244578E-05
   48.2249985         9.66988518E-05
   48.5099983         1.03183098E-04
   48.7949982         1.08256674E-04
   49.0800018         1.11531634E-04
   49.3650017         1.12778893E-04
   49.6500015         1.11940499E-04
   49.9350014         1.09127228E-04
   50.2200012         1.04602084E-04
   50.5050011         9.87518579E-05
   50.7900009         9.20498642E-05
   51.0750008         8.50138240E-05
   51.3600006         7.81630079E-05
   51.6450005         7.19778691E-05
   51.9300003         6.68652501E-05
   52.2150002         6.31307703E-05
   52.5000000         6.09596427E-05
   52.7849998         6.04063935E-05
   53.0699997         6.13938610E-05
   53.3549995         6.37215489E-05
   53.6399994         6.70830850E-05
   53.9249992         7.10917229E-05
   54.2099991         7.53123095E-05
   54.4949989         7.92975479E-05
   54.7799988         8.26253963E-05
   55.0649986         8.49347925E-05
   55.3499985         8.59566426E-05
   55.6349983         8.55370454E-05
   55.9199982         8.36510153E-05
   56.2050018         8.04051160E-05
   56.4900017         7.60282128E-05
   56.7750015         7.08506195E-05
   57.0600014         6.52728922E-05
   57.3450012         5.97267936E-05
   57.6300011         5.46320844E-05
   57.9150009         5.03536321E-05
   58.2000008         4.71632775E-05
   58.4850006         4.52110617E-05
   58.7700005         4.45090700E-05
   59.0550003         4.49291401E-05
   59.3400002         4.62151438E-05
   59.6250000         4.80077288E-05
   59.9099998         4.98788031E-05
   60.1949997         5.13726118E-05
   60.4799995         5.20488866E-05
   60.7649994         5.15248248E-05
   61.0499992         4.95119457E-05
   61.3349991         4.58446120E-05
   61.6199989         4.04977291E-05
   61.9049988         3.35923178E-05
   62.1899986         2.53881462E-05
   62.4749985         1.62642809E-05
   62.7599983         6.68928396E-06
   63.0449982        -2.81623147E-06
   63.3300018        -1.17212894E-05
   63.6150017        -1.95263237E-05
   63.9000015        -2.58013697E-05
   64.1849976        -3.02165827E-05
   64.4700012        -3.25621841E-05
   64.7549973        -3.27560665E-05
   65.0400009        -3.08386698E-05
   65.3249969        -2.69564316E-05
   65.6100006        -2.13365693E-05
   65.8949966        -1.42572899E-05
   66.1800003        -6.01765032E-06
   66.4649963         3.08850872E-06
   66.7500000         1.27913991E-05
   67.0350037         2.28552453E-05
   67.3199997         3.30792209E-05
   67.6050034         4.32909110E-05
   67.8899994         5.33352249E-05
   68.1750031         6.30620925E-05
   68.4599991         7.23162229E-05
   68.7450027         8.09308185E-05
   69.0299988         8.87265196E-05
   69.3150024         9.55154974E-05
   69.5999985         1.01109064E-04
   69.8850021         1.05327810E-04
   70.1699982         1.08012457E-04
   70.4550018         1.09034634E-04
   70.7399979         1.08306733E-04
   71.0250015         1.05790496E-04
   71.3099976         1.01503814E-04
   71.5950012         9.55252108E-05
   71.8799973         8.79956424E-05
   72.1650009         7.91171842E-05
   72.4499969         6.91489331E-05
   72.7350006         5.84001355E-05
   73.0199966         4.72213833E-05
   73.3050003         3.59938458E-05
   73.5899963         2.51167312E-05
   73.8750000         1.49925818E-05
   74.1600037         6.01031434E-06
   74.4449997        -1.47418586E-06
   74.7300034        -7.15929536E-06
   75.0149994        -1.08188988E-05
   75.3000031        -1.23215668E-05
   75.5849991        -1.16446226E-05
   75.8700027        -8.88069098E-06
   76.1549988        -4.23479287E-06
   76.4400024         1.98863268E-06
   76.7249985         9.40788141E-06
   77.0100021         1.75929526E-05
   77.2949982         2.60985016E-05
   77.5800018         3.44966938E-05
   77.8649979         4.24067475E-05
   78.1500015         4.95183740E-05
   78.4349976         5.56069244E-05
   78.7200012         6.05394962E-05
   79.0049973         6.42722007E-05
   79.2900009         6.68398570E-05
   79.5749969         6.83397375E-05
   79.8600006         6.89116277E-05
   80.1449966         6.87166757E-05
   80.4300003         6.79167715E-05
   80.7149963         6.66567794E-05
   81.0000000         6.50512084E-05
   81.2850037         6.31763978E-05
   81.5699997         6.10693096E-05
   81.8550034         5.87327631E-05
   82.1399994         5.61467568E-05
   82.4250031         5.32840459E-05
   82.7099991         5.01276663E-05
   82.9950027         4.66871243E-05
   83.2799988         4.30103646E-05
   83.5650024         3.91884496E-05
   83.8499985         3.53515425E-05
   84.1350021         3.16558508E-05
   84.4199982         2.82628844E-05
   84.7050018         2.53140497E-05
   84.9899979         2.29048146E-05
   85.2750015         2.10626640E-05
   85.5599976         1.97338031E-05
   85.8450012         1.87813002E-05
   86.1299973         1.79962517E-05
   86.4150009         1.71216361E-05
   86.6999969         1.58856037E-05
   86.9850006         1.40399807E-05
   87.2699966         1.13984288E-05
   87.5550003         7.86894088E-06
   87.8399963         3.47578020E-06
   88.1250000        -1.63185314E-06
   88.4100037        -7.18586898E-06
   88.6949997        -1.28190732E-05
   88.9800034        -1.80962325E-05
   89.2649994        -2.25527201E-05
   89.5500031        -2.57361844E-05
   89.8349991        -2.72465459E-05
   90.1200027        -2.67702908E-05
   90.4049988        -2.41057223E-05
   90.6900024        -1.91773397E-05
   90.9749985        -1.20390132E-05
   91.2600021        -2.86680620E-06
   91.5449982         8.05641048E-06
   91.8300018         2.03620802E-05
   92.1149979         3.36202356E-05
   92.4000015         4.73647851E-05
   92.6849976         6.11180003E-05
   92.9700012         7.44128920E-05
   93.2549973         8.68125790E-05
   93.5400009         9.79259930E-05
   93.8249969         1.07419582E-04
   94.1100006         1.15025156E-04
   94.3949966         1.20544129E-04
   94.6800003         1.23849168E-04
   94.9649963         1.24883838E-04
   95.2500000         1.23661273E-04
   95.5350037         1.20261786E-04
   95.8199997         1.14829571E-04
   96.1050034         1.07568216E-04
   96.3899994         9.87344392E-05
   96.6750031         8.86296111E-05
   96.9599991         7.75893786E-05
   97.2450027         6.59710349E-05
   97.5299988         5.41393129E-05
   97.8150024         4.24511709E-05
   98.0999985         3.12401535E-05
   98.3850021         2.08017427E-05
   98.6699982         1.13809347E-05
   98.9550018         3.16345131E-06
   99.2399979        -3.72830618E-06
   99.5250015        -9.23412972E-06
   99.8099976        -1.33498534E-05
   100.095001        -1.61171720E-05
   100.379997        -1.76110243E-05
   100.665001        -1.79263989E-05
   100.949997        -1.71664597E-05
   101.235001        -1.54331792E-05
   101.519997        -1.28216634E-05
   101.805000        -9.41834060E-06
   102.089996        -5.30241141E-06
   102.375000        -5.49800006E-07
   102.660004         4.76151263E-06
   102.945000         1.05463459E-05
   103.230003         1.67084909E-05
   103.514999         2.31391277E-05
   103.800003         2.97178540E-05
   104.084999         3.63162471E-05
   104.370003         4.28037420E-05
   104.654999         4.90547172E-05
   104.940002         5.49559154E-05
   105.224998         6.04130764E-05
   105.510002         6.53553943E-05
   105.794998         6.97368669E-05
   106.080002         7.35337962E-05
   106.364998         7.67389429E-05
   106.650002         7.93528088E-05
   106.934998         8.13736187E-05
   107.220001         8.27884214E-05
   107.504997         8.35671017E-05
   107.790001         8.36616964E-05
   108.074997         8.30111967E-05
   108.360001         8.15522289E-05
   108.644997         7.92336286E-05
   108.930000         7.60325420E-05
   109.214996         7.19693780E-05
   109.500000         6.71186135E-05
   109.785004         6.16134639E-05
   110.070000         5.56431442E-05
   110.355003         4.94428459E-05
   110.639999         4.32774796E-05
   110.925003         3.74212541E-05
   111.209999         3.21356019E-05
   111.495003         2.76482097E-05
   111.779999         2.41357830E-05
   112.065002         2.17121851E-05
   112.349998         2.04230346E-05
   112.635002         2.02463689E-05
   112.919998         2.10982107E-05
   113.205002         2.28416520E-05
   113.489998         2.52973314E-05
   113.775002         2.82541805E-05
   114.059998         3.14796125E-05
   114.345001         3.47294626E-05
   114.629997         3.77578945E-05
   114.915001         4.03281592E-05
   115.199997         4.22239500E-05
   115.485001         4.32608940E-05
   115.769997         4.32969864E-05
   116.055000         4.22409976E-05
   116.339996         4.00577774E-05
   116.625000         3.67700923E-05
   116.910004         3.24575558E-05
   117.195000         2.72530306E-05
   117.480003         2.13376279E-05
   117.764999         1.49349498E-05
   118.050003         8.30467343E-06
   118.334999         1.73566002E-06
   118.620003        -4.46237846E-06
   118.904999        -9.96904510E-06
   119.190002        -1.44660544E-05
   119.474998        -1.76525882E-05
   119.760002        -1.92629668E-05
   120.044998        -1.90853534E-05
   120.330002        -1.69799259E-05
   120.614998        -1.28944248E-05
   120.900002        -6.87491047E-06
   121.184998         9.29822136E-07
   121.470001         1.02714494E-05
   121.754997         2.08127440E-05
   122.040001         3.21453990E-05
   122.324997         4.38132665E-05
   122.610001         5.53387763E-05
   122.894997         6.62503371E-05
   123.180000         7.61080373E-05
   123.464996         8.45258037E-05
   123.750000         9.11884927E-05
   124.035004         9.58634118E-05
   124.320000         9.84067228E-05
   124.605003         9.87653766E-05
   124.889999         9.69763350E-05
   125.175003         9.31636168E-05
   125.459999         8.75339028E-05
   125.745003         8.03709336E-05
   126.029999         7.20276294E-05
   126.315002         6.29152346E-05
   126.599998         5.34889114E-05
   126.885002         4.42288911E-05
   127.169998         3.56175551E-05
   127.455002         2.81134999E-05
   127.739998         2.21238970E-05
   128.024994         1.79770705E-05
   128.309998         1.58981602E-05
   128.595001         1.59900355E-05
   128.880005         1.82220174E-05
   129.164993         2.24287942E-05
   129.449997         2.83200097E-05
   129.735001         3.55008924E-05
   130.020004         4.35021211E-05
   130.304993         5.18159577E-05
   130.589996         5.99351406E-05
   130.875000         6.73901159E-05
   131.160004         7.37807059E-05
   131.445007         7.87993995E-05
   131.729996         8.22443035E-05
   132.014999         8.40216235E-05
   132.300003         8.41385045E-05
   132.585007         8.26885007E-05
   132.869995         7.98320907E-05
   133.154999         7.57754024E-05
   133.440002         7.07496074E-05
   133.725006         6.49933791E-05
   134.009995         5.87395516E-05
   134.294998         5.22068731E-05
   134.580002         4.55961308E-05
   134.865005         3.90894929E-05
   135.149994         3.28515016E-05
   135.434998         2.70302553E-05
   135.720001         2.17570960E-05
   136.005005         1.71444954E-05
   136.289993         1.32819177E-05
   136.574997         1.02305430E-05
   136.860001         8.01820715E-06
   137.145004         6.63578066E-06
   137.429993         6.03656463E-06
   137.714996         6.13927295E-06
   138.000000         6.83486360E-06
   138.285004         7.99638929E-06
   138.570007         9.49048717E-06
   138.854996         1.11890422E-05
   139.139999         1.29795217E-05
   139.425003         1.47729288E-05
   139.710007         1.65089332E-05
   139.994995         1.81576142E-05
   140.279999         1.97184763E-05
   140.565002         2.12169616E-05
   140.850006         2.26988159E-05
   141.134995         2.42228562E-05
   141.419998         2.58529635E-05
   141.705002         2.76500014E-05
   141.990005         2.96642538E-05
   142.274994         3.19290411E-05
   142.559998         3.44564469E-05
   142.845001         3.72354225E-05
   143.130005         4.02326041E-05
   143.414993         4.33957211E-05
   143.699997         4.66592828E-05
   143.985001         4.99515299E-05
   144.270004         5.32016456E-05
   144.554993         5.63460017E-05
   144.839996         5.93325458E-05
   145.125000         6.21225990E-05
   145.410004         6.46898116E-05
   145.695007         6.70167938E-05
   145.979996         6.90897505E-05
   146.264999         7.08925363E-05
   146.550003         7.24013444E-05
   146.835007         7.35811700E-05
   147.119995         7.43849087E-05
   147.404999         7.47557933E-05
   147.690002         7.46328078E-05
   147.975006         7.39581228E-05
   148.259995         7.26854050E-05
   148.544998         7.07872750E-05
   148.830002         6.82612008E-05
   149.115005         6.51327864E-05
   149.399994         6.14561432E-05
   149.684998         5.73116085E-05
   149.970001         5.28009077E-05
   150.255005         4.80406889E-05
   150.539993         4.31550143E-05
   150.824997         3.82673061E-05
   151.110001         3.34932156E-05
   151.395004         2.89347536E-05
   151.679993         2.46762429E-05
   151.964996         2.07818994E-05
   152.250000         1.72949840E-05
   152.535004         1.42379440E-05
   152.820007         1.16131805E-05
   153.104996         9.40398058E-06
   153.389999         7.57584576E-06
   153.675003         6.07866923E-06
   153.960007         4.85007104E-06
   154.244995         3.82034796E-06
   154.529999         2.91913261E-06
   154.815002         2.08355505E-06
   155.100006         1.26775592E-06
   155.384995         4.52168763E-07
   155.669998        -3.48347783E-07
   155.955002        -1.07923449E-06
   156.240005        -1.64516041E-06
   156.524994        -1.91372965E-06
   156.809998        -1.72408261E-06
   157.095001        -8.99022211E-07
   157.380005         7.40368591E-07
   157.664993         3.35940263E-06
   157.949997         7.09438655E-06
   158.235001         1.20383356E-05
   158.520004         1.82279928E-05
   158.804993         2.56330950E-05
   159.089996         3.41482482E-05
   159.375000         4.35887414E-05
   159.660004         5.36915177E-05
   159.945007         6.41219158E-05
   160.229996         7.44869467E-05
   160.514999         8.43544112E-05
   160.800003         9.32773037E-05
   161.085007         1.00822152E-04
   161.369995         1.06598935E-04
   161.654999         1.10290392E-04
   161.940002         1.11677793E-04
   162.225006         1.10660505E-04
   162.509995         1.07267064E-04
   162.794998         1.01656122E-04
   163.080002         9.41071994E-05
   163.365005         8.50018041E-05
   163.649994         7.47969025E-05
   163.934998         6.39932550E-05
   164.220001         5.31017395E-05
   164.505005         4.26112092E-05
   164.789993         3.29605027E-05
   165.074997         2.45169649E-05
   165.360001         1.75626355E-05
   165.645004         1.22889032E-05
   165.929993         8.79824984E-06
   166.214996         7.11116036E-06
