  -4.50000000         2.84422148E-25
  -4.21500015        -1.04117624E-19
  -3.93000007        -9.76129578E-19
  -3.64499998        -6.39407098E-19
  -3.35999990         5.98210815E-18
  -3.07500005         2.03202393E-17
  -2.78999996         1.41115557E-16
  -2.50500011         7.63918369E-16
  -2.22000003         2.43014261E-15
  -1.93499994         5.51662225E-15
  -1.64999998         1.11155456E-14
  -1.36500001         2.24697377E-14
  -1.08000004         4.29300760E-14
 -0.795000017         6.98570704E-14
 -0.509999990         9.27571212E-14
 -0.224999994         1.01274410E-13
   5.99999987E-02     8.74045844E-14
  0.344999999         1.24353525E-14
  0.629999995        -2.65269984E-13
  0.915000021        -1.05849325E-12
   1.20000005        -2.87285820E-12
   1.48500001        -6.42249101E-12
   1.76999998        -1.27711192E-11
   2.05500007        -2.36944353E-11
   2.33999991        -4.21609865E-11
   2.62500000        -7.26243024E-11
   2.91000009        -1.20839463E-10
   3.19499993        -1.93211211E-10
   3.48000002        -2.95973190E-10
   3.76500010        -4.34389191E-10
   4.05000019        -6.11536877E-10
   4.33500004        -8.25500224E-10
   4.61999989        -1.06373399E-09
   4.90500021        -1.29454503E-09
   5.19000006        -1.45797574E-09
   5.47499990        -1.46113499E-09
   5.76000023        -1.18518828E-09
   6.04500008        -5.11709508E-10
   6.32999992         6.26315722E-10
   6.61499977         2.17017293E-09
   6.90000010         3.85097243E-09
   7.18499994         5.12457810E-09
   7.46999979         5.17255083E-09
   7.75500011         3.02620506E-09
   8.03999996        -2.13492801E-09
   8.32499981        -1.04896394E-08
   8.60999966        -2.09245012E-08
   8.89500046        -3.03430419E-08
   9.18000031        -3.31329453E-08
   9.46500015        -2.10466382E-08
   9.75000000         1.62447105E-08
   10.0349998         8.97306123E-08
   10.3199997         2.08719669E-07
   10.6049995         3.77713832E-07
   10.8900003         5.92836784E-07
   11.1750002         8.38314122E-07
   11.4600000         1.08358438E-06
   11.7449999         1.28157706E-06
   12.0299997         1.36854726E-06
   12.3149996         1.26562009E-06
   12.6000004         8.81924109E-07
   12.8850002         1.18940399E-07
   13.1700001        -1.12448095E-06
   13.4549999        -2.94705706E-06
   13.7399998        -5.44053273E-06
   14.0249996        -8.68609004E-06
   14.3100004        -1.27519061E-05
   14.5950003        -1.76918311E-05
   14.8800001        -2.35449243E-05
   15.1650000        -3.03354827E-05
   15.4499998        -3.80730708E-05
   15.7349997        -4.67521968E-05
   16.0200005        -5.63512949E-05
   16.3050003        -6.68309804E-05
   16.5900002        -7.81316994E-05
   16.8750000        -9.01710882E-05
   17.1599998        -1.02841565E-04
   17.4449997        -1.16008850E-04
   17.7299995        -1.29511856E-04
   18.0149994        -1.43164303E-04
   18.2999992        -1.56758673E-04
   18.5849991        -1.70071697E-04
   18.8700008        -1.82871678E-04
   19.1550007        -1.94926644E-04
   19.4400005        -2.06012934E-04
   19.7250004        -2.15923399E-04
   20.0100002        -2.24475021E-04
   20.2950001        -2.31515602E-04
   20.5799999        -2.36929554E-04
   20.8649998        -2.40642810E-04
   21.1499996        -2.42627139E-04
   21.4349995        -2.42903654E-04
   21.7199993        -2.41545975E-04
   22.0049992        -2.38682187E-04
   22.2900009        -2.34495819E-04
   22.5750008        -2.29225014E-04
   22.8600006        -2.23159848E-04
   23.1450005        -2.16637141E-04
   23.4300003        -2.10033162E-04
   23.7150002        -2.03753210E-04
   24.0000000        -1.98219364E-04
   24.2849998        -1.93855449E-04
   24.5699997        -1.91070474E-04
   24.8549995        -1.90241262E-04
   25.1399994        -1.91694911E-04
   25.4249992        -1.95692264E-04
   25.7099991        -2.02414201E-04
   25.9950008        -2.11951061E-04
   26.2800007        -2.24296426E-04
   26.5650005        -2.39345813E-04
   26.8500004        -2.56900879E-04
   27.1350002        -2.76678300E-04
   27.4200001        -2.98322964E-04
   27.7049999        -3.21425032E-04
   27.9899998        -3.45539243E-04
   28.2749996        -3.70205293E-04
   28.5599995        -3.94967530E-04
   28.8449993        -4.19393211E-04
   29.1299992        -4.43087338E-04
   29.4150009        -4.65704012E-04
   29.7000008        -4.86952922E-04
   29.9850006        -5.06602228E-04
   30.2700005        -5.24477218E-04
   30.5550003        -5.40455279E-04
   30.8400002        -5.54458762E-04
   31.1250000        -5.66445640E-04
   31.4099998        -5.76399965E-04
   31.6949997        -5.84321795E-04
   31.9799995        -5.90217882E-04
   32.2649994        -5.94094861E-04
   32.5499992        -5.95953723E-04
   32.8349991        -5.95788297E-04
   33.1199989        -5.93587640E-04
   33.4049988        -5.89341624E-04
   33.6899986        -5.83050249E-04
   33.9749985        -5.74734411E-04
   34.2599983        -5.64445858E-04
   34.5449982        -5.52275567E-04
   34.8300018        -5.38356544E-04
   35.1150017        -5.22861606E-04
   35.4000015        -5.05995762E-04
   35.6850014        -4.87984624E-04
   35.9700012        -4.69060353E-04
   36.2550011        -4.49448475E-04
   36.5400009        -4.29357024E-04
   36.8250008        -4.08969790E-04
   37.1100006        -3.88443907E-04
   37.3950005        -3.67911125E-04
   37.6800003        -3.47482244E-04
   37.9650002        -3.27252259E-04
   38.2500000        -3.07304523E-04
   38.5349998        -2.87713396E-04
   38.8199997        -2.68544245E-04
   39.1049995        -2.49851058E-04
   39.3899994        -2.31672500E-04
   39.6749992        -2.14027939E-04
   39.9599991        -1.96915018E-04
   40.2449989        -1.80310293E-04
   40.5299988        -1.64173893E-04
   40.8149986        -1.48458450E-04
   41.0999985        -1.33121794E-04
   41.3849983        -1.18141375E-04
   41.6699982        -1.03528648E-04
   41.9550018        -8.93402757E-05
   42.2400017        -7.56843874E-05
   42.5250015        -6.27197078E-05
   42.8100014        -5.06472388E-05
   43.0950012        -3.96947871E-05
   43.3800011        -3.00959018E-05
   43.6650009        -2.20660040E-05
   43.9500008        -1.57785798E-05
   44.2350006        -1.13446240E-05
   44.5200005        -8.79846721E-06
   44.8050003        -8.09220910E-06
   45.0900002        -9.10007020E-06
   45.3750000        -1.16326592E-05
   45.6599998        -1.54594472E-05
   45.9449997        -2.03366289E-05
   46.2299995        -2.60364632E-05
   46.5149994        -3.23734312E-05
   46.7999992        -3.92229558E-05
   47.0849991        -4.65300654E-05
   47.3699989        -5.43062233E-05
   47.6549988        -6.26150504E-05
   47.9399986        -7.15490969E-05
   48.2249985        -8.12011422E-05
   48.5099983        -9.16346762E-05
   48.7949982        -1.02857666E-04
   49.0800018        -1.14803064E-04
   49.3650017        -1.27318679E-04
   49.6500015        -1.40167147E-04
   49.9350014        -1.53035857E-04
   50.2200012        -1.65555073E-04
   50.5050011        -1.77322596E-04
   50.7900009        -1.87932485E-04
   51.0750008        -1.97006069E-04
   51.3600006        -2.04222830E-04
   51.6450005        -2.09348946E-04
   51.9300003        -2.12261322E-04
   52.2150002        -2.12964369E-04
   52.5000000        -2.11596926E-04
   52.7849998        -2.08427795E-04
   53.0699997        -2.03838819E-04
   53.3549995        -1.98296300E-04
   53.6399994        -1.92312815E-04
   53.9249992        -1.86402453E-04
   54.2099991        -1.81033785E-04
   54.4949989        -1.76585701E-04
   54.7799988        -1.73310065E-04
   55.0649986        -1.71306325E-04
   55.3499985        -1.70510641E-04
   55.6349983        -1.70702086E-04
   55.9199982        -1.71525578E-04
   56.2050018        -1.72530214E-04
   56.4900017        -1.73218999E-04
   56.7750015        -1.73105145E-04
   57.0600014        -1.71769090E-04
   57.3450012        -1.68910177E-04
   57.6300011        -1.64387748E-04
   57.9150009        -1.58247203E-04
   58.2000008        -1.50728258E-04
   58.4850006        -1.42254386E-04
   58.7700005        -1.33403766E-04
   59.0550003        -1.24863873E-04
   59.3400002        -1.17373675E-04
   59.6250000        -1.11658635E-04
   59.9099998        -1.08364169E-04
   60.1949997        -1.07993998E-04
   60.4799995        -1.10859430E-04
   60.7649994        -1.17044707E-04
   61.0499992        -1.26391940E-04
   61.3349991        -1.38507719E-04
   61.6199989        -1.52790511E-04
   61.9049988        -1.68477185E-04
   62.1899986        -1.84703720E-04
   62.4749985        -2.00574243E-04
   62.7599983        -2.15231805E-04
   63.0449982        -2.27923054E-04
   63.3300018        -2.38051056E-04
   63.6150017        -2.45210918E-04
   63.9000015        -2.49205477E-04
   64.1849976        -2.50040524E-04
   64.4700012        -2.47902470E-04
   64.7549973        -2.43122107E-04
   65.0400009        -2.36130145E-04
   65.3249969        -2.27409924E-04
   65.6100006        -2.17452893E-04
   65.8949966        -2.06721335E-04
   66.1800003        -1.95620931E-04
   66.4649963        -1.84484670E-04
   66.7500000        -1.73568144E-04
   67.0350037        -1.63054618E-04
   67.3199997        -1.53067042E-04
   67.6050034        -1.43684520E-04
   67.8899994        -1.34960123E-04
   68.1750031        -1.26938190E-04
   68.4599991        -1.19669225E-04
   68.7450027        -1.13221460E-04
   69.0299988        -1.07688291E-04
   69.3150024        -1.03191029E-04
   69.5999985        -9.98763353E-05
   69.8850021        -9.79078177E-05
   70.1699982        -9.74524955E-05
   70.4550018        -9.86628802E-05
   70.7399979        -1.01656988E-04
   71.0250015        -1.06498708E-04
   71.3099976        -1.13181093E-04
   71.5950012        -1.21614568E-04
   71.8799973        -1.31621695E-04
   72.1650009        -1.42938603E-04
   72.4499969        -1.55223432E-04
   72.7350006        -1.68070546E-04
   73.0199966        -1.81029609E-04
   73.3050003        -1.93628075E-04
   73.5899963        -2.05395336E-04
   73.8750000        -2.15886539E-04
   74.1600037        -2.24704636E-04
   74.4449997        -2.31519589E-04
   74.7300034        -2.36083783E-04
   75.0149994        -2.38244014E-04
   75.3000031        -2.37949993E-04
   75.5849991        -2.35259417E-04
   75.8700027        -2.30339050E-04
   76.1549988        -2.23460855E-04
   76.4400024        -2.14992193E-04
   76.7249985        -2.05379780E-04
   77.0100021        -1.95127272E-04
   77.2949982        -1.84767487E-04
   77.5800018        -1.74830886E-04
   77.8649979        -1.65812904E-04
   78.1500015        -1.58142764E-04
   78.4349976        -1.52156455E-04
   78.7200012        -1.48076258E-04
   79.0049973        -1.45999264E-04
   79.2900009        -1.45896018E-04
   79.5749969        -1.47619430E-04
   79.8600006        -1.50922860E-04
   80.1449966        -1.55485439E-04
   80.4300003        -1.60941112E-04
   80.7149963        -1.66908489E-04
   81.0000000        -1.73018096E-04
   81.2850037        -1.78935035E-04
   81.5699997        -1.84375618E-04
   81.8550034        -1.89117272E-04
   82.1399994        -1.93002124E-04
   82.4250031        -1.95935412E-04
   82.7099991        -1.97879883E-04
   82.9950027        -1.98848051E-04
   83.2799988        -1.98893817E-04
   83.5650024        -1.98105190E-04
   83.8499985        -1.96598703E-04
   84.1350021        -1.94515800E-04
   84.4199982        -1.92020088E-04
   84.7050018        -1.89293394E-04
   84.9899979        -1.86529418E-04
   85.2750015        -1.83923636E-04
   85.5599976        -1.81659299E-04
   85.8450012        -1.79890543E-04
   86.1299973        -1.78724848E-04
   86.4150009        -1.78207309E-04
   86.6999969        -1.78309449E-04
   86.9850006        -1.78924471E-04
   87.2699966        -1.79870476E-04
   87.5550003        -1.80902556E-04
   87.8399963        -1.81732903E-04
   88.1250000        -1.82057920E-04
   88.4100037        -1.81589479E-04
   88.6949997        -1.80086776E-04
   88.9800034        -1.77385387E-04
   89.2649994        -1.73418681E-04
   89.5500031        -1.68229250E-04
   89.8349991        -1.61969001E-04
   90.1200027        -1.54888621E-04
   90.4049988        -1.47318016E-04
   90.6900024        -1.39640906E-04
   90.9749985        -1.32266403E-04
   91.2600021        -1.25600520E-04
   91.5449982        -1.20019606E-04
   91.8300018        -1.15847040E-04
   92.1149979        -1.13334158E-04
   92.4000015        -1.12646499E-04
   92.6849976        -1.13855713E-04
   92.9700012        -1.16937546E-04
   93.2549973        -1.21775658E-04
   93.5400009        -1.28170985E-04
   93.8249969        -1.35855313E-04
   94.1100006        -1.44507954E-04
   94.3949966        -1.53774206E-04
   94.6800003        -1.63284465E-04
   94.9649963        -1.72673128E-04
   95.2500000        -1.81596188E-04
   95.5350037        -1.89746657E-04
   95.8199997        -1.96867302E-04
   96.1050034        -2.02760493E-04
   96.3899994        -2.07294885E-04
   96.6750031        -2.10409053E-04
   96.9599991        -2.12111976E-04
   97.2450027        -2.12480823E-04
   97.5299988        -2.11655934E-04
   97.8150024        -2.09832811E-04
   98.0999985        -2.07250996E-04
   98.3850021        -2.04180178E-04
   98.6699982        -2.00904149E-04
   98.9550018        -1.97703208E-04
   99.2399979        -1.94836248E-04
   99.5250015        -1.92523279E-04
   99.8099976        -1.90929437E-04
   100.095001        -1.90151637E-04
   100.379997        -1.90209146E-04
   100.665001        -1.91039522E-04
   100.949997        -1.92501640E-04
   101.235001        -1.94386652E-04
   101.519997        -1.96436886E-04
   101.805000        -1.98370370E-04
   102.089996        -1.99908784E-04
   102.375000        -2.00804396E-04
   102.660004        -2.00862254E-04
   102.945000        -1.99955059E-04
   103.230003        -1.98029695E-04
   103.514999        -1.95106244E-04
   103.800003        -1.91270417E-04
   104.084999        -1.86661899E-04
   104.370003        -1.81460156E-04
   104.654999        -1.75870227E-04
   104.940002        -1.70109051E-04
   105.224998        -1.64394223E-04
   105.510002        -1.58935130E-04
   105.794998        -1.53926812E-04
   106.080002        -1.49545711E-04
   106.364998        -1.45946062E-04
   106.650002        -1.43255907E-04
   106.934998        -1.41571960E-04
   107.220001        -1.40954071E-04
   107.504997        -1.41419965E-04
   107.790001        -1.42941979E-04
   108.074997        -1.45447135E-04
   108.360001        -1.48821287E-04
   108.644997        -1.52916808E-04
   108.930000        -1.57562885E-04
   109.214996        -1.62576820E-04
   109.500000        -1.67775099E-04
   109.785004        -1.72983011E-04
   110.070000        -1.78041460E-04
   110.355003        -1.82810138E-04
   110.639999        -1.87167490E-04
   110.925003        -1.91006897E-04
   111.209999        -1.94230743E-04
   111.495003        -1.96744164E-04
   111.779999        -1.98450885E-04
   112.065002        -1.99253380E-04
   112.349998        -1.99058399E-04
   112.635002        -1.97788031E-04
   112.919998        -1.95394779E-04
   113.205002        -1.91878280E-04
   113.489998        -1.87300451E-04
   113.775002        -1.81796291E-04
   114.059998        -1.75578258E-04
   114.345001        -1.68932791E-04
   114.629997        -1.62208744E-04
   114.915001        -1.55798174E-04
   115.199997        -1.50110674E-04
   115.485001        -1.45544211E-04
   115.769997        -1.42454752E-04
   116.055000        -1.41127879E-04
   116.339996        -1.41755081E-04
   116.625000        -1.44416626E-04
   116.910004        -1.49072279E-04
   117.195000        -1.55560090E-04
   117.480003        -1.63602701E-04
   117.764999        -1.72820684E-04
   118.050003        -1.82751886E-04
   118.334999        -1.92876410E-04
   118.620003        -2.02645650E-04
   118.904999        -2.11514620E-04
   119.190002        -2.18975401E-04
   119.474998        -2.24589690E-04
   119.760002        -2.28017991E-04
   120.044998        -2.29042969E-04
   120.330002        -2.27585449E-04
   120.614998        -2.23711293E-04
   120.900002        -2.17628665E-04
   121.184998        -2.09674894E-04
   121.470001        -2.00293653E-04
   121.754997        -1.90003586E-04
   122.040001        -1.79361276E-04
   122.324997        -1.68921135E-04
   122.610001        -1.59196803E-04
   122.894997        -1.50628141E-04
   123.180000        -1.43556841E-04
   123.464996        -1.38212723E-04
   123.750000        -1.34710644E-04
   124.035004        -1.33056717E-04
   124.320000        -1.33161666E-04
   124.605003        -1.34858768E-04
   124.889999        -1.37923358E-04
   125.175003        -1.42092758E-04
   125.459999        -1.47084545E-04
   125.745003        -1.52612614E-04
   126.029999        -1.58400493E-04
   126.315002        -1.64191748E-04
   126.599998        -1.69757797E-04
   126.885002        -1.74903471E-04
   127.169998        -1.79470415E-04
   127.455002        -1.83338721E-04
   127.739998        -1.86426420E-04
   128.024994        -1.88687336E-04
   128.309998        -1.90106424E-04
   128.595001        -1.90693652E-04
   128.880005        -1.90477527E-04
   129.164993        -1.89499173E-04
   129.449997        -1.87808546E-04
   129.735001        -1.85463257E-04
   130.020004        -1.82530232E-04
   130.304993        -1.79089766E-04
   130.589996        -1.75240304E-04
   130.875000        -1.71102889E-04
   131.160004        -1.66823520E-04
   131.445007        -1.62572353E-04
   131.729996        -1.58539304E-04
   132.014999        -1.54925641E-04
   132.300003        -1.51932240E-04
   132.585007        -1.49745523E-04
   132.869995        -1.48522246E-04
   133.154999        -1.48375009E-04
   133.440002        -1.49359897E-04
   133.725006        -1.51468252E-04
   134.009995        -1.54623165E-04
   134.294998        -1.58681491E-04
   134.580002        -1.63441000E-04
   134.865005        -1.68652085E-04
   135.149994        -1.74033295E-04
   135.434998        -1.79289738E-04
   135.720001        -1.84133183E-04
   136.005005        -1.88303049E-04
   136.289993        -1.91586500E-04
   136.574997        -1.93836400E-04
   136.860001        -1.94985085E-04
   137.145004        -1.95052271E-04
   137.429993        -1.94145672E-04
   137.714996        -1.92453634E-04
   138.000000        -1.90229839E-04
   138.285004        -1.87771468E-04
   138.570007        -1.85392913E-04
   138.854996        -1.83397045E-04
   139.139999        -1.82046992E-04
   139.425003        -1.81541065E-04
   139.710007        -1.81993048E-04
   139.994995        -1.83420241E-04
   140.279999        -1.85740209E-04
   140.565002        -1.88777354E-04
   140.850006        -1.92278239E-04
   141.134995        -1.95934801E-04
   141.419998        -1.99412621E-04
   141.705002        -2.02381518E-04
   141.990005        -2.04544442E-04
   142.274994        -2.05662320E-04
   142.559998        -2.05571865E-04
   142.845001        -2.04194745E-04
   143.130005        -2.01537681E-04
   143.414993        -1.97684407E-04
   143.699997        -1.92780964E-04
   143.985001        -1.87017547E-04
   144.270004        -1.80609815E-04
   144.554993        -1.73782755E-04
   144.839996        -1.66758866E-04
   145.125000        -1.59751129E-04
   145.410004        -1.52959925E-04
   145.695007        -1.46572027E-04
   145.979996        -1.40759657E-04
   146.264999        -1.35678114E-04
   146.550003        -1.31461406E-04
   146.835007        -1.28216547E-04
   147.119995        -1.26018029E-04
   147.404999        -1.24904036E-04
   147.690002        -1.24875907E-04
   147.975006        -1.25901279E-04
   148.259995        -1.27920386E-04
   148.544998        -1.30854198E-04
   148.830002        -1.34612506E-04
   149.115005        -1.39100026E-04
   149.399994        -1.44218880E-04
   149.684998        -1.49867163E-04
   149.970001        -1.55934162E-04
   150.255005        -1.62293945E-04
   150.539993        -1.68799699E-04
   150.824997        -1.75281457E-04
   151.110001        -1.81549010E-04
   151.395004        -1.87400932E-04
   151.679993        -1.92638690E-04
   151.964996        -1.97084868E-04
   152.250000        -2.00602022E-04
   152.535004        -2.03109390E-04
   152.820007        -2.04594602E-04
   153.104996        -2.05118151E-04
   153.389999        -2.04809694E-04
   153.675003        -2.03855932E-04
   153.960007        -2.02481824E-04
   154.244995        -2.00927287E-04
   154.529999        -1.99422080E-04
   154.815002        -1.98162161E-04
   155.100006        -1.97289773E-04
   155.384995        -1.96879773E-04
   155.669998        -1.96933019E-04
   155.955002        -1.97377580E-04
   156.240005        -1.98077469E-04
   156.524994        -1.98847702E-04
   156.809998        -1.99474394E-04
   157.095001        -1.99737304E-04
   157.380005        -1.99432732E-04
   157.664993        -1.98394191E-04
   157.949997        -1.96508801E-04
   158.235001        -1.93727770E-04
   158.520004        -1.90070408E-04
   158.804993        -1.85621655E-04
   159.089996        -1.80523624E-04
   159.375000        -1.74962683E-04
   159.660004        -1.69153820E-04
   159.945007        -1.63323813E-04
   160.229996        -1.57695380E-04
   160.514999        -1.52473192E-04
   160.800003        -1.47833358E-04
   161.085007        -1.43916914E-04
   161.369995        -1.40827309E-04
   161.654999        -1.38631804E-04
   161.940002        -1.37365758E-04
   162.225006        -1.37038645E-04
   162.509995        -1.37640498E-04
   162.794998        -1.39147232E-04
   163.080002        -1.41523575E-04
   163.365005        -1.44722857E-04
   163.649994        -1.48683976E-04
   163.934998        -1.53326182E-04
   164.220001        -1.58543407E-04
   164.505005        -1.64199591E-04
   164.789993        -1.70126950E-04
   165.074997        -1.76128495E-04
   165.360001        -1.81985029E-04
   165.645004        -1.87466198E-04
   165.929993        -1.92344727E-04
   166.214996        -1.96411580E-04
