  -4.50000000      -3.68059661E-24
  -4.21500015      -4.26214737E-19
  -3.93000007      -4.25337470E-18
  -3.64499998      -3.28217636E-18
  -3.35999990       2.76801483E-17
  -3.07500005       6.42300650E-17
  -2.78999996       4.25824533E-16
  -2.50500011       3.24771850E-15
  -2.22000003       1.30771765E-14
  -1.93499994       3.33847499E-14
  -1.64999998       6.14165497E-14
  -1.36500001       9.02832022E-14
  -1.08000004       1.22149022E-13
 -0.795000017       1.78991465E-13
 -0.509999990       2.84389076E-13
 -0.224999994       4.03144532E-13
   5.99999987E-02   3.63809324E-13
  0.344999999      -1.89500921E-13
  0.629999995      -1.81229131E-12
  0.915000021      -5.33040365E-12
   1.20000005      -1.21039602E-11
   1.48500001      -2.45485351E-11
   1.76999998      -4.68202942E-11
   2.05500007      -8.54747315E-11
   2.33999991      -1.49967982E-10
   2.62500000      -2.53016219E-10
   2.91000009      -4.10874251E-10
   3.19499993      -6.43401998E-10
   3.48000002      -9.73410241E-10
   3.76500010      -1.42445233E-09
   4.05000019      -2.01624206E-09
   4.33500004      -2.75743561E-09
   4.61999989      -3.63676933E-09
   4.90500021      -4.61548533E-09
   5.19000006      -5.62630653E-09
   5.47499990      -6.58581190E-09
   5.76000023      -7.42633599E-09
   6.04500008      -8.14857337E-09
   6.32999992      -8.88635210E-09
   6.61499977      -9.96150984E-09
   6.90000010      -1.18929329E-08
   7.18499994      -1.53150737E-08
   7.46999979      -2.07645439E-08
   7.75500011      -2.83148776E-08
   8.03999996      -3.70825717E-08
   8.32499981      -4.46874289E-08
   8.60999966      -4.68149750E-08
   8.89500046      -3.70760951E-08
   9.18000031      -7.36543715E-09
   9.46500015       5.11320088E-08
   9.75000000       1.46250358E-07
   10.0349998       2.82588871E-07
   10.3199997       4.58977411E-07
   10.6049995       6.66062761E-07
   10.8900003       8.84454209E-07
   11.1750002       1.08379993E-06
   11.4600000       1.22300412E-06
   11.7449999       1.25158101E-06
   12.0299997       1.11192696E-06
   12.3149996       7.42121017E-07
   12.6000004       7.87873304E-08
   12.8850002      -9.40448558E-07
   13.1700001      -2.37526547E-06
   13.4549999      -4.28192698E-06
   13.7399998      -6.71354928E-06
   14.0249996      -9.72116413E-06
   14.3100004      -1.33551948E-05
   14.5950003      -1.76668327E-05
   14.8800001      -2.27087185E-05
   15.1650000      -2.85344122E-05
   15.4499998      -3.51962008E-05
   15.7349997      -4.27411105E-05
   16.0200005      -5.12051956E-05
   16.3050003      -6.06065914E-05
   16.5900002      -7.09379601E-05
   16.8750000      -8.21592548E-05
   17.1599998      -9.41916369E-05
   17.4449997      -1.06913598E-04
   17.7299995      -1.20159792E-04
   18.0149994      -1.33723224E-04
   18.2999992      -1.47360945E-04
   18.5849991      -1.60802825E-04
   18.8700008      -1.73763314E-04
   19.1550007      -1.85955054E-04
   19.4400005      -1.97103378E-04
   19.7250004      -2.06960423E-04
   20.0100002      -2.15317705E-04
   20.2950001      -2.22015849E-04
   20.5799999      -2.26951102E-04
   20.8649998      -2.30077829E-04
   21.1499996      -2.31407626E-04
   21.4349995      -2.31005906E-04
   21.7199993      -2.28986610E-04
   22.0049992      -2.25507320E-04
   22.2900009      -2.20765040E-04
   22.5750008      -2.14993619E-04
   22.8600006      -2.08462647E-04
   23.1450005      -2.01477262E-04
   23.4300003      -1.94377164E-04
   23.7150002      -1.87533544E-04
   24.0000000      -1.81343188E-04
   24.2849998      -1.76218527E-04
   24.5699997      -1.72574568E-04
   24.8549995      -1.70812345E-04
   25.1399994      -1.71300941E-04
   25.4249992      -1.74358705E-04
   25.7099991      -1.80235802E-04
   25.9950008      -1.89099024E-04
   26.2800007      -2.01020332E-04
   26.5650005      -2.15970096E-04
   26.8500004      -2.33816711E-04
   27.1350002      -2.54331651E-04
   27.4200001      -2.77200976E-04
   27.7049999      -3.02041823E-04
   27.9899998      -3.28422437E-04
   28.2749996      -3.55884171E-04
   28.5599995      -3.83962935E-04
   28.8449993      -4.12208319E-04
   29.1299992      -4.40199103E-04
   29.4150009      -4.67553735E-04
   29.7000008      -4.93935426E-04
   29.9850006      -5.19052614E-04
   30.2700005      -5.42654248E-04
   30.5550003      -5.64523682E-04
   30.8400002      -5.84469410E-04
   31.1250000      -6.02316926E-04
   31.4099998      -6.17901387E-04
   31.6949997      -6.31063187E-04
   31.9799995      -6.41646795E-04
   32.2649994      -6.49503025E-04
   32.5499992      -6.54495379E-04
   32.8349991      -6.56509306E-04
   33.1199989      -6.55463489E-04
   33.4049988      -6.51321665E-04
   33.6899986      -6.44103100E-04
   33.9749985      -6.33889867E-04
   34.2599983      -6.20828185E-04
   34.5449982      -6.05124165E-04
   34.8300018      -5.87032526E-04
   35.1150017      -5.66839590E-04
   35.4000015      -5.44842624E-04
   35.6850014      -5.21328417E-04
   35.9700012      -4.96554130E-04
   36.2550011      -4.70734376E-04
   36.5400009      -4.44035919E-04
   36.8250008      -4.16582712E-04
   37.1100006      -3.88468645E-04
   37.3950005      -3.59777885E-04
   37.6800003      -3.30607989E-04
   37.9650002      -3.01092252E-04
   38.2500000      -2.71417492E-04
   38.5349998      -2.41833273E-04
   38.8199997      -2.12651037E-04
   39.1049995      -1.84232515E-04
   39.3899994      -1.56969079E-04
   39.6749992      -1.31254594E-04
   39.9599991      -1.07455802E-04
   40.2449989      -8.58843850E-05
   40.5299988      -6.67747154E-05
   40.8149986      -5.02698895E-05
   41.0999985      -3.64174084E-05
   41.3849983      -2.51744750E-05
   41.6699982      -1.64213816E-05
   41.9550018      -9.98052201E-06
   42.2400017      -5.63815684E-06
   42.5250015      -3.16604473E-06
   42.8100014      -2.34057825E-06
   43.0950012      -2.95775294E-06
   43.3800011      -4.84294424E-06
   43.6650009      -7.85524026E-06
   43.9500008      -1.18868620E-05
   44.2350006      -1.68582974E-05
   44.5200005      -2.27101827E-05
   44.8050003      -2.93930243E-05
   45.0900002      -3.68559340E-05
   45.3750000      -4.50359876E-05
   45.6599998      -5.38496170E-05
   45.9449997      -6.31875009E-05
   46.2299995      -7.29139938E-05
   46.5149994      -8.28716438E-05
   46.7999992      -9.28903683E-05
   47.0849991      -1.02799459E-04
   47.3699989      -1.12440721E-04
   47.6549988      -1.21679848E-04
   47.9399986      -1.30414337E-04
   48.2249985      -1.38576506E-04
   48.5099983      -1.46131322E-04
   48.7949982      -1.53070170E-04
   49.0800018      -1.59402232E-04
   49.3650017      -1.65144738E-04
   49.6500015      -1.70314219E-04
   49.9350014      -1.74919696E-04
   50.2200012      -1.78958624E-04
   50.5050011      -1.82415955E-04
   50.7900009      -1.85266079E-04
   51.0750008      -1.87477330E-04
   51.3600006      -1.89018741E-04
   51.6450005      -1.89868399E-04
   51.9300003      -1.90022023E-04
   52.2150002      -1.89501239E-04
   52.5000000      -1.88359380E-04
   52.7849998      -1.86684367E-04
   53.0699997      -1.84596822E-04
   53.3549995      -1.82243166E-04
   53.6399994      -1.79783659E-04
   53.9249992      -1.77376452E-04
   54.2099991      -1.75159279E-04
   54.4949989      -1.73230699E-04
   54.7799988      -1.71634136E-04
   55.0649986      -1.70346830E-04
   55.3499985      -1.69276274E-04
   55.6349983      -1.68265091E-04
   55.9199982      -1.67104736E-04
   56.2050018      -1.65557460E-04
   56.4900017      -1.63384379E-04
   56.7750015      -1.60376570E-04
   57.0600014      -1.56386217E-04
   57.3450012      -1.51353903E-04
   57.6300011      -1.45329192E-04
   57.9150009      -1.38481584E-04
   58.2000008      -1.31100416E-04
   58.4850006      -1.23582780E-04
   58.7700005      -1.16410272E-04
   59.0550003      -1.10116081E-04
   59.3400002      -1.05244791E-04
   59.6250000      -1.02308397E-04
   59.9099998      -1.01741884E-04
   60.1949997      -1.03862476E-04
   60.4799995      -1.08836088E-04
   60.7649994      -1.16653806E-04
   61.0499992      -1.27121079E-04
   61.3349991      -1.39861091E-04
   61.6199989      -1.54332345E-04
   61.9049988      -1.69859719E-04
   62.1899986      -1.85676719E-04
   62.4749985      -2.00975919E-04
   62.7599983      -2.14962973E-04
   63.0449982      -2.26909935E-04
   63.3300018      -2.36203399E-04
   63.6150017      -2.42383467E-04
   63.9000015      -2.45169940E-04
   64.1849976      -2.44474097E-04
   64.4700012      -2.40395253E-04
   64.7549973      -2.33203478E-04
   65.0400009      -2.23310737E-04
   65.3249969      -2.11234350E-04
   65.6100006      -1.97556845E-04
   65.8949966      -1.82886943E-04
   66.1800003      -1.67824881E-04
   66.4649963      -1.52935070E-04
   66.7500000      -1.38726755E-04
   67.0350037      -1.25642939E-04
   67.3199997      -1.14056245E-04
   67.6050034      -1.04269464E-04
   67.8899994      -9.65190193E-05
   68.1750031      -9.09791124E-05
   68.4599991      -8.77655839E-05
   68.7450027      -8.69386276E-05
   69.0299988      -8.85042391E-05
   69.3150024      -9.24147243E-05
   69.5999985      -9.85687439E-05
   69.8850021      -1.06811349E-04
   70.1699982      -1.16934403E-04
   70.4550018      -1.28678075E-04
   70.7399979      -1.41733763E-04
   71.0250015      -1.55748916E-04
   71.3099976      -1.70334257E-04
   71.5950012      -1.85073426E-04
   71.8799973      -1.99535614E-04
   72.1650009      -2.13290346E-04
   72.4499969      -2.25924479E-04
   72.7350006      -2.37059940E-04
   73.0199966      -2.46371026E-04
   73.3050003      -2.53599865E-04
   73.5899963      -2.58567889E-04
   73.8750000      -2.61182169E-04
   74.1600037      -2.61435256E-04
   74.4449997      -2.59398919E-04
   74.7300034      -2.55212653E-04
   75.0149994      -2.49069359E-04
   75.3000031      -2.41200280E-04
   75.5849991      -2.31862417E-04
   75.8700027      -2.21329363E-04
   76.1549988      -2.09886915E-04
   76.4400024      -1.97832327E-04
   76.7249985      -1.85475452E-04
   77.0100021      -1.73139517E-04
   77.2949982      -1.61159100E-04
   77.5800018      -1.49873580E-04
   77.8649979      -1.39615237E-04
   78.1500015      -1.30692439E-04
   78.4349976      -1.23369566E-04
   78.7200012      -1.17845892E-04
   79.0049973      -1.14236595E-04
   79.2900009      -1.12558941E-04
   79.5749969      -1.12726098E-04
   79.8600006      -1.14550377E-04
   80.1449966      -1.17756645E-04
   80.4300003      -1.22005200E-04
   80.7149963      -1.26921906E-04
   81.0000000      -1.32132933E-04
   81.2850037      -1.37299430E-04
   81.5699997      -1.42148929E-04
   81.8550034      -1.46499093E-04
   82.1399994      -1.50270789E-04
   82.4250031      -1.53489324E-04
   82.7099991      -1.56273003E-04
   82.9950027      -1.58810581E-04
   83.2799988      -1.61330361E-04
   83.5650024      -1.64064797E-04
   83.8499985      -1.67214705E-04
   84.1350021      -1.70918167E-04
   84.4199982      -1.75227906E-04
   84.7050018      -1.80099974E-04
   84.9899979      -1.85395125E-04
   85.2750015      -1.90892519E-04
   85.5599976      -1.96312991E-04
   85.8450012      -2.01349059E-04
   86.1299973      -2.05697346E-04
   86.4150009      -2.09089660E-04
   86.6999969      -2.11319057E-04
   86.9850006      -2.12258426E-04
   87.2699966      -2.11869585E-04
   87.5550003      -2.10202881E-04
   87.8399963      -2.07387740E-04
   88.1250000      -2.03615942E-04
   88.4100037      -1.99120390E-04
   88.6949997      -1.94152148E-04
   88.9800034      -1.88958220E-04
   89.2649994      -1.83762269E-04
   89.5500031      -1.78749382E-04
   89.8349991      -1.74055793E-04
   90.1200027      -1.69763618E-04
   90.4049988      -1.65901016E-04
   90.6900024      -1.62447279E-04
   90.9749985      -1.59342817E-04
   91.2600021      -1.56503200E-04
   91.5449982      -1.53835921E-04
   91.8300018      -1.51258020E-04
   92.1149979      -1.48712497E-04
   92.4000015      -1.46181526E-04
   92.6849976      -1.43694502E-04
   92.9700012      -1.41329729E-04
   93.2549973      -1.39208933E-04
   93.5400009      -1.37485025E-04
   93.8249969      -1.36324146E-04
   94.1100006      -1.35884227E-04
   94.3949966      -1.36292932E-04
   94.6800003      -1.37628711E-04
   94.9649963      -1.39908254E-04
   95.2500000      -1.43082274E-04
   95.5350037      -1.47040671E-04
   95.8199997      -1.51625616E-04
   96.1050034      -1.56650058E-04
   96.3899994      -1.61918026E-04
   96.6750031      -1.67243590E-04
   96.9599991      -1.72465574E-04
   97.2450027      -1.77457026E-04
   97.5299988      -1.82129079E-04
   97.8150024      -1.86429737E-04
   98.0999985      -1.90338629E-04
   98.3850021      -1.93859247E-04
   98.6699982      -1.97009591E-04
   98.9550018      -1.99812988E-04
   99.2399979      -2.02289637E-04
   99.5250015      -2.04450334E-04
   99.8099976      -2.06292665E-04
   100.095001      -2.07799298E-04
   100.379997      -2.08938203E-04
   100.665001      -2.09664242E-04
   100.949997      -2.09922146E-04
   101.235001      -2.09650432E-04
   101.519997      -2.08786878E-04
   101.805000      -2.07275560E-04
   102.089996      -2.05074932E-04
   102.375000      -2.02166062E-04
   102.660004      -1.98559908E-04
   102.945000      -1.94302382E-04
   103.230003      -1.89476632E-04
   103.514999      -1.84202247E-04
   103.800003      -1.78631337E-04
   104.084999      -1.72941858E-04
   104.370003      -1.67328151E-04
   104.654999      -1.61988908E-04
   104.940002      -1.57113303E-04
   105.224998      -1.52866065E-04
   105.510002      -1.49373547E-04
   105.794998      -1.46712759E-04
   106.080002      -1.44905047E-04
   106.364998      -1.43915546E-04
   106.650002      -1.43658530E-04
   106.934998      -1.44008067E-04
   107.220001      -1.44812555E-04
   107.504997      -1.45911414E-04
   107.790001      -1.47152634E-04
   108.074997      -1.48409497E-04
   108.360001      -1.49594518E-04
   108.644997      -1.50669075E-04
   108.930000      -1.51646993E-04
   109.214996      -1.52591019E-04
   109.500000      -1.53602159E-04
   109.785004      -1.54803085E-04
   110.070000      -1.56317983E-04
   110.355003      -1.58251962E-04
   110.639999      -1.60673095E-04
   110.925003      -1.63599645E-04
   111.209999      -1.66994039E-04
   111.495003      -1.70764222E-04
   111.779999      -1.74771732E-04
   112.065002      -1.78845265E-04
   112.349998      -1.82797667E-04
   112.635002      -1.86444508E-04
   112.919998      -1.89621613E-04
   113.205002      -1.92199892E-04
   113.489998      -1.94095686E-04
   113.775002      -1.95276050E-04
   114.059998      -1.95758927E-04
   114.345001      -1.95608722E-04
   114.629997      -1.94928245E-04
   114.915001      -1.93848013E-04
   115.199997      -1.92513631E-04
   115.485001      -1.91072628E-04
   115.769997      -1.89661077E-04
   116.055000      -1.88391961E-04
   116.339996      -1.87346552E-04
   116.625000      -1.86570163E-04
   116.910004      -1.86072837E-04
   117.195000      -1.85834593E-04
   117.480003      -1.85813653E-04
   117.764999      -1.85955520E-04
   118.050003      -1.86200676E-04
   118.334999      -1.86489196E-04
   118.620003      -1.86761768E-04
   118.904999      -1.86958176E-04
   119.190002      -1.87014215E-04
   119.474998      -1.86859193E-04
   119.760002      -1.86415476E-04
   120.044998      -1.85601093E-04
   120.330002      -1.84335906E-04
   120.614998      -1.82550721E-04
   120.900002      -1.80198302E-04
   121.184998      -1.77265145E-04
   121.470001      -1.73781693E-04
   121.754997      -1.69828825E-04
   122.040001      -1.65539022E-04
   122.324997      -1.61090968E-04
   122.610001      -1.56697628E-04
   122.894997      -1.52589317E-04
   123.180000      -1.48993684E-04
   123.464996      -1.46115723E-04
   123.750000      -1.44120160E-04
   124.035004      -1.43118275E-04
   124.320000      -1.43160287E-04
   124.605003      -1.44233622E-04
   124.889999      -1.46266844E-04
   125.175003      -1.49138199E-04
   125.459999      -1.52687295E-04
   125.745003      -1.56727925E-04
   126.029999      -1.61060714E-04
   126.315002      -1.65483638E-04
   126.599998      -1.69799765E-04
   126.885002      -1.73822453E-04
   127.169998      -1.77378868E-04
   127.455002      -1.80313582E-04
   127.739998      -1.82493051E-04
   128.024994      -1.83812022E-04
   128.309998      -1.84200646E-04
   128.595001      -1.83631564E-04
   128.880005      -1.82124422E-04
   129.164993      -1.79747120E-04
   129.449997      -1.76612477E-04
   129.735001      -1.72871121E-04
   130.020004      -1.68701576E-04
   130.304993      -1.64298690E-04
   130.589996      -1.59862015E-04
   130.875000      -1.55584770E-04
   131.160004      -1.51644635E-04
   131.445007      -1.48196428E-04
   131.729996      -1.45367318E-04
   132.014999      -1.43254714E-04
   132.300003      -1.41926692E-04
   132.585007      -1.41424360E-04
   132.869995      -1.41765457E-04
   133.154999      -1.42948076E-04
   133.440002      -1.44953854E-04
   133.725006      -1.47750034E-04
   134.009995      -1.51290224E-04
   134.294998      -1.55513932E-04
   134.580002      -1.60345226E-04
   134.865005      -1.65690901E-04
   135.149994      -1.71438674E-04
   135.434998      -1.77456328E-04
   135.720001      -1.83592507E-04
   136.005005      -1.89680708E-04
   136.289993      -1.95545945E-04
   136.574997      -2.01013623E-04
   136.860001      -2.05920107E-04
   137.145004      -2.10122584E-04
   137.429993      -2.13507010E-04
   137.714996      -2.15992884E-04
   138.000000      -2.17534805E-04
   138.285004      -2.18121218E-04
   138.570007      -2.17771405E-04
   138.854996      -2.16531349E-04
   139.139999      -2.14469095E-04
   139.425003      -2.11669641E-04
   139.710007      -2.08229379E-04
   139.994995      -2.04249998E-04
   140.279999      -1.99832284E-04
   140.565002      -1.95070388E-04
   140.850006      -1.90047809E-04
   141.134995      -1.84835168E-04
   141.419998      -1.79490904E-04
   141.705002      -1.74064437E-04
   141.990005      -1.68601604E-04
   142.274994      -1.63151548E-04
   142.559998      -1.57773844E-04
   142.845001      -1.52544861E-04
   143.130005      -1.47562110E-04
   143.414993      -1.42945632E-04
   143.699997      -1.38835530E-04
   143.985001      -1.35385315E-04
   144.270004      -1.32751491E-04
   144.554993      -1.31080000E-04
   144.839996      -1.30491069E-04
   145.125000      -1.31064240E-04
   145.410004      -1.32825633E-04
   145.695007      -1.35739276E-04
   145.979996      -1.39703960E-04
   146.264999      -1.44556339E-04
   146.550003      -1.50080043E-04
   146.835007      -1.56019916E-04
   147.119995      -1.62099488E-04
   147.404999      -1.68039449E-04
   147.690002      -1.73575259E-04
   147.975006      -1.78472299E-04
   148.259995      -1.82537522E-04
   148.544998      -1.85627199E-04
   148.830002      -1.87652011E-04
   149.115005      -1.88579754E-04
   149.399994      -1.88436679E-04
   149.684998      -1.87307844E-04
   149.970001      -1.85335681E-04
   150.255005      -1.82715914E-04
   150.539993      -1.79689552E-04
   150.824997      -1.76529880E-04
   151.110001      -1.73524008E-04
   151.395004      -1.70950545E-04
   151.679993      -1.69055333E-04
   151.964996      -1.68028069E-04
   152.250000      -1.67983322E-04
   152.535004      -1.68948682E-04
   152.820007      -1.70862186E-04
   153.104996      -1.73579465E-04
   153.389999      -1.76889793E-04
   153.675003      -1.80538889E-04
   153.960007      -1.84255972E-04
   154.244995      -1.87780781E-04
   154.529999      -1.90887731E-04
   154.815002      -1.93403379E-04
   155.100006      -1.95216096E-04
   155.384995      -1.96277135E-04
   155.669998      -1.96593828E-04
   155.955002      -1.96217094E-04
   156.240005      -1.95226108E-04
   156.524994      -1.93713087E-04
   156.809998      -1.91770159E-04
   157.095001      -1.89480896E-04
   157.380005      -1.86916193E-04
   157.664993      -1.84135060E-04
   157.949997      -1.81188370E-04
   158.235001      -1.78124130E-04
   158.520004      -1.74992078E-04
   158.804993      -1.71846215E-04
   159.089996      -1.68744387E-04
   159.375000      -1.65744626E-04
   159.660004      -1.62899494E-04
   159.945007      -1.60250129E-04
   160.229996      -1.57821516E-04
   160.514999      -1.55620626E-04
   160.800003      -1.53637942E-04
   161.085007      -1.51852670E-04
   161.369995      -1.50240783E-04
   161.654999      -1.48784209E-04
   161.940002      -1.47479717E-04
   162.225006      -1.46345657E-04
   162.509995      -1.45425307E-04
   162.794998      -1.44786187E-04
   163.080002      -1.44515303E-04
   163.365005      -1.44711128E-04
   163.649994      -1.45473299E-04
   163.934998      -1.46891369E-04
   164.220001      -1.49033585E-04
   164.505005      -1.51936503E-04
   164.789993      -1.55596339E-04
   165.074997      -1.59962452E-04
   165.360001      -1.64933663E-04
   165.645004      -1.70357860E-04
   165.929993      -1.76035435E-04
   166.214996      -1.81726806E-04
