  -4.50000000         0.00000000    
  -4.21500015         0.00000000    
  -3.93000007         0.00000000    
  -3.64499998         0.00000000    
  -3.35999990         0.00000000    
  -3.07500005         0.00000000    
  -2.78999996         0.00000000    
  -2.50500011         0.00000000    
  -2.22000003         0.00000000    
  -1.93499994         0.00000000    
  -1.64999998         0.00000000    
  -1.36500001         0.00000000    
  -1.08000004         0.00000000    
 -0.795000017         0.00000000    
 -0.509999990         0.00000000    
 -0.224999994         0.00000000    
   5.99999987E-02     0.00000000    
  0.344999999         0.00000000    
  0.629999995         0.00000000    
  0.915000021         0.00000000    
   1.20000005         0.00000000    
   1.48500001         3.32083606E-38
   1.76999998         1.87820433E-38
   2.05500007         3.76358769E-37
   2.33999991         1.05089190E-37
   2.62500000        -9.83938492E-36
   2.91000009        -9.53197492E-36
   3.19499993         1.32292820E-35
   3.48000002         7.65133176E-35
   3.76500010         6.82964569E-32
   4.05000019         3.32717587E-31
   4.33500004         1.83228649E-30
   4.61999989         8.38712248E-30
   4.90500021         1.74466563E-29
   5.19000006         5.60596416E-30
   5.47499990        -5.46514640E-29
   5.76000023        -9.98262092E-29
   6.04500008         5.61819043E-29
   6.32999992         5.65258850E-28
   6.61499977         1.22058872E-27
   6.90000010         1.29103606E-27
   7.18499994        -2.39690648E-28
   7.46999979        -3.81458814E-27
   7.75500011        -8.81329809E-27
   8.03999996        -1.41720526E-26
   8.32499981        -2.04792312E-26
   8.60999966        -3.20337185E-26
   8.89500046        -5.64163922E-26
   9.18000031        -1.00288965E-25
   9.46500015        -1.62667297E-25
   9.75000000        -2.27730831E-25
   10.0349998        -2.55957433E-25
   10.3199997        -1.67014143E-25
   10.6049995         1.93275729E-25
   10.8900003         1.10223866E-24
   11.1750002         3.01545197E-24
   11.4600000         6.61323041E-24
   11.7449999         1.28292252E-23
   12.0299997         2.28453582E-23
   12.3149996         3.79821380E-23
   12.6000004         5.92839509E-23
   12.8850002         8.64182480E-23
   13.1700001         1.15349147E-22
   13.4549999         1.34219660E-22
   13.7399998         1.17100545E-22
   14.0249996         1.58499085E-23
   14.3100004        -2.48617201E-22
   14.5950003        -7.92761791E-22
   14.8800001        -1.76970465E-21
   15.1650000        -3.35465642E-21
   15.4499998        -5.70903701E-21
   15.7349997        -8.91735759E-21
   16.0200005        -1.28958669E-20
   16.3050003        -1.72806076E-20
   16.5900002        -2.13141939E-20
   16.8750000        -2.37632834E-20
   17.1599998        -2.29087784E-20
   17.4449997        -1.66538567E-20
   17.7299995        -2.78650067E-21
   18.0149994         2.05894980E-20
   18.2999992         5.44777145E-20
   18.5849991         9.83338354E-20
   18.8700008         1.49443878E-19
   19.1550007         2.02479222E-19
   19.4400005         2.49380091E-19
   19.7250004         2.79694736E-19
   20.0100002         2.81446084E-19
   20.2950001         2.42514828E-19
   20.5799999         1.52430168E-19
   20.8649998         4.36880732E-21
   21.1499996        -2.02905091E-19
   21.4349995        -4.63458699E-19
   21.7199993        -7.63257387E-19
   22.0049992        -1.08010908E-18
   22.2900009        -1.38462218E-18
   22.5750008        -1.64218140E-18
   22.8600006        -1.81577849E-18
   23.1450005        -1.86935725E-18
   23.4300003        -1.77114610E-18
   23.7150002        -1.49633933E-18
   24.0000000        -1.02844979E-18
   24.2849998        -3.58828055E-19
   24.5699997         5.15773633E-19
   24.8549995         1.59709727E-18
   25.1399994         2.88945127E-18
   25.4249992         4.40191194E-18
   25.7099991         6.14608471E-18
   25.9950008         8.12690063E-18
   26.2800007         1.03247319E-17
   26.5650005         1.26687103E-17
   26.8500004         1.50035657E-17
   27.1350002         1.70551010E-17
   27.4200001         1.84022639E-17
   27.7049999         1.84659436E-17
   27.9899998         1.65256492E-17
   28.2749996         1.17739333E-17
   28.5599995         3.41523870E-18
   28.8449993        -9.19046299E-18
   29.1299992        -2.63472262E-17
   29.4150009        -4.78238673E-17
   29.7000008        -7.26643691E-17
   29.9850006        -9.90449059E-17
   30.2700005        -1.24219539E-16
   30.5550003        -1.44595089E-16
   30.8400002        -1.55966334E-16
   31.1250000        -1.53924852E-16
   31.4099998        -1.34428827E-16
   31.6949997        -9.44888612E-17
   31.9799995        -3.28935120E-17
   32.2649994         4.91300881E-17
   32.5499992         1.47442072E-16
   32.8349991         2.54824595E-16
   33.1199989         3.61228000E-16
   33.4049988         4.54491463E-16
   33.6899986         5.21543597E-16
   33.9749985         5.50014862E-16
   34.2599983         5.30119011E-16
   34.5449982         4.56590146E-16
   34.8300018         3.30405027E-16
   35.1150017         1.59996173E-16
   35.4000015        -3.83325091E-17
   35.6850014        -2.41030266E-16
   35.9700012        -4.19115343E-16
   36.2550011        -5.41215884E-16
   36.5400009        -5.77714481E-16
   36.8250008        -5.05709904E-16
   37.1100006        -3.14350629E-16
   37.3950005        -9.93662870E-18
   37.6800003         3.79911376E-16
   37.9650002         8.03780586E-16
   38.2500000         1.18643852E-15
   38.5349998         1.43190634E-15
   38.8199997         1.43008723E-15
   39.1049995         1.06714579E-15
   39.3899994         2.39446553E-16
   39.6749992        -1.12956026E-15
   39.9599991        -3.07060857E-15
   40.2449989        -5.54963282E-15
   40.5299988        -8.45058429E-15
   40.8149986        -1.15624537E-14
   41.0999985        -1.45731358E-14
   41.3849983        -1.70727029E-14
   41.6699982        -1.85684174E-14
   41.9550018        -1.85131400E-14
   42.2400017        -1.63478799E-14
   42.5250015        -1.15578696E-14
   42.8100014        -3.74011379E-15
   43.0950012         7.32157238E-15
   43.3800011         2.15795924E-14
   43.6650009         3.86508622E-14
   43.9500008         5.77588988E-14
   44.2350006         7.76987592E-14
   44.5200005         9.68340398E-14
   44.8050003         1.13134003E-13
   45.0900002         1.24257172E-13
   45.3750000         1.27684823E-13
   45.6599998         1.20903708E-13
   45.9449997         1.01633295E-13
   46.2299995         6.80871985E-14
   46.5149994         1.92532131E-14
   46.7999992        -4.48283446E-14
   47.0849991        -1.22812947E-13
   47.3699989        -2.11854731E-13
   47.6549988        -3.07492855E-13
   47.9399986        -4.03649065E-13
   48.2249985        -4.92760617E-13
   48.5099983        -5.66064665E-13
   48.7949982        -6.14041749E-13
   49.0800018        -6.27013198E-13
   49.3650017        -5.95873123E-13
   49.6500015        -5.12921194E-13
   49.9350014        -3.72748056E-13
   50.2200012        -1.73112826E-13
   50.5050011         8.42611977E-14
   50.7900009         3.93046273E-13
   51.0750008         7.41904259E-13
   51.3600006         1.11438452E-12
   51.6450005         1.48918161E-12
   51.9300003         1.84079184E-12
   52.2150002         2.14057981E-12
   52.5000000         2.35823774E-12
   52.7849998         2.46358554E-12
   53.0699997         2.42863217E-12
   53.3549995         2.22978320E-12
   53.6399994         1.85006416E-12
   53.9249992         1.28120995E-12
   54.2099991         5.25467961E-13
   54.4949989        -4.03024565E-13
   54.7799988        -1.47742029E-12
   55.0649986        -2.65798863E-12
   55.3499985        -3.89266093E-12
   55.6349983        -5.11830942E-12
   55.9199982        -6.26275551E-12
   56.2050018        -7.24744266E-12
   56.4900017        -7.99070705E-12
   56.7750015        -8.41154490E-12
   57.0600014        -8.43374676E-12
   57.3450012        -7.99030894E-12
   57.6300011        -7.02797282E-12
   57.9150009        -5.51177550E-12
   58.2000008        -3.42949931E-12
   58.4850006        -7.95824778E-13
   58.7700005         2.34395077E-12
   59.0550003         5.91086555E-12
   59.3400002         9.79017475E-12
   59.6250000         1.38305018E-11
   59.9099998         1.78445973E-11
   60.1949997         2.16121062E-11
   60.4799995         2.48847384E-11
   60.7649994         2.73941703E-11
   61.0499992         2.88628791E-11
   61.3349991         2.90180744E-11
   61.6199989         2.76084815E-11
   61.9049988         2.44236940E-11
   62.1899986         1.93152560E-11
   62.4749985         1.22184112E-11
   62.7599983         3.17317375E-12
   63.0449982        -7.65708590E-12
   63.3300018        -1.99713319E-11
   63.6150017        -3.33229278E-11
   63.9000015        -4.71200197E-11
   64.1849976        -6.06358852E-11
   64.4700012        -7.30306093E-11
   64.7549973        -8.33846187E-11
   65.0400009        -9.07439401E-11
   65.3249969        -9.41759656E-11
   65.6100006        -9.28336089E-11
   65.8949966        -8.60245625E-11
   66.1800003        -7.32814781E-11
   66.4649963        -5.44280281E-11
   66.7500000        -2.96357765E-11
   67.0350037         5.34152963E-13
   67.3199997         3.51093633E-11
   67.6050034         7.27092692E-11
   67.8899994         1.11575964E-10
   68.1750031         1.49634499E-10
   68.4599991         1.84582336E-10
   68.7450027         2.14005064E-10
   69.0299988         2.35513636E-10
   69.3150024         2.46896087E-10
   69.5999985         2.46275056E-10
   69.8850021         2.32260849E-10
   70.1699982         2.04089412E-10
   70.4550018         1.61734334E-10
   70.7399979         1.05982993E-10
   71.0250015         3.84690751E-11
   71.3099976        -3.83449071E-11
   71.5950012        -1.21237576E-10
   71.8799973        -2.06350270E-10
   72.1650009        -2.89356622E-10
   72.4499969        -3.65672576E-10
   72.7350006        -4.30695951E-10
   73.0199966        -4.80063544E-10
   73.3050003        -5.09910392E-10
   73.5899963        -5.17115850E-10
   73.8750000        -4.99522812E-10
   74.1600037        -4.56113730E-10
   74.4449997        -3.87134380E-10
   74.7300034        -2.94153785E-10
   75.0149994        -1.80056636E-10
   75.3000031        -4.89652451E-11
   75.5849991         9.39066463E-11
   75.8700027         2.42462300E-10
   76.1549988         3.89984267E-10
   76.4400024         5.29438327E-10
   76.7249985         6.53804455E-10
   77.0100021         7.56419039E-10
   77.2949982         8.31312685E-10
   77.5800018         8.73525530E-10
   77.8649979         8.79385398E-10
   78.1500015         8.46735126E-10
   78.4349976         7.75095543E-10
   78.7200012         6.65756617E-10
   79.0049973         5.21789945E-10
   79.2900009         3.47980700E-10
   79.5749969         1.50679400E-10
   79.8600006        -6.24224700E-11
   80.1449966        -2.82583651E-10
   80.4300003        -5.00364139E-10
   80.7149963        -7.06020742E-10
   81.0000000        -8.89933405E-10
   81.2850037        -1.04304665E-09
   81.5699997        -1.15730914E-09
   81.8550034        -1.22609201E-09
   82.1399994        -1.24456823E-09
   82.4250031        -1.21003518E-09
   82.7099991        -1.12216092E-09
   82.9950027        -9.83137571E-10
   83.2799988        -7.97724664E-10
   83.5650024        -5.73172509E-10
   83.8499985        -3.19013038E-10
   84.1350021        -4.67168110E-11
   84.4199982         2.30784489E-10
   84.7050018         4.99694730E-10
   84.9899979         7.46054274E-10
   85.2750015         9.56512869E-10
   85.5599976         1.11913667E-09
   85.8450012         1.22420363E-09
   86.1299973         1.26493194E-09
   86.4150009         1.23809152E-09
   86.6999969         1.14443988E-09
   86.9850006         9.88939930E-10
   87.2699966         7.80720599E-10
   87.5550003         5.32759170E-10
   87.8399963         2.61281302E-10
   88.1250000        -1.51036440E-11
   88.4100037        -2.76497547E-10
   88.6949997        -5.02979880E-10
   88.9800034        -6.75970668E-10
   89.2649994        -7.79603437E-10
   89.5500031        -8.02015621E-10
   89.8349991        -7.36457950E-10
   90.1200027        -5.82140058E-10
   90.4049988        -3.44731133E-10
   90.6900024        -3.64618127E-11
   90.9749985         3.24206800E-10
   91.2600021         7.13353876E-10
   91.5449982         1.10278719E-09
   91.8300018         1.46159718E-09
   92.1149979         1.75799797E-09
   92.4000015         1.96135419E-09
   92.6849976         2.04427497E-09
   92.9700012         1.98464023E-09
   93.2549973         1.76743620E-09
   93.5400009         1.38625822E-09
   93.8249969         8.44379622E-10
   94.1100006         1.55286214E-10
   94.3949966        -6.57379651E-10
   94.6800003        -1.56049706E-09
   94.9649963        -2.51274290E-09
   95.2500000        -3.46641982E-09
   95.5350037        -4.36974279E-09
   95.8199997        -5.16946130E-09
   96.1050034        -5.81366422E-09
   96.3899994        -6.25461416E-09
   96.6750031        -6.45144604E-09
   96.9599991        -6.37257314E-09
   97.2450027        -5.99766947E-09
   97.5299988        -5.31912558E-09
   97.8150024        -4.34290159E-09
   98.0999985        -3.08875503E-09
   98.3850021        -1.58983016E-09
   98.6699982         1.08344507E-10
   98.9550018         1.94940175E-09
   99.2399979         3.86813648E-09
   99.5250015         5.79287507E-09
   99.8099976         7.64811681E-09
   100.095001         9.35735223E-09
   100.379997         1.08459695E-08
   100.665001         1.20441479E-08
   100.949997         1.28896636E-08
   101.235001         1.33305189E-08
   101.519997         1.33272966E-08
   101.805000         1.28551685E-08
   102.089996         1.19054473E-08
   102.375000         1.04866134E-08
   102.660004         8.62471872E-09
   102.945000         6.36312425E-09
   103.230003         3.76151332E-09
   103.514999         8.94213481E-10
   103.800003        -2.15219331E-09
   104.084999        -5.28184252E-09
   104.370003        -8.39304359E-09
   104.654999        -1.13820722E-08
   104.940002        -1.41471048E-08
   105.224998        -1.65920824E-08
   105.510002        -1.86303364E-08
   105.794998        -2.01877679E-08
   106.080002        -2.12054374E-08
   106.364998        -2.16414140E-08
   106.650002        -2.14718607E-08
   106.934998        -2.06913153E-08
   107.220001        -1.93121714E-08
   107.504997        -1.73634884E-08
   107.790001        -1.48892214E-08
   108.074997        -1.19460664E-08
   108.360001        -8.60105498E-09
   108.644997        -4.92911534E-09
   108.930000        -1.01079556E-09
   109.214996         3.06973336E-09
   109.500000         7.22625959E-09
   109.785004         1.13716014E-08
   110.070000         1.54182356E-08
   110.355003         1.92784952E-08
   110.639999         2.28645014E-08
   110.925003         2.60880313E-08
   111.209999         2.88605229E-08
   111.495003         3.10934993E-08
   111.779999         3.26996670E-08
   112.065002         3.35948158E-08
   112.349998         3.37007364E-08
   112.635002         3.29490746E-08
   112.919998         3.12860031E-08
   113.205002         2.86774835E-08
   113.489998         2.51146375E-08
   113.775002         2.06187885E-08
   114.059998         1.52455772E-08
   114.345001         9.08760001E-09
   114.629997         2.27507746E-09
   114.915001        -5.02580777E-09
   115.199997        -1.26170789E-08
   115.485001        -2.02755999E-08
   115.769997        -2.77619030E-08
   116.055000        -3.48306450E-08
   116.339996        -4.12420320E-08
   116.625000        -4.67732661E-08
   116.910004        -5.12292289E-08
   117.195000        -5.44513945E-08
   117.480003        -5.63243212E-08
   117.764999        -5.67791716E-08
   118.050003        -5.57939153E-08
   118.334999        -5.33903766E-08
   118.620003        -4.96282517E-08
   118.904999        -4.45970549E-08
   119.190002        -3.84065686E-08
   119.474998        -3.11770307E-08
   119.760002        -2.30302124E-08
   120.044998        -1.40822491E-08
   120.330002        -4.43931603E-09
   120.614998         5.80335602E-09
   120.900002         1.65587153E-08
   121.184998         2.77415637E-08
   121.470001         3.92589996E-08
   121.754997         5.09986684E-08
   122.040001         6.28160350E-08
   122.324997         7.45219282E-08
   122.610001         8.58722373E-08
   122.894997         9.65610880E-08
   123.180000         1.06218934E-07
   123.464996         1.14416572E-07
   123.750000         1.20675907E-07
   124.035004         1.24487215E-07
   124.320000         1.25332605E-07
   124.605003         1.22714624E-07
   124.889999         1.16188112E-07
   125.175003         1.05393411E-07
   125.459999         9.00886548E-08
   125.745003         7.01786860E-08
   126.029999         4.57386626E-08
   126.315002         1.70302190E-08
   126.599998        -1.54904836E-08
   126.885002        -5.11741476E-08
   127.169998        -8.91882550E-08
   127.455002        -1.28535490E-07
   127.739998        -1.68078159E-07
   128.024994        -2.06567691E-07
   128.309998        -2.42676435E-07
   128.595001        -2.75029123E-07
   128.880005        -3.02232962E-07
   129.164993        -3.22903901E-07
   129.449997        -3.35688640E-07
   129.735001        -3.39281314E-07
   130.020004        -3.32435633E-07
   130.304993        -3.13973800E-07
   130.589996        -2.82793195E-07
   130.875000        -2.37872300E-07
   131.160004        -1.78278611E-07
   131.445007        -1.03179580E-07
   131.729996        -1.18581935E-08
   132.014999         9.62663549E-08
   132.300003         2.21613348E-07
   132.585007         3.64410766E-07
   132.869995         5.24662994E-07
   133.154999         7.02119053E-07
   133.440002         8.96242682E-07
   133.725006         1.10618942E-06
   134.009995         1.33079106E-06
   134.294998         1.56855344E-06
   134.580002         1.81766643E-06
   134.865005         2.07602943E-06
   135.149994         2.34129266E-06
   135.434998         2.61091100E-06
   135.720001         2.88220872E-06
   136.005005         3.15245529E-06
   136.289993         3.41894088E-06
   136.574997         3.67906046E-06
   136.860001         3.93037681E-06
   137.145004         4.17068759E-06
   137.429993         4.39806536E-06
   137.714996         4.61089257E-06
   138.000000         4.80786457E-06
   138.285004         4.98798954E-06
   138.570007         5.15055717E-06
   138.854996         5.29510089E-06
   139.139999         5.42134921E-06
   139.425003         5.52917209E-06
   139.710007         5.61853767E-06
   139.994995         5.68946916E-06
   140.279999         5.74202022E-06
   140.565002         5.77626543E-06
   140.850006         5.79230345E-06
   141.134995         5.79027619E-06
   141.419998         5.77040510E-06
   141.705002         5.73302941E-06
   141.990005         5.67865845E-06
   142.274994         5.60801618E-06
   142.559998         5.52208394E-06
   142.845001         5.42211728E-06
   143.130005         5.30965781E-06
   143.414993         5.18651223E-06
   143.699997         5.05471962E-06
   143.985001         4.91649826E-06
   144.270004         4.77417780E-06
   144.554993         4.63012066E-06
   144.839996         4.48663377E-06
   145.125000         4.34588492E-06
   145.410004         4.20982497E-06
   145.695007         4.08012511E-06
   145.979996         3.95812549E-06
   146.264999         3.84481473E-06
   146.550003         3.74082470E-06
   146.835007         3.64644893E-06
   147.119995         3.56167175E-06
   147.404999         3.48621961E-06
   147.690002         3.41961481E-06
   147.975006         3.36123799E-06
   148.259995         3.31038450E-06
   148.544998         3.26631789E-06
   148.830002         3.22830806E-06
   149.115005         3.19565288E-06
   149.399994         3.16769001E-06
   149.684998         3.14378735E-06
   149.970001         3.12332349E-06
   150.255005         3.10565997E-06
   150.539993         3.09010829E-06
   150.824997         3.07590153E-06
   151.110001         3.06216748E-06
   151.395004         3.04791547E-06
   151.679993         3.03203547E-06
   151.964996         3.01331420E-06
   152.250000         2.99047110E-06
   152.535004         2.96220492E-06
   152.820007         2.92725576E-06
   153.104996         2.88446654E-06
   153.389999         2.83284635E-06
   153.675003         2.77162258E-06
   153.960007         2.70028022E-06
   154.244995         2.61858463E-06
   154.529999         2.52658128E-06
   154.815002         2.42457213E-06
   155.100006         2.31307445E-06
   155.384995         2.19276149E-06
   155.669998         2.06439290E-06
   155.955002         1.92874199E-06
   156.240005         1.78653249E-06
   156.524994         1.63838513E-06
   156.809998         1.48478819E-06
   157.095001         1.32608932E-06
   157.380005         1.16251192E-06
   157.664993         9.94200491E-07
   157.949997         8.21284686E-07
   158.235001         6.43961528E-07
   158.520004         4.62584694E-07
   158.804993         2.77753571E-07
   159.089996         9.03920565E-08
   159.375000        -9.81922597E-08
   159.660004        -2.86275338E-07
   159.945007        -4.71714998E-07
   160.229996        -6.51978951E-07
   160.514999        -8.24208655E-07
   160.800003        -9.85311431E-07
   161.085007        -1.13207489E-06
   161.369995        -1.26129771E-06
   161.654999        -1.36992253E-06
   161.940002        -1.45517242E-06
   162.225006        -1.51467134E-06
   162.509995        -1.54654128E-06
   162.794998        -1.54947281E-06
   163.080002        -1.52276141E-06
   163.365005        -1.46631930E-06
   163.649994        -1.38065013E-06
   163.934998        -1.26679834E-06
   164.220001        -1.12628300E-06
   164.505005        -9.61005071E-07
   164.789993        -7.73161503E-07
   165.074997        -5.65154380E-07
   165.360001        -3.39515651E-07
   165.645004        -9.88447582E-08
   165.929993         1.54230449E-07
   166.214996         4.17070822E-07
