  -4.50000000         0.00000000    
  -4.21500015         0.00000000    
  -3.93000007         0.00000000    
  -3.64499998         0.00000000    
  -3.35999990         0.00000000    
  -3.07500005         0.00000000    
  -2.78999996         0.00000000    
  -2.50500011         0.00000000    
  -2.22000003         0.00000000    
  -1.93499994         0.00000000    
  -1.64999998         0.00000000    
  -1.36500001         0.00000000    
  -1.08000004         0.00000000    
 -0.795000017         0.00000000    
 -0.509999990         0.00000000    
 -0.224999994         0.00000000    
   5.99999987E-02     0.00000000    
  0.344999999         0.00000000    
  0.629999995         0.00000000    
  0.915000021         0.00000000    
   1.20000005         0.00000000    
   1.48500001         2.89952614E-38
   1.76999998        -1.47263072E-37
   2.05500007        -4.55943060E-37
   2.33999991         1.07265474E-36
   2.62500000         7.92334204E-36
   2.91000009        -7.60841301E-36
   3.19499993        -1.83784137E-35
   3.48000002        -4.31798765E-35
   3.76500010        -1.59626678E-33
   4.05000019         6.39230772E-32
   4.33500004         1.21774547E-30
   4.61999989         5.00260341E-30
   4.90500021         4.77897285E-30
   5.19000006        -4.81403540E-31
   5.47499990        -1.58861370E-29
   5.76000023        -5.36002554E-29
   6.04500008        -3.12711771E-29
   6.32999992         3.60931212E-28
   6.61499977         1.23112366E-27
   6.90000010         2.30874819E-27
   7.18499994         3.06021601E-27
   7.46999979         3.32654054E-27
   7.75500011         4.23983732E-27
   8.03999996         8.28607015E-27
   8.32499981         1.78496220E-26
   8.60999966         3.21778274E-26
   8.89500046         4.47937717E-26
   9.18000031         4.38015110E-26
   9.46500015         1.48990125E-26
   9.75000000        -5.66108279E-26
   10.0349998        -1.87411078E-25
   10.3199997        -3.96863176E-25
   10.6049995        -6.94829178E-25
   10.8900003        -1.04431142E-24
   11.1750002        -1.29253075E-24
   11.4600000        -1.06384707E-24
   11.7449999         4.06712228E-25
   12.0299997         4.53593206E-24
   12.3149996         1.37616580E-23
   12.6000004         3.19129325E-23
   12.8850002         6.42529227E-23
   13.1700001         1.16573169E-22
   13.4549999         1.92450431E-22
   13.7399998         2.87654709E-22
   14.0249996         3.80852099E-22
   14.3100004         4.20393115E-22
   14.5950003         3.08324909E-22
   14.8800001        -1.14969901E-22
   15.1650000        -1.07911244E-21
   15.4499998        -2.87551669E-21
   15.7349997        -5.82106990E-21
   16.0200005        -1.01828470E-20
   16.3050003        -1.60577438E-20
   16.5900002        -2.32105167E-20
   16.8750000        -3.08881455E-20
   17.1599998        -3.76463565E-20
   17.4449997        -4.12418618E-20
   17.7299995        -3.86556525E-20
   18.0149994        -2.63134780E-20
   18.2999992        -5.53970692E-22
   18.5849991         4.16399877E-20
   18.8700008         1.01683335E-19
   19.1550007         1.78305050E-19
   19.4400005         2.66503919E-19
   19.7250004         3.56764265E-19
   20.0100002         4.34784380E-19
   20.2950001         4.81959317E-19
   20.5799999         4.76804121E-19
   20.8649998         3.97392792E-19
   21.1499996         2.24728196E-19
   21.4349995        -5.32452412E-20
   21.7199993        -4.37491845E-19
   22.0049992        -9.14284799E-19
   22.2900009        -1.45297242E-18
   22.5750008        -2.00588052E-18
   22.8600006        -2.51091109E-18
   23.1450005        -2.89696559E-18
   23.4300003        -3.09165806E-18
   23.7150002        -3.03008025E-18
   24.0000000        -2.66277546E-18
   24.2849998        -1.96080724E-18
   24.5699997        -9.16136339E-19
   24.8549995         4.63434711E-19
   25.1399994         2.16368921E-18
   25.4249992         4.17465813E-18
   25.7099991         6.49728906E-18
   25.9950008         9.13991315E-18
   26.2800007         1.20988871E-17
   26.5650005         1.53205728E-17
   26.8500004         1.86467372E-17
   27.1350002         2.17523090E-17
   27.4200001         2.40913839E-17
   27.7049999         2.48728611E-17
   27.9899998         2.30892943E-17
   28.2749996         1.76190496E-17
   28.5599995         7.41162183E-18
   28.8449993        -8.25036147E-18
   29.1299992        -2.94408899E-17
   29.4150009        -5.52828461E-17
   29.7000008        -8.37131463E-17
   29.9850006        -1.11401257E-16
   30.2700005        -1.33896943E-16
   30.5550003        -1.46058934E-16
   30.8400002        -1.42772777E-16
   31.1250000        -1.19908671E-16
   31.4099998        -7.54001730E-17
   31.6949997        -1.02631185E-17
   31.9799995         7.06696992E-17
   32.2649994         1.58530289E-16
   32.5499992         2.40907843E-16
   32.8349991         3.03155474E-16
   33.1199989         3.30480228E-16
   33.4049988         3.10619052E-16
   33.6899986         2.36740547E-16
   33.9749985         1.10071660E-16
   34.2599983        -5.83070879E-17
   34.5449982        -2.47032659E-16
   34.8300018        -4.25770111E-16
   35.1150017        -5.58411606E-16
   35.4000015        -6.07968062E-16
   35.6850014        -5.42612535E-16
   35.9700012        -3.42019807E-16
   36.2550011        -2.95812029E-18
   36.5400009         4.56948970E-16
   36.8250008         9.98188835E-16
   37.1100006         1.56158433E-15
   37.3950005         2.07377679E-15
   37.6800003         2.45534586E-15
   37.9650002         2.63042609E-15
   38.2500000         2.53628240E-15
   38.5349998         2.13119906E-15
   38.8199997         1.39927048E-15
   39.1049995         3.51248390E-16
   39.3899994        -9.78591246E-16
   39.6749992        -2.53861704E-15
   39.9599991        -4.26728423E-15
   40.2449989        -6.09950755E-15
   40.5299988        -7.96953225E-15
   40.8149986        -9.80835269E-15
   41.0999985        -1.15347668E-14
   41.3849983        -1.30407744E-14
   41.6699982        -1.41738097E-14
   41.9550018        -1.47199385E-14
   42.2400017        -1.43934699E-14
   42.5250015        -1.28387435E-14
   42.8100014        -9.64957637E-15
   43.0950012        -4.40954680E-15
   43.3800011         3.24614260E-15
   43.6650009         1.35503079E-14
   43.9500008         2.65118195E-14
   44.2350006         4.18228549E-14
   44.5200005         5.87790450E-14
   44.8050003         7.62271851E-14
   45.0900002         9.25554189E-14
   45.3750000         1.05737637E-13
   45.6599998         1.13439504E-13
   45.9449997         1.13187786E-13
   46.2299995         1.02597232E-13
   46.5149994         7.96412971E-14
   46.7999992         4.29462001E-14
   47.0849991        -7.91741093E-15
   47.3699989        -7.21756503E-14
   47.6549988        -1.47655868E-13
   47.9399986        -2.30683989E-13
   48.2249985        -3.16097869E-13
   48.5099983        -3.97393300E-13
   48.7949982        -4.67009623E-13
   49.0800018        -5.16749729E-13
   49.3650017        -5.38318684E-13
   49.6500015        -5.23955337E-13
   49.9350014        -4.67119453E-13
   50.2200012        -3.63192983E-13
   50.5050011        -2.10144673E-13
   50.7900009        -9.11382210E-15
   51.0750008         2.35138704E-13
   51.3600006         5.13956174E-13
   51.6450005         8.14729089E-13
   51.9300003         1.12108120E-12
   52.2150002         1.41332378E-12
   52.5000000         1.66919603E-12
   52.7849998         1.86487436E-12
   53.0699997         1.97624144E-12
   53.3549995         1.98037290E-12
   53.6399994         1.85719886E-12
   53.9249992         1.59126423E-12
   54.2099991         1.17350107E-12
   54.4949989         6.02916100E-13
   54.7799988        -1.11940750E-13
   55.0649986        -9.51830953E-13
   55.3499985        -1.88615963E-12
   55.6349983        -2.87292390E-12
   55.9199982        -3.85938720E-12
   56.2050018        -4.78358238E-12
   56.4900017        -5.57675477E-12
   56.7750015        -6.16668955E-12
   57.0600014        -6.48191787E-12
   57.3450012        -6.45667851E-12
   57.6300011        -6.03635327E-12
   57.9150009        -5.18305060E-12
   58.2000008        -3.88096456E-12
   58.4850006        -2.14095777E-12
   58.7700005        -3.92829444E-15
   59.0550003         2.45755911E-12
   59.3400002         5.13980785E-12
   59.6250000         7.91097222E-12
   59.9099998         1.06164808E-11
   60.1949997         1.30868883E-11
   60.4799995         1.51477181E-11
   60.7649994         1.66306725E-11
   61.0499992         1.73853414E-11
   61.3349991         1.72905266E-11
   61.6199989         1.62643093E-11
   61.9049988         1.42718753E-11
   62.1899986         1.13303082E-11
   62.4749985         7.50986946E-12
   62.7599983         2.93190841E-12
   63.0449982        -2.23670344E-12
   63.3300018        -7.79201443E-12
   63.6150017        -1.35035854E-11
   63.9000015        -1.91262076E-11
   64.1849976        -2.44117157E-11
   64.4700012        -2.91201438E-11
   64.7549973        -3.30292009E-11
   65.0400009        -3.59416594E-11
   65.3249969        -3.76903196E-11
   65.6100006        -3.81405081E-11
   65.8949966        -3.71907227E-11
   66.1800003        -3.47720117E-11
   66.4649963        -3.08464330E-11
   66.7500000        -2.54061355E-11
   67.0350037        -1.84738891E-11
   67.3199997        -1.01052751E-11
   67.6050034        -3.92999733E-13
   67.8899994         1.05253428E-11
   68.1750031         2.24581621E-11
   68.4599991         3.51491579E-11
   68.7450027         4.82665401E-11
   69.0299988         6.13941536E-11
   69.3150024         7.40262088E-11
   69.5999985         8.55680318E-11
   69.8850021         9.53443921E-11
   70.1699982         1.02618219E-10
   70.4550018         1.06619651E-10
   70.7399979         1.06586080E-10
   71.0250015         1.01813141E-10
   71.3099976         9.17139559E-11
   71.5950012         7.58844168E-11
   71.8799973         5.41673859E-11
   72.1650009         2.67133052E-11
   72.4499969        -5.97058774E-12
   72.7350006        -4.29880923E-11
   73.0199966        -8.30465488E-11
   73.3050003        -1.24478663E-10
   73.5899963        -1.65294278E-10
   73.8750000        -2.03264308E-10
   74.1600037        -2.36035358E-10
   74.4449997        -2.61269895E-10
   74.7300034        -2.76799306E-10
   75.0149994        -2.80782897E-10
   75.3000031        -2.71858785E-10
   75.5849991        -2.49275323E-10
   75.8700027        -2.12987530E-10
   76.1549988        -1.63709157E-10
   76.4400024        -1.02913657E-10
   76.7249985        -3.27824781E-11
   77.0100021         4.38973025E-11
   77.2949982         1.23883945E-10
   77.5800018         2.03661921E-10
   77.8649979         2.79642781E-10
   78.1500015         3.48366336E-10
   78.4349976         4.06687878E-10
   78.7200012         4.51936988E-10
   79.0049973         4.82030138E-10
   79.2900009         4.95538666E-10
   79.5749969         4.91705010E-10
   79.8600006         4.70415207E-10
   80.1449966         4.32135411E-10
   80.4300003         3.77826492E-10
   80.7149963         3.08849279E-10
   81.0000000         2.26879085E-10
   81.2850037         1.33838177E-10
   81.5699997         3.18579711E-11
   81.8550034        -7.67341746E-11
   82.1399994        -1.89395999E-10
   82.4250031        -3.03337466E-10
   82.7099991        -4.15484758E-10
   82.9950027        -5.22458909E-10
   83.2799988        -6.20581642E-10
   83.5650024        -7.05928871E-10
   83.8499985        -7.74438902E-10
   84.1350021        -8.22082402E-10
   84.4199982        -8.45083392E-10
   84.7050018        -8.40188752E-10
   84.9899979        -8.04953104E-10
   85.2750015        -7.38027361E-10
   85.5599976        -6.39418629E-10
   85.8450012        -5.10682718E-10
   86.1299973        -3.55027341E-10
   86.4150009        -1.77310167E-10
   86.6999969         1.60847169E-11
   86.9850006         2.17505139E-10
   87.2699966         4.18407226E-10
   87.5550003         6.09827022E-10
   87.8399963         7.82920506E-10
   88.1250000         9.29543276E-10
   88.4100037         1.04281339E-09
   88.6949997         1.11760556E-09
   88.9800034         1.15094667E-09
   89.2649994         1.14226151E-09
   89.5500031         1.09343945E-09
   89.8349991         1.00869957E-09
   90.1200027         8.94267882E-10
   90.4049988         7.57876706E-10
   90.6900024         6.08118278E-10
   90.9749985         4.53720783E-10
   91.2600021         3.02796177E-10
   91.5449982         1.62146074E-10
   91.8300018         3.66923367E-11
   92.1149979        -7.09091952E-11
   92.4000015        -1.60421662E-10
   92.6849976        -2.33925157E-10
   92.9700012        -2.95462765E-10
   93.2549973        -3.50472096E-10
   93.5400009        -4.05062400E-10
   93.8249969        -4.65207373E-10
   94.1100006        -5.35952283E-10
   94.3949966        -6.20715646E-10
   94.6800003        -7.20786875E-10
   94.9649963        -8.35050473E-10
   95.2500000        -9.59984314E-10
   95.5350037        -1.08992726E-09
   95.8199997        -1.21759258E-09
   96.1050034        -1.33474576E-09
   96.3899994        -1.43296353E-09
   96.6750031        -1.50439539E-09
   96.9599991        -1.54241353E-09
   97.2450027        -1.54208057E-09
   97.5299988        -1.50037793E-09
   97.8150024        -1.41617351E-09
   98.0999985        -1.28994759E-09
   98.3850021        -1.12333487E-09
   98.6699982        -9.18560894E-10
   98.9550018        -6.77851497E-10
   99.2399979        -4.02970601E-10
   99.5250015        -9.49640783E-11
   99.8099976         2.45809290E-10
   100.095001         6.19353180E-10
   100.379997         1.02537012E-09
   100.665001         1.46231971E-09
   100.949997         1.92632510E-09
   101.235001         2.41005238E-09
   101.519997         2.90172508E-09
   101.805000         3.38445560E-09
   102.089996         3.83601240E-09
   102.375000         4.22918367E-09
   102.660004         4.53285676E-09
   102.945000         4.71374229E-09
   103.230003         4.73870720E-09
   103.514999         4.57760096E-09
   103.800003         4.20634771E-09
   104.084999         3.61008778E-09
   104.370003         2.78598122E-09
   104.654999         1.74544623E-09
   104.940002         5.15514742E-10
   105.224998        -8.60899019E-10
   105.510002        -2.32598762E-09
   105.794998        -3.80935417E-09
   106.080002        -5.23158494E-09
   106.364998        -6.50883258E-09
   106.650002        -7.55820029E-09
   106.934998        -8.30352054E-09
   107.220001        -8.68110650E-09
   107.504997        -8.64489280E-09
   107.790001        -8.17066237E-09
   108.074997        -7.25891258E-09
   108.360001        -5.93608362E-09
   108.644997        -4.25391766E-09
   108.930000        -2.28700259E-09
   109.214996        -1.28775809E-10
   109.500000         2.11376894E-09
   109.785004         4.32643965E-09
   110.070000         6.39451336E-09
   110.355003         8.20913115E-09
   110.639999         9.67293445E-09
   110.925003         1.07047509E-08
   111.209999         1.12427898E-08
   111.495003         1.12461116E-08
   111.779999         1.06944382E-08
   112.065002         9.58677315E-09
   112.349998         7.93908050E-09
   112.635002         5.78138160E-09
   112.919998         3.15466120E-09
   113.205002         1.08499910E-10
   113.489998        -3.30007799E-09
   113.775002        -7.00661040E-09
   114.059998        -1.09381295E-08
   114.345001        -1.50106878E-08
   114.629997        -1.91258174E-08
   114.915001        -2.31668427E-08
   115.199997        -2.69958882E-08
   115.485001        -3.04520817E-08
   115.769997        -3.33514834E-08
   116.055000        -3.54897765E-08
   116.339996        -3.66482595E-08
   116.625000        -3.66031863E-08
   116.910004        -3.51376279E-08
   117.195000        -3.20557874E-08
   117.480003        -2.71991976E-08
   117.764999        -2.04633164E-08
   118.050003        -1.18125536E-08
   118.334999        -1.29298983E-09
   118.620003         1.09586216E-08
   118.904999         2.47105465E-08
   119.190002         3.96374595E-08
   119.474998         5.53279591E-08
   119.760002         7.12977055E-08
   120.044998         8.70069670E-08
   120.330002         1.01882058E-07
   120.614998         1.15339105E-07
   120.900002         1.26808175E-07
   121.184998         1.35755812E-07
   121.470001         1.41704263E-07
   121.754997         1.44246954E-07
   122.040001         1.43058671E-07
   122.324997         1.37900457E-07
   122.610001         1.28619078E-07
   122.894997         1.15142818E-07
   123.180000         9.74742065E-08
   123.464996         7.56823297E-08
   123.750000         4.98950108E-08
   124.035004         2.02932977E-08
   124.320000        -1.28898057E-08
   124.605003        -4.93659904E-08
   124.889999        -8.87842120E-08
   125.175003        -1.30718348E-07
   125.459999        -1.74650978E-07
   125.745003        -2.19954714E-07
   126.029999        -2.65874206E-07
   126.315002        -3.11509979E-07
   126.599998        -3.55805838E-07
   126.885002        -3.97541953E-07
   127.169998        -4.35336915E-07
   127.455002        -4.67658197E-07
   127.739998        -4.92841366E-07
   128.024994        -5.09118536E-07
   128.309998        -5.14654801E-07
   128.595001        -5.07591039E-07
   128.880005        -4.86091267E-07
   129.164993        -4.48389727E-07
   129.449997        -3.92839866E-07
   129.735001        -3.17958154E-07
   130.020004        -2.22462617E-07
   130.304993        -1.05304487E-07
   130.589996         3.43073800E-08
   130.875000         1.96889587E-07
   131.160004         3.82673704E-07
   131.445007         5.91603055E-07
   131.729996         8.23332414E-07
   132.014999         1.07722826E-06
   132.300003         1.35237110E-06
   132.585007         1.64755636E-06
   132.869995         1.96129258E-06
   133.154999         2.29179977E-06
   133.440002         2.63700258E-06
   133.725006         2.99452836E-06
   134.009995         3.36170615E-06
   134.294998         3.73557305E-06
   134.580002         4.11288829E-06
   134.865005         4.49014715E-06
   135.149994         4.86362705E-06
   135.434998         5.22944401E-06
   135.720001         5.58360216E-06
   136.005005         5.92208016E-06
   136.289993         6.24091535E-06
   136.574997         6.53631923E-06
   136.860001         6.80475432E-06
   137.145004         7.04304148E-06
   137.429993         7.24844722E-06
   137.714996         7.41877557E-06
   138.000000         7.55240990E-06
   138.285004         7.64836113E-06
   138.570007         7.70628867E-06
   138.854996         7.72647218E-06
   139.139999         7.70978750E-06
   139.425003         7.65764435E-06
   139.710007         7.57193811E-06
   139.994995         7.45494208E-06
   140.279999         7.30920829E-06
   140.565002         7.13748432E-06
   140.850006         6.94263463E-06
   141.134995         6.72756596E-06
   141.419998         6.49513731E-06
   141.705002         6.24810809E-06
   141.990005         5.98910674E-06
   142.274994         5.72063709E-06
   142.559998         5.44504201E-06
   142.845001         5.16444197E-06
   143.130005         4.88078922E-06
   143.414993         4.59590274E-06
   143.699997         4.31143098E-06
   143.985001         4.02880050E-06
   144.270004         3.74923638E-06
   144.554993         3.47381183E-06
   144.839996         3.20341360E-06
   145.125000         2.93866333E-06
   145.410004         2.67993460E-06
   145.695007         2.42741498E-06
   145.979996         2.18111404E-06
   146.264999         1.94079757E-06
   146.550003         1.70604267E-06
   146.835007         1.47636388E-06
   147.119995         1.25128088E-06
   147.404999         1.03030516E-06
   147.690002         8.13019028E-07
   147.975006         5.99225643E-07
   148.259995         3.89041958E-07
   148.544998         1.82908494E-07
   148.830002        -1.84213782E-08
   149.115005        -2.13806686E-07
   149.399994        -4.01688737E-07
   149.684998        -5.80164965E-07
   149.970001        -7.47128752E-07
   150.255005        -9.00337568E-07
   150.539993        -1.03747288E-06
   150.824997        -1.15628620E-06
   151.110001        -1.25479994E-06
   151.395004        -1.33144204E-06
   151.679993        -1.38510097E-06
   151.964996        -1.41520741E-06
   152.250000        -1.42187173E-06
   152.535004        -1.40596546E-06
   152.820007        -1.36906408E-06
   153.104996        -1.31339243E-06
   153.389999        -1.24182691E-06
   153.675003        -1.15787122E-06
   153.960007        -1.06552181E-06
   154.244995        -9.69105940E-07
   154.529999        -8.73180284E-07
   154.815002        -7.82476889E-07
   155.100006        -7.01765146E-07
   155.384995        -6.35659319E-07
   155.669998        -5.88505657E-07
   155.955002        -5.64344703E-07
   156.240005        -5.66833819E-07
   156.524994        -5.99097802E-07
   156.809998        -6.63633955E-07
   157.095001        -7.62317711E-07
   157.380005        -8.96400138E-07
   157.664993        -1.06642585E-06
   157.949997        -1.27216845E-06
   158.235001        -1.51266602E-06
   158.520004        -1.78627624E-06
   158.804993        -2.09066184E-06
   159.089996        -2.42274837E-06
   159.375000        -2.77876507E-06
   159.660004        -3.15435432E-06
   159.945007        -3.54461440E-06
   160.229996        -3.94408880E-06
   160.514999        -4.34683307E-06
   160.800003        -4.74656781E-06
   161.085007        -5.13680470E-06
   161.369995        -5.51090307E-06
   161.654999        -5.86217129E-06
   161.940002        -6.18404420E-06
   162.225006        -6.47028037E-06
   162.509995        -6.71507860E-06
   162.794998        -6.91314017E-06
   163.080002        -7.05985030E-06
   163.365005        -7.15145234E-06
   163.649994        -7.18512138E-06
   163.934998        -7.15897249E-06
   164.220001        -7.07211666E-06
   164.505005        -6.92472850E-06
   164.789993        -6.71805674E-06
   165.074997        -6.45430737E-06
   165.360001        -6.13655902E-06
   165.645004        -5.76871980E-06
   165.929993        -5.35544996E-06
   166.214996        -4.90199591E-06
