  -4.50000000       0.00000000    
  -4.21500015       0.00000000    
  -3.93000007       0.00000000    
  -3.64499998       0.00000000    
  -3.35999990       0.00000000    
  -3.07500005       0.00000000    
  -2.78999996       0.00000000    
  -2.50500011      -3.22298647E-44
  -2.22000003       1.18970240E-42
  -1.93499994       1.39815821E-37
  -1.64999998       4.04076004E-37
  -1.36500001      -3.55766727E-38
  -1.08000004      -6.21297579E-37
 -0.795000017      -2.65422054E-36
 -0.509999990       1.94339795E-35
 -0.224999994       1.49906260E-34
   5.99999987E-02   3.90423780E-34
  0.344999999       3.01547109E-34
  0.629999995      -1.28655249E-33
  0.915000021      -5.21075450E-33
   1.20000005      -8.28435007E-33
   1.48500001       4.60713797E-34
   1.76999998       3.04637736E-32
   2.05500007       4.60088842E-32
   2.33999991      -8.79071527E-32
   2.62500000      -5.16242606E-31
   2.91000009      -9.89583148E-31
   3.19499993      -4.82060829E-31
   3.48000002       1.99527414E-30
   3.76500010       4.70169566E-30
   4.05000019       1.13780415E-30
   4.33500004      -1.58503071E-29
   4.61999989      -4.30747503E-29
   4.90500021      -6.14918376E-29
   5.19000006      -5.33364631E-29
   5.47499990      -3.48253905E-29
   5.76000023      -5.83546843E-29
   6.04500008      -1.43911323E-28
   6.32999992      -1.80632175E-28
   6.61499977       9.96901001E-29
   6.90000010       1.09558277E-27
   7.18499994       3.52194193E-27
   7.46999979       9.01420879E-27
   7.75500011       2.05719316E-26
   8.03999996       4.11677633E-26
   8.32499981       6.87654858E-26
   8.60999966       8.77017899E-26
   8.89500046       5.83921929E-26
   9.18000031      -9.34040709E-26
   9.46500015      -4.90640224E-25
   9.75000000      -1.32779372E-24
   10.0349998      -2.90137578E-24
   10.3199997      -5.62973188E-24
   10.6049995      -1.00240492E-23
   10.8900003      -1.65622814E-23
   11.1750002      -2.54196006E-23
   11.4600000      -3.60159968E-23
   11.7449999      -4.63566885E-23
   12.0299997      -5.22005354E-23
   12.3149996      -4.62513977E-23
   12.6000004      -1.78492181E-23
   12.8850002       4.60312297E-23
   13.1700001       1.57470420E-22
   13.4549999       3.21161405E-22
   13.7399998       5.24779658E-22
   14.0249996       7.27577141E-22
   14.3100004       8.50685386E-22
   14.5950003       7.74911724E-22
   14.8800001       3.53513209E-22
   15.1650000      -5.52766423E-22
   15.4499998      -2.01468280E-21
   15.7349997      -3.95186386E-21
   16.0200005      -6.04522534E-21
   16.3050003      -7.67531035E-21
   16.5900002      -7.92875639E-21
   16.8750000      -5.71713070E-21
   17.1599998      -3.86913271E-23
   17.4449997       9.61945863E-21
   17.7299995       2.27919585E-20
   18.0149994       3.75707114E-20
   18.2999992       5.03282276E-20
   18.5849991       5.58133656E-20
   18.8700008       4.77769667E-20
   19.1550007       2.01980720E-20
   19.4400005      -3.09598258E-20
   19.7250004      -1.05703982E-19
   20.0100002      -1.98081335E-19
   20.2950001      -2.94865228E-19
   20.5799999      -3.75369444E-19
   20.8649998      -4.12783857E-19
   21.1499996      -3.77209507E-19
   21.4349995      -2.40281596E-19
   21.7199993       1.90306261E-20
   22.0049992       4.08112509E-19
   22.2900009       9.14732200E-19
   22.5750008       1.50234756E-18
   22.8600006       2.10764607E-18
   23.1450005       2.64121189E-18
   23.4300003       2.99207978E-18
   23.7150002       3.03666192E-18
   24.0000000       2.65204920E-18
   24.2849998       1.73298474E-18
   24.5699997       2.10915404E-19
   24.8549995      -1.92739328E-18
   25.1399994      -4.62478914E-18
   25.4249992      -7.74530484E-18
   25.7099991      -1.10745538E-17
   25.9950008      -1.43292646E-17
   26.2800007      -1.71738726E-17
   26.5650005      -1.92399580E-17
   26.8500004      -2.01430341E-17
   27.1350002      -1.94921290E-17
   27.4200001      -1.68905483E-17
   27.7049999      -1.19312904E-17
   27.9899998      -4.19649611E-18
   28.2749996       6.72510577E-18
   28.5599995       2.11870039E-17
   28.8449993       3.93870122E-17
   29.1299992       6.12182342E-17
   29.4150009       8.60777446E-17
   29.7000008       1.12657910E-16
   29.9850006       1.38761242E-16
   30.2700005       1.61191310E-16
   30.5550003       1.75777442E-16
   30.8400002       1.77582376E-16
   31.1250000       1.61323261E-16
   31.4099998       1.22001888E-16
   31.6949997       5.56998080E-17
   31.9799995      -3.95520314E-17
   32.2649994      -1.62959822E-16
   32.5499992      -3.10360072E-16
   32.8349991      -4.73968509E-16
   33.1199989      -6.42595404E-16
   33.4049988      -8.02372182E-16
   33.6899986      -9.37933453E-16
   33.9749985      -1.03389614E-15
   34.2599983      -1.07637908E-15
   34.5449982      -1.05424092E-15
   34.8300018      -9.59721152E-16
   35.1150017      -7.88236155E-16
   35.4000015      -5.37243405E-16
   35.6850014      -2.04315610E-16
   35.9700012       2.15178887E-16
   36.2550011       7.30142930E-16
   36.5400009       1.35474015E-15
   36.8250008       2.10742348E-15
   37.1100006       3.00723526E-15
   37.3950005       4.06693849E-15
   37.6800003       5.28300844E-15
   37.9650002       6.62317296E-15
   38.2500000       8.01289356E-15
   38.5349998       9.32292743E-15
   38.8199997       1.03606309E-14
   39.1049995       1.08680002E-14
   39.3899994       1.05293861E-14
   39.6749992       8.99137840E-15
   39.9599991       5.89613663E-15
   40.2449989       9.28152234E-16
   40.5299988      -6.12773323E-15
   40.8149986      -1.53212404E-14
   41.0999985      -2.64709333E-14
   41.3849983      -3.91061424E-14
   41.6699982      -5.24260167E-14
   41.9550018      -6.52854032E-14
   42.2400017      -7.62163702E-14
   42.5250015      -8.34922273E-14
   42.8100014      -8.52374337E-14
   43.0950012      -7.95824723E-14
   43.3800011      -6.48577600E-14
   43.6650009      -3.98150039E-14
   43.9500008      -3.86015149E-15
   44.2350006       4.27241928E-14
   44.5200005       9.85909217E-14
   44.8050003       1.61201185E-13
   45.0900002       2.26782474E-13
   45.3750000       2.90393469E-13
   45.6599998       3.46110239E-13
   45.9449997       3.87338490E-13
   46.2299995       4.07245066E-13
   46.5149994       3.99292253E-13
   46.7999992       3.57842364E-13
   47.0849991       2.78793644E-13
   47.3699989       1.60199694E-13
   47.6549988       2.81814278E-15
   47.9399986      -1.89458597E-13
   48.2249985      -4.09342346E-13
   48.5099983      -6.46098843E-13
   48.7949982      -8.85738856E-13
   49.0800018      -1.11147018E-12
   49.3650017      -1.30441610E-12
   49.6500015      -1.44459390E-12
   49.9350014      -1.51212300E-12
   50.2200012      -1.48861175E-12
   50.5050011      -1.35866492E-12
   50.7900009      -1.11142790E-12
   51.0750008      -7.42066944E-13
   51.3600006      -2.53083416E-13
   51.6450005       3.44646214E-13
   51.9300003       1.03122046E-12
   52.2150002       1.77753851E-12
   52.5000000       2.54569868E-12
   52.7849998       3.29000195E-12
   53.0699997       3.95860861E-12
   53.3549995       4.49583686E-12
   53.6399994       4.84505058E-12
   53.9249992       4.95203921E-12
   54.2099991       4.76879473E-12
   54.4949989       4.25747805E-12
   54.7799988       3.39439761E-12
   55.0649986       2.17375228E-12
   55.3499985       6.10903689E-13
   55.6349983      -1.25511439E-12
   55.9199982      -3.36011947E-12
   56.2050018      -5.61460297E-12
   56.4900017      -7.90506896E-12
   56.7750015      -1.00971410E-11
   57.0600014      -1.20405162E-11
   57.3450012      -1.35758375E-11
   57.6300011      -1.45433327E-11
   57.9150009      -1.47930054E-11
   58.2000008      -1.41959153E-11
   58.4850006      -1.26559683E-11
   58.7700005      -1.01213881E-11
   59.0550003      -6.59504482E-12
   59.3400002      -2.14267232E-12
   59.6250000       3.10197592E-12
   59.9099998       8.93584599E-12
   60.1949997       1.50898131E-11
   60.4799995       2.12368977E-11
   60.7649994       2.70054916E-11
   61.0499992       3.19973353E-11
   61.3349991       3.58097510E-11
   61.6199989       3.80609155E-11
   61.9049988       3.84168392E-11
   62.1899986       3.66186005E-11
   62.4749985       3.25077361E-11
   62.7599983       2.60478184E-11
   63.0449982       1.73404277E-11
   63.3300018       6.63373740E-12
   63.6150017      -5.67767057E-12
   63.9000015      -1.90626126E-11
   64.1849976      -3.28727705E-11
   64.4700012      -4.63716565E-11
   64.7549973      -5.87717167E-11
   65.0400009      -6.92774865E-11
   65.3249969      -7.71325295E-11
   65.6100006      -8.16674367E-11
   65.8949966      -8.23459009E-11
   66.1800003      -7.88048654E-11
   66.4649963      -7.08869144E-11
   66.7500000      -5.86621099E-11
   67.0350037      -4.24377512E-11
   67.3199997      -2.27543331E-11
   67.6050034      -3.68111493E-13
   67.8899994       2.37787602E-11
   68.1750031       4.85993606E-11
   68.4599991       7.29122041E-11
   68.7450027       9.54977902E-11
   69.0299988       1.15158875E-10
   69.3150024       1.30780414E-10
   69.5999985       1.41387388E-10
   69.8850021       1.46197596E-10
   70.1699982       1.44666598E-10
   70.4550018       1.36522765E-10
   70.7399979       1.21790092E-10
   71.0250015       1.00799806E-10
   71.3099976       7.41870662E-11
   71.5950012       4.28728442E-11
   71.8799973       8.03192408E-12
   72.1650009      -2.89514974E-11
   72.4499969      -6.65412794E-11
   72.7350006      -1.03116730E-10
   73.0199966      -1.37047054E-10
   73.3050003      -1.66768821E-10
   73.5899963      -1.90862520E-10
   73.8750000      -2.08126461E-10
   74.1600037      -2.17641308E-10
   74.4449997      -2.18820934E-10
   74.7300034      -2.11447443E-10
   75.0149994      -1.95688354E-10
   75.3000031      -1.72092257E-10
   75.5849991      -1.41561610E-10
   75.8700027      -1.05305681E-10
   76.1549988      -6.47758513E-11
   76.4400024      -2.15867220E-11
   76.7249985       2.25747771E-11
   77.0100021       6.60433583E-11
   77.2949982       1.07263635E-10
   77.5800018       1.44871143E-10
   77.8649979       1.77757795E-10
   78.1500015       2.05117576E-10
   78.4349976       2.26465097E-10
   78.7200012       2.41629994E-10
   79.0049973       2.50724497E-10
   79.2900009       2.54092053E-10
   79.5749969       2.52233567E-10
   79.8600006       2.45720722E-10
   80.1449966       2.35110015E-10
   80.4300003       2.20862481E-10
   80.7149963       2.03274508E-10
   81.0000000       1.82431195E-10
   81.2850037       1.58190905E-10
   81.5699997       1.30202044E-10
   81.8550034       9.79530831E-11
   82.1399994       6.08513101E-11
   82.4250031       1.83286511E-11
   82.7099991      -3.00339406E-11
   82.9950027      -8.43755968E-11
   83.2799988      -1.44435644E-10
   83.5650024      -2.09448139E-10
   83.8499985      -2.78068790E-10
   84.1350021      -3.48343576E-10
   84.4199982      -4.17729407E-10
   84.7050018      -4.83169560E-10
   84.9899979      -5.41223233E-10
   85.2750015      -5.88246563E-10
   85.5599976      -6.20611840E-10
   85.8450012      -6.34950315E-10
   86.1299973      -6.28403052E-10
   86.4150009      -5.98855354E-10
   86.6999969      -5.45133272E-10
   86.9850006      -4.67145822E-10
   87.2699966      -3.65958458E-10
   87.5550003      -2.43788795E-10
   87.8399963      -1.03918950E-10
   88.1250000       4.94617819E-11
   88.4100037       2.11470869E-10
   88.6949997       3.76787934E-10
   88.9800034       5.39922052E-10
   89.2649994       6.95468128E-10
   89.5500031       8.38331404E-10
   89.8349991       9.63895852E-10
   90.1200027       1.06813280E-09
   90.4049988       1.14764109E-09
   90.6900024       1.19963339E-09
   90.9749985       1.22188881E-09
   91.2600021       1.21268240E-09
   91.5449982       1.17074039E-09
   91.8300018       1.09522480E-09
   92.1149979       9.85781234E-10
   92.4000015       8.42651504E-10
   92.6849976       6.66846300E-10
   92.9700012       4.60359889E-10
   93.2549973       2.26392169E-10
   93.5400009      -3.04570882E-11
   93.8249969      -3.04070630E-10
   94.1100006      -5.86812876E-10
   94.3949966      -8.69679773E-10
   94.6800003      -1.14259757E-09
   94.9649963      -1.39488943E-09
   95.2500000      -1.61588309E-09
   95.5350037      -1.79560722E-09
   95.8199997      -1.92550931E-09
   96.1050034      -1.99913397E-09
   96.3899994      -2.01270112E-09
   96.6750031      -1.96549488E-09
   96.9599991      -1.85998661E-09
   97.2450027      -1.70168979E-09
   97.5299988      -1.49874579E-09
   97.8150024      -1.26123478E-09
   98.0999985      -1.00026853E-09
   98.3850021      -7.26961158E-10
   98.6699982      -4.51397503E-10
   98.9550018      -1.81697019E-10
   99.2399979       7.67347227E-11
   99.5250015       3.21636828E-10
   99.8099976       5.53941448E-10
   100.095001       7.77391929E-10
   100.379997       9.97786631E-10
   100.665001       1.22186117E-09
   100.949997       1.45590806E-09
   101.235001       1.70426762E-09
   101.519997       1.96789762E-09
   101.805000       2.24316477E-09
   102.089996       2.52101828E-09
   102.375000       2.78668444E-09
   102.660004       3.02004000E-09
   102.945000       3.19668869E-09
   103.230003       3.28968475E-09
   103.514999       3.27183214E-09
   103.800003       3.11842485E-09
   104.084999       2.81020829E-09
   104.370003       2.33627562E-09
   104.654999       1.69658376E-09
   104.940002       9.03855213E-10
   105.224998      -1.53945225E-11
   105.510002      -1.02090136E-09
   105.794998      -2.05993800E-09
   106.080002      -3.06984038E-09
   106.364998      -3.98168876E-09
   106.650002      -4.72489914E-09
   106.934998      -5.23253485E-09
   107.220001      -5.44690071E-09
   107.504997      -5.32496891E-09
   107.790001      -4.84311524E-09
   108.074997      -4.00075262E-09
   108.360001      -2.82255219E-09
   108.644997      -1.35883838E-09
   108.930000       3.16014409E-10
   109.214996       2.10706053E-09
   109.500000       3.90396737E-09
   109.785004       5.58756375E-09
   110.070000       7.03726455E-09
   110.355003       8.13888512E-09
   110.639999       8.79205864E-09
   110.925003       8.91666030E-09
   111.209999       8.45788950E-09
   111.495003       7.38960315E-09
   111.779999       5.71567771E-09
   112.065002       3.46925821E-09
   112.349998       7.10350723E-10
   112.635002      -2.47797272E-09
   112.919998      -5.99423888E-09
   113.205002      -9.72371517E-09
   113.489998      -1.35434250E-08
   113.775002      -1.73264425E-08
   114.059998      -2.09451194E-08
   114.345001      -2.42734064E-08
   114.629997      -2.71880118E-08
   114.915001      -2.95686782E-08
   115.199997      -3.12978017E-08
   115.485001      -3.22600364E-08
   115.769997      -3.23425091E-08
   116.055000      -3.14357003E-08
   116.339996      -2.94356024E-08
   116.625000      -2.62474789E-08
   116.910004      -2.17912461E-08
   117.195000      -1.60082170E-08
   117.480003      -8.86878126E-09
   117.764999      -3.80608434E-10
   118.050003       9.40322664E-09
   118.334999       2.03769606E-08
   118.620003       3.23769811E-08
   118.904999       4.51789397E-08
   119.190002       5.84977649E-08
   119.474998       7.19911313E-08
   119.760002       8.52664002E-08
   120.044998       9.78911245E-08
   120.330002       1.09405988E-07
   120.614998       1.19339660E-07
   120.900002       1.27224936E-07
   121.184998       1.32615043E-07
   121.470001       1.35098560E-07
   121.754997       1.34312685E-07
   122.040001       1.29953492E-07
   122.324997       1.21783629E-07
   122.610001       1.09637078E-07
   122.894997       9.34210860E-08
   123.180000       7.31162331E-08
   123.464996       4.87753162E-08
   123.750000       2.05229647E-08
   124.035004      -1.14437713E-08
   124.320000      -4.68531525E-08
   124.605003      -8.53536903E-08
   124.889999      -1.26506137E-07
   125.175003      -1.69772647E-07
   125.459999      -2.14504283E-07
   125.745003      -2.59928612E-07
   126.029999      -3.05137348E-07
   126.315002      -3.49076629E-07
   126.599998      -3.90541743E-07
   126.885002      -4.28178168E-07
   127.169998      -4.60489446E-07
   127.455002      -4.85852468E-07
   127.739998      -5.02541525E-07
   128.024994      -5.08759172E-07
   128.309998      -5.02675107E-07
   128.595001      -4.82468977E-07
   128.880005      -4.46375878E-07
   129.164993      -3.92733313E-07
   129.449997      -3.20027311E-07
   129.735001      -2.26934546E-07
   130.020004      -1.12357881E-07
   130.304993       2.45437999E-08
   130.589996       1.84331256E-07
   130.875000       3.67269735E-07
   131.160004       5.73320563E-07
   131.445007       8.02137549E-07
   131.729996       1.05306742E-06
   132.014999       1.32515254E-06
   132.300003       1.61713592E-06
   132.585007       1.92746893E-06
   132.869995       2.25431518E-06
   133.154999       2.59555441E-06
   133.440002       2.94879032E-06
   133.725006       3.31136039E-06
   134.009995       3.68034898E-06
   134.294998       4.05260107E-06
   134.580002       4.42474675E-06
   134.865005       4.79323808E-06
   135.149994       5.15439615E-06
   135.434998       5.50445156E-06
   135.720001       5.83961719E-06
   136.005005       6.15615954E-06
   136.289993       6.45047885E-06
   136.574997       6.71918679E-06
   136.860001       6.95919061E-06
   137.145004       7.16777640E-06
   137.429993       7.34268497E-06
   137.714996       7.48216507E-06
   138.000000       7.58502301E-06
   138.285004       7.65065670E-06
   138.570007       7.67906204E-06
   138.854996       7.67081383E-06
   139.139999       7.62704212E-06
   139.425003       7.54937946E-06
   139.710007       7.43989403E-06
   139.994995       7.30101874E-06
   140.279999       7.13546069E-06
   140.565002       6.94612072E-06
   140.850006       6.73600471E-06
   141.134995       6.50816492E-06
   141.419998       6.26561041E-06
   141.705002       6.01125521E-06
   141.990005       5.74787873E-06
   142.274994       5.47808986E-06
   142.559998       5.20428694E-06
   142.845001       4.92864092E-06
   143.130005       4.65306857E-06
   143.414993       4.37923200E-06
   143.699997       4.10850453E-06
   143.985001       3.84196983E-06
   144.270004       3.58040143E-06
   144.554993       3.32426384E-06
   144.839996       3.07370306E-06
   145.125000       2.82857695E-06
   145.410004       2.58846148E-06
   145.695007       2.35269613E-06
   145.979996       2.12043597E-06
   146.264999       1.89071704E-06
   146.550003       1.66255870E-06
   146.835007       1.43504474E-06
   147.119995       1.20741583E-06
   147.404999       9.79165179E-07
   147.690002       7.50142817E-07
   147.975006       5.20640071E-07
   148.259995       2.91423135E-07
   148.544998       6.37551096E-08
   148.830002      -1.60580655E-07
   149.115005      -3.79306499E-07
   149.399994      -5.89738193E-07
   149.684998      -7.88901900E-07
   149.970001      -9.73640113E-07
   150.255005      -1.14073941E-06
   150.539993      -1.28711883E-06
   150.824997      -1.41001976E-06
   151.110001      -1.50715778E-06
   151.395004      -1.57685008E-06
   151.679993      -1.61815376E-06
   151.964996      -1.63099037E-06
   152.250000      -1.61620164E-06
   152.535004      -1.57553461E-06
   152.820007      -1.51162430E-06
   153.104996      -1.42795636E-06
   153.389999      -1.32876869E-06
   153.675003      -1.21889184E-06
   153.960007      -1.10358064E-06
   154.244995      -9.88365628E-07
   154.529999      -8.78888159E-07
   154.815002      -7.80696723E-07
   155.100006      -6.99061161E-07
   155.384995      -6.38836241E-07
   155.669998      -6.04351214E-07
   155.955002      -5.99286864E-07
   156.240005      -6.26566191E-07
   156.524994      -6.88304567E-07
   156.809998      -7.85806321E-07
   157.095001      -9.19553770E-07
   157.380005      -1.08919494E-06
   157.664993      -1.29357340E-06
   157.949997      -1.53080441E-06
   158.235001      -1.79834331E-06
   158.520004      -2.09303357E-06
   158.804993      -2.41117141E-06
   159.089996      -2.74860508E-06
   159.375000      -3.10084192E-06
   159.660004      -3.46311231E-06
   159.945007      -3.83042607E-06
   160.229996      -4.19767139E-06
   160.514999      -4.55970621E-06
   160.800003      -4.91142055E-06
   161.085007      -5.24776897E-06
   161.369995      -5.56383793E-06
   161.654999      -5.85492035E-06
   161.940002      -6.11656924E-06
   162.225006      -6.34461276E-06
   162.509995      -6.53519555E-06
   162.794998      -6.68485245E-06
   163.080002      -6.79055984E-06
   163.365005      -6.84976339E-06
   163.649994      -6.86040585E-06
   163.934998      -6.82099653E-06
   164.220001      -6.73067234E-06
   164.505005      -6.58920681E-06
   164.789993      -6.39702375E-06
   165.074997      -6.15520366E-06
   165.360001      -5.86551187E-06
   165.645004      -5.53036534E-06
   165.929993      -5.15275360E-06
   166.214996      -4.73618047E-06
