  -4.50000000         0.00000000    
  -4.21500015         0.00000000    
  -3.93000007         0.00000000    
  -3.64499998         0.00000000    
  -3.35999990         0.00000000    
  -3.07500005         0.00000000    
  -2.78999996         0.00000000    
  -2.50500011         0.00000000    
  -2.22000003         0.00000000    
  -1.93499994         0.00000000    
  -1.64999998         0.00000000    
  -1.36500001         0.00000000    
  -1.08000004         0.00000000    
 -0.795000017         0.00000000    
 -0.509999990         0.00000000    
 -0.224999994         0.00000000    
   5.99999987E-02     0.00000000    
  0.344999999         0.00000000    
  0.629999995         0.00000000    
  0.915000021         0.00000000    
   1.20000005         0.00000000    
   1.48500001         0.00000000    
   1.76999998         5.97085148E-38
   2.05500007         1.76992550E-37
   2.33999991        -1.19492635E-36
   2.62500000        -7.75407416E-36
   2.91000009        -1.64723493E-35
   3.19499993        -1.29637813E-35
   3.48000002         2.49279734E-35
   3.76500010         3.14062380E-32
   4.05000019         1.69438718E-31
   4.33500004         6.94678276E-31
   4.61999989         3.73407310E-30
   4.90500021         1.00969368E-29
   5.19000006         4.97545908E-30
   5.47499990         1.61153633E-29
   5.76000023         6.77249955E-29
   6.04500008         8.22071039E-29
   6.32999992         5.38834874E-29
   6.61499977         6.96395323E-29
   6.90000010         4.26323852E-28
   7.18499994         1.39452774E-27
   7.46999979         2.77847558E-27
   7.75500011         3.56720590E-27
   8.03999996         2.35739199E-27
   8.32499981        -1.14216264E-27
   8.60999966        -4.57018900E-27
   8.89500046        -3.45357295E-27
   9.18000031         4.75978872E-27
   9.46500015         1.50602791E-26
   9.75000000         1.28647298E-26
   10.0349998        -1.93374028E-26
   10.3199997        -8.73353332E-26
   10.6049995        -1.70372459E-25
   10.8900003        -2.14612666E-25
   11.1750002        -1.34285302E-25
   11.4600000         1.92059157E-25
   11.7449999         9.42960939E-25
   12.0299997         2.38795789E-24
   12.3149996         4.90370651E-24
   12.6000004         8.92916471E-24
   12.8850002         1.48145412E-23
   13.1700001         2.24919737E-23
   13.4549999         3.07968426E-23
   13.7399998         3.61084829E-23
   14.0249996         2.98835341E-23
   14.3100004        -5.14703854E-24
   14.5950003        -9.96238175E-23
   14.8800001        -3.01239878E-22
   15.1650000        -6.73885476E-22
   15.4499998        -1.28694814E-21
   15.7349997        -2.18849634E-21
   16.0200005        -3.35700972E-21
   16.3050003        -4.63059423E-21
   16.5900002        -5.62147825E-21
   16.8750000        -5.63734250E-21
   17.1599998        -3.64779744E-21
   17.4449997         1.65098121E-21
   17.7299995         1.16157355E-20
   18.0149994         2.72366083E-20
   18.2999992         4.85178685E-20
   18.5849991         7.37291735E-20
   18.8700008         9.86911257E-20
   19.1550007         1.16352634E-19
   19.4400005         1.16979146E-19
   19.7250004         8.92613959E-20
   20.0100002         2.25361787E-20
   20.2950001        -8.99287950E-20
   20.5799999        -2.46982121E-19
   20.8649998        -4.35757558E-19
   21.1499996        -6.29093190E-19
   21.4349995        -7.85489262E-19
   21.7199993        -8.52751143E-19
   22.0049992        -7.75936980E-19
   22.2900009        -5.09318057E-19
   22.5750008        -3.08838577E-20
   22.8600006         6.43298104E-19
   23.1450005         1.44851712E-18
   23.4300003         2.26863134E-18
   23.7150002         2.94446437E-18
   24.0000000         3.29518378E-18
   24.2849998         3.15183131E-18
   24.5699997         2.39894744E-18
   24.8549995         1.01692096E-18
   25.1399994        -8.84865397E-19
   25.4249992        -3.05494902E-18
   25.7099991        -5.11624320E-18
   25.9950008        -6.61733530E-18
   26.2800007        -7.11708515E-18
   26.5650005        -6.29233645E-18
   26.8500004        -4.04963350E-18
   27.1350002        -6.14763578E-19
   27.4200001         3.42881853E-18
   27.7049999         7.17814514E-18
   27.9899998         9.53993935E-18
   28.2749996         9.44753831E-18
   28.5599995         6.13962898E-18
   28.8449993        -5.47880132E-19
   29.1299992        -9.94314937E-18
   29.4150009        -2.04259530E-17
   29.7000008        -2.95057608E-17
   29.9850006        -3.41288897E-17
   30.2700005        -3.12113575E-17
   30.5550003        -1.83424522E-17
   30.8400002         5.44900969E-18
   31.1250000         3.90163956E-17
   31.4099998         7.86762583E-17
   31.6949997         1.18207551E-16
   31.9799995         1.49379237E-16
   32.2649994         1.63030787E-16
   32.5499992         1.50619333E-16
   32.8349991         1.06030393E-16
   33.1199989         2.73502091E-17
   33.4049988        -8.17595244E-17
   33.6899986        -2.11434895E-16
   33.9749985        -3.46002292E-16
   34.2599983        -4.65510197E-16
   34.5449982        -5.48318943E-16
   34.8300018        -5.74449433E-16
   35.1150017        -5.29193257E-16
   35.4000015        -4.06357783E-16
   35.6850014        -2.10489580E-16
   35.9700012         4.24778288E-17
   36.2550011         3.26484588E-16
   36.5400009         6.08513922E-16
   36.8250008         8.53302738E-16
   37.1100006         1.02887080E-15
   37.3950005         1.11190746E-15
   37.6800003         1.09198429E-15
   37.9650002         9.73693701E-16
   38.2500000         7.76166359E-16
   38.5349998         5.29907835E-16
   38.8199997         2.71464557E-16
   39.1049995         3.69451386E-17
   39.3899994        -1.44231963E-16
   39.6749992        -2.53938836E-16
   39.9599991        -2.87104941E-16
   40.2449989        -2.50073852E-16
   40.5299988        -1.55758943E-16
   40.8149986        -1.67379104E-17
   41.0999985         1.61790016E-16
   41.3849983         3.86747753E-16
   41.6699982         6.77178330E-16
   41.9550018         1.05758268E-15
   42.2400017         1.54382332E-15
   42.5250015         2.12247314E-15
   42.8100014         2.72636019E-15
   43.0950012         3.21091217E-15
   43.3800011         3.33735470E-15
   43.6650009         2.76944304E-15
   43.9500008         1.09004162E-15
   44.2350006        -2.15781453E-15
   44.5200005        -7.40370662E-15
   44.8050003        -1.49586730E-14
   45.0900002        -2.49070377E-14
   45.3750000        -3.69926867E-14
   45.6599998        -5.05152391E-14
   45.9449997        -6.42541643E-14
   46.2299995        -7.64395532E-14
   46.5149994        -8.47868393E-14
   46.7999992        -8.66083735E-14
   47.0849991        -7.90087871E-14
   47.3699989        -5.91626764E-14
   47.6549988        -2.46637343E-14
   47.9399986         2.60755247E-14
   48.2249985         9.34038749E-14
   48.5099983         1.76030536E-13
   48.7949982         2.70687959E-13
   49.0800018         3.71906851E-13
   49.3650017         4.71950007E-13
   49.6500015         5.60945713E-13
   49.9350014         6.27253403E-13
   50.2200012         6.58077271E-13
   50.5050011         6.40327852E-13
   50.7900009         5.61707961E-13
   51.0750008         4.11978015E-13
   51.3600006         1.84332015E-13
   51.6450005        -1.23208288E-13
   51.9300003        -5.06486780E-13
   52.2150002        -9.54120572E-13
   52.5000000        -1.44674919E-12
   52.7849998        -1.95675442E-12
   53.0699997        -2.44856999E-12
   53.3549995        -2.87966938E-12
   53.6399994        -3.20230583E-12
   53.9249992        -3.36600778E-12
   54.2099991        -3.32080565E-12
   54.4949989        -3.02108707E-12
   54.7799988        -2.42992128E-12
   55.0649986        -1.52362714E-12
   55.3499985        -2.96300636E-13
   55.6349983         1.23603309E-12
   55.9199982         3.03201821E-12
   56.2050018         5.02270708E-12
   56.4900017         7.11081844E-12
   56.7750015         9.17187073E-12
   57.0600014         1.10574761E-11
   57.3450012         1.26009914E-11
   57.6300011         1.36255816E-11
   57.9150009         1.39545996E-11
   58.2000008         1.34239677E-11
   58.4850006         1.18960935E-11
   58.7700005         9.27458978E-12
   59.0550003         5.51885837E-12
   59.3400002         6.57484755E-13
   59.6250000        -5.20080940E-12
   59.9099998        -1.18599002E-11
   60.1949997        -1.90338943E-11
   60.4799995        -2.63507150E-11
   60.7649994        -3.33624135E-11
   61.0499992        -3.95625650E-11
   61.3349991        -4.44106869E-11
   61.6199989        -4.73629747E-11
   61.9049988        -4.79081982E-11
   62.1899986        -4.56068967E-11
   62.4749985        -4.01315405E-11
   62.7599983        -3.13051841E-11
   63.0449982        -1.91354658E-11
   63.3300018        -3.84124807E-12
   63.6150017         1.41309924E-11
   63.9000015         3.41033972E-11
   64.1849976         5.51773176E-11
   64.4700012         7.62594710E-11
   64.7549973         9.61037014E-11
   65.0400009         1.13367642E-10
   65.3249969         1.26682317E-10
   65.6100006         1.34731906E-10
   65.8949966         1.36339787E-10
   66.1800003         1.30556191E-10
   66.4649963         1.16742130E-10
   66.7500000         9.46442091E-11
   67.0350037         6.44541920E-11
   67.3199997         2.68483864E-11
   67.6050034        -1.69978840E-11
   67.8899994        -6.54243326E-11
   68.1750031        -1.16330008E-10
   68.4599991        -1.67248188E-10
   68.7450027        -2.15449977E-10
   69.0299988        -2.58072980E-10
   69.3150024        -2.92268848E-10
   69.5999985        -3.15362930E-10
   69.8850021        -3.25016930E-10
   70.1699982        -3.19384991E-10
   70.4550018        -2.97253999E-10
   70.7399979        -2.58158078E-10
   71.0250015        -2.02459952E-10
   71.3099976        -1.31392092E-10
   71.5950012        -4.70539822E-11
   71.8799973         4.76362109E-11
   72.1650009         1.49034479E-10
   72.4499969         2.52904669E-10
   72.7350006         3.54587359E-10
   73.0199966         4.49195625E-10
   73.3050003         5.31828859E-10
   73.5899963         5.97795258E-10
   73.8750000         6.42832398E-10
   74.1600037         6.63317512E-10
   74.4449997         6.56459054E-10
   74.7300034         6.20461571E-10
   75.0149994         5.54658319E-10
   75.3000031         4.59606408E-10
   75.5849991         3.37139650E-10
   75.8700027         1.90376229E-10
   76.1549988         2.36776102E-11
   76.4400024        -1.57443308E-10
   76.7249985        -3.46464302E-10
   77.0100021        -5.36047318E-10
   77.2949982        -7.18280380E-10
   77.5800018        -8.84964102E-10
   77.8649979        -1.02793563E-09
   78.1500015        -1.13942056E-09
   78.4349976        -1.21240096E-09
   78.7200012        -1.24098354E-09
   79.0049973        -1.22075094E-09
   79.2900009        -1.14907783E-09
   79.5749969        -1.02539144E-09
   79.8600006        -8.51357596E-10
   80.1449966        -6.30975550E-10
   80.4300003        -3.70566133E-10
   80.7149963        -7.86458745E-11
   81.0000000         2.34319286E-10
   81.2850037         5.56274915E-10
   81.5699997         8.74047890E-10
   81.8550034         1.17390642E-09
   82.1399994         1.44219059E-09
   82.4250031         1.66598169E-09
   82.7099991         1.83377979E-09
   82.9950027         1.93615057E-09
   83.2799988         1.96630268E-09
   83.5650024         1.92055527E-09
   83.8499985         1.79866266E-09
   84.1350021         1.60396019E-09
   84.4199982         1.34331246E-09
   84.7050018         1.02685027E-09
   84.9899979         6.67502165E-10
   85.2750015         2.80335005E-10
   85.5599976        -1.18258875E-10
   85.8450012        -5.11481413E-10
   86.1299973        -8.83092877E-10
   86.4150009        -1.21835153E-09
   86.6999969        -1.50486046E-09
   86.9850006        -1.73325410E-09
   87.2699966        -1.89766958E-09
   87.5550003        -1.99596317E-09
   87.8399963        -2.02965356E-09
   88.1250000        -2.00359684E-09
   88.4100037        -1.92542049E-09
   88.6949997        -1.80476545E-09
   88.9800034        -1.65240499E-09
   89.2649994        -1.47931412E-09
   89.5500031        -1.29577493E-09
   89.8349991        -1.11058762E-09
   90.1200027        -9.30455435E-10
   90.4049988        -7.59588170E-10
   90.6900024        -5.99543748E-10
   90.9749985        -4.49312837E-10
   91.2600021        -3.05619446E-10
   91.5449982        -1.63399919E-10
   91.8300018        -1.64049642E-11
   92.1149979         1.42133055E-10
   92.4000015         3.18829352E-10
   92.6849976         5.19524035E-10
   92.9700012         7.48749562E-10
   93.2549973         1.00931674E-09
   93.5400009         1.30202671E-09
   93.8249969         1.62550740E-09
   94.1100006         1.97615702E-09
   94.3949966         2.34816877E-09
   94.6800003         2.73360801E-09
   94.9649963         3.12251558E-09
   95.2500000         3.50301277E-09
   95.5350037         3.86139920E-09
   95.8199997         4.18224211E-09
   96.1050034         4.44847625E-09
   96.3899994         4.64154493E-09
   96.6750031         4.74161777E-09
   96.9599991         4.72794692E-09
   97.2450027         4.57940130E-09
   97.5299988         4.27523217E-09
   97.8150024         3.79609677E-09
   98.0999985         3.12535864E-09
   98.3850021         2.25063479E-09
   98.6699982         1.16553489E-09
   98.9550018        -1.28489192E-10
   99.2399979        -1.62034142E-09
   99.5250015        -3.28767835E-09
   99.8099976        -5.09570297E-09
   100.095001        -6.99655667E-09
   100.379997        -8.92949448E-09
   100.665001        -1.08219949E-08
   100.949997        -1.25918849E-08
   101.235001        -1.41505012E-08
   101.519997        -1.54067958E-08
   101.805000        -1.62721907E-08
   102.089996        -1.66659220E-08
   102.375000        -1.65204970E-08
   102.660004        -1.57868509E-08
   102.945000        -1.44387977E-08
   103.230003        -1.24763231E-08
   103.514999        -9.92743576E-09
   103.800003        -6.84827572E-09
   104.084999        -3.32139782E-09
   104.370003         5.47725365E-10
   104.654999         4.63582017E-09
   104.940002         8.80815509E-09
   105.224998         1.29256730E-08
   105.510002         1.68523311E-08
   105.794998         2.04620694E-08
   106.080002         2.36448550E-08
   106.364998         2.63112803E-08
   106.650002         2.83953536E-08
   106.934998         2.98553076E-08
   107.220001         3.06723607E-08
   107.504997         3.08476906E-08
   107.790001         3.03978887E-08
   108.074997         2.93495113E-08
   108.360001         2.77332983E-08
   108.644997         2.55787462E-08
   108.930000         2.29096830E-08
   109.214996         1.97414032E-08
   109.500000         1.60797615E-08
   109.785004         1.19224799E-08
   110.070000         7.26261318E-09
   110.355003         2.09394879E-09
   110.639999        -3.58209884E-09
   110.925003        -9.74879111E-09
   111.209999        -1.63663483E-08
   111.495003        -2.33650592E-08
   111.779999        -3.06400310E-08
   112.065002        -3.80483165E-08
   112.349998        -4.54090419E-08
   112.635002        -5.25066888E-08
   112.919998        -5.90977045E-08
   113.205002        -6.49201866E-08
   113.489998        -6.97059335E-08
   113.775002        -7.31942862E-08
   114.059998        -7.51466303E-08
   114.345001        -7.53605036E-08
   114.629997        -7.36822017E-08
   114.915001        -7.00169522E-08
   115.199997        -6.43356017E-08
   115.485001        -5.66775675E-08
   115.769997        -4.71494133E-08
   116.055000        -3.59194878E-08
   116.339996        -2.32088180E-08
   116.625000        -9.27926180E-09
   116.910004         5.58027446E-09
   117.195000         2.10682831E-08
   117.480003         3.68844795E-08
   117.764999         5.27419424E-08
   118.050003         6.83764156E-08
   118.334999         8.35520382E-08
   118.620003         9.80630261E-08
   118.904999         1.11731396E-07
   119.190002         1.24400842E-07
   119.474998         1.35927692E-07
   119.760002         1.46169938E-07
   120.044998         1.54975439E-07
   120.330002         1.62171062E-07
   120.614998         1.67553750E-07
   120.900002         1.70884917E-07
   121.184998         1.71889269E-07
   121.470001         1.70258588E-07
   121.754997         1.65660637E-07
   122.040001         1.57753007E-07
   122.324997         1.46201117E-07
   122.610001         1.30699348E-07
   122.894997         1.10993859E-07
   123.180000         8.69057217E-08
   123.464996         5.83525654E-08
   123.750000         2.53672905E-08
   124.035004        -1.18870016E-08
   124.320000        -5.31071009E-08
   124.605003        -9.78451382E-08
   124.889999        -1.45509219E-07
   125.175003        -1.95368969E-07
   125.459999        -2.46565151E-07
   125.745003        -2.98122245E-07
   126.029999        -3.48963056E-07
   126.315002        -3.97923969E-07
   126.599998        -4.43770261E-07
   126.885002        -4.85210478E-07
   127.169998        -5.20909737E-07
   127.455002        -5.49501806E-07
   127.739998        -5.69600445E-07
   128.024994        -5.79809864E-07
   128.309998        -5.78735353E-07
   128.595001        -5.64994991E-07
   128.880005        -5.37232211E-07
   129.164993        -4.94129381E-07
   129.449997        -4.34423782E-07
   129.735001        -3.56923977E-07
   130.020004        -2.60527344E-07
   130.304993        -1.44237276E-07
   130.589996        -7.17937843E-09
   130.875000         1.51383460E-07
   131.160004         3.32038212E-07
   131.445007         5.35211313E-07
   131.729996         7.61161061E-07
   132.014999         1.00997238E-06
   132.300003         1.28155352E-06
   132.585007         1.57563522E-06
   132.869995         1.89176831E-06
   133.154999         2.22932226E-06
   133.440002         2.58748196E-06
   133.725006         2.96524126E-06
   134.009995         3.36139510E-06
   134.294998         3.77453171E-06
   134.580002         4.20302104E-06
   134.865005         4.64500135E-06
   135.149994         5.09837082E-06
   135.434998         5.56078203E-06
   135.720001         6.02963792E-06
   136.005005         6.50209950E-06
   136.289993         6.97510222E-06
   136.574997         7.44537920E-06
   136.860001         7.90950162E-06
   137.145004         8.36393065E-06
   137.429993         8.80507741E-06
   137.714996         9.22937124E-06
   138.000000         9.63333059E-06
   138.285004         1.00136413E-05
   138.570007         1.03672401E-05
   138.854996         1.06913785E-05
   139.139999         1.09836892E-05
   139.425003         1.12422340E-05
   139.710007         1.14655313E-05
   139.994995         1.16525807E-05
   140.279999         1.18028538E-05
   140.565002         1.19162787E-05
   140.850006         1.19932001E-05
   141.134995         1.20343366E-05
   141.419998         1.20407212E-05
   141.705002         1.20136374E-05
   141.990005         1.19545502E-05
   142.274994         1.18650451E-05
   142.559998         1.17467762E-05
   142.845001         1.16014153E-05
   143.130005         1.14306140E-05
   143.414993         1.12359776E-05
   143.699997         1.10190558E-05
   143.985001         1.07813303E-05
   144.270004         1.05242325E-05
   144.554993         1.02491449E-05
   144.839996         9.95741539E-06
   145.125000         9.65037179E-06
   145.410004         9.32932744E-06
   145.695007         8.99559109E-06
   145.979996         8.65046877E-06
   146.264999         8.29526016E-06
   146.550003         7.93124400E-06
   146.835007         7.55967312E-06
   147.119995         7.18176670E-06
   147.404999         6.79869208E-06
   147.690002         6.41156385E-06
   147.975006         6.02144064E-06
   148.259995         5.62933246E-06
   148.544998         5.23622020E-06
   148.830002         4.84307384E-06
   149.115005         4.45089154E-06
   149.399994         4.06072741E-06
   149.684998         3.67373627E-06
   149.970001         3.29120508E-06
   150.255005         2.91458286E-06
   150.539993         2.54550264E-06
   150.824997         2.18578566E-06
   151.110001         1.83743134E-06
   151.395004         1.50259018E-06
   151.679993         1.18351261E-06
   151.964996         8.82477480E-07
   152.250000         6.01699810E-07
   152.535004         3.43225167E-07
   152.820007         1.08814440E-07
   153.104996        -1.00173089E-07
   153.389999        -2.82891136E-07
   153.675003        -4.39107851E-07
   153.960007        -5.69292411E-07
   154.244995        -6.74672776E-07
   154.529999        -7.57268424E-07
   154.815002        -8.19888101E-07
   155.100006        -8.66093217E-07
   155.384995        -9.00125542E-07
   155.669998        -9.26803068E-07
   155.955002        -9.51391428E-07
   156.240005        -9.79457013E-07
   156.524994        -1.01670628E-06
   156.809998        -1.06882044E-06
   157.095001        -1.14128875E-06
   157.380005        -1.23924758E-06
   157.664993        -1.36732683E-06
   157.949997        -1.52951259E-06
   158.235001        -1.72903754E-06
   158.520004        -1.96829296E-06
   158.804993        -2.24876567E-06
   159.089996        -2.57100055E-06
   159.375000        -2.93458129E-06
   159.660004        -3.33813659E-06
   159.945007        -3.77936863E-06
   160.229996        -4.25510098E-06
   160.514999        -4.76135301E-06
   160.800003        -5.29342788E-06
   161.085007        -5.84601594E-06
   161.369995        -6.41330553E-06
   161.654999        -6.98910253E-06
   161.940002        -7.56694453E-06
   162.225006        -8.14022133E-06
   162.509995        -8.70229815E-06
   162.794998        -9.24662618E-06
   163.080002        -9.76685806E-06
   163.365005        -1.02569420E-05
   163.649994        -1.07112064E-05
   163.934998        -1.11244353E-05
   164.220001        -1.14919130E-05
   164.505005        -1.18094849E-05
   164.789993        -1.20735795E-05
   165.074997        -1.22812407E-05
   165.360001        -1.24301259E-05
   165.645004        -1.25185061E-05
   165.929993        -1.25452452E-05
   166.214996        -1.25097604E-05
