-7.200000 9.8404491E-18
-7.057088 9.8577115E-18
-6.914176 9.8836503E-18
-6.771265 9.9064780E-18
-6.628353 9.9180502E-18
-6.485441 9.9184258E-18
-6.342530 9.9154347E-18
-6.199618 9.9195425E-18
-6.056706 9.9371788E-18
-5.913795 9.9665635E-18
-5.770883 9.9985878E-18
-5.627971 1.0022197E-17
-5.485059 1.0031017E-17
-5.342147 1.0027197E-17
-5.199236 1.0020147E-17
-5.056324 1.0020922E-17
-4.913413 1.0035631E-17
-4.770501 1.0061870E-17
-4.627589 1.0090282E-17
-4.484677 1.0110279E-17
-4.341765 1.0116458E-17
-4.198854 1.0111812E-17
-4.055942 1.0105824E-17
-3.913030 1.0108627E-17
-3.770118 1.0124818E-17
-3.627207 1.0150662E-17
-3.484295 1.0176392E-17
-3.341383 1.0192187E-17
-3.198472 1.0194166E-17
-3.055560 1.0186756E-17
-2.912648 1.0179999E-17
-2.769737 1.0183450E-17
-2.626825 1.0200379E-17
-2.483913 1.0225809E-17
-2.341001 1.0249578E-17
-2.198090 1.0262546E-17
-2.055178 1.0262165E-17
-1.912266 1.0254019E-17
-1.769354 1.0248405E-17
-1.626443 1.0254061E-17
-1.483531 1.0272849E-17
-1.340619 1.0298669E-17
-1.197708 1.0321245E-17
-1.054796 1.0332459E-17
-0.9118841 1.0331371E-17
-0.7689723 1.0324835E-17
-0.6260606 1.0323320E-17
-0.4831489 1.0334472E-17
-0.3402372 1.0358358E-17
-0.1973254 1.0387292E-17
-5.4413714E-02 1.0410401E-17
8.8498011E-02 1.0420147E-17
0.2314097 1.0416872E-17
0.3743215 1.0408579E-17
0.5172332 1.0406080E-17
0.6601449 1.0416445E-17
0.8030567 1.0438730E-17
0.9459684 1.0464592E-17
1.088880 1.0483416E-17
1.231792 1.0488830E-17
1.374704 1.0482648E-17
1.517615 1.0473814E-17
1.660527 1.0472959E-17
1.803439 1.0485882E-17
1.946350 1.0509902E-17
2.089262 1.0535341E-17
2.232174 1.0551261E-17
2.375086 1.0552020E-17
2.517997 1.0540679E-17
2.660909 1.0527195E-17
2.803821 1.0522492E-17
2.946733 1.0531964E-17
3.089644 1.0552350E-17
3.232556 1.0573840E-17
3.375468 1.0586136E-17
3.518379 1.0584788E-17
3.661291 1.0573947E-17
3.804203 1.0563863E-17
3.947115 1.0564642E-17
4.090026 1.0580014E-17
4.232938 1.0604919E-17
4.375850 1.0628344E-17
4.518762 1.0639744E-17
4.661673 1.0635178E-17
4.804585 1.0619478E-17
4.947497 1.0603186E-17
5.090408 1.0596136E-17
5.233320 1.0601579E-17
5.376232 1.0614394E-17
5.519144 1.0624438E-17
5.662055 1.0622974E-17
5.804967 1.0608235E-17
5.947879 1.0586743E-17
6.090790 1.0569570E-17
6.233702 1.0565798E-17
6.376614 1.0577134E-17
6.519526 1.0596936E-17
6.662437 1.0614218E-17
6.805349 1.0620202E-17
6.948261 1.0613460E-17
7.091173 1.0600549E-17
7.234084 1.0591806E-17
7.376996 1.0594910E-17
7.519908 1.0610107E-17
7.662819 1.0630037E-17
7.805731 1.0644210E-17
7.948643 1.0645403E-17
8.091555 1.0634048E-17
8.234467 1.0617948E-17
8.377378 1.0607495E-17
8.520289 1.0609317E-17
8.663201 1.0622233E-17
8.806113 1.0637997E-17
8.949025 1.0646357E-17
9.091937 1.0641373E-17
9.234848 1.0625118E-17
9.377760 1.0606512E-17
9.520672 1.0596000E-17
9.663584 1.0599285E-17
9.806496 1.0613957E-17
9.949407 1.0631030E-17
10.09232 1.0640459E-17
10.23523 1.0637264E-17
10.37814 1.0624515E-17
10.52105 1.0611369E-17
10.66397 1.0607353E-17
10.80688 1.0616401E-17
10.94979 1.0634303E-17
11.09270 1.0651161E-17
11.23561 1.0657378E-17
11.37852 1.0649563E-17
11.52144 1.0632738E-17
11.66435 1.0617470E-17
11.80726 1.0613652E-17
11.95017 1.0624644E-17
12.09308 1.0645343E-17
12.23599 1.0665332E-17
12.37891 1.0675191E-17
12.52182 1.0672166E-17
12.66473 1.0661732E-17
12.80764 1.0654126E-17
12.95055 1.0657944E-17
13.09346 1.0674715E-17
13.23638 1.0697753E-17
13.37929 1.0716046E-17
13.52220 1.0720826E-17
13.66511 1.0710871E-17
13.80802 1.0693332E-17
13.95094 1.0679552E-17
14.09385 1.0678384E-17
14.23676 1.0691028E-17
14.37967 1.0710463E-17
14.52258 1.0725812E-17
14.66549 1.0728973E-17
14.80841 1.0719513E-17
14.95132 1.0704863E-17
15.09423 1.0695719E-17
15.23714 1.0699459E-17
15.38005 1.0715543E-17
15.52296 1.0735733E-17
15.66588 1.0748975E-17
15.80879 1.0748002E-17
15.95170 1.0733697E-17
16.09461 1.0714569E-17
16.23752 1.0701680E-17
16.38043 1.0702100E-17
16.52335 1.0714824E-17
16.66626 1.0731596E-17
16.80917 1.0742098E-17
16.95208 1.0740336E-17
17.09499 1.0728335E-17
17.23791 1.0714917E-17
17.38082 1.0710333E-17
17.52373 1.0720000E-17
17.66664 1.0741172E-17
17.80955 1.0764534E-17
17.95246 1.0779755E-17
18.09538 1.0781604E-17
18.23829 1.0772946E-17
18.38120 1.0762800E-17
18.52411 1.0760692E-17
18.66702 1.0770739E-17
18.80993 1.0789084E-17
18.95285 1.0806235E-17
19.09576 1.0812864E-17
19.23867 1.0805539E-17
19.38158 1.0788878E-17
19.52449 1.0772831E-17
19.66740 1.0766736E-17
19.81032 1.0773773E-17
19.95323 1.0789180E-17
20.09614 1.0803319E-17
20.23905 1.0807690E-17
20.38196 1.0800233E-17
20.52488 1.0786656E-17
20.66779 1.0776982E-17
20.81070 1.0779406E-17
20.95361 1.0795206E-17
21.09652 1.0817828E-17
21.23943 1.0836715E-17
21.38235 1.0843578E-17
21.52526 1.0837290E-17
21.66817 1.0824454E-17
21.81108 1.0815280E-17
21.95399 1.0817289E-17
22.09690 1.0830685E-17
22.23981 1.0848218E-17
22.38273 1.0859644E-17
22.52564 1.0858069E-17
22.66855 1.0844325E-17
22.81146 1.0826674E-17
22.95437 1.0815988E-17
23.09729 1.0819287E-17
23.24020 1.0835542E-17
23.38311 1.0856272E-17
23.52602 1.0870604E-17
23.66893 1.0871741E-17
23.81184 1.0860950E-17
23.95476 1.0846664E-17
24.09767 1.0839255E-17
24.24058 1.0844660E-17
24.38349 1.0860728E-17
24.52640 1.0878508E-17
24.66932 1.0887724E-17
24.81223 1.0883095E-17
24.95514 1.0867696E-17
25.09805 1.0851280E-17
25.24096 1.0844556E-17
25.38387 1.0852850E-17
25.52678 1.0872950E-17
25.66970 1.0895032E-17
25.81261 1.0908497E-17
25.95552 1.0908201E-17
26.09843 1.0897344E-17
26.24134 1.0885317E-17
26.38426 1.0881830E-17
26.52717 1.0890914E-17
26.67008 1.0908427E-17
26.81299 1.0924563E-17
26.95590 1.0929838E-17
27.09881 1.0920910E-17
27.24173 1.0902714E-17
27.38464 1.0885606E-17
27.52755 1.0879261E-17
27.67046 1.0886982E-17
27.81337 1.0903873E-17
27.95629 1.0919921E-17
28.09920 1.0926124E-17
28.24211 1.0919913E-17
28.38502 1.0906634E-17
28.52793 1.0896190E-17
28.67084 1.0896926E-17
28.81376 1.0910489E-17
28.95667 1.0930778E-17
29.09958 1.0947611E-17
29.24249 1.0952869E-17
29.38540 1.0945369E-17
29.52831 1.0931521E-17
29.67122 1.0921374E-17
29.81414 1.0922476E-17
29.95705 1.0935289E-17
30.09996 1.0952949E-17
30.24287 1.0965513E-17
30.38578 1.0966091E-17
30.52870 1.0955133E-17
30.67161 1.0940239E-17
30.81452 1.0931614E-17
30.95743 1.0935933E-17
31.10034 1.0952310E-17
31.24325 1.0972868E-17
31.38617 1.0987529E-17
31.52908 1.0990097E-17
31.67199 1.0981960E-17
31.81490 1.0971120E-17
31.95781 1.0967155E-17
32.10072 1.0975193E-17
32.24364 1.0992581E-17
32.38655 1.1010316E-17
32.52946 1.1018401E-17
32.67237 1.1011904E-17
32.81528 1.0994028E-17
32.95819 1.0974328E-17
33.10111 1.0963107E-17
33.24402 1.0965376E-17
33.38693 1.0978017E-17
33.52984 1.0991859E-17
33.67275 1.0997418E-17
33.81567 1.0990793E-17
33.95858 1.0976152E-17
34.10149 1.0963255E-17
34.24440 1.0961516E-17
34.38731 1.0974182E-17
34.53022 1.0996176E-17
34.67313 1.1016951E-17
34.81605 1.1026661E-17
34.95896 1.1021963E-17
35.10187 1.1007950E-17
35.24478 1.0995053E-17
35.38770 1.0992765E-17
35.53061 1.1003975E-17
35.67352 1.1023291E-17
35.81643 1.1040395E-17
35.95934 1.1046350E-17
36.10225 1.1039073E-17
36.24516 1.1024640E-17
36.38808 1.1013646E-17
36.53099 1.1014781E-17
36.67390 1.1029535E-17
36.81681 1.1051200E-17
36.95972 1.1068801E-17
37.10263 1.1073592E-17
37.24555 1.1064213E-17
37.38846 1.1047426E-17
37.53137 1.1033995E-17
37.67428 1.1032214E-17
37.81719 1.1042999E-17
37.96011 1.1059471E-17
38.10302 1.1071267E-17
38.24593 1.1070941E-17
38.38884 1.1058582E-17
38.53175 1.1041817E-17
38.67466 1.1031252E-17
38.81758 1.1034062E-17
38.96049 1.1049666E-17
39.10340 1.1070049E-17
39.24631 1.1084572E-17
39.38922 1.1086319E-17
39.53214 1.1076167E-17
39.67505 1.1062109E-17
39.81796 1.1054285E-17
39.96087 1.1058746E-17
40.10378 1.1073741E-17
40.24669 1.1090797E-17
40.38961 1.1099913E-17
40.53252 1.1095702E-17
40.67543 1.1080734E-17
40.81834 1.1064049E-17
40.96125 1.1055721E-17
41.10416 1.1060804E-17
41.24707 1.1076316E-17
41.38999 1.1093126E-17
41.53290 1.1101563E-17
41.67581 1.1097377E-17
41.81872 1.1084362E-17
41.96163 1.1072063E-17
42.10455 1.1069944E-17
42.24746 1.1081549E-17
42.39037 1.1102249E-17
42.53328 1.1121945E-17
42.67619 1.1131127E-17
42.81910 1.1126590E-17
42.96202 1.1113350E-17
43.10493 1.1101549E-17
43.24784 1.1100228E-17
43.39075 1.1111760E-17
43.53366 1.1130329E-17
43.67657 1.1145437E-17
43.81948 1.1148322E-17
43.96240 1.1137410E-17
44.10531 1.1119456E-17
44.24822 1.1105628E-17
44.39113 1.1104890E-17
44.53405 1.1118642E-17
44.67696 1.1139887E-17
44.81987 1.1157448E-17
44.96278 1.1162696E-17
45.10569 1.1154730E-17
45.24860 1.1140864E-17
45.39151 1.1132092E-17
45.53443 1.1136282E-17
45.67734 1.1153227E-17
45.82025 1.1174568E-17
45.96316 1.1188712E-17
46.10608 1.1187775E-17
46.24899 1.1172384E-17
46.39190 1.1151415E-17
46.53481 1.1136788E-17
46.67772 1.1136424E-17
46.82063 1.1149607E-17
46.96354 1.1167528E-17
47.10646 1.1178688E-17
47.24937 1.1175893E-17
47.39228 1.1160634E-17
47.53519 1.1142172E-17
47.67810 1.1131918E-17
47.82101 1.1136493E-17
47.96392 1.1153677E-17
48.10684 1.1173715E-17
48.24975 1.1185200E-17
48.39266 1.1181977E-17
48.53557 1.1166894E-17
48.67849 1.1150120E-17
48.82140 1.1143044E-17
48.96431 1.1151429E-17
49.10722 1.1171963E-17
49.25013 1.1194276E-17
49.39304 1.1207201E-17
49.53595 1.1205473E-17
49.67887 1.1192810E-17
49.82178 1.1179527E-17
49.96469 1.1176155E-17
50.10760 1.1186944E-17
50.25051 1.1207227E-17
50.39342 1.1226236E-17
50.53634 1.1233664E-17
50.67925 1.1225960E-17
50.82216 1.1208536E-17
50.96507 1.1192520E-17
51.10798 1.1188026E-17
51.25090 1.1198055E-17
51.39381 1.1216717E-17
51.53672 1.1232885E-17
51.67963 1.1237030E-17
51.82254 1.1227078E-17
51.96545 1.1209703E-17
52.10837 1.1196255E-17
52.25128 1.1195819E-17
52.39419 1.1209627E-17
52.53710 1.1230271E-17
52.68001 1.1246216E-17
52.82293 1.1248850E-17
52.96584 1.1237790E-17
53.10875 1.1221154E-17
53.25166 1.1210618E-17
53.39457 1.1214239E-17
53.53748 1.1231448E-17
53.68040 1.1253269E-17
53.82331 1.1267710E-17
53.96622 1.1267023E-17
54.10913 1.1252451E-17
54.25204 1.1233519E-17
54.39495 1.1222272E-17
54.53786 1.1225959E-17
54.68078 1.1242606E-17
54.82369 1.1262216E-17
54.96660 1.1272893E-17
55.10951 1.1268176E-17
55.25242 1.1251115E-17
55.39534 1.1232548E-17
55.53825 1.1224595E-17
55.68116 1.1233282E-17
55.82407 1.1254787E-17
55.96698 1.1277632E-17
56.10989 1.1289533E-17
56.25281 1.1284775E-17
56.39572 1.1267656E-17
56.53863 1.1249876E-17
56.68154 1.1243437E-17
56.82445 1.1253355E-17
56.96737 1.1274584E-17
57.11028 1.1295078E-17
57.25319 1.1303114E-17
57.39610 1.1294463E-17
57.53901 1.1275050E-17
57.68192 1.1257445E-17
57.82484 1.1253301E-17
57.96775 1.1266306E-17
58.11066 1.1289919E-17
58.25357 1.1311288E-17
58.39648 1.1318967E-17
58.53939 1.1309801E-17
58.68230 1.1290779E-17
58.82522 1.1274753E-17
58.96813 1.1272614E-17
59.11104 1.1286671E-17
59.25395 1.1309257E-17
59.39687 1.1327386E-17
59.53978 1.1330651E-17
59.68269 1.1317539E-17
59.82560 1.1296355E-17
59.96851 1.1280169E-17
60.11142 1.1278901E-17
60.25433 1.1293325E-17
60.39725 1.1314664E-17
60.54016 1.1329991E-17
60.68307 1.1330156E-17
60.82598 1.1315383E-17
60.96889 1.1295154E-17
61.11180 1.1282434E-17
61.25471 1.1285780E-17
61.39763 1.1304135E-17
61.54054 1.1327495E-17
61.68345 1.1343015E-17
61.82636 1.1342839E-17
61.96928 1.1328857E-17
62.11219 1.1311491E-17
62.25510 1.1303254E-17
62.39801 1.1311033E-17
62.54092 1.1331828E-17
62.68383 1.1354549E-17
62.82674 1.1366802E-17
62.96966 1.1362488E-17
63.11257 1.1345579E-17
63.25548 1.1327721E-17
63.39839 1.1321133E-17
63.54131 1.1331125E-17
63.68422 1.1352826E-17
63.82713 1.1374149E-17
63.97004 1.1383173E-17
64.11295 1.1375471E-17
64.25586 1.1356837E-17
64.39877 1.1339773E-17
64.54169 1.1335810E-17
64.68460 1.1348395E-17
64.82751 1.1370684E-17
64.97042 1.1389641E-17
65.11333 1.1393973E-17
65.25625 1.1381068E-17
65.39915 1.1358683E-17
65.54207 1.1340311E-17
65.68498 1.1337035E-17
65.82789 1.1350798E-17
65.97080 1.1373237E-17
66.11372 1.1390785E-17
66.25663 1.1392989E-17
66.39954 1.1378952E-17
66.54245 1.1357964E-17
66.68536 1.1343899E-17
66.82828 1.1346752E-17
66.97118 1.1366469E-17
67.11410 1.1392847E-17
67.25701 1.1411592E-17
67.39992 1.1412906E-17
67.54283 1.1397374E-17
67.68575 1.1375598E-17
67.82866 1.1361754E-17
67.97157 1.1365002E-17
68.11448 1.1383923E-17
68.25739 1.1407407E-17
68.40031 1.1421427E-17
68.54321 1.1417603E-17
68.68613 1.1398354E-17
68.82904 1.1375490E-17
68.97195 1.1363107E-17
69.11486 1.1369076E-17
69.25777 1.1390300E-17
69.40069 1.1414616E-17
69.54359 1.1428188E-17
69.68651 1.1423882E-17
69.82942 1.1405569E-17
69.97233 1.1385714E-17
70.11524 1.1377757E-17
70.25816 1.1387908E-17
70.40107 1.1411358E-17
70.54398 1.1435185E-17
70.68689 1.1446193E-17
70.82980 1.1438899E-17
70.97272 1.1418809E-17
71.11562 1.1399020E-17
71.25854 1.1392223E-17
71.40145 1.1403003E-17
71.54436 1.1425121E-17
71.68727 1.1445413E-17
71.83018 1.1451907E-17
71.97310 1.1441187E-17
72.11600 1.1420498E-17
72.25892 1.1403320E-17
72.40183 1.1401119E-17
72.54475 1.1416332E-17
72.68765 1.1440863E-17
72.83057 1.1461023E-17
72.97348 1.1465863E-17
73.11639 1.1453825E-17
73.25930 1.1433626E-17
73.40221 1.1418858E-17
73.54513 1.1419605E-17
73.68803 1.1436235E-17
73.83095 1.1459170E-17
73.97386 1.1474781E-17
74.11678 1.1473797E-17
74.25968 1.1457072E-17
74.40260 1.1435148E-17
74.54551 1.1421870E-17
74.68842 1.1425932E-17
74.83133 1.1445544E-17
74.97424 1.1469490E-17
75.11716 1.1483944E-17
75.26006 1.1480910E-17
75.40298 1.1463093E-17
75.54589 1.1442245E-17
75.68880 1.1431948E-17
75.83171 1.1439257E-17
75.97462 1.1460319E-17
76.11754 1.1482671E-17
76.26044 1.1492838E-17
76.40336 1.1484619E-17
76.54627 1.1462974E-17
76.68919 1.1441121E-17
76.83209 1.1432572E-17
76.97501 1.1442948E-17
77.11792 1.1466551E-17
77.26083 1.1489816E-17
77.40374 1.1499545E-17
77.54665 1.1490943E-17
77.68957 1.1470537E-17
77.83247 1.1452207E-17
77.97539 1.1448716E-17
78.11830 1.1463885E-17
78.26122 1.1490194E-17
78.40412 1.1513263E-17
78.54704 1.1520516E-17
78.68995 1.1508771E-17
78.83286 1.1486138E-17
78.97577 1.1467085E-17
79.11868 1.1463648E-17
79.26160 1.1478150E-17
79.40450 1.1501829E-17
79.54742 1.1520210E-17
79.69033 1.1521955E-17
79.83324 1.1505794E-17
79.97615 1.1481345E-17
80.11906 1.1463313E-17
80.26198 1.1462604E-17
80.40488 1.1479763E-17
80.54780 1.1504690E-17
80.69071 1.1522799E-17
80.83363 1.1523856E-17
80.97653 1.1508123E-17
81.11945 1.1486082E-17
81.26236 1.1471959E-17
81.40527 1.1475008E-17
81.54818 1.1493871E-17
81.69109 1.1517445E-17
81.83401 1.1531707E-17
81.97691 1.1528292E-17
82.11983 1.1509607E-17
82.26274 1.1487361E-17
82.40565 1.1475432E-17
82.54856 1.1481436E-17
82.69147 1.1502153E-17
82.83439 1.1525556E-17
82.97730 1.1538212E-17
83.12021 1.1533479E-17
83.26312 1.1515512E-17
83.40604 1.1496631E-17
83.54894 1.1489698E-17
83.69186 1.1500186E-17
83.83477 1.1522790E-17
83.97768 1.1544674E-17
84.12059 1.1553333E-17
84.26350 1.1544256E-17
84.40642 1.1523695E-17
84.54933 1.1504840E-17
84.69224 1.1499746E-17
84.83515 1.1511957E-17
84.97807 1.1534350E-17
85.12097 1.1553518E-17
85.26389 1.1558007E-17
85.40680 1.1545373E-17
85.54971 1.1523715E-17
85.69262 1.1506742E-17
85.83553 1.1505402E-17
85.97845 1.1521164E-17
86.12135 1.1545098E-17
86.26427 1.1563312E-17
86.40718 1.1565443E-17
86.55009 1.1551006E-17
86.69300 1.1529715E-17
86.83591 1.1515551E-17
86.97883 1.1518215E-17
87.12174 1.1537140E-17
87.26465 1.1561777E-17
87.40756 1.1577958E-17
87.55048 1.1576508E-17
87.69338 1.1558839E-17
87.83630 1.1536126E-17
87.97921 1.1522548E-17
88.12212 1.1526694E-17
88.26503 1.1546363E-17
88.40794 1.1569914E-17
88.55086 1.1583354E-17
88.69377 1.1578843E-17
88.83668 1.1559455E-17
88.97959 1.1537308E-17
89.12251 1.1526181E-17
89.26541 1.1533137E-17
89.40833 1.1554216E-17
89.55124 1.1576834E-17
89.69415 1.1587409E-17
89.83706 1.1579604E-17
89.97997 1.1558162E-17
90.12289 1.1536048E-17
90.26580 1.1526622E-17
90.40871 1.1535613E-17
90.55162 1.1557739E-17
90.69453 1.1580011E-17
90.83744 1.1589666E-17
90.98035 1.1581903E-17
91.12327 1.1562736E-17
91.26618 1.1545253E-17
91.40909 1.1541590E-17
91.55200 1.1555525E-17
91.69492 1.1580179E-17
91.83783 1.1602203E-17
91.98074 1.1609871E-17
92.12365 1.1600140E-17
92.26656 1.1580414E-17
92.40947 1.1563950E-17
92.55238 1.1561768E-17
92.69530 1.1575968E-17
92.83821 1.1598539E-17
92.98112 1.1616322E-17
93.12403 1.1619077E-17
93.26694 1.1605711E-17
93.40986 1.1584892E-17
93.55276 1.1569697E-17
93.69568 1.1569612E-17
93.83859 1.1584759E-17
93.98150 1.1605886E-17
94.12441 1.1620090E-17
94.26733 1.1618748E-17
94.41024 1.1602801E-17
94.55315 1.1582179E-17
94.69606 1.1569708E-17
94.83897 1.1573272E-17
94.98188 1.1590991E-17
95.12479 1.1612386E-17
95.26771 1.1624779E-17
95.41062 1.1621021E-17
95.55353 1.1603824E-17
95.69644 1.1584047E-17
95.83936 1.1573995E-17
95.98227 1.1579858E-17
96.12518 1.1597895E-17
96.26809 1.1616722E-17
96.41100 1.1624297E-17
96.55391 1.1615340E-17
96.69682 1.1594650E-17
96.83974 1.1574274E-17
96.98265 1.1566250E-17
97.12556 1.1575337E-17
97.26847 1.1596159E-17
97.41138 1.1616503E-17
97.55430 1.1624773E-17
97.69720 1.1617052E-17
97.84012 1.1599475E-17
97.98303 1.1584462E-17
98.12594 1.1583094E-17
98.26885 1.1598292E-17
98.41177 1.1622919E-17
98.55468 1.1644009E-17
98.69759 1.1650544E-17
98.84050 1.1640074E-17
98.98341 1.1620169E-17
99.12633 1.1603821E-17
99.26923 1.1601591E-17
99.41215 1.1615246E-17
99.55506 1.1636750E-17
99.69797 1.1653187E-17
99.84088 1.1654642E-17
99.98380 1.1640235E-17
100.1267 1.1618677E-17
100.2696 1.1603009E-17
100.4125 1.1602724E-17
100.5554 1.1618053E-17
100.6984 1.1639843E-17
100.8413 1.1655114E-17
100.9842 1.1654891E-17
101.1271 1.1639588E-17
101.2700 1.1618698E-17
101.4129 1.1605010E-17
101.5558 1.1606878E-17
101.6987 1.1623209E-17
101.8416 1.1644212E-17
101.9846 1.1657370E-17
102.1275 1.1655034E-17
102.2704 1.1639004E-17
102.4133 1.1619357E-17
102.5562 1.1608276E-17
102.6991 1.1612655E-17
102.8420 1.1629972E-17
102.9849 1.1649900E-17
103.1279 1.1660657E-17
103.2708 1.1656180E-17
103.4137 1.1639794E-17
103.5566 1.1622133E-17
103.6995 1.1614639E-17
103.8424 1.1622600E-17
103.9853 1.1641960E-17
104.1282 1.1661830E-17
104.2711 1.1671125E-17
104.4141 1.1665278E-17
104.5570 1.1648947E-17
104.6999 1.1633093E-17
104.8428 1.1628240E-17
104.9857 1.1638052E-17
105.1286 1.1657145E-17
105.2715 1.1674433E-17
105.4144 1.1679966E-17
105.5574 1.1671047E-17
105.7003 1.1653892E-17
105.8432 1.1639833E-17
105.9861 1.1638368E-17
106.1290 1.1651328E-17
106.2719 1.1671711E-17
106.4148 1.1687907E-17
106.5577 1.1690732E-17
106.7006 1.1678990E-17
106.8436 1.1660174E-17
106.9865 1.1645871E-17
107.1294 1.1644695E-17
107.2723 1.1657035E-17
107.4152 1.1674851E-17
107.5581 1.1686624E-17
107.7010 1.1684458E-17
107.8439 1.1669002E-17
107.9869 1.1649157E-17
108.1298 1.1636755E-17
108.2727 1.1639395E-17
108.4156 1.1655820E-17
108.5585 1.1676621E-17
108.7014 1.1689886E-17
108.8443 1.1688357E-17
108.9872 1.1673780E-17
109.1301 1.1655814E-17
109.2731 1.1646146E-17
109.4160 1.1651391E-17
109.5589 1.1669082E-17
109.7018 1.1689169E-17
109.8447 1.1700127E-17
109.9876 1.1695962E-17
110.1305 1.1679874E-17
110.2734 1.1662354E-17
110.4164 1.1654849E-17
110.5593 1.1662839E-17
110.7022 1.1682502E-17
110.8451 1.1702984E-17
110.9880 1.1712902E-17
111.1309 1.1707164E-17
111.2738 1.1689983E-17
111.4167 1.1672300E-17
111.5596 1.1665184E-17
111.7026 1.1673202E-17
111.8455 1.1691758E-17
111.9884 1.1709977E-17
112.1313 1.1717353E-17
112.2742 1.1710125E-17
112.4171 1.1693526E-17
112.5600 1.1678552E-17
112.7029 1.1675263E-17
112.8458 1.1686648E-17
112.9888 1.1706808E-17
113.1317 1.1724505E-17
113.2746 1.1729938E-17
113.4175 1.1720614E-17
113.5604 1.1702785E-17
113.7033 1.1687612E-17
113.8462 1.1684402E-17
113.9891 1.1695040E-17
114.1321 1.1712962E-17
114.2750 1.1727264E-17
114.4179 1.1729401E-17
114.5608 1.1718394E-17
114.7037 1.1701380E-17
114.8466 1.1689206E-17
114.9895 1.1689773E-17
115.1324 1.1703197E-17
115.2754 1.1721745E-17
115.4183 1.1734558E-17
115.5612 1.1734278E-17
115.7041 1.1721527E-17
115.8470 1.1704514E-17
115.9899 1.1694017E-17
116.1328 1.1696811E-17
116.2757 1.1711552E-17
116.4186 1.1729615E-17
116.5616 1.1740377E-17
116.7045 1.1737709E-17
116.8474 1.1723714E-17
116.9903 1.1707421E-17
117.1332 1.1699252E-17
117.2761 1.1704636E-17
117.4190 1.1720663E-17
117.5619 1.1737851E-17
117.7048 1.1745954E-17
117.8478 1.1740257E-17
117.9907 1.1724529E-17
118.1336 1.1708802E-17
118.2765 1.1703312E-17
118.4194 1.1712275E-17
118.5623 1.1731294E-17
118.7052 1.1749969E-17
118.8481 1.1758179E-17
118.9911 1.1752179E-17
119.1340 1.1736864E-17
119.2769 1.1722761E-17
119.4198 1.1719612E-17
119.5627 1.1730418E-17
119.7056 1.1749565E-17
119.8485 1.1766200E-17
119.9914 1.1770817E-17
120.1343 1.1761052E-17
120.2773 1.1743194E-17
120.4202 1.1728439E-17
120.5631 1.1726185E-17
120.7060 1.1738370E-17
120.8489 1.1758304E-17
120.9918 1.1774698E-17
121.1347 1.1778455E-17
121.2776 1.1768120E-17
121.4206 1.1750715E-17
121.5635 1.1737451E-17
121.7064 1.1736920E-17
121.8493 1.1749890E-17
121.9922 1.1768844E-17
122.1351 1.1782536E-17
122.2780 1.1782807E-17
122.4209 1.1769520E-17
122.5639 1.1750664E-17
122.7068 1.1737551E-17
122.8497 1.1738033E-17
122.9926 1.1751820E-17
123.1355 1.1770730E-17
123.2784 1.1783673E-17
123.4213 1.1783347E-17
123.5642 1.1770588E-17
123.7071 1.1753764E-17
123.8501 1.1743607E-17
123.9930 1.1746664E-17
124.1359 1.1761324E-17
124.2788 1.1778843E-17
124.4217 1.1788699E-17
124.5646 1.1785017E-17
124.7075 1.1770151E-17
124.8504 1.1753265E-17
124.9933 1.1744784E-17
125.1363 1.1750115E-17
125.2792 1.1766422E-17
125.4221 1.1784438E-17
125.5650 1.1794141E-17
125.7079 1.1790847E-17
125.8508 1.1778001E-17
125.9937 1.1764981E-17
126.1366 1.1761291E-17
126.2795 1.1770686E-17
126.4225 1.1788846E-17
126.5654 1.1805992E-17
126.7083 1.1812862E-17
126.8512 1.1806361E-17
126.9941 1.1791458E-17
127.1370 1.1778145E-17
127.2799 1.1775338E-17
127.4228 1.1785418E-17
127.5658 1.1802783E-17
127.7087 1.1817275E-17
127.8516 1.1820405E-17
127.9945 1.1810567E-17
128.1374 1.1794052E-17
128.2803 1.1781233E-17
128.4232 1.1780227E-17
128.5661 1.1791915E-17
128.7090 1.1809361E-17
128.8520 1.1822009E-17
128.9949 1.1822109E-17
129.1378 1.1809478E-17
129.2807 1.1791664E-17
129.4236 1.1779406E-17
129.5665 1.1780131E-17
129.7094 1.1793439E-17
129.8523 1.1811332E-17
129.9953 1.1823065E-17
130.1382 1.1821691E-17
130.2811 1.1808315E-17
130.4240 1.1791478E-17
130.5669 1.1782004E-17
130.7098 1.1786441E-17
130.8527 1.1803053E-17
130.9956 1.1822822E-17
131.1385 1.1834853E-17
131.2815 1.1832929E-17
131.4244 1.1819259E-17
131.5673 1.1803129E-17
131.7102 1.1795282E-17
131.8531 1.1801418E-17
131.9960 1.1818731E-17
132.1389 1.1837587E-17
132.2818 1.1847333E-17
132.4248 1.1842709E-17
132.5677 1.1827011E-17
132.7106 1.1810094E-17
132.8535 1.1802437E-17
132.9964 1.1808854E-17
133.1393 1.1825661E-17
133.2822 1.1842985E-17
133.4251 1.1850797E-17
133.5681 1.1845007E-17
133.7110 1.1829926E-17
133.8539 1.1815624E-17
133.9968 1.1811798E-17
134.1397 1.1821873E-17
134.2826 1.1840918E-17
134.4255 1.1858600E-17
134.5684 1.1865404E-17
134.7113 1.1858312E-17
134.8542 1.1842542E-17
134.9972 1.1828301E-17
135.1401 1.1824574E-17
135.2830 1.1833720E-17
135.4259 1.1850156E-17
135.5688 1.1863878E-17
135.7117 1.1866664E-17
135.8546 1.1857128E-17
135.9975 1.1841575E-17
136.1405 1.1830137E-17
136.2834 1.1830558E-17
136.4263 1.1843456E-17
136.5692 1.1861924E-17
136.7121 1.1875720E-17
136.8550 1.1877478E-17
136.9979 1.1867142E-17
137.1408 1.1851917E-17
137.2838 1.1841806E-17
137.4267 1.1843439E-17
137.5696 1.1856006E-17
137.7125 1.1871771E-17
137.8554 1.1880849E-17
137.9983 1.1877317E-17
138.1412 1.1862921E-17
138.2841 1.1846086E-17
138.4270 1.1836828E-17
138.5700 1.1840670E-17
138.7129 1.1855281E-17
138.8558 1.1871905E-17
138.9987 1.1880717E-17
139.1416 1.1876839E-17
139.2845 1.1863344E-17
139.4274 1.1849394E-17
139.5703 1.1844628E-17
139.7133 1.1853231E-17
139.8562 1.1871299E-17
139.9991 1.1889139E-17
140.1420 1.1897125E-17
140.2849 1.1891561E-17
140.4278 1.1876960E-17
140.5707 1.1863346E-17
140.7136 1.1860187E-17
140.8566 1.1870626E-17
140.9995 1.1889524E-17
141.1424 1.1906530E-17
141.2853 1.1912317E-17
141.4282 1.1904221E-17
141.5711 1.1887868E-17
141.7140 1.1873775E-17
141.8569 1.1871001E-17
141.9998 1.1881657E-17
142.1427 1.1899634E-17
142.2857 1.1914308E-17
142.4286 1.1916983E-17
142.5715 1.1906177E-17
142.7144 1.1888551E-17
142.8573 1.1874905E-17
143.0002 1.1873674E-17
143.1431 1.1885843E-17
143.2860 1.1904363E-17
143.4290 1.1918397E-17
143.5719 1.1919843E-17
143.7148 1.1908179E-17
143.8577 1.1890717E-17
144.0006 1.1878142E-17
144.1435 1.1878039E-17
144.2864 1.1890354E-17
144.4293 1.1907482E-17
144.5723 1.1918944E-17
144.7152 1.1917758E-17
144.8581 1.1904658E-17
145.0010 1.1887624E-17
145.1439 1.1877010E-17
145.2868 1.1879280E-17
145.4297 1.1893138E-17
145.5726 1.1910388E-17
145.7155 1.1920954E-17
145.8585 1.1919018E-17
146.0014 1.1906505E-17
146.1443 1.1891847E-17
146.2872 1.1884794E-17
146.4301 1.1890467E-17
146.5730 1.1906272E-17
146.7159 1.1923531E-17
146.8588 1.1932807E-17
147.0018 1.1929652E-17
147.1447 1.1917259E-17
147.2876 1.1904422E-17
147.4305 1.1900078E-17
147.5734 1.1907789E-17
147.7163 1.1923531E-17
147.8592 1.1938163E-17
148.0021 1.1943035E-17
148.1451 1.1935289E-17
148.2880 1.1919638E-17
148.4309 1.1905496E-17
148.5738 1.1901260E-17
148.7167 1.1909202E-17
148.8596 1.1924148E-17
149.0025 1.1936692E-17
149.1454 1.1939016E-17
149.2883 1.1929722E-17
149.4312 1.1914704E-17
149.5742 1.1903534E-17
149.7171 1.1903561E-17
149.8600 1.1915331E-17
150.0029 1.1932164E-17
150.1458 1.1944157E-17
150.2887 1.1944202E-17
150.4316 1.1932342E-17
150.5745 1.1915806E-17
150.7175 1.1904671E-17
150.8604 1.1905783E-17
151.0033 1.1918617E-17
151.1462 1.1935613E-17
151.2891 1.1946768E-17
151.4320 1.1945728E-17
151.5749 1.1933649E-17
151.7178 1.1918492E-17
151.8607 1.1910163E-17
152.0037 1.1914442E-17
152.1466 1.1929396E-17
152.2895 1.1946471E-17
152.4324 1.1955614E-17
152.5753 1.1951338E-17
152.7182 1.1936071E-17
152.8611 1.1918748E-17
153.0040 1.1909494E-17
153.1470 1.1913609E-17
153.2899 1.1928457E-17
153.4328 1.1945142E-17
153.5757 1.1953916E-17
153.7186 1.1950072E-17
153.8615 1.1936738E-17
154.0044 1.1922914E-17
154.1473 1.1917964E-17
154.2903 1.1925910E-17
154.4332 1.1942956E-17
154.5761 1.1959774E-17
154.7190 1.1967097E-17
154.8619 1.1961288E-17
155.0048 1.1946479E-17
155.1477 1.1932051E-17
155.2906 1.1926972E-17
155.4335 1.1934450E-17
155.5765 1.1950081E-17
155.7194 1.1964613E-17
155.8623 1.1969575E-17
156.0052 1.1962372E-17
156.1481 1.1947756E-17
156.2910 1.1934840E-17
156.4339 1.1931496E-17
156.5768 1.1939580E-17
156.7197 1.1953863E-17
156.8627 1.1965289E-17
157.0056 1.1966544E-17
157.1485 1.1956537E-17
157.2914 1.1941052E-17
157.4343 1.1929227E-17
157.5772 1.1928001E-17
157.7201 1.1937927E-17
157.8630 1.1952899E-17
158.0060 1.1963908E-17
158.1489 1.1964533E-17
158.2918 1.1954805E-17
158.4347 1.1941094E-17
158.5776 1.1932132E-17
158.7205 1.1933611E-17
158.8634 1.1944689E-17
159.0063 1.1958524E-17
159.1492 1.1966509E-17
159.2922 1.1963599E-17
159.4351 1.1951458E-17
159.5780 1.1937499E-17
159.7209 1.1930390E-17
159.8638 1.1934757E-17
160.0067 1.1948353E-17
160.1496 1.1963384E-17
160.2925 1.1971248E-17
160.4355 1.1967749E-17
160.5784 1.1955655E-17
160.7213 1.1942995E-17
160.8642 1.1938158E-17
161.0071 1.1944755E-17
161.1500 1.1959384E-17
161.2929 1.1973681E-17
161.4358 1.1979410E-17
161.5788 1.1973503E-17
161.7217 1.1959985E-17
161.8646 1.1947582E-17
162.0075 1.1944440E-17
162.1504 1.1953168E-17
162.2933 1.1969182E-17
162.4362 1.1983398E-17
162.5791 1.1987653E-17
162.7220 1.1979598E-17
162.8650 1.1964101E-17
163.0079 1.1950321E-17
163.1508 1.1946206E-17
163.2937 1.1953732E-17
163.4366 1.1967762E-17
163.5795 1.1979194E-17
163.7224 1.1980509E-17
163.8653 1.1970357E-17
164.0083 1.1954417E-17
164.1512 1.1942009E-17
164.2941 1.1940503E-17
164.4370 1.1950876E-17
164.5799 1.1967111E-17
164.7228 1.1979781E-17
164.8657 1.1981647E-17
165.0086 1.1971937E-17
165.1515 1.1956726E-17
165.2944 1.1945221E-17
165.4374 1.1944223E-17
165.5803 1.1954097E-17
165.7232 1.1968654E-17
165.8661 1.1978988E-17
166.0090 1.1978920E-17
166.1519 1.1968738E-17
166.2948 1.1954997E-17
166.4377 1.1946529E-17
166.5807 1.1949088E-17
166.7236 1.1961885E-17
166.8665 1.1978086E-17
167.0094 1.1988942E-17
167.1523 1.1989040E-17
167.2952 1.1979493E-17
167.4381 1.1967152E-17
167.5810 1.1960378E-17
167.7240 1.1963947E-17
167.8669 1.1976200E-17
168.0098 1.1990134E-17
168.1527 1.1997735E-17
168.2956 1.1994900E-17
168.4385 1.1983905E-17
168.5814 1.1971976E-17
168.7243 1.1966814E-17
168.8672 1.1971846E-17
169.0102 1.1984116E-17
169.1531 1.1996085E-17
169.2960 1.2000247E-17
169.4389 1.1993736E-17
169.5818 1.1980093E-17
169.7247 1.1967136E-17
169.8676 1.1962210E-17
170.0105 1.1967746E-17
170.1535 1.1979819E-17
170.2964 1.1990612E-17
170.4393 1.1993251E-17
170.5822 1.1986068E-17
170.7251 1.1973658E-17
170.8680 1.1964079E-17
171.0109 1.1963887E-17
171.1538 1.1974038E-17
171.2968 1.1989195E-17
171.4397 1.2000871E-17
171.5826 1.2002554E-17
171.7255 1.1993669E-17
171.8684 1.1979977E-17
172.0113 1.1970132E-17
172.1542 1.1970471E-17
172.2971 1.1981167E-17
172.4400 1.1996119E-17
172.5829 1.2006647E-17
172.7259 1.2006759E-17
172.8688 1.1996830E-17
173.0117 1.1983409E-17
173.1546 1.1975295E-17
173.2975 1.1978192E-17
173.4404 1.1991212E-17
173.5833 1.2007338E-17
173.7262 1.2017584E-17
173.8692 1.2016379E-17
174.0121 1.2004924E-17
174.1550 1.1990493E-17
174.2979 1.1982097E-17
174.4408 1.1985092E-17
174.5837 1.1997993E-17
174.7266 1.2013383E-17
174.8695 1.2022380E-17
175.0125 1.2019967E-17
175.1554 1.2007992E-17
175.2983 1.1994022E-17
175.4412 1.1986793E-17
175.5841 1.1990954E-17
175.7270 1.2004313E-17
175.8699 1.2019179E-17
176.0128 1.2027026E-17
176.1557 1.2023610E-17
176.2987 1.2011493E-17
176.4416 1.1998465E-17
176.5845 1.1992838E-17
176.7274 1.1998457E-17
176.8703 1.2012439E-17
177.0132 1.2026960E-17
177.1561 1.2033984E-17
177.2990 1.2030062E-17
177.4420 1.2018306E-17
177.5849 1.2006390E-17
177.7278 1.2001827E-17
177.8707 1.2007406E-17
178.0136 1.2019570E-17
178.1565 1.2030660E-17
178.2994 1.2033652E-17
178.4423 1.2026470E-17
178.5853 1.2013249E-17