  -7.200000        9.8404491E-18
  -7.057088        9.8577115E-18
  -6.914176        9.8836503E-18
  -6.771265        9.9064780E-18
  -6.628353        9.9180502E-18
  -6.485441        9.9184258E-18
  -6.342530        9.9154347E-18
  -6.199618        9.9195425E-18
  -6.056706        9.9371788E-18
  -5.913795        9.9665635E-18
  -5.770883        9.9985878E-18
  -5.627971        1.0022197E-17
  -5.485059        1.0031017E-17
  -5.342147        1.0027197E-17
  -5.199236        1.0020147E-17
  -5.056324        1.0020922E-17
  -4.913413        1.0035631E-17
  -4.770501        1.0061870E-17
  -4.627589        1.0090282E-17
  -4.484677        1.0110279E-17
  -4.341765        1.0116458E-17
  -4.198854        1.0111812E-17
  -4.055942        1.0105824E-17
  -3.913030        1.0108627E-17
  -3.770118        1.0124818E-17
  -3.627207        1.0150662E-17
  -3.484295        1.0176392E-17
  -3.341383        1.0192188E-17
  -3.198472        1.0194166E-17
  -3.055560        1.0186755E-17
  -2.912648        1.0179998E-17
  -2.769737        1.0183450E-17
  -2.626825        1.0200379E-17
  -2.483913        1.0225809E-17
  -2.341001        1.0249578E-17
  -2.198090        1.0262546E-17
  -2.055178        1.0262165E-17
  -1.912266        1.0254019E-17
  -1.769354        1.0248405E-17
  -1.626443        1.0254062E-17
  -1.483531        1.0272848E-17
  -1.340619        1.0298669E-17
  -1.197708        1.0321245E-17
  -1.054796        1.0332459E-17
 -0.9118841        1.0331372E-17
 -0.7689723        1.0324836E-17
 -0.6260606        1.0323322E-17
 -0.4831489        1.0334474E-17
 -0.3402372        1.0358358E-17
 -0.1973254        1.0387293E-17
 -5.4413714E-02    1.0410401E-17
  8.8498011E-02    1.0420147E-17
  0.2314097        1.0416871E-17
  0.3743215        1.0408578E-17
  0.5172332        1.0406079E-17
  0.6601449        1.0416444E-17
  0.8030567        1.0438729E-17
  0.9459684        1.0464592E-17
   1.088880        1.0483416E-17
   1.231792        1.0488830E-17
   1.374704        1.0482649E-17
   1.517615        1.0473816E-17
   1.660527        1.0472961E-17
   1.803439        1.0485883E-17
   1.946350        1.0509903E-17
   2.089262        1.0535340E-17
   2.232174        1.0551261E-17
   2.375086        1.0552021E-17
   2.517997        1.0540681E-17
   2.660909        1.0527198E-17
   2.803821        1.0522493E-17
   2.946733        1.0531963E-17
   3.089644        1.0552347E-17
   3.232556        1.0573837E-17
   3.375468        1.0586135E-17
   3.518379        1.0584791E-17
   3.661291        1.0573951E-17
   3.804203        1.0563867E-17
   3.947115        1.0564642E-17
   4.090026        1.0580013E-17
   4.232938        1.0604915E-17
   4.375850        1.0628339E-17
   4.518762        1.0639740E-17
   4.661673        1.0635176E-17
   4.804585        1.0619478E-17
   4.947497        1.0603185E-17
   5.090408        1.0596132E-17
   5.233320        1.0601572E-17
   5.376232        1.0614385E-17
   5.519144        1.0624429E-17
   5.662055        1.0622969E-17
   5.804967        1.0608233E-17
   5.947879        1.0586745E-17
   6.090790        1.0569572E-17
   6.233702        1.0565799E-17
   6.376614        1.0577132E-17
   6.519526        1.0596932E-17
   6.662437        1.0614215E-17
   6.805349        1.0620203E-17
   6.948261        1.0613465E-17
   7.091173        1.0600554E-17
   7.234084        1.0591810E-17
   7.376996        1.0594911E-17
   7.519908        1.0610105E-17
   7.662819        1.0630034E-17
   7.805731        1.0644208E-17
   7.948643        1.0645403E-17
   8.091555        1.0634051E-17
   8.234467        1.0617952E-17
   8.377378        1.0607498E-17
   8.520289        1.0609317E-17
   8.663201        1.0622232E-17
   8.806113        1.0637995E-17
   8.949025        1.0646356E-17
   9.091937        1.0641374E-17
   9.234848        1.0625120E-17
   9.377760        1.0606515E-17
   9.520672        1.0596002E-17
   9.663584        1.0599287E-17
   9.806496        1.0613959E-17
   9.949407        1.0631031E-17
   10.09232        1.0640459E-17
   10.23523        1.0637264E-17
   10.37814        1.0624515E-17
   10.52105        1.0611371E-17
   10.66397        1.0607356E-17
   10.80688        1.0616405E-17
   10.94979        1.0634308E-17
   11.09270        1.0651165E-17
   11.23561        1.0657382E-17
   11.37852        1.0649567E-17
   11.52144        1.0632742E-17
   11.66435        1.0617474E-17
   11.80726        1.0613654E-17
   11.95017        1.0624644E-17
   12.09308        1.0645343E-17
   12.23599        1.0665331E-17
   12.37891        1.0675190E-17
   12.52182        1.0672166E-17
   12.66473        1.0661732E-17
   12.80764        1.0654127E-17
   12.95055        1.0657947E-17
   13.09346        1.0674717E-17
   13.23638        1.0697755E-17
   13.37929        1.0716047E-17
   13.52220        1.0720825E-17
   13.66511        1.0710869E-17
   13.80802        1.0693331E-17
   13.95094        1.0679549E-17
   14.09385        1.0678381E-17
   14.23676        1.0691024E-17
   14.37967        1.0710457E-17
   14.52258        1.0725806E-17
   14.66549        1.0728968E-17
   14.80841        1.0719510E-17
   14.95132        1.0704859E-17
   15.09423        1.0695717E-17
   15.23714        1.0699453E-17
   15.38005        1.0715537E-17
   15.52296        1.0735729E-17
   15.66588        1.0748974E-17
   15.80879        1.0748005E-17
   15.95170        1.0733703E-17
   16.09461        1.0714576E-17
   16.23752        1.0701685E-17
   16.38043        1.0702102E-17
   16.52335        1.0714823E-17
   16.66626        1.0731594E-17
   16.80917        1.0742097E-17
   16.95208        1.0740338E-17
   17.09499        1.0728338E-17
   17.23791        1.0714921E-17
   17.38082        1.0710334E-17
   17.52373        1.0719997E-17
   17.66664        1.0741166E-17
   17.80955        1.0764528E-17
   17.95246        1.0779750E-17
   18.09538        1.0781603E-17
   18.23829        1.0772946E-17
   18.38120        1.0762802E-17
   18.52411        1.0760692E-17
   18.66702        1.0770735E-17
   18.80993        1.0789078E-17
   18.95285        1.0806230E-17
   19.09576        1.0812861E-17
   19.23867        1.0805540E-17
   19.38158        1.0788880E-17
   19.52449        1.0772833E-17
   19.66740        1.0766737E-17
   19.81032        1.0773771E-17
   19.95323        1.0789177E-17
   20.09614        1.0803316E-17
   20.23905        1.0807690E-17
   20.38196        1.0800236E-17
   20.52488        1.0786661E-17
   20.66779        1.0776988E-17
   20.81070        1.0779411E-17
   20.95361        1.0795207E-17
   21.09652        1.0817827E-17
   21.23943        1.0836713E-17
   21.38235        1.0843574E-17
   21.52526        1.0837288E-17
   21.66817        1.0824453E-17
   21.81108        1.0815280E-17
   21.95399        1.0817288E-17
   22.09690        1.0830684E-17
   22.23981        1.0848216E-17
   22.38273        1.0859642E-17
   22.52564        1.0858069E-17
   22.66855        1.0844328E-17
   22.81146        1.0826679E-17
   22.95437        1.0815994E-17
   23.09729        1.0819295E-17
   23.24020        1.0835550E-17
   23.38311        1.0856280E-17
   23.52602        1.0870612E-17
   23.66893        1.0871751E-17
   23.81184        1.0860965E-17
   23.95476        1.0846684E-17
   24.09767        1.0839279E-17
   24.24058        1.0844688E-17
   24.38349        1.0860759E-17
   24.52640        1.0878543E-17
   24.66932        1.0887762E-17
   24.81223        1.0883137E-17
   24.95514        1.0867741E-17
   25.09805        1.0851328E-17
   25.24096        1.0844608E-17
   25.38387        1.0852906E-17
   25.52678        1.0873010E-17
   25.66970        1.0895099E-17
   25.81261        1.0908572E-17
   25.95552        1.0908283E-17
   26.09843        1.0897434E-17
   26.24134        1.0885413E-17
   26.38426        1.0881931E-17
   26.52717        1.0891020E-17
   26.67008        1.0908538E-17
   26.81299        1.0924681E-17
   26.95590        1.0929963E-17
   27.09881        1.0921042E-17
   27.24173        1.0902852E-17
   27.38464        1.0885749E-17
   27.52755        1.0879407E-17
   27.67046        1.0887132E-17
   27.81337        1.0904028E-17
   27.95629        1.0920084E-17
   28.09920        1.0926293E-17
   28.24211        1.0920087E-17
   28.38502        1.0906811E-17
   28.52793        1.0896368E-17
   28.67084        1.0897106E-17
   28.81376        1.0910673E-17
   28.95667        1.0930968E-17
   29.09958        1.0947809E-17
   29.24249        1.0953075E-17
   29.38540        1.0945582E-17
   29.52831        1.0931742E-17
   29.67122        1.0921601E-17
   29.81414        1.0922710E-17
   29.95705        1.0935530E-17
   30.09996        1.0953196E-17
   30.24287        1.0965766E-17
   30.38578        1.0966349E-17
   30.52870        1.0955393E-17
   30.67161        1.0940501E-17
   30.81452        1.0931882E-17
   30.95743        1.0936206E-17
   31.10034        1.0952588E-17
   31.24325        1.0973150E-17
   31.38617        1.0987811E-17
   31.52908        1.0990381E-17
   31.67199        1.0982246E-17
   31.81490        1.0971410E-17
   31.95781        1.0967450E-17
   32.10072        1.0975496E-17
   32.24364        1.0992890E-17
   32.38655        1.1010630E-17
   32.52946        1.1018717E-17
   32.67237        1.1012221E-17
   32.81528        1.0994346E-17
   32.95819        1.0974649E-17
   33.10111        1.0963433E-17
   33.24402        1.0965708E-17
   33.38693        1.0978351E-17
   33.52984        1.0992194E-17
   33.67275        1.0997750E-17
   33.81567        1.0991124E-17
   33.95858        1.0976485E-17
   34.10149        1.0963595E-17
   34.24440        1.0961865E-17
   34.38731        1.0974539E-17
   34.53022        1.0996538E-17
   34.67313        1.1017315E-17
   34.81605        1.1027021E-17
   34.95896        1.1022321E-17
   35.10187        1.1008308E-17
   35.24478        1.0995412E-17
   35.38770        1.0993130E-17
   35.53061        1.1004344E-17
   35.67352        1.1023661E-17
   35.81643        1.1040764E-17
   35.95934        1.1046717E-17
   36.10225        1.1039437E-17
   36.24516        1.1025007E-17
   36.38808        1.1014017E-17
   36.53099        1.1015158E-17
   36.67390        1.1029915E-17
   36.81681        1.1051579E-17
   36.95972        1.1069177E-17
   37.10263        1.1073964E-17
   37.24555        1.1064583E-17
   37.38846        1.1047794E-17
   37.53137        1.1034363E-17
   37.67428        1.1032583E-17
   37.81719        1.1043370E-17
   37.96011        1.1059842E-17
   38.10302        1.1071635E-17
   38.24593        1.1071310E-17
   38.38884        1.1058950E-17
   38.53175        1.1042186E-17
   38.67466        1.1031621E-17
   38.81758        1.1034431E-17
   38.96049        1.1050031E-17
   39.10340        1.1070412E-17
   39.24631        1.1084934E-17
   39.38922        1.1086683E-17
   39.53214        1.1076532E-17
   39.67505        1.1062475E-17
   39.81796        1.1054652E-17
   39.96087        1.1059110E-17
   40.10378        1.1074103E-17
   40.24669        1.1091159E-17
   40.38961        1.1100278E-17
   40.53252        1.1096072E-17
   40.67543        1.1081109E-17
   40.81834        1.1064426E-17
   40.96125        1.1056098E-17
   41.10416        1.1061178E-17
   41.24707        1.1076688E-17
   41.38999        1.1093495E-17
   41.53290        1.1101935E-17
   41.67581        1.1097752E-17
   41.81872        1.1084740E-17
   41.96163        1.1072442E-17
   42.10455        1.1070319E-17
   42.24746        1.1081919E-17
   42.39037        1.1102615E-17
   42.53328        1.1122311E-17
   42.67619        1.1131495E-17
   42.81910        1.1126963E-17
   42.96202        1.1113726E-17
   43.10493        1.1101924E-17
   43.24784        1.1100598E-17
   43.39075        1.1112124E-17
   43.53366        1.1130689E-17
   43.67657        1.1145794E-17
   43.81948        1.1148681E-17
   43.96240        1.1137774E-17
   44.10531        1.1119819E-17
   44.24822        1.1105987E-17
   44.39113        1.1105244E-17
   44.53405        1.1118989E-17
   44.67696        1.1140229E-17
   44.81987        1.1157788E-17
   44.96278        1.1163036E-17
   45.10569        1.1155070E-17
   45.24860        1.1141204E-17
   45.39151        1.1132432E-17
   45.53443        1.1136621E-17
   45.67734        1.1153564E-17
   45.82025        1.1174907E-17
   45.96316        1.1189053E-17
   46.10608        1.1188119E-17
   46.24899        1.1172732E-17
   46.39190        1.1151767E-17
   46.53481        1.1137141E-17
   46.67772        1.1136778E-17
   46.82063        1.1149963E-17
   46.96354        1.1167884E-17
   47.10646        1.1179042E-17
   47.24937        1.1176246E-17
   47.39228        1.1160985E-17
   47.53519        1.1142521E-17
   47.67810        1.1132266E-17
   47.82101        1.1136841E-17
   47.96392        1.1154026E-17
   48.10684        1.1174065E-17
   48.24975        1.1185551E-17
   48.39266        1.1182327E-17
   48.53557        1.1167243E-17
   48.67849        1.1150469E-17
   48.82140        1.1143393E-17
   48.96431        1.1151780E-17
   49.10722        1.1172316E-17
   49.25013        1.1194631E-17
   49.39304        1.1207557E-17
   49.53595        1.1205827E-17
   49.67887        1.1193162E-17
   49.82178        1.1179877E-17
   49.96469        1.1176505E-17
   50.10760        1.1187296E-17
   50.25051        1.1207582E-17
   50.39342        1.1226594E-17
   50.53634        1.1234019E-17
   50.67925        1.1226309E-17
   50.82216        1.1208877E-17
   50.96507        1.1192853E-17
   51.10798        1.1188356E-17
   51.25090        1.1198385E-17
   51.39381        1.1217052E-17
   51.53672        1.1233224E-17
   51.67963        1.1237371E-17
   51.82254        1.1227418E-17
   51.96545        1.1210038E-17
   52.10837        1.1196588E-17
   52.25128        1.1196153E-17
   52.39419        1.1209965E-17
   52.53710        1.1230615E-17
   52.68001        1.1246564E-17
   52.82293        1.1249197E-17
   52.96584        1.1238131E-17
   53.10875        1.1221490E-17
   53.25166        1.1210949E-17
   53.39457        1.1214571E-17
   53.53748        1.1231783E-17
   53.68040        1.1253614E-17
   53.82331        1.1268061E-17
   53.96622        1.1267377E-17
   54.10913        1.1252804E-17
   54.25204        1.1233869E-17
   54.39495        1.1222621E-17
   54.53786        1.1226310E-17
   54.68078        1.1242963E-17
   54.82369        1.1262579E-17
   54.96660        1.1273258E-17
   55.10951        1.1268541E-17
   55.25242        1.1251475E-17
   55.39534        1.1232903E-17
   55.53825        1.1224949E-17
   55.68116        1.1233636E-17
   55.82407        1.1255144E-17
   55.96698        1.1277993E-17
   56.10989        1.1289895E-17
   56.25281        1.1285136E-17
   56.39572        1.1268015E-17
   56.53863        1.1250234E-17
   56.68154        1.1243798E-17
   56.82445        1.1253721E-17
   56.96737        1.1274957E-17
   57.11028        1.1295455E-17
   57.25319        1.1303490E-17
   57.39610        1.1294839E-17
   57.53901        1.1275425E-17
   57.68192        1.1257820E-17
   57.82484        1.1253679E-17
   57.96775        1.1266690E-17
   58.11066        1.1290310E-17
   58.25357        1.1311682E-17
   58.39648        1.1319364E-17
   58.53939        1.1310200E-17
   58.68230        1.1291182E-17
   58.82522        1.1275160E-17
   58.96813        1.1273027E-17
   59.11104        1.1287091E-17
   59.25395        1.1309683E-17
   59.39687        1.1327820E-17
   59.53978        1.1331090E-17
   59.68269        1.1317983E-17
   59.82560        1.1296802E-17
   59.96851        1.1280621E-17
   60.11142        1.1279357E-17
   60.25433        1.1293787E-17
   60.39725        1.1315131E-17
   60.54016        1.1330463E-17
   60.68307        1.1330627E-17
   60.82598        1.1315851E-17
   60.96889        1.1295618E-17
   61.11180        1.1282894E-17
   61.25471        1.1286239E-17
   61.39763        1.1304598E-17
   61.54054        1.1327961E-17
   61.68345        1.1343485E-17
   61.82636        1.1343311E-17
   61.96928        1.1329330E-17
   62.11219        1.1311963E-17
   62.25510        1.1303726E-17
   62.39801        1.1311507E-17
   62.54092        1.1332306E-17
   62.68383        1.1355031E-17
   62.82674        1.1367286E-17
   62.96966        1.1362973E-17
   63.11257        1.1346063E-17
   63.25548        1.1328205E-17
   63.39839        1.1321619E-17
   63.54131        1.1331616E-17
   63.68422        1.1353325E-17
   63.82713        1.1374656E-17
   63.97004        1.1383689E-17
   64.11295        1.1375992E-17
   64.25586        1.1357364E-17
   64.39877        1.1340304E-17
   64.54169        1.1336347E-17
   64.68460        1.1348939E-17
   64.82751        1.1371235E-17
   64.97042        1.1390201E-17
   65.11333        1.1394539E-17
   65.25625        1.1381640E-17
   65.39915        1.1359258E-17
   65.54207        1.1340889E-17
   65.68498        1.1337615E-17
   65.82789        1.1351384E-17
   65.97080        1.1373828E-17
   66.11372        1.1391380E-17
   66.25663        1.1393587E-17
   66.39954        1.1379551E-17
   66.54245        1.1358565E-17
   66.68536        1.1344503E-17
   66.82828        1.1347360E-17
   66.97118        1.1367081E-17
   67.11410        1.1393461E-17
   67.25701        1.1412206E-17
   67.39992        1.1413516E-17
   67.54283        1.1397980E-17
   67.68575        1.1376201E-17
   67.82866        1.1362358E-17
   67.97157        1.1365608E-17
   68.11448        1.1384531E-17
   68.25739        1.1408016E-17
   68.40031        1.1422034E-17
   68.54321        1.1418206E-17
   68.68613        1.1398955E-17
   68.82904        1.1376093E-17
   68.97195        1.1363715E-17
   69.11486        1.1369690E-17
   69.25777        1.1390918E-17
   69.40069        1.1415236E-17
   69.54359        1.1428804E-17
   69.68651        1.1424494E-17
   69.82942        1.1406179E-17
   69.97233        1.1386328E-17
   70.11524        1.1378381E-17
   70.25816        1.1388545E-17
   70.40107        1.1412006E-17
   70.54398        1.1435839E-17
   70.68689        1.1446849E-17
   70.82980        1.1439552E-17
   70.97272        1.1419460E-17
   71.11562        1.1399672E-17
   71.25854        1.1392879E-17
   71.40145        1.1403666E-17
   71.54436        1.1425786E-17
   71.68727        1.1446075E-17
   71.83018        1.1452560E-17
   71.97310        1.1441827E-17
   72.11600        1.1421129E-17
   72.25892        1.1403947E-17
   72.40183        1.1401748E-17
   72.54475        1.1416963E-17
   72.68765        1.1441494E-17
   72.83057        1.1461648E-17
   72.97348        1.1466477E-17
   73.11639        1.1454427E-17
   73.25930        1.1434221E-17
   73.40221        1.1419449E-17
   73.54513        1.1420196E-17
   73.68803        1.1436827E-17
   73.83095        1.1459759E-17
   73.97386        1.1475362E-17
   74.11678        1.1474369E-17
   74.25968        1.1457638E-17
   74.40260        1.1435712E-17
   74.54551        1.1422437E-17
   74.68842        1.1426503E-17
   74.83133        1.1446116E-17
   74.97424        1.1470058E-17
   75.11716        1.1484504E-17
   75.26006        1.1481458E-17
   75.40298        1.1463633E-17
   75.54589        1.1442782E-17
   75.68880        1.1432486E-17
   75.83171        1.1439795E-17
   75.97462        1.1460854E-17
   76.11754        1.1483196E-17
   76.26044        1.1493350E-17
   76.40336        1.1485122E-17
   76.54627        1.1463473E-17
   76.68919        1.1441623E-17
   76.83209        1.1433080E-17
   76.97501        1.1443460E-17
   77.11792        1.1467062E-17
   77.26083        1.1490319E-17
   77.40374        1.1500040E-17
   77.54665        1.1491430E-17
   77.68957        1.1471024E-17
   77.83247        1.1452697E-17
   77.97539        1.1449210E-17
   78.11830        1.1464379E-17
   78.26122        1.1490685E-17
   78.40412        1.1513748E-17
   78.54704        1.1520994E-17
   78.68995        1.1509246E-17
   78.83286        1.1486618E-17
   78.97577        1.1467571E-17
   79.11868        1.1464141E-17
   79.26160        1.1478646E-17
   79.40450        1.1502319E-17
   79.54742        1.1520694E-17
   79.69033        1.1522432E-17
   79.83324        1.1506270E-17
   79.97615        1.1481825E-17
   80.11906        1.1463799E-17
   80.26198        1.1463095E-17
   80.40488        1.1480254E-17
   80.54780        1.1505177E-17
   80.69071        1.1523276E-17
   80.83363        1.1524327E-17
   80.97653        1.1508592E-17
   81.11945        1.1486554E-17
   81.26236        1.1472438E-17
   81.40527        1.1475491E-17
   81.54818        1.1494350E-17
   81.69109        1.1517915E-17
   81.83401        1.1532167E-17
   81.97691        1.1528745E-17
   82.11983        1.1510058E-17
   82.26274        1.1487814E-17
   82.40565        1.1475888E-17
   82.54856        1.1481891E-17
   82.69147        1.1502599E-17
   82.83439        1.1525992E-17
   82.97730        1.1538638E-17
   83.12021        1.1533901E-17
   83.26312        1.1515937E-17
   83.40604        1.1497059E-17
   83.54894        1.1490129E-17
   83.69186        1.1500614E-17
   83.83477        1.1523211E-17
   83.97768        1.1545087E-17
   84.12059        1.1553742E-17
   84.26350        1.1544665E-17
   84.40642        1.1524109E-17
   84.54933        1.1505258E-17
   84.69224        1.1500164E-17
   84.83515        1.1512370E-17
   84.97807        1.1534754E-17
   85.12097        1.1553914E-17
   85.26389        1.1558402E-17
   85.40680        1.1545774E-17
   85.54971        1.1524122E-17
   85.69262        1.1507158E-17
   85.83553        1.1505824E-17
   85.97845        1.1521588E-17
   86.12135        1.1545521E-17
   86.26427        1.1563734E-17
   86.40718        1.1565869E-17
   86.55009        1.1551441E-17
   86.69300        1.1530157E-17
   86.83591        1.1515997E-17
   86.97883        1.1518656E-17
   87.12174        1.1537574E-17
   87.26465        1.1562202E-17
   87.40756        1.1578378E-17
   87.55048        1.1576928E-17
   87.69338        1.1559264E-17
   87.83630        1.1536557E-17
   87.97921        1.1522981E-17
   88.12212        1.1527122E-17
   88.26503        1.1546783E-17
   88.40794        1.1570326E-17
   88.55086        1.1583763E-17
   88.69377        1.1579253E-17
   88.83668        1.1559873E-17
   88.97959        1.1537734E-17
   89.12251        1.1526613E-17
   89.26541        1.1533570E-17
   89.40833        1.1554648E-17
   89.55124        1.1577264E-17
   89.69415        1.1587843E-17
   89.83706        1.1580046E-17
   89.97997        1.1558615E-17
   90.12289        1.1536511E-17
   90.26580        1.1527090E-17
   90.40871        1.1536082E-17
   90.55162        1.1558207E-17
   90.69453        1.1580479E-17
   90.83744        1.1590135E-17
   90.98035        1.1582376E-17
   91.12327        1.1563212E-17
   91.26618        1.1545728E-17
   91.40909        1.1542061E-17
   91.55200        1.1555989E-17
   91.69492        1.1580636E-17
   91.83783        1.1602657E-17
   91.98074        1.1610324E-17
   92.12365        1.1600594E-17
   92.26656        1.1580867E-17
   92.40947        1.1564401E-17
   92.55238        1.1562216E-17
   92.69530        1.1576412E-17
   92.83821        1.1598980E-17
   92.98112        1.1616765E-17
   93.12403        1.1619523E-17
   93.26694        1.1606160E-17
   93.40986        1.1585344E-17
   93.55276        1.1570152E-17
   93.69568        1.1570069E-17
   93.83859        1.1585219E-17
   93.98150        1.1606354E-17
   94.12441        1.1620569E-17
   94.26733        1.1619238E-17
   94.41024        1.1603303E-17
   94.55315        1.1582685E-17
   94.69606        1.1570215E-17
   94.83897        1.1573779E-17
   94.98188        1.1591501E-17
   95.12479        1.1612901E-17
   95.26771        1.1625301E-17
   95.41062        1.1621548E-17
   95.55353        1.1604356E-17
   95.69644        1.1584579E-17
   95.83936        1.1574525E-17
   95.98227        1.1580386E-17
   96.12518        1.1598423E-17
   96.26809        1.1617251E-17
   96.41100        1.1624830E-17
   96.55391        1.1615878E-17
   96.69682        1.1595190E-17
   96.83974        1.1574816E-17
   96.98265        1.1566792E-17
   97.12556        1.1575879E-17
   97.26847        1.1596700E-17
   97.41138        1.1617043E-17
   97.55430        1.1625314E-17
   97.69720        1.1617595E-17
   97.84012        1.1600020E-17
   97.98303        1.1585006E-17
   98.12594        1.1583637E-17
   98.26885        1.1598831E-17
   98.41177        1.1623454E-17
   98.55468        1.1644542E-17
   98.69759        1.1651079E-17
   98.84050        1.1640612E-17
   98.98341        1.1620714E-17
   99.12633        1.1604377E-17
   99.26923        1.1602159E-17
   99.41215        1.1615828E-17
   99.55506        1.1637341E-17
   99.69797        1.1653785E-17
   99.84088        1.1655244E-17
   99.98380        1.1640838E-17
   100.1267        1.1619284E-17
   100.2696        1.1603621E-17
   100.4125        1.1603343E-17
   100.5554        1.1618676E-17
   100.6984        1.1640469E-17
   100.8413        1.1655737E-17
   100.9842        1.1655510E-17
   101.1271        1.1640203E-17
   101.2700        1.1619313E-17
   101.4129        1.1605629E-17
   101.5558        1.1607500E-17
   101.6987        1.1623831E-17
   101.8416        1.1644828E-17
   101.9846        1.1657975E-17
   102.1275        1.1655628E-17
   102.2704        1.1639589E-17
   102.4133        1.1619937E-17
   102.5562        1.1608855E-17
   102.6991        1.1613235E-17
   102.8420        1.1630552E-17
   102.9849        1.1650477E-17
   103.1279        1.1661226E-17
   103.2708        1.1656742E-17
   103.4137        1.1640350E-17
   103.5566        1.1622688E-17
   103.6995        1.1615200E-17
   103.8424        1.1623167E-17
   103.9853        1.1642535E-17
   104.1282        1.1662410E-17
   104.2711        1.1671705E-17
   104.4141        1.1665857E-17
   104.5570        1.1649527E-17
   104.6999        1.1633676E-17
   104.8428        1.1628830E-17
   104.9857        1.1638655E-17
   105.1286        1.1657758E-17
   105.2715        1.1675055E-17
   105.4144        1.1680592E-17
   105.5574        1.1671673E-17
   105.7003        1.1654518E-17
   105.8432        1.1640459E-17
   105.9861        1.1638995E-17
   106.1290        1.1651955E-17
   106.2719        1.1672337E-17
   106.4148        1.1688527E-17
   106.5577        1.1691343E-17
   106.7006        1.1679592E-17
   106.8436        1.1660765E-17
   106.9865        1.1646457E-17
   107.1294        1.1645277E-17
   107.2723        1.1657615E-17
   107.4152        1.1675429E-17
   107.5581        1.1687197E-17
   107.7010        1.1685028E-17
   107.8439        1.1669567E-17
   107.9869        1.1649721E-17
   108.1298        1.1637317E-17
   108.2727        1.1639957E-17
   108.4156        1.1656383E-17
   108.5585        1.1677185E-17
   108.7014        1.1690452E-17
   108.8443        1.1688925E-17
   108.9872        1.1674354E-17
   109.1301        1.1656397E-17
   109.2731        1.1646737E-17
   109.4160        1.1651990E-17
   109.5589        1.1669687E-17
   109.7018        1.1689778E-17
   109.8447        1.1700734E-17
   109.9876        1.1696567E-17
   110.1305        1.1680480E-17
   110.2734        1.1662965E-17
   110.4164        1.1655466E-17
   110.5593        1.1663463E-17
   110.7022        1.1683129E-17
   110.8451        1.1703607E-17
   110.9880        1.1713519E-17
   111.1309        1.1707776E-17
   111.2738        1.1690595E-17
   111.4167        1.1672916E-17
   111.5596        1.1665808E-17
   111.7026        1.1673830E-17
   111.8455        1.1692383E-17
   111.9884        1.1710590E-17
   112.1313        1.1717950E-17
   112.2742        1.1710707E-17
   112.4171        1.1694101E-17
   112.5600        1.1679133E-17
   112.7029        1.1675854E-17
   112.8458        1.1687246E-17
   112.9888        1.1707402E-17
   113.1317        1.1725087E-17
   113.2746        1.1730506E-17
   113.4175        1.1721174E-17
   113.5604        1.1703348E-17
   113.7033        1.1688189E-17
   113.8462        1.1684998E-17
   113.9891        1.1695648E-17
   114.1321        1.1713571E-17
   114.2750        1.1727863E-17
   114.4179        1.1729986E-17
   114.5608        1.1718968E-17
   114.7037        1.1701955E-17
   114.8466        1.1689791E-17
   114.9895        1.1690367E-17
   115.1324        1.1703793E-17
   115.2754        1.1722331E-17
   115.4183        1.1735129E-17
   115.5612        1.1734835E-17
   115.7041        1.1722079E-17
   115.8470        1.1705071E-17
   115.9899        1.1694587E-17
   116.1328        1.1697392E-17
   116.2757        1.1712131E-17
   116.4186        1.1730179E-17
   116.5616        1.1740920E-17
   116.7045        1.1738237E-17
   116.8474        1.1724237E-17
   116.9903        1.1707953E-17
   117.1332        1.1699801E-17
   117.2761        1.1705198E-17
   117.4190        1.1721225E-17
   117.5619        1.1738408E-17
   117.7048        1.1746502E-17
   117.8478        1.1740806E-17
   117.9907        1.1725089E-17
   118.1336        1.1709384E-17
   118.2765        1.1703917E-17
   118.4194        1.1712896E-17
   118.5623        1.1731915E-17
   118.7052        1.1750584E-17
   118.8481        1.1758785E-17
   118.9911        1.1752789E-17
   119.1340        1.1737487E-17
   119.2769        1.1723403E-17
   119.4198        1.1720270E-17
   119.5627        1.1731075E-17
   119.7056        1.1750205E-17
   119.8485        1.1766815E-17
   119.9914        1.1771410E-17
   120.1343        1.1761638E-17
   120.2773        1.1743782E-17
   120.4202        1.1729034E-17
   120.5631        1.1726778E-17
   120.7060        1.1738948E-17
   120.8489        1.1758857E-17
   120.9918        1.1775227E-17
   121.1347        1.1778968E-17
   121.2776        1.1768634E-17
   121.4206        1.1751242E-17
   121.5635        1.1737994E-17
   121.7064        1.1737471E-17
   121.8493        1.1750436E-17
   121.9922        1.1769378E-17
   122.1351        1.1783062E-17
   122.2780        1.1783335E-17
   122.4209        1.1770066E-17
   122.5639        1.1751237E-17