  -7.200000       -4.4358929E-18
  -7.057088       -4.4416340E-18
  -6.914176       -4.4525726E-18
  -6.771265       -4.4677923E-18
  -6.628353       -4.4860842E-18
  -6.485441       -4.5060631E-18
  -6.342530       -4.5262914E-18
  -6.199618       -4.5454129E-18
  -6.056706       -4.5622704E-18
  -5.913795       -4.5760086E-18
  -5.770883       -4.5861420E-18
  -5.627971       -4.5925899E-18
  -5.485059       -4.5956732E-18
  -5.342147       -4.5960756E-18
  -5.199236       -4.5947674E-18
  -5.056324       -4.5929100E-18
  -4.913413       -4.5917379E-18
  -4.770501       -4.5924393E-18
  -4.627589       -4.5960330E-18
  -4.484677       -4.6032709E-18
  -4.341765       -4.6145561E-18
  -4.198854       -4.6298949E-18
  -4.055942       -4.6488932E-18
  -3.913030       -4.6707829E-18
  -3.770118       -4.6944903E-18
  -3.627207       -4.7187362E-18
  -3.484295       -4.7421582E-18
  -3.341383       -4.7634391E-18
  -3.198472       -4.7814402E-18
  -3.055560       -4.7953104E-18
  -2.912648       -4.8045735E-18
  -2.769737       -4.8091727E-18
  -2.626825       -4.8094791E-18
  -2.483913       -4.8062544E-18
  -2.341001       -4.8005737E-18
  -2.198090       -4.7937259E-18
  -2.055178       -4.7870878E-18
  -1.912266       -4.7819923E-18
  -1.769354       -4.7796080E-18
  -1.626443       -4.7808285E-18
  -1.483531       -4.7861973E-18
  -1.340619       -4.7958588E-18
  -1.197708       -4.8095515E-18
  -1.054796       -4.8266357E-18
 -0.9118841       -4.8461551E-18
 -0.7689723       -4.8669285E-18
 -0.6260606       -4.8876634E-18
 -0.4831489       -4.9070716E-18
 -0.3402372       -4.9239977E-18
 -0.1973254       -4.9375263E-18
 -5.4413714E-02   -4.9470699E-18
  8.8498011E-02   -4.9524283E-18
  0.2314097       -4.9538097E-18
  0.3743215       -4.9518129E-18
  0.5172332       -4.9473693E-18
  0.6601449       -4.9416514E-18
  0.8030567       -4.9359567E-18
  0.9459684       -4.9315805E-18
   1.088880       -4.9296850E-18
   1.231792       -4.9311839E-18
   1.374704       -4.9366503E-18
   1.517615       -4.9462646E-18
   1.660527       -4.9597948E-18
   1.803439       -4.9766259E-18
   1.946350       -4.9958185E-18
   2.089262       -5.0162069E-18
   2.232174       -5.0365113E-18
   2.375086       -5.0554640E-18
   2.517997       -5.0719278E-18
   2.660909       -5.0850068E-18
   2.803821       -5.0941281E-18
   2.946733       -5.0990970E-18
   3.089644       -5.1001132E-18
   3.232556       -5.0977507E-18
   3.375468       -5.0929047E-18
   3.518379       -5.0867058E-18
   3.661291       -5.0804110E-18
   3.804203       -5.0752829E-18
   3.947115       -5.0724667E-18
   4.090026       -5.0728758E-18
   4.232938       -5.0771027E-18
   4.375850       -5.0853588E-18
   4.518762       -5.0974509E-18
   4.661673       -5.1128005E-18
   4.804585       -5.1305025E-18
   4.947497       -5.1494160E-18
   5.090408       -5.1682766E-18
   5.233320       -5.1858231E-18
   5.376232       -5.2009237E-18
   5.519144       -5.2126838E-18
   5.662055       -5.2205316E-18
   5.804967       -5.2242705E-18
   5.947879       -5.2240906E-18
   6.090790       -5.2205503E-18
   6.233702       -5.2145164E-18
   6.376614       -5.2070833E-18
   6.519526       -5.1994638E-18
   6.662437       -5.1928807E-18
   6.805349       -5.1884490E-18
   6.948261       -5.1870780E-18
   7.091173       -5.1893804E-18
   7.234084       -5.1956190E-18
   7.376996       -5.2056792E-18
   7.519908       -5.2190783E-18
   7.662819       -5.2350077E-18
   7.805731       -5.2524116E-18
   7.948643       -5.2700872E-18
   8.091555       -5.2868020E-18
   8.234467       -5.3014204E-18
   8.377378       -5.3130150E-18
   8.520289       -5.3209671E-18
   8.663201       -5.3250294E-18
   8.806113       -5.3253520E-18
   8.949025       -5.3224709E-18
   9.091937       -5.3172530E-18
   9.234848       -5.3108077E-18
   9.377760       -5.3043734E-18
   9.520672       -5.2991957E-18
   9.663584       -5.2964007E-18
   9.806496       -5.2968858E-18
   9.949407       -5.3012351E-18
   10.09232       -5.3096620E-18
   10.23523       -5.3219928E-18
   10.37814       -5.3376815E-18
   10.52105       -5.3558642E-18
   10.66397       -5.3754365E-18
   10.80688       -5.3951557E-18
   10.94979       -5.4137540E-18
   11.09270       -5.4300528E-18
   11.23561       -5.4430730E-18
   11.37852       -5.4521269E-18
   11.52144       -5.4568861E-18
   11.66435       -5.4574143E-18
   11.80726       -5.4541680E-18
   11.95017       -5.4479575E-18
   12.09308       -5.4398726E-18
   12.23599       -5.4311794E-18
   12.37891       -5.4231963E-18
   12.52182       -5.4171682E-18
   12.66473       -5.4141407E-18
   12.80764       -5.4148579E-18
   12.95055       -5.4196890E-18
   13.09346       -5.4285957E-18
   13.23638       -5.4411358E-18
   13.37929       -5.4565139E-18
   13.52220       -5.4736609E-18
   13.66511       -5.4913398E-18
   13.80802       -5.5082689E-18
   13.95094       -5.5232396E-18
   14.09385       -5.5352342E-18
   14.23676       -5.5435159E-18
   14.37967       -5.5476961E-18
   14.52258       -5.5477713E-18
   14.66549       -5.5441218E-18
   14.80841       -5.5374829E-18
   14.95132       -5.5288773E-18
   15.09423       -5.5195268E-18
   15.23714       -5.5107380E-18
   15.38005       -5.5037839E-18
   15.52296       -5.4997787E-18
   15.66588       -5.4995653E-18
   15.80879       -5.5036292E-18
   15.95170       -5.5120396E-18
   16.09461       -5.5244349E-18
   16.23752       -5.5400513E-18
   16.38043       -5.5577934E-18
   16.52335       -5.5763413E-18
   16.66626       -5.5942808E-18
   16.80917       -5.6102466E-18
   16.95208       -5.6230543E-18
   17.09499       -5.6318216E-18
   17.23791       -5.6360468E-18
   17.38082       -5.6356560E-18
   17.52373       -5.6310006E-18
   17.66664       -5.6228198E-18
   17.80955       -5.6121644E-18
   17.95246       -5.6002956E-18
   18.09538       -5.5885675E-18
   18.23829       -5.5783063E-18
   18.38120       -5.5706921E-18
   18.52411       -5.5666538E-18
   18.66702       -5.5667870E-18
   18.80993       -5.5712988E-18
   18.95285       -5.5799846E-18
   19.09576       -5.5922401E-18
   19.23867       -5.6071116E-18
   19.38158       -5.6233806E-18
   19.52449       -5.6396740E-18
   19.66740       -5.6545972E-18
   19.81032       -5.6668721E-18
   19.95323       -5.6754698E-18
   20.09614       -5.6797170E-18
   20.23905       -5.6793720E-18
   20.38196       -5.6746505E-18
   20.52488       -5.6662046E-18
   20.66779       -5.6550567E-18
   20.81070       -5.6424926E-18
   20.95361       -5.6299302E-18
   21.09652       -5.6187740E-18
   21.23943       -5.6102789E-18
   21.38235       -5.6054304E-18
   21.52526       -5.6048542E-18
   21.66817       -5.6087643E-18
   21.81108       -5.6169493E-18
   21.95399       -5.6287928E-18
   22.09690       -5.6433388E-18
   22.23981       -5.6593704E-18
   22.38273       -5.6755207E-18
   22.52564       -5.6903934E-18
   22.66855       -5.7026878E-18
   22.81146       -5.7113194E-18
   22.95437       -5.7155244E-18
   23.09729       -5.7149392E-18
   23.24020       -5.7096493E-18
   23.38311       -5.7001872E-18
   23.52602       -5.6874950E-18
   23.66893       -5.6728369E-18
   23.81184       -5.6576784E-18
   23.95476       -5.6435411E-18
   24.09767       -5.6318501E-18
   24.24058       -5.6237892E-18
   24.38349       -5.6201852E-18
   24.52640       -5.6214297E-18
   24.66932       -5.6274470E-18
   24.81223       -5.6377132E-18
   24.95514       -5.6513186E-18
   25.09805       -5.6670657E-18
   25.24096       -5.6835878E-18
   25.38387       -5.6994833E-18
   25.52678       -5.7134403E-18
   25.66970       -5.7243554E-18
   25.81261       -5.7314269E-18
   25.95552       -5.7342249E-18
   26.09843       -5.7327268E-18
   26.24134       -5.7273237E-18
   26.38426       -5.7187889E-18
   26.52717       -5.7082113E-18
   26.67008       -5.6969025E-18
   26.81299       -5.6862716E-18
   26.95590       -5.6776879E-18
   27.09881       -5.6723402E-18
   27.24173       -5.6711077E-18
   27.38464       -5.6744594E-18
   27.52755       -5.6823946E-18
   27.67046       -5.6944333E-18
   27.81337       -5.7096630E-18
   27.95629       -5.7268303E-18
   28.09920       -5.7444732E-18
   28.24211       -5.7610743E-18
   28.38502       -5.7752154E-18
   28.52793       -5.7857181E-18
   28.67084       -5.7917545E-18
   28.81376       -5.7929179E-18
   28.95667       -5.7892498E-18
   29.09958       -5.7812236E-18
   29.24249       -5.7696931E-18
   29.38540       -5.7558110E-18
   29.52831       -5.7409217E-18
   29.67122       -5.7264481E-18
   29.81414       -5.7137695E-18
   29.95705       -5.7040990E-18
   30.09996       -5.6983778E-18
   30.24287       -5.6971796E-18
   30.38578       -5.7006537E-18
   30.52870       -5.7084946E-18
   30.67161       -5.7199610E-18
   30.81452       -5.7339395E-18
   30.95743       -5.7490546E-18
   31.10034       -5.7638077E-18
   31.24325       -5.7767403E-18
   31.38617       -5.7865933E-18
   31.52908       -5.7924472E-18
   31.67199       -5.7938253E-18
   31.81490       -5.7907395E-18
   31.95781       -5.7836853E-18
   32.10072       -5.7735763E-18
   32.24364       -5.7616405E-18
   32.38655       -5.7492800E-18
   32.52946       -5.7379302E-18
   32.67237       -5.7289135E-18
   32.81528       -5.7233201E-18
   32.95819       -5.7219172E-18
   33.10111       -5.7250849E-18
   33.24402       -5.7327922E-18
   33.38693       -5.7446047E-18
   33.52984       -5.7597165E-18
   33.67275       -5.7770174E-18
   33.81567       -5.7951802E-18
   33.95858       -5.8127727E-18
   34.10149       -5.8283861E-18
   34.24440       -5.8407682E-18
   34.38731       -5.8489523E-18
   34.53022       -5.8523665E-18
   34.67313       -5.8509066E-18
   34.81605       -5.8449612E-18
   34.95896       -5.8353808E-18
   35.10187       -5.8233941E-18
   35.24478       -5.8104752E-18
   35.38770       -5.7981792E-18
   35.53061       -5.7879738E-18
   35.67352       -5.7810776E-18
   35.81643       -5.7783363E-18
   35.95934       -5.7801425E-18
   36.10225       -5.7864105E-18
   36.24516       -5.7966055E-18
   36.38808       -5.8098130E-18
   36.53099       -5.8248421E-18
   36.67390       -5.8403459E-18
   36.81681       -5.8549494E-18
   36.95972       -5.8673674E-18
   37.10263       -5.8765185E-18
   37.24555       -5.8816115E-18
   37.38846       -5.8822199E-18
   37.53137       -5.8783243E-18
   37.67428       -5.8703263E-18
   37.81719       -5.8590295E-18
   37.96011       -5.8455766E-18
   38.10302       -5.8313537E-18
   38.24593       -5.8178599E-18
   38.38884       -5.8065523E-18
   38.53175       -5.7986941E-18
   38.67466       -5.7952088E-18
   38.81758       -5.7965724E-18
   38.96049       -5.8027572E-18
   39.10340       -5.8132326E-18
   39.24631       -5.8270263E-18
   39.38922       -5.8428358E-18
   39.53214       -5.8591755E-18
   39.67505       -5.8745358E-18
   39.81796       -5.8875420E-18
   39.96087       -5.8970839E-18
   40.10378       -5.9024155E-18
   40.24669       -5.9032100E-18
   40.38961       -5.8995750E-18
   40.53252       -5.8920336E-18
   40.67543       -5.8814684E-18
   40.81834       -5.8690470E-18
   40.96125       -5.8561215E-18
   41.10416       -5.8441179E-18
   41.24707       -5.8344093E-18
   41.38999       -5.8281922E-18
   41.53290       -5.8263633E-18
   41.67581       -5.8294201E-18
   41.81872       -5.8373904E-18
   41.96163       -5.8498052E-18
   42.10455       -5.8657313E-18
   42.24746       -5.8838532E-18
   42.39037       -5.9026082E-18
   42.53328       -5.9203550E-18
   42.67619       -5.9355528E-18
   42.81910       -5.9469340E-18
   42.96202       -5.9536391E-18
   43.10493       -5.9553025E-18
   43.24784       -5.9520794E-18
   43.39075       -5.9446108E-18
   43.53366       -5.9339381E-18
   43.67657       -5.9213848E-18
   43.81948       -5.9084142E-18
   43.96240       -5.8964921E-18
   44.10531       -5.8869509E-18
   44.24822       -5.8808848E-18
   44.39113       -5.8790559E-18
   44.53405       -5.8818398E-18
   44.67696       -5.8891893E-18
   44.81987       -5.9006304E-18
   44.96278       -5.9152918E-18
   45.10569       -5.9319686E-18
   45.24860       -5.9492190E-18
   45.39151       -5.9654967E-18
   45.53443       -5.9793032E-18
   45.67734       -5.9893493E-18
   45.82025       -5.9947057E-18
   45.96316       -5.9949191E-18
   46.10608       -5.9900797E-18
   46.24899       -5.9808194E-18
   46.39190       -5.9682500E-18
   46.53481       -5.9538380E-18
   46.67772       -5.9392383E-18
   46.82063       -5.9261093E-18
   46.96354       -5.9159337E-18
   47.10646       -5.9098713E-18
   47.24937       -5.9086529E-18
   47.39228       -5.9125294E-18
   47.53519       -5.9212723E-18
   47.67810       -5.9342173E-18
   47.82101       -5.9503440E-18
   47.96392       -5.9683741E-18
   48.10684       -5.9868818E-18
   48.24975       -6.0044106E-18
   48.39266       -6.0195861E-18
   48.53557       -6.0312315E-18
   48.67849       -6.0384664E-18
   48.82140       -6.0408008E-18
   48.96431       -6.0381910E-18
   49.10722       -6.0310702E-18
   49.25013       -6.0203260E-18
   49.39304       -6.0072284E-18
   49.53595       -5.9933107E-18
   49.67887       -5.9802077E-18
   49.82178       -5.9694746E-18
   49.96469       -5.9624126E-18
   50.10760       -5.9599207E-18
   50.25051       -5.9623927E-18
   50.39342       -5.9696864E-18
   50.53634       -5.9811494E-18
   50.67925       -5.9957124E-18
   50.82216       -6.0120165E-18
   50.96507       -6.0285709E-18
   51.10798       -6.0439064E-18
   51.25090       -6.0567165E-18
   51.39381       -6.0659648E-18
   51.53672       -6.0709647E-18
   51.67963       -6.0714205E-18
   51.82254       -6.0674413E-18
   51.96545       -6.0595277E-18
   52.10837       -6.0485324E-18
   52.25128       -6.0356011E-18
   52.39419       -6.0220845E-18
   52.53710       -6.0094312E-18
   52.68001       -5.9990604E-18
   52.82293       -5.9922217E-18
   52.96584       -5.9898609E-18
   53.10875       -5.9925042E-18
   53.25166       -6.0001829E-18
   53.39457       -6.0124156E-18
   53.53748       -6.0282429E-18
   53.68040       -6.0463321E-18
   53.82331       -6.0651219E-18
   53.96622       -6.0830019E-18
   54.10913       -6.0984858E-18
   54.25204       -6.1103708E-18
   54.39495       -6.1178535E-18
   54.53786       -6.1205922E-18
   54.68078       -6.1187137E-18
   54.82369       -6.1127750E-18
   54.96660       -6.1036826E-18
   55.10951       -6.0925926E-18
   55.25242       -6.0807982E-18
   55.39534       -6.0696185E-18
   55.53825       -6.0602887E-18
   55.68116       -6.0538644E-18
   55.82407       -6.0511322E-18
   55.96698       -6.0525384E-18
   56.10989       -6.0581335E-18
   56.25281       -6.0675505E-18
   56.39572       -6.0800186E-18
   56.53863       -6.0944190E-18
   56.68154       -6.1093877E-18
   56.82445       -6.1234547E-18
   56.96737       -6.1352073E-18
   57.11028       -6.1434563E-18
   57.25319       -6.1473805E-18
   57.39610       -6.1466269E-18
   57.53901       -6.1413537E-18
   57.68192       -6.1322088E-18
   57.82484       -6.1202436E-18
   57.96775       -6.1067866E-18
   58.11066       -6.0932907E-18
   58.25357       -6.0811746E-18
   58.39648       -6.0716852E-18
   58.53939       -6.0657882E-18
   58.68230       -6.0640983E-18
   58.82522       -6.0668466E-18
   58.96813       -6.0738772E-18
   59.11104       -6.0846732E-18
   59.25395       -6.0984011E-18
   59.39687       -6.1139752E-18
   59.53978       -6.1301375E-18
   59.68269       -6.1455570E-18
   59.82560       -6.1589478E-18
   59.96851       -6.1691924E-18
   60.11142       -6.1754666E-18
   60.25433       -6.1773464E-18
   60.39725       -6.1748764E-18
   60.54016       -6.1685898E-18
   60.68307       -6.1594623E-18
   60.82598       -6.1488103E-18
   60.96889       -6.1381363E-18
   61.11180       -6.1289455E-18
   61.25471       -6.1225659E-18
   61.39763       -6.1199872E-18
   61.54054       -6.1217549E-18
   61.68345       -6.1279264E-18
   61.82636       -6.1380838E-18
   61.96928       -6.1514068E-18
   62.11219       -6.1667845E-18
   62.25510       -6.1829385E-18
   62.39801       -6.1985544E-18
   62.54092       -6.2123961E-18
   62.68383       -6.2233992E-18
   62.82674       -6.2307500E-18
   62.96966       -6.2339425E-18
   63.11257       -6.2328196E-18
   63.25548       -6.2275967E-18
   63.39839       -6.2188692E-18
   63.54131       -6.2075819E-18
   63.68422       -6.1949707E-18
   63.82713       -6.1824587E-18
   63.97004       -6.1715156E-18
   64.11295       -6.1634952E-18
   64.25586       -6.1594673E-18
   64.39877       -6.1600715E-18
   64.54169       -6.1654221E-18
   64.68460       -6.1750753E-18
   64.82751       -6.1880757E-18
   64.97042       -6.2030708E-18
   65.11333       -6.2184829E-18
   65.25625       -6.2327021E-18
   65.39915       -6.2442839E-18
   65.54207       -6.2521028E-18
   65.68498       -6.2554669E-18
   65.82789       -6.2541641E-18
   65.97080       -6.2484562E-18
   66.11372       -6.2390214E-18
   66.25663       -6.2268688E-18
   66.39954       -6.2132356E-18
   66.54245       -6.1994796E-18
   66.68536       -6.1869735E-18
   66.82828       -6.1769985E-18
   66.97118       -6.1706437E-18
   67.11410       -6.1687077E-18
   67.25701       -6.1716132E-18
   67.39992       -6.1793382E-18
   67.54283       -6.1913836E-18
   67.68575       -6.2067886E-18
   67.82866       -6.2242045E-18
   67.97157       -6.2420232E-18
   68.11448       -6.2585536E-18
   68.25739       -6.2722207E-18
   68.40031       -6.2817609E-18
   68.54321       -6.2863803E-18
   68.68613       -6.2858567E-18
   68.82904       -6.2805574E-18
   68.97195       -6.2713873E-18
   69.11486       -6.2596665E-18
   69.25777       -6.2469598E-18
   69.40069       -6.2348979E-18
   69.54359       -6.2249977E-18
   69.68651       -6.2185168E-18
   69.82942       -6.2163475E-18
   69.97233       -6.2189552E-18
   70.11524       -6.2263547E-18
   70.25816       -6.2381222E-18
   70.40107       -6.2534317E-18
   70.54398       -6.2711172E-18
   70.68689       -6.2897598E-18
   70.82980       -6.3077965E-18
   70.97272       -6.3236539E-18
   71.11562       -6.3359007E-18
   71.25854       -6.3434029E-18
   71.40145       -6.3454646E-18
   71.54436       -6.3419330E-18
   71.68727       -6.3332422E-18
   71.83018       -6.3203861E-18
   71.97310       -6.3048178E-18
   72.11600       -6.2882853E-18
   72.25892       -6.2726223E-18
   72.40183       -6.2595329E-18
   72.54475       -6.2503967E-18
   72.68765       -6.2461252E-18
   72.83057       -6.2470806E-18
   72.97348       -6.2530702E-18
   73.11639       -6.2634037E-18
   73.25930       -6.2769918E-18
   73.40221       -6.2924779E-18
   73.54513       -6.3083751E-18
   73.68803       -6.3231965E-18
   73.83095       -6.3355794E-18
   73.97386       -6.3443880E-18
   74.11678       -6.3488085E-18
   74.25968       -6.3484267E-18
   74.40260       -6.3432825E-18
   74.54551       -6.3338961E-18
   74.68842       -6.3212514E-18
   74.83133       -6.3067228E-18
   74.97424       -6.2919539E-18
   75.11716       -6.2786814E-18
   75.26006       -6.2685335E-18
   75.40298       -6.2628264E-18
   75.54589       -6.2623909E-18
   75.68880       -6.2674586E-18
   75.83171       -6.2776341E-18
   75.97462       -6.2919468E-18
   76.11754       -6.3089847E-18
   76.26044       -6.3270760E-18
   76.40336       -6.3444989E-18
   76.54627       -6.3596739E-18
   76.68919       -6.3713223E-18
   76.83209       -6.3785704E-18
   76.97501       -6.3809945E-18
   77.11792       -6.3786242E-18
   77.26083       -6.3719005E-18
   77.40374       -6.3616199E-18
   77.54665       -6.3488602E-18
   77.68957       -6.3349019E-18
   77.83247       -6.3211422E-18
   77.97539       -6.3089855E-18
   78.11830       -6.2997298E-18
   78.26122       -6.2944309E-18
   78.40412       -6.2937782E-18
   78.54704       -6.2979886E-18
   78.68995       -6.3067397E-18
   78.83286       -6.3191793E-18
   78.97577       -6.3339991E-18
   79.11868       -6.3495836E-18
   79.26160       -6.3642139E-18
   79.40450       -6.3762895E-18
   79.54742       -6.3845352E-18
   79.69033       -6.3881641E-18
   79.83324       -6.3869572E-18
   79.97615       -6.3812650E-18
   80.11906       -6.3719302E-18
   80.26198       -6.3601524E-18
   80.40488       -6.3473216E-18
   80.54780       -6.3348539E-18
   80.69071       -6.3240493E-18
   80.83363       -6.3159835E-18
   80.97653       -6.3114410E-18
   81.11945       -6.3108769E-18
   81.26236       -6.3144003E-18
   81.40527       -6.3217746E-18
   81.54818       -6.3324295E-18
   81.69109       -6.3454840E-18
   81.83401       -6.3597996E-18
   81.97691       -6.3740598E-18
   82.11983       -6.3868873E-18
   82.26274       -6.3969897E-18
   82.40565       -6.4033180E-18
   82.54856       -6.4052143E-18
   82.69147       -6.4025169E-18
   82.83439       -6.3956062E-18
   82.97730       -6.3853686E-18
   83.12021       -6.3730891E-18
   83.26312       -6.3602798E-18
   83.40604       -6.3484793E-18
   83.54894       -6.3390544E-18
   83.69186       -6.3330350E-18
   83.83477       -6.3310133E-18
   83.97768       -6.3331057E-18
   84.12059       -6.3389857E-18
   84.26350       -6.3479639E-18
   84.40642       -6.3590928E-18
   84.54933       -6.3712830E-18
   84.69224       -6.3834082E-18
   84.83515       -6.3943919E-18
   84.97807       -6.4032779E-18
   85.12097       -6.4092928E-18
   85.26389       -6.4118996E-18
   85.40680       -6.4108458E-18
   85.54971       -6.4062090E-18
   85.69262       -6.3984149E-18
   85.83553       -6.3882315E-18
   85.97845       -6.3767142E-18
   86.12135       -6.3651073E-18
   86.26427       -6.3547055E-18
   86.40718       -6.3466926E-18
   86.55009       -6.3419813E-18
   86.69300       -6.3410896E-18
   86.83591       -6.3440658E-18
   86.97883       -6.3504852E-18
   87.12174       -6.3595143E-18
   87.26465       -6.3700360E-18
   87.40756       -6.3807993E-18
   87.55048       -6.3905844E-18
   87.69338       -6.3983396E-18
   87.83630       -6.4032829E-18
   87.97921       -6.4049596E-18
   88.12212       -6.4032564E-18
   88.26503       -6.3983785E-18
   88.40794       -6.3908106E-18
   88.55086       -6.3812617E-18
   88.69377       -6.3706105E-18
   88.83668       -6.3598435E-18
   88.97959       -6.3499839E-18
   89.12251       -6.3420157E-18
   89.26541       -6.3367875E-18
   89.40833       -6.3349234E-18
   89.55124       -6.3367325E-18
   89.69415       -6.3421517E-18
   89.83706       -6.3507271E-18
   89.97997       -6.3616467E-18
   90.12289       -6.3738319E-18
   90.26580       -6.3860684E-18
   90.40871       -6.3971613E-18
   90.55162       -6.4060907E-18
   90.69453       -6.4121362E-18
   90.83744       -6.4149498E-18
   90.98035       -6.4145789E-18
   91.12327       -6.4114240E-18
   91.26618       -6.4061606E-18
   91.40909       -6.3996329E-18
   91.55200       -6.3927479E-18
   91.69492       -6.3863840E-18
   91.83783       -6.3813187E-18
   91.98074       -6.3781800E-18
   92.12365       -6.3774140E-18
   92.26656       -6.3792649E-18
   92.40947       -6.3837498E-18
   92.55238       -6.3906481E-18
   92.69530       -6.3994903E-18
   92.83821       -6.4095694E-18
   92.98112       -6.4199865E-18
   93.12403       -6.4297237E-18
   93.26694       -6.4377548E-18
   93.40986       -6.4431778E-18
   93.55276       -6.4453425E-18
   93.69568       -6.4439566E-18
   93.83859       -6.4391453E-18
   93.98150       -6.4314455E-18
   94.12441       -6.4217364E-18
   94.26733       -6.4111204E-18
   94.41024       -6.4007699E-18
   94.55315       -6.3917706E-18
   94.69606       -6.3849931E-18
   94.83897       -6.3810036E-18
   94.98188       -6.3800333E-18
   95.12479       -6.3819892E-18
   95.26771       -6.3865118E-18
   95.41062       -6.3930416E-18
   95.55353       -6.4008944E-18
   95.69644       -6.4093213E-18
   95.83936       -6.4175613E-18
   95.98227       -6.4248760E-18
   96.12518       -6.4305956E-18
   96.26809       -6.4341574E-18
   96.41100       -6.4351653E-18
   96.55391       -6.4334464E-18
   96.69682       -6.4291013E-18
   96.83974       -6.4225351E-18
   96.98265       -6.4144436E-18
   97.12556       -6.4057541E-18
   97.26847       -6.3975212E-18
   97.41138       -6.3907854E-18
   97.55430       -6.3864253E-18
   97.69720       -6.3850233E-18
   97.84012       -6.3867773E-18
   97.98303       -6.3914716E-18
   98.12594       -6.3985142E-18
   98.26885       -6.4070296E-18
   98.41177       -6.4159925E-18
   98.55468       -6.4243669E-18
   98.69759       -6.4312325E-18
   98.84050       -6.4358817E-18
   98.98341       -6.4378656E-18
   99.12633       -6.4370070E-18
   99.26923       -6.4333807E-18
   99.41215       -6.4272753E-18
   99.55506       -6.4191561E-18
   99.69797       -6.4096298E-18
   99.84088       -6.3994125E-18
   99.98380       -6.3892986E-18
   100.1267       -6.3801119E-18
   100.2696       -6.3726466E-18
   100.4125       -6.3675842E-18
   100.5554       -6.3654017E-18
   100.6984       -6.3662872E-18
   100.8413       -6.3700778E-18
   100.9842       -6.3762428E-18
   101.1271       -6.3839244E-18
   101.2700       -6.3920324E-18
   101.4129       -6.3993844E-18
   101.5558       -6.4048669E-18
   101.6987       -6.4075921E-18
   101.8416       -6.4070201E-18
   101.9846       -6.4030260E-18
   102.1275       -6.3959040E-18
   102.2704       -6.3863108E-18
   102.4133       -6.3751649E-18
   102.5562       -6.3635199E-18
   102.6991       -6.3524386E-18
   102.8420       -6.3428813E-18
   102.9849       -6.3356224E-18
   103.1279       -6.3311990E-18
   103.2708       -6.3298826E-18
   103.4137       -6.3316705E-18
   103.5566       -6.3362924E-18
   103.6995       -6.3432258E-18
   103.8424       -6.3517235E-18
   103.9853       -6.3608617E-18
   104.1282       -6.3696079E-18
   104.2711       -6.3769153E-18
   104.4141       -6.3818374E-18
   104.5570       -6.3836448E-18
   104.6999       -6.3819354E-18
   104.8428       -6.3767089E-18
   104.9857       -6.3683887E-18
   105.1286       -6.3577879E-18
   105.2715       -6.3460118E-18
   105.4144       -6.3343204E-18
   105.5574       -6.3239612E-18
   105.7003       -6.3160120E-18
   105.8432       -6.3112475E-18
   105.9861       -6.3100559E-18
   106.1290       -6.3124158E-18
   106.2719       -6.3179207E-18
   106.4148       -6.3258505E-18
   106.5577       -6.3352700E-18
   106.7006       -6.3451337E-18
   106.8436       -6.3543891E-18
   106.9865       -6.3620649E-18
   107.1294       -6.3673456E-18
   107.2723       -6.3696323E-18
   107.4152       -6.3685872E-18
   107.5581       -6.3641692E-18
   107.7010       -6.3566510E-18
   107.8439       -6.3466111E-18
   107.9869       -6.3348990E-18
   108.1298       -6.3225612E-18
   108.2727       -6.3107342E-18
   108.4156       -6.3005131E-18
   108.5585       -6.2928121E-18
   108.7014       -6.2882390E-18
   108.8443       -6.2870024E-18
   108.9872       -6.2888776E-18
   109.1301       -6.2932302E-18
   109.2731       -6.2990987E-18
   109.4160       -6.3053281E-18
   109.5589       -6.3107226E-18
   109.7018       -6.3141976E-18
   109.8447       -6.3149098E-18
   109.9876       -6.3123431E-18
   110.1305       -6.3063522E-18
   110.2734       -6.2971548E-18
   110.4164       -6.2852885E-18
   110.5593       -6.2715415E-18
   110.7022       -6.2568736E-18
   110.8451       -6.2423230E-18
   110.9880       -6.2289256E-18
   111.1309       -6.2176267E-18
   111.2738       -6.2091974E-18
   111.4167       -6.2041623E-18
   111.5596       -6.2027292E-18
   111.7026       -6.2047508E-18
   111.8455       -6.2097119E-18
   111.9884       -6.2167603E-18
   112.1313       -6.2247864E-18
   112.2742       -6.2325458E-18
   112.4171       -6.2388055E-18
   112.5600       -6.2425054E-18
   112.7029       -6.2429029E-18
   112.8458       -6.2396694E-18
   112.9888       -6.2329407E-18
   113.1317       -6.2232888E-18
   113.2746       -6.2116417E-18
   113.4175       -6.1991504E-18
   113.5604       -6.1870384E-18
   113.7033       -6.1764484E-18
   113.8462       -6.1683156E-18
   113.9891       -6.1632752E-18
   114.1321       -6.1616192E-18
   114.2750       -6.1632880E-18
   114.4179       -6.1678995E-18
   114.5608       -6.1748015E-18
   114.7037       -6.1831337E-18
   114.8466       -6.1919051E-18
   114.9895       -6.2000711E-18
   115.1324       -6.2066207E-18
   115.2754       -6.2106718E-18
   115.4183       -6.2115590E-18
   115.5612       -6.2089248E-18
   115.7041       -6.2027809E-18
   115.8470       -6.1935405E-18
   115.9899       -6.1819980E-18
   116.1328       -6.1692574E-18
   116.2757       -6.1566098E-18
   116.4186       -6.1453709E-18
   116.5616       -6.1367078E-18
   116.7045       -6.1314784E-18
   116.8474       -6.1301085E-18
   116.9903       -6.1325318E-18
   117.1332       -6.1381975E-18
   117.2761       -6.1461505E-18
   117.4190       -6.1551560E-18
   117.5619       -6.1638612E-18
   117.7048       -6.1709630E-18
   117.8478       -6.1753471E-18
   117.9907       -6.1762032E-18
   118.1336       -6.1730876E-18
   118.2765       -6.1659478E-18
   118.4194       -6.1551022E-18
   118.5623       -6.1411961E-18
   118.7052       -6.1251372E-18
   118.8481       -6.1080075E-18
   118.9911       -6.0909767E-18
   119.1340       -6.0751978E-18
   119.2769       -6.0617011E-18
   119.4198       -6.0512894E-18
   119.5627       -6.0444453E-18
   119.7056       -6.0412623E-18
   119.8485       -6.0414116E-18
   119.9914       -6.0441649E-18
   120.1343       -6.0484654E-18
   120.2773       -6.0530538E-18
   120.4202       -6.0566251E-18
   120.5631       -6.0580049E-18
   120.7060       -6.0563038E-18
   120.8489       -6.0510425E-18
   120.9918       -6.0422111E-18
   121.1347       -6.0302633E-18
   121.2776       -6.0160499E-18
   121.4206       -6.0006941E-18
   121.5635       -5.9854454E-18
   121.7064       -5.9715207E-18
   121.8493       -5.9599674E-18
   121.9922       -5.9515591E-18
   122.1351       -5.9467292E-18
   122.2780       -5.9455488E-18
   122.4209       -5.9477409E-18
   122.5639       -5.9527209E-18