  -7.200000        1.0086709E-17
  -7.057088        1.0092470E-17
  -6.914176        1.0102592E-17
  -6.771265        1.0114786E-17
  -6.628353        1.0126507E-17
  -6.485441        1.0135649E-17
  -6.342530        1.0141118E-17
  -6.199618        1.0143089E-17
  -6.056706        1.0142909E-17
  -5.913795        1.0142650E-17
  -5.770883        1.0144457E-17
  -5.627971        1.0149892E-17
  -5.485059        1.0159435E-17
  -5.342147        1.0172331E-17
  -5.199236        1.0186787E-17
  -5.056324        1.0200491E-17
  -4.913413        1.0211277E-17
  -4.770501        1.0217758E-17
  -4.627589        1.0219734E-17
  -4.484677        1.0218256E-17
  -4.341765        1.0215328E-17
  -4.198854        1.0213333E-17
  -4.055942        1.0214350E-17
  -3.913030        1.0219563E-17
  -3.770118        1.0228927E-17
  -3.627207        1.0241190E-17
  -3.484295        1.0254268E-17
  -3.341383        1.0265854E-17
  -3.198472        1.0274091E-17
  -3.055560        1.0278105E-17
  -2.912648        1.0278252E-17
  -2.769737        1.0276000E-17
  -2.626825        1.0273497E-17
  -2.483913        1.0272931E-17
  -2.341001        1.0275895E-17
  -2.198090        1.0282922E-17
  -2.055178        1.0293341E-17
  -1.912266        1.0305483E-17
  -1.769354        1.0317177E-17
  -1.626443        1.0326398E-17
  -1.483531        1.0331859E-17
  -1.340619        1.0333387E-17
  -1.197708        1.0331970E-17
  -1.054796        1.0329457E-17
 -0.9118841        1.0328006E-17
 -0.7689723        1.0329441E-17
 -0.6260606        1.0334711E-17
 -0.4831489        1.0343604E-17
 -0.3402372        1.0354808E-17
 -0.1973254        1.0366294E-17
 -5.4413714E-02    1.0375910E-17
  8.8498011E-02    1.0382011E-17
  0.2314097        1.0383946E-17
  0.3743215        1.0382248E-17
  0.5172332        1.0378475E-17
  0.6601449        1.0374761E-17
  0.8030567        1.0373191E-17
  0.9459684        1.0375198E-17
   1.088880        1.0381152E-17
   1.231792        1.0390266E-17
   1.374704        1.0400838E-17
   1.517615        1.0410765E-17
   1.660527        1.0418176E-17
   1.803439        1.0421979E-17
   1.946350        1.0422194E-17
   2.089262        1.0419941E-17
   2.232174        1.0417102E-17
   2.375086        1.0415758E-17
   2.517997        1.0417566E-17
   2.660909        1.0423257E-17
   2.803821        1.0432404E-17
   2.946733        1.0443544E-17
   3.089644        1.0454589E-17
   3.232556        1.0463447E-17
   3.375468        1.0468626E-17
   3.518379        1.0469682E-17
   3.661291        1.0467355E-17
   3.804203        1.0463354E-17
   3.947115        1.0459866E-17
   4.090026        1.0458915E-17
   4.232938        1.0461774E-17
   4.375850        1.0468592E-17
   4.518762        1.0478346E-17
   4.661673        1.0489141E-17
   4.804585        1.0498766E-17
   4.947497        1.0505337E-17
   5.090408        1.0507853E-17
   5.233320        1.0506486E-17
   5.376232        1.0502530E-17
   5.519144        1.0498027E-17
   5.662055        1.0495159E-17
   5.804967        1.0495611E-17
   5.947879        1.0500072E-17
   6.090790        1.0508029E-17
   6.233702        1.0517914E-17
   6.376614        1.0527556E-17
   6.519526        1.0534823E-17
   6.662437        1.0538241E-17
   6.805349        1.0537437E-17
   6.948261        1.0533249E-17
   7.091173        1.0527494E-17
   7.234084        1.0522437E-17
   7.376996        1.0520138E-17
   7.519908        1.0521852E-17
   7.662819        1.0527654E-17
   7.805731        1.0536425E-17
   7.948643        1.0546159E-17
   8.091555        1.0554555E-17
   8.234467        1.0559673E-17
   8.377378        1.0560500E-17
   8.520289        1.0557242E-17
   8.663201        1.0551269E-17
   8.806113        1.0544707E-17
   8.949025        1.0539832E-17
   9.091937        1.0538406E-17
   9.234848        1.0541171E-17
   9.377760        1.0547638E-17
   9.520672        1.0556232E-17
   9.663584        1.0564757E-17
   9.806496        1.0571037E-17
   9.949407        1.0573550E-17
   10.09232        1.0571874E-17
   10.23523        1.0566806E-17
   10.37814        1.0560133E-17
   10.52105        1.0554107E-17
   10.66397        1.0550800E-17
   10.80688        1.0551496E-17
   10.94979        1.0556328E-17
   11.09270        1.0564240E-17
   11.23561        1.0573302E-17
   11.37852        1.0581279E-17
   11.52144        1.0586277E-17
   11.66435        1.0587296E-17
   11.80726        1.0584521E-17
   11.95017        1.0579255E-17
   12.09308        1.0573541E-17
   12.23599        1.0569553E-17
   12.37891        1.0568962E-17
   12.52182        1.0572445E-17
   12.66473        1.0579485E-17
   12.80764        1.0588518E-17
   12.95055        1.0597387E-17
   13.09346        1.0603970E-17
   13.23638        1.0606787E-17
   13.37929        1.0605428E-17
   13.52220        1.0600661E-17
   13.66511        1.0594202E-17
   13.80802        1.0588208E-17
   13.95094        1.0584652E-17
   14.09385        1.0584749E-17
   14.23676        1.0588616E-17
   14.37967        1.0595254E-17
   14.52258        1.0602862E-17
   14.66549        1.0609381E-17
   14.80841        1.0613116E-17
   14.95132        1.0613237E-17
   15.09423        1.0610037E-17
   15.23714        1.0604841E-17
   15.38005        1.0599612E-17
   15.52296        1.0596371E-17
   15.66588        1.0596589E-17
   15.80879        1.0600747E-17
   15.95170        1.0608185E-17
   16.09461        1.0617283E-17
   16.23752        1.0625932E-17
   16.38043        1.0632140E-17
   16.52335        1.0634618E-17
   16.66626        1.0633149E-17
   16.80917        1.0628644E-17
   16.95208        1.0622877E-17
   17.09499        1.0617957E-17
   17.23791        1.0615711E-17
   17.38082        1.0617149E-17
   17.52373        1.0622172E-17
   17.66664        1.0629614E-17
   17.80955        1.0637593E-17
   17.95246        1.0644077E-17
   18.09538        1.0647489E-17
   18.23829        1.0647185E-17
   18.38120        1.0643642E-17
   18.52411        1.0638314E-17
   18.66702        1.0633202E-17
   18.80993        1.0630250E-17
   18.95285        1.0630759E-17
   19.09576        1.0634991E-17
   19.23867        1.0642080E-17
   19.38158        1.0650278E-17
   19.52449        1.0657474E-17
   19.66740        1.0661819E-17
   19.81032        1.0662280E-17
   19.95323        1.0658965E-17
   20.09614        1.0653105E-17
   20.23905        1.0646709E-17
   20.38196        1.0641984E-17
   20.52488        1.0640693E-17
   20.66779        1.0643643E-17
   20.81070        1.0650442E-17
   20.95361        1.0659614E-17
   21.09652        1.0669029E-17
   21.23943        1.0676527E-17
   21.38235        1.0680544E-17
   21.52526        1.0680573E-17
   21.66817        1.0677308E-17
   21.81108        1.0672421E-17
   21.95399        1.0668070E-17
   22.09690        1.0666242E-17
   22.23981        1.0668154E-17
   22.38273        1.0673878E-17
   22.52564        1.0682310E-17
   22.66855        1.0691483E-17
   22.81146        1.0699147E-17
   22.95437        1.0703432E-17
   23.09729        1.0703412E-17
   23.24020        1.0699392E-17
   23.38311        1.0692829E-17
   23.52602        1.0685921E-17
   23.66893        1.0680965E-17
   23.81184        1.0679689E-17
   23.95476        1.0682746E-17
   24.09767        1.0689516E-17
   24.24058        1.0698283E-17
   24.38349        1.0706739E-17
   24.52640        1.0712658E-17
   24.66932        1.0714549E-17
   24.81223        1.0712095E-17
   24.95514        1.0706252E-17
   25.09805        1.0698965E-17
   25.24096        1.0692606E-17
   25.38387        1.0689280E-17
   25.52678        1.0690207E-17
   25.66970        1.0695381E-17
   25.81261        1.0703570E-17
   25.95552        1.0712695E-17
   26.09843        1.0720454E-17
   26.24134        1.0725003E-17
   26.38426        1.0725509E-17
   26.52717        1.0722398E-17
   26.67008        1.0717225E-17
   26.81299        1.0712212E-17
   26.95590        1.0709580E-17
   27.09881        1.0710884E-17
   27.24173        1.0716538E-17
   27.38464        1.0725683E-17
   27.52755        1.0736423E-17
   27.67046        1.0746379E-17
   27.81337        1.0753374E-17
   27.95629        1.0756071E-17
   28.09920        1.0754353E-17
   28.24211        1.0749357E-17
   28.38502        1.0743126E-17
   28.52793        1.0738005E-17
   28.67084        1.0735948E-17
   28.81376        1.0737949E-17
   28.95667        1.0743756E-17
   29.09958        1.0751958E-17
   29.24249        1.0760423E-17
   29.38540        1.0766931E-17
   29.52831        1.0769850E-17
   29.67122        1.0768616E-17
   29.81414        1.0763898E-17
   29.95705        1.0757395E-17
   30.09996        1.0751318E-17
   30.24287        1.0747729E-17
   30.38578        1.0747920E-17
   30.52870        1.0752030E-17
   30.67161        1.0759005E-17
   30.81452        1.0766920E-17
   30.95743        1.0773559E-17
   31.10034        1.0777092E-17
   31.24325        1.0776619E-17
   31.38617        1.0772448E-17
   31.52908        1.0766009E-17
   31.67199        1.0759426E-17
   31.81490        1.0754889E-17
   31.95781        1.0754001E-17
   32.10072        1.0757299E-17
   32.24364        1.0764105E-17
   32.38655        1.0772728E-17
   32.52946        1.0780975E-17
   32.67237        1.0786802E-17
   32.81528        1.0788920E-17
   32.95819        1.0787176E-17
   33.10111        1.0782579E-17
   33.24402        1.0776981E-17
   33.38693        1.0772510E-17
   33.52984        1.0770917E-17
   33.67275        1.0773041E-17
   33.81567        1.0778553E-17
   33.95858        1.0786060E-17
   34.10149        1.0793527E-17
   34.24440        1.0798901E-17
   34.38731        1.0800740E-17
   34.53022        1.0798661E-17
   34.67313        1.0793471E-17
   34.81605        1.0786936E-17
   34.95896        1.0781264E-17
   35.10187        1.0778454E-17
   35.24478        1.0779696E-17
   35.38770        1.0785026E-17
   35.53061        1.0793314E-17
   35.67352        1.0802599E-17
   35.81643        1.0810680E-17
   35.95934        1.0815766E-17
   36.10225        1.0817005E-17
   36.24516        1.0814726E-17
   36.38808        1.0810324E-17
   36.53099        1.0805831E-17
   36.67390        1.0803284E-17
   36.81681        1.0804102E-17
   36.95972        1.0808647E-17
   37.10263        1.0816107E-17
   37.24555        1.0824731E-17
   37.38846        1.0832352E-17
   37.53137        1.0837040E-17
   37.67428        1.0837681E-17
   37.81719        1.0834318E-17
   37.96011        1.0828148E-17
   38.10302        1.0821170E-17
   38.24593        1.0815598E-17
   38.38884        1.0813206E-17
   38.53175        1.0814809E-17
   38.67466        1.0820024E-17
   38.81758        1.0827395E-17
   38.96049        1.0834830E-17
   39.10340        1.0840233E-17
   39.24631        1.0842127E-17
   39.38922        1.0840096E-17
   39.53214        1.0834908E-17
   39.67505        1.0828280E-17
   39.81796        1.0822366E-17
   39.96087        1.0819116E-17
   40.10378        1.0819695E-17
   40.24669        1.0824141E-17
   40.38961        1.0831360E-17
   40.53252        1.0839462E-17
   40.67543        1.0846327E-17
   40.81834        1.0850241E-17
   40.96125        1.0850403E-17
   41.10416        1.0847164E-17
   41.24707        1.0841915E-17
   41.38999        1.0836663E-17
   41.53290        1.0833430E-17
   41.67581        1.0833643E-17
   41.81872        1.0837710E-17
   41.96163        1.0844892E-17
   42.10455        1.0853526E-17
   42.24746        1.0861518E-17
   42.39037        1.0866955E-17
   42.53328        1.0868679E-17
   42.67619        1.0866610E-17
   42.81910        1.0861770E-17
   42.96202        1.0855961E-17
   43.10493        1.0851239E-17
   43.24784        1.0849292E-17
   43.39075        1.0850957E-17
   43.53366        1.0855980E-17
   43.67657        1.0863114E-17
   43.81948        1.0870499E-17
   43.96240        1.0876237E-17
   44.10531        1.0878957E-17
   44.24822        1.0878221E-17
   44.39113        1.0874650E-17
   44.53405        1.0869719E-17
   44.67696        1.0865310E-17
   44.81987        1.0863131E-17
   44.96278        1.0864203E-17
   45.10569        1.0868549E-17
   45.24860        1.0875190E-17
   45.39151        1.0882438E-17
   45.53443        1.0888402E-17
   45.67734        1.0891556E-17
   45.82025        1.0891193E-17
   45.96316        1.0887629E-17
   46.10608        1.0882113E-17
   46.24899        1.0876440E-17
   46.39190        1.0872429E-17
   46.53481        1.0871380E-17
   46.67772        1.0873703E-17
   46.82063        1.0878810E-17
   46.96354        1.0885316E-17
   47.10646        1.0891467E-17
   47.24937        1.0895682E-17
   47.39228        1.0897023E-17
   47.53519        1.0895483E-17
   47.67810        1.0891967E-17
   47.82101        1.0888008E-17
   47.96392        1.0885289E-17
   48.10684        1.0885121E-17
   48.24975        1.0888035E-17
   48.39266        1.0893618E-17
   48.53557        1.0900632E-17
   48.67849        1.0907389E-17
   48.82140        1.0912262E-17
   48.96431        1.0914177E-17
   49.10722        1.0912938E-17
   49.25013        1.0909292E-17
   49.39304        1.0904695E-17
   49.53595        1.0900876E-17
   49.67887        1.0899317E-17
   49.82178        1.0900804E-17
   49.96469        1.0905194E-17
   50.10760        1.0911456E-17
   50.25051        1.0917992E-17
   50.39342        1.0923123E-17
   50.53634        1.0925586E-17
   50.67925        1.0924927E-17
   50.82216        1.0921625E-17
   50.96507        1.0916943E-17
   51.10798        1.0912541E-17
   51.25090        1.0909970E-17
   51.39381        1.0910196E-17
   51.53672        1.0913311E-17
   51.67963        1.0918510E-17
   51.82254        1.0924347E-17
   51.96545        1.0929178E-17
   52.10837        1.0931679E-17
   52.25128        1.0931255E-17
   52.39419        1.0928230E-17
   52.53710        1.0923764E-17
   52.68001        1.0919491E-17
   52.82293        1.0917036E-17
   52.96584        1.0917509E-17
   53.10875        1.0921162E-17
   53.25166        1.0927306E-17
   53.39457        1.0934503E-17
   53.53748        1.0940996E-17
   53.68040        1.0945230E-17
   53.82331        1.0946311E-17
   53.96622        1.0944274E-17
   54.10913        1.0940061E-17
   54.25204        1.0935235E-17
   54.39495        1.0931504E-17
   54.53786        1.0930200E-17
   54.68078        1.0931887E-17
   54.82369        1.0936193E-17
   54.96660        1.0941935E-17
   55.10951        1.0947494E-17
   55.25242        1.0951314E-17
   55.39534        1.0952394E-17
   55.53825        1.0950595E-17
   55.68116        1.0946695E-17
   55.82407        1.0942151E-17
   55.96698        1.0938665E-17
   56.10989        1.0937660E-17
   56.25281        1.0939844E-17
   56.39572        1.0945000E-17
   56.53863        1.0952038E-17
   56.68154        1.0959323E-17
   56.82445        1.0965164E-17
   56.96737        1.0968312E-17
   57.11028        1.0968326E-17
   57.25319        1.0965691E-17
   57.39610        1.0961649E-17
   57.53901        1.0957807E-17
   57.68192        1.0955631E-17
   57.82484        1.0955996E-17
   57.96775        1.0958921E-17
   58.11066        1.0963566E-17
   58.25357        1.0968498E-17
   58.39648        1.0972147E-17
   58.53939        1.0973290E-17
   58.68230        1.0971442E-17
   58.82522        1.0967007E-17
   58.96813        1.0961166E-17
   59.11104        1.0955522E-17
   59.25395        1.0951622E-17
   59.39687        1.0950496E-17
   59.53978        1.0952363E-17
   59.68269        1.0956583E-17
   59.82560        1.0961877E-17
   59.96851        1.0966737E-17
   60.11142        1.0969896E-17
   60.25433        1.0970728E-17
   60.39725        1.0969425E-17
   60.54016        1.0966929E-17
   60.68307        1.0964629E-17
   60.82598        1.0963908E-17
   60.96889        1.0965711E-17
   61.11180        1.0970243E-17
   61.25471        1.0976902E-17
   61.39763        1.0984466E-17
   61.54054        1.0991468E-17
   61.68345        1.0996648E-17
   61.82636        1.0999334E-17
   61.96928        1.0999632E-17
   62.11219        1.0998372E-17
   62.25510        1.0996831E-17
   62.39801        1.0996315E-17
   62.54092        1.0997737E-17
   62.68383        1.1001326E-17
   62.82674        1.1006554E-17
   62.96966        1.1012300E-17
   63.11257        1.1017211E-17
   63.25548        1.1020123E-17
   63.39839        1.1020426E-17
   63.54131        1.1018253E-17
   63.68422        1.1014433E-17
   63.82713        1.1010227E-17
   63.97004        1.1006933E-17
   64.11295        1.1005486E-17
   64.25586        1.1006179E-17
   64.39877        1.1008597E-17
   64.54169        1.1011777E-17
   64.68460        1.1014541E-17
   64.82751        1.1015898E-17
   64.97042        1.1015376E-17
   65.11333        1.1013195E-17
   65.25625        1.1010196E-17
   65.39915        1.1007579E-17
   65.54207        1.1006524E-17
   65.68498        1.1007804E-17
   65.82789        1.1011533E-17
   65.97080        1.1017126E-17
   66.11372        1.1023465E-17
   66.25663        1.1029251E-17
   66.39954        1.1033393E-17
   66.54245        1.1035343E-17
   66.68536        1.1035243E-17
   66.82828        1.1033862E-17
   66.97118        1.1032328E-17
   67.11410        1.1031749E-17
   67.25701        1.1032855E-17
   67.39992        1.1035753E-17
   67.54283        1.1039902E-17
   67.68575        1.1044291E-17
   67.82866        1.1047770E-17
   67.97157        1.1049437E-17
   68.11448        1.1048929E-17
   68.25739        1.1046551E-17
   68.40031        1.1043185E-17
   68.54321        1.1040006E-17
   68.68613        1.1038113E-17
   68.82904        1.1038177E-17
   68.97195        1.1040230E-17
   69.11486        1.1043662E-17
   69.25777        1.1047419E-17
   69.40069        1.1050349E-17
   69.54359        1.1051576E-17
   69.68651        1.1050781E-17
   69.82942        1.1048307E-17
   69.97233        1.1045049E-17
   70.11524        1.1042160E-17
   70.25816        1.1040680E-17
   70.40107        1.1041204E-17
   70.54398        1.1043683E-17
   70.68689        1.1047453E-17
   70.82980        1.1051438E-17
   70.97272        1.1054504E-17
   71.11562        1.1055816E-17
   71.25854        1.1055104E-17
   71.40145        1.1052739E-17
   71.54436        1.1049602E-17
   71.68727        1.1046790E-17
   71.83018        1.1045256E-17
   71.97310        1.1045492E-17
   72.11600        1.1047378E-17
   72.25892        1.1050221E-17
   72.40183        1.1052997E-17
   72.54475        1.1054684E-17
   72.68765        1.1054616E-17
   72.83057        1.1052701E-17
   72.97348        1.1049461E-17
   73.11639        1.1045865E-17
   73.25930        1.1043022E-17
   73.40221        1.1041808E-17
   73.54513        1.1042593E-17
   73.68803        1.1045105E-17
   73.83095        1.1048525E-17
   73.97386        1.1051740E-17
   74.11678        1.1053707E-17
   74.25968        1.1053780E-17
   74.40260        1.1051917E-17
   74.54551        1.1048685E-17
   74.68842        1.1045068E-17
   74.83133        1.1042143E-17
   74.97424        1.1040725E-17
   75.11716        1.1041109E-17
   75.26006        1.1042974E-17
   75.40298        1.1045505E-17
   75.54589        1.1047670E-17
   75.68880        1.1048576E-17
   75.83171        1.1047770E-17
   75.97462        1.1045399E-17
   76.11754        1.1042171E-17
   76.26044        1.1039119E-17
   76.40336        1.1037260E-17
   76.54627        1.1037246E-17
   76.68919        1.1039141E-17
   76.83209        1.1042380E-17
   76.97501        1.1045942E-17
   77.11792        1.1048673E-17
   77.26083        1.1049651E-17
   77.40374        1.1048493E-17
   77.54665        1.1045478E-17
   77.68957        1.1041457E-17
   77.83247        1.1037585E-17
   77.97539        1.1034941E-17
   78.11830        1.1034184E-17
   78.26122        1.1035339E-17
   78.40412        1.1037791E-17
   78.54704        1.1040493E-17
   78.68995        1.1042311E-17
   78.83286        1.1042405E-17
   78.97577        1.1040501E-17
   79.11868        1.1036992E-17
   79.26160        1.1032799E-17
   79.40450        1.1029065E-17
   79.54742        1.1026767E-17
   79.69033        1.1026375E-17
   79.83324        1.1027687E-17
   79.97615        1.1029870E-17
   80.11906        1.1031729E-17
   80.26198        1.1032096E-17
   80.40488        1.1030226E-17
   80.54780        1.1026059E-17
   80.69071        1.1020273E-17
   80.83363        1.1014082E-17
   80.97653        1.1008880E-17
   81.11945        1.1005797E-17
   81.26236        1.1005344E-17
   81.40527        1.1007251E-17
   81.54818        1.1010547E-17
   81.69109        1.1013869E-17
   81.83401        1.1015897E-17
   81.97691        1.1015769E-17
   82.11983        1.1013361E-17
   82.26274        1.1009307E-17
   82.40565        1.1004790E-17
   82.54856        1.1001142E-17
   82.69147        1.0999390E-17
   82.83439        1.0999905E-17
   82.97730        1.1002266E-17
   83.12021        1.1005382E-17
   83.26312        1.1007839E-17
   83.40604        1.1008374E-17
   83.54894        1.1006294E-17
   83.69186        1.1001735E-17
   83.83477        1.0995649E-17
   83.97768        1.0989521E-17
   84.12059        1.0984916E-17
   84.26350        1.0982985E-17
   84.40642        1.0984085E-17
   84.54933        1.0987663E-17
   84.69224        1.0992405E-17
   84.83515        1.0996648E-17
   84.97807        1.0998895E-17
   85.12097        1.0998283E-17
   85.26389        1.0994854E-17
   85.40680        1.0989542E-17
   85.54971        1.0983865E-17
   85.69262        1.0979444E-17
   85.83553        1.0977471E-17
   85.97845        1.0978330E-17
   86.12135        1.0981465E-17
   86.26427        1.0985557E-17
   86.40718        1.0988953E-17
   86.55009        1.0990200E-17
   86.69300        1.0988525E-17
   86.83591        1.0984102E-17
   86.97883        1.0978010E-17
   87.12174        1.0971896E-17
   87.26465        1.0967453E-17
   87.40756        1.0965878E-17
   87.55048        1.0967474E-17
   87.69338        1.0971540E-17
   87.83630        1.0976579E-17
   87.97921        1.0980764E-17
   88.12212        1.0982516E-17
   88.26503        1.0981008E-17
   88.40794        1.0976439E-17
   88.55086        1.0969981E-17
   88.69377        1.0963415E-17
   88.83668        1.0958583E-17
   88.97959        1.0956800E-17
   89.12251        1.0958446E-17
   89.26541        1.0962845E-17
   89.40833        1.0968480E-17
   89.55124        1.0973475E-17
   89.69415        1.0976187E-17
   89.83706        1.0975731E-17
   89.97997        1.0972255E-17
   90.12289        1.0966879E-17
   90.26580        1.0961339E-17
   90.40871        1.0957414E-17
   90.55162        1.0956349E-17
   90.69453        1.0958442E-17
   90.83744        1.0962942E-17
   90.98035        1.0968284E-17
   91.12327        1.0972583E-17
   91.26618        1.0974245E-17
   91.40909        1.0972481E-17
   91.55200        1.0967583E-17
   91.69492        1.0960831E-17
   91.83783        1.0954114E-17
   91.98074        1.0949327E-17
   92.12365        1.0947783E-17
   92.26656        1.0949799E-17
   92.40947        1.0954592E-17
   92.55238        1.0960536E-17
   92.69530        1.0965679E-17
   92.83821        1.0968364E-17
   92.98112        1.0967764E-17
   93.12403        1.0964136E-17
   93.26694        1.0958744E-17
   93.40986        1.0953451E-17
   93.55276        1.0950119E-17
   93.69568        1.0950008E-17
   93.83859        1.0953372E-17
   93.98150        1.0959366E-17
   94.12441        1.0966313E-17
   94.26733        1.0972240E-17
   94.41024        1.0975498E-17
   94.55315        1.0975290E-17
   94.69606        1.0971922E-17
   94.83897        1.0966699E-17
   94.98188        1.0961501E-17
   95.12479        1.0958172E-17
   95.26771        1.0957918E-17
   95.41062        1.0960908E-17
   95.55353        1.0966207E-17
   95.69644        1.0972065E-17
   95.83936        1.0976467E-17
   95.98227        1.0977774E-17
   96.12518        1.0975253E-17
   96.26809        1.0969315E-17
   96.41100        1.0961392E-17
   96.55391        1.0953498E-17
   96.69682        1.0947596E-17
   96.83974        1.0944978E-17
   96.98265        1.0945878E-17
   97.12556        1.0949393E-17
   97.26847        1.0953798E-17
   97.41138        1.0957099E-17
   97.55430        1.0957688E-17
   97.69720        1.0954866E-17
   97.84012        1.0949076E-17
   97.98303        1.0941777E-17
   98.12594        1.0934972E-17
   98.26885        1.0930576E-17
   98.41177        1.0929796E-17
   98.55468        1.0932736E-17
   98.69759        1.0938345E-17
   98.84050        1.0944744E-17
   98.98341        1.0949804E-17
   99.12633        1.0951815E-17
   99.26923        1.0950022E-17
   99.41215        1.0944858E-17
   99.55506        1.0937806E-17
   99.69797        1.0930922E-17
   99.84088        1.0926179E-17
   99.98380        1.0924837E-17
   100.1267        1.0927034E-17
   100.2696        1.0931744E-17
   100.4125        1.0937090E-17
   100.5554        1.0940948E-17
   100.6984        1.0941617E-17
   100.8413        1.0938365E-17
   100.9842        1.0931669E-17
   101.1271        1.0923075E-17
   101.2700        1.0914710E-17
   101.4129        1.0908625E-17
   101.5558        1.0906141E-17
   101.6987        1.0907438E-17
   101.8416        1.0911498E-17
   101.9846        1.0916429E-17
   102.1275        1.0920059E-17
   102.2704        1.0920624E-17
   102.4133        1.0917328E-17
   102.5562        1.0910599E-17
   102.6991        1.0901953E-17
   102.8420        1.0893516E-17
   102.9849        1.0887367E-17
   103.1279        1.0884871E-17
   103.2708        1.0886260E-17
   103.4137        1.0890559E-17
   103.5566        1.0895897E-17
   103.6995        1.0900096E-17
   103.8424        1.0901366E-17
   103.9853        1.0898861E-17
   104.1282        1.0892948E-17
   104.2711        1.0885091E-17
   104.4141        1.0877375E-17
   104.5570        1.0871855E-17
   104.6999        1.0869883E-17
   104.8428        1.0871684E-17
   104.9857        1.0876269E-17
   105.1286        1.0881735E-17
   105.2715        1.0885850E-17
   105.4144        1.0886756E-17
   105.5574        1.0883534E-17
   105.7003        1.0876505E-17
   105.8432        1.0867118E-17
   105.9861        1.0857512E-17
   106.1290        1.0849849E-17
   106.2719        1.0845660E-17
   106.4148        1.0845379E-17
   106.5577        1.0848240E-17
   106.7006        1.0852536E-17
   106.8436        1.0856181E-17
   106.9865        1.0857383E-17
   107.1294        1.0855220E-17
   107.2723        1.0849932E-17
   107.4152        1.0842845E-17
   107.5581        1.0835941E-17
   107.7010        1.0831236E-17
   107.8439        1.0830119E-17
   107.9869        1.0832910E-17
   108.1298        1.0838747E-17
   108.2727        1.0845838E-17
   108.4156        1.0852016E-17
   108.5585        1.0855407E-17
   108.7014        1.0855010E-17
   108.8443        1.0851003E-17
   108.9872        1.0844679E-17
   109.1301        1.0838040E-17
   109.2731        1.0833167E-17
   109.4160        1.0831571E-17
   109.5589        1.0833728E-17
   109.7018        1.0838931E-17
   109.8447        1.0845518E-17
   109.9876        1.0851399E-17
   110.1305        1.0854704E-17
   110.2734        1.0854358E-17
   110.4164        1.0850408E-17
   110.5593        1.0843985E-17
   110.7022        1.0836941E-17
   110.8451        1.0831245E-17
   110.9880        1.0828364E-17
   111.1309        1.0828805E-17
   111.2738        1.0831962E-17
   111.4167        1.0836331E-17
   111.5596        1.0839997E-17
   111.7026        1.0841267E-17
   111.8455        1.0839222E-17
   111.9884        1.0834034E-17
   112.1313        1.0826930E-17
   112.2742        1.0819820E-17
   112.4171        1.0814720E-17
   112.5600        1.0813113E-17
   112.7029        1.0815498E-17
   112.8458        1.0821222E-17
   112.9888        1.0828677E-17
   113.1317        1.0835782E-17
   113.2746        1.0840616E-17
   113.4175        1.0841984E-17
   113.5604        1.0839760E-17
   113.7033        1.0834901E-17
   113.8462        1.0829105E-17
   113.9891        1.0824275E-17
   114.1321        1.0821897E-17
   114.2750        1.0822589E-17
   114.4179        1.0825910E-17
   114.5608        1.0830518E-17
   114.7037        1.0834615E-17
   114.8466        1.0836528E-17
   114.9895        1.0835249E-17
   115.1324        1.0830772E-17
   115.2754        1.0824092E-17
   115.4183        1.0816897E-17
   115.5612        1.0811041E-17
   115.7041        1.0807952E-17
   115.8470        1.0808188E-17
   115.9899        1.0811248E-17
   116.1328        1.0815733E-17
   116.2757        1.0819776E-17
   116.4186        1.0821623E-17
   116.5616        1.0820187E-17
   116.7045        1.0815382E-17
   116.8474        1.0808159E-17
   116.9903        1.0800217E-17
   117.1332        1.0793484E-17
   117.2761        1.0789534E-17
   117.4190        1.0789114E-17
   117.5619        1.0791928E-17
   117.7048        1.0796744E-17
   117.8478        1.0801784E-17
   117.9907        1.0805271E-17
   118.1336        1.0805967E-17
   118.2765        1.0803527E-17
   118.4194        1.0798575E-17
   118.5623        1.0792465E-17
   118.7052        1.0786827E-17
   118.8481        1.0783030E-17
   118.9911        1.0781736E-17
   119.1340        1.0782692E-17
   119.2769        1.0784816E-17
   119.4198        1.0786549E-17
   119.5627        1.0786364E-17
   119.7056        1.0783265E-17
   119.8485        1.0777125E-17
   119.9914        1.0768742E-17
   120.1343        1.0759610E-17
   120.2773        1.0751472E-17
   120.4202        1.0745787E-17
   120.5631        1.0743283E-17
   120.7060        1.0743734E-17
   120.8489        1.0746031E-17
   120.9918        1.0748510E-17
   121.1347        1.0749460E-17
   121.2776        1.0747634E-17
   121.4206        1.0742607E-17
   121.5635        1.0734893E-17
   121.7064        1.0725762E-17
   121.8493        1.0716844E-17
   121.9922        1.0709622E-17
   122.1351        1.0704984E-17
   122.2780        1.0702983E-17
   122.4209        1.0702844E-17
   122.5639        1.0703237E-17