  -7.200000       -3.3340704E-19
  -7.057088       -3.4337870E-19
  -6.914176       -3.6245049E-19
  -6.771265       -3.8914864E-19
  -6.628353       -4.2150521E-19
  -6.485441       -4.5720134E-19
  -6.342530       -4.9374654E-19
  -6.199618       -5.2867124E-19
  -6.056706       -5.5972386E-19
  -5.913795       -5.8505347E-19
  -5.770883       -6.0336425E-19
  -5.627971       -6.1402542E-19
  -5.485059       -6.1712027E-19
  -5.342147       -6.1343652E-19
  -5.199236       -6.0439130E-19
  -5.056324       -5.9189870E-19
  -4.913413       -5.7819361E-19
  -4.770501       -5.6562781E-19
  -4.627589       -5.5646280E-19
  -4.484677       -5.5266858E-19
  -4.341765       -5.5575799E-19
  -4.198854       -5.6666013E-19
  -4.055942       -5.8564491E-19
  -3.913030       -6.1230696E-19
  -3.770118       -6.4559756E-19
  -3.627207       -6.8390838E-19
  -3.484295       -7.2519819E-19
  -3.341383       -7.6715087E-19
  -3.198472       -8.0735490E-19
  -3.055560       -8.4349535E-19
  -2.912648       -8.7354336E-19
  -2.769737       -8.9592728E-19
  -2.626825       -9.0967389E-19
  -2.483913       -9.1450638E-19
  -2.341001       -9.1088519E-19
  -2.198090       -8.9998626E-19
  -2.055178       -8.8361325E-19
  -1.912266       -8.6404940E-19
  -1.769354       -8.4386076E-19
  -1.626443       -8.2566951E-19
  -1.483531       -8.1192140E-19
  -1.340619       -8.0466491E-19
  -1.197708       -8.0537081E-19
  -1.054796       -8.1480723E-19
 -0.9118841       -8.3298365E-19
 -0.7689723       -8.5915905E-19
 -0.6260606       -8.9192073E-19
 -0.4831489       -9.2931643E-19
 -0.3402372       -9.6902668E-19
 -0.1973254       -1.0085607E-18
 -5.4413714E-02   -1.0454614E-18
  8.8498011E-02   -1.0775000E-18
  0.2314097       -1.1028561E-18
  0.3743215       -1.1202599E-18
  0.5172332       -1.1290982E-18
  0.6601449       -1.1294733E-18
  0.8030567       -1.1222045E-18
  0.9459684       -1.1087718E-18
   1.088880       -1.0912057E-18
   1.231792       -1.0719184E-18
   1.374704       -1.0534947E-18
   1.517615       -1.0384582E-18
   1.660527       -1.0290343E-18
   1.803439       -1.0269353E-18
   1.946350       -1.0331938E-18
   2.089262       -1.0480629E-18
   2.232174       -1.0709958E-18
   2.375086       -1.1007099E-18
   2.517997       -1.1353200E-18
   2.660909       -1.1725324E-18
   2.803821       -1.2098683E-18
   2.946733       -1.2448934E-18
   3.089644       -1.2754319E-18
   3.232556       -1.2997377E-18
   3.375468       -1.3166212E-18
   3.518379       -1.3255178E-18
   3.661291       -1.3265075E-18
   3.804203       -1.3202856E-18
   3.947115       -1.3080975E-18
   4.090026       -1.2916389E-18
   4.232938       -1.2729292E-18
   4.375850       -1.2541661E-18
   4.518762       -1.2375597E-18
   4.661673       -1.2251587E-18
   4.804585       -1.2186754E-18
   4.947497       -1.2193277E-18
   5.090408       -1.2277137E-18
   5.233320       -1.2437361E-18
   5.376232       -1.2665924E-18
   5.519144       -1.2948365E-18
   5.662055       -1.3265127E-18
   5.804967       -1.3593476E-18
   5.947879       -1.3909795E-18
   6.090790       -1.4191973E-18
   6.233702       -1.4421621E-18
   6.376614       -1.4585762E-18
   6.519526       -1.4677933E-18
   6.662437       -1.4698499E-18
   6.805349       -1.4654282E-18
   6.948261       -1.4557555E-18
   7.091173       -1.4424668E-18
   7.234084       -1.4274415E-18
   7.376996       -1.4126395E-18
   7.519908       -1.3999493E-18
   7.662819       -1.3910517E-18
   7.805731       -1.3873124E-18
   7.948643       -1.3896907E-18
   8.091555       -1.3986764E-18
   8.234467       -1.4142445E-18
   8.377378       -1.4358410E-18
   8.520289       -1.4623994E-18
   8.663201       -1.4923988E-18
   8.806113       -1.5239673E-18
   8.949025       -1.5550260E-18
   9.091937       -1.5834755E-18
   9.234848       -1.6073967E-18
   9.377760       -1.6252543E-18
   9.520672       -1.6360686E-18
   9.663584       -1.6395341E-18
   9.806496       -1.6360615E-18
   9.949407       -1.6267437E-18
   10.09232       -1.6132313E-18
   10.23523       -1.5975480E-18
   10.37814       -1.5818668E-18
   10.52105       -1.5682742E-18
   10.66397       -1.5585577E-18
   10.80688       -1.5540396E-18
   10.94979       -1.5554801E-18
   11.09270       -1.5630433E-18
   11.23561       -1.5763332E-18
   11.37852       -1.5944777E-18
   11.52144       -1.6162455E-18
   11.66435       -1.6401758E-18
   11.80726       -1.6647060E-18
   11.95017       -1.6882922E-18
   12.09308       -1.7095100E-18
   12.23599       -1.7271473E-18
   12.37891       -1.7402844E-18
   12.52182       -1.7483622E-18
   12.66473       -1.7512373E-18
   12.80764       -1.7492155E-18
   12.95055       -1.7430528E-18
   13.09346       -1.7339149E-18
   13.23638       -1.7232869E-18
   13.37929       -1.7128357E-18
   13.52220       -1.7042370E-18
   13.66511       -1.6989850E-18
   13.80802       -1.6982113E-18
   13.95094       -1.7025426E-18
   14.09385       -1.7120208E-18
   14.23676       -1.7261001E-18
   14.37967       -1.7437224E-18
   14.52258       -1.7634637E-18
   14.66549       -1.7837211E-18
   14.80841       -1.8029171E-18
   14.95132       -1.8196797E-18
   15.09423       -1.8329838E-18
   15.23714       -1.8422297E-18
   15.38005       -1.8472579E-18
   15.52296       -1.8483090E-18
   15.66588       -1.8459489E-18
   15.80879       -1.8409705E-18
   15.95170       -1.8343038E-18
   16.09461       -1.8269351E-18
   16.23752       -1.8198453E-18
   16.38043       -1.8139599E-18
   16.52335       -1.8101071E-18
   16.66626       -1.8089729E-18
   16.80917       -1.8110472E-18
   16.95208       -1.8165687E-18
   17.09499       -1.8254739E-18
   17.23791       -1.8373634E-18
   17.38082       -1.8515061E-18
   17.52373       -1.8668877E-18
   17.66664       -1.8823074E-18
   17.80955       -1.8965177E-18
   17.95246       -1.9083803E-18
   18.09538       -1.9170240E-18
   18.23829       -1.9219614E-18
   18.38120       -1.9231563E-18
   18.52411       -1.9210219E-18
   18.66702       -1.9163492E-18
   18.80993       -1.9101757E-18
   18.95285       -1.9036329E-18
   19.09576       -1.8977819E-18
   19.23867       -1.8934799E-18
   19.38158       -1.8912897E-18
   19.52449       -1.8914438E-18
   19.66740       -1.8938637E-18
   19.81032       -1.8982161E-18
   19.95323       -1.9039928E-18
   20.09614       -1.9105939E-18
   20.23905       -1.9174007E-18
   20.38196       -1.9238246E-18
   20.52488       -1.9293429E-18
   20.66779       -1.9335194E-18
   20.81070       -1.9360185E-18
   20.95361       -1.9366261E-18
   21.09652       -1.9352742E-18
   21.23943       -1.9320679E-18
   21.38235       -1.9273056E-18
   21.52526       -1.9214829E-18
   21.66817       -1.9152674E-18
   21.81108       -1.9094420E-18
   21.95399       -1.9048146E-18
   22.09690       -1.9021134E-18
   22.23981       -1.9018783E-18
   22.38273       -1.9043720E-18
   22.52564       -1.9095272E-18
   22.66855       -1.9169460E-18
   22.81146       -1.9259536E-18
   22.95437       -1.9356930E-18
   23.09729       -1.9452525E-18
   23.24020       -1.9537979E-18
   23.38311       -1.9606894E-18
   23.52602       -1.9655617E-18
   23.66893       -1.9683590E-18
   23.81184       -1.9693220E-18
   23.95476       -1.9689326E-18
   24.09767       -1.9678300E-18
   24.24058       -1.9667148E-18
   24.38349       -1.9662584E-18
   24.52640       -1.9670198E-18
   24.66932       -1.9693928E-18
   24.81223       -1.9735708E-18
   24.95514       -1.9795338E-18
   25.09805       -1.9870545E-18
   25.24096       -1.9957190E-18
   25.38387       -2.0049638E-18
   25.52678       -2.0141207E-18
   25.66970       -2.0224798E-18
   25.81261       -2.0293582E-18
   25.95552       -2.0341817E-18
   26.09843       -2.0365621E-18
   26.24134       -2.0363640E-18
   26.38426       -2.0337486E-18
   26.52717       -2.0291841E-18
   26.67008       -2.0234141E-18
   26.81299       -2.0173831E-18
   26.95590       -2.0121307E-18
   27.09881       -2.0086553E-18
   27.24173       -2.0077861E-18
   27.38464       -2.0100605E-18
   27.52755       -2.0156431E-18
   27.67046       -2.0242905E-18
   27.81337       -2.0353730E-18
   27.95629       -2.0479437E-18
   28.09920       -2.0608543E-18
   28.24211       -2.0728923E-18
   28.38502       -2.0829272E-18
   28.52793       -2.0900480E-18
   28.67084       -2.0936680E-18
   28.81376       -2.0935939E-18
   28.95667       -2.0900517E-18
   29.09958       -2.0836626E-18
   29.24249       -2.0753792E-18
   29.38540       -2.0663857E-18
   29.52831       -2.0579739E-18
   29.67122       -2.0514042E-18
   29.81414       -2.0477694E-18
   29.95705       -2.0478713E-18
   30.09996       -2.0521247E-18
   30.24287       -2.0605015E-18
   30.38578       -2.0725200E-18
   30.52870       -2.0872858E-18
   30.67161       -2.1035790E-18
   30.81452       -2.1199833E-18
   30.95743       -2.1350375E-18
   31.10034       -2.1473985E-18
   31.24325       -2.1559896E-18
   31.38617       -2.1601243E-18
   31.52908       -2.1595812E-18
   31.67199       -2.1546343E-18
   31.81490       -2.1460200E-18
   31.95781       -2.1348640E-18
   32.10072       -2.1225618E-18
   32.24364       -2.1106388E-18
   32.38655       -2.1005964E-18
   32.52946       -2.0937594E-18
   32.67237       -2.0911461E-18
   32.81528       -2.0933613E-18
   32.95819       -2.1005292E-18
   33.10111       -2.1122648E-18
   33.24402       -2.1276978E-18
   33.38693       -2.1455402E-18
   33.52984       -2.1641994E-18
   33.67275       -2.1819333E-18
   33.81567       -2.1970296E-18
   33.95858       -2.2079951E-18
   34.10149       -2.2137349E-18
   34.24440       -2.2136958E-18
   34.38731       -2.2079537E-18
   34.53022       -2.1972301E-18
   34.67313       -2.1828287E-18
   34.81605       -2.1664958E-18
   34.95896       -2.1502213E-18
   35.10187       -2.1360089E-18
   35.24478       -2.1256401E-18
   35.38770       -2.1204715E-18
   35.53061       -2.1212857E-18
   35.67352       -2.1282232E-18
   35.81643       -2.1407912E-18
   35.95934       -2.1579461E-18
   36.10225       -2.1782304E-18
   36.24516       -2.1999437E-18
   36.38808       -2.2213166E-18
   36.53099       -2.2406726E-18
   36.67390       -2.2565613E-18
   36.81681       -2.2678616E-18
   36.95972       -2.2738527E-18
   37.10263       -2.2742622E-18
   37.24555       -2.2692923E-18
   37.38846       -2.2596312E-18
   37.53137       -2.2464356E-18
   37.67428       -2.2312850E-18
   37.81719       -2.2160886E-18
   37.96011       -2.2029447E-18
   38.10302       -2.1939464E-18
   38.24593       -2.1909516E-18
   38.38884       -2.1953407E-18
   38.53175       -2.2077918E-18
   38.67466       -2.2281169E-18
   38.81758       -2.2551903E-18
   38.96049       -2.2869890E-18
   39.10340       -2.3207578E-18
   39.24631       -2.3532780E-18
   39.38922       -2.3812117E-18
   39.53214       -2.4014786E-18
   39.67505       -2.4116124E-18
   39.81796       -2.4100579E-18
   39.96087       -2.3963718E-18
   40.10378       -2.3713074E-18
   40.24669       -2.3367821E-18
   40.38961       -2.2957426E-18
   40.53252       -2.2519378E-18
   40.67543       -2.2096308E-18
   40.81834       -2.1732628E-18
   40.96125       -2.1470991E-18
   41.10416       -2.1348591E-18
   41.24707       -2.1393641E-18
   41.38999       -2.1622154E-18
   41.53290       -2.2035281E-18
   41.67581       -2.2617604E-18
   41.81872       -2.3336655E-18
   41.96163       -2.4143926E-18
   42.10455       -2.4977535E-18
   42.24746       -2.5766488E-18
   42.39037       -2.6436227E-18
   42.53328       -2.6915043E-18
   42.67619       -2.7140629E-18
   42.81910       -2.7066193E-18
   42.96202       -2.6665404E-18
   43.10493       -2.5935791E-18
   43.24784       -2.4900359E-18
   43.39075       -2.3607445E-18
   43.53366       -2.2129009E-18
   43.67657       -2.0557701E-18
   43.81948       -1.9003075E-18
   43.96240       -1.7586960E-18
   44.10531       -1.6438239E-18
   44.24822       -1.5686653E-18
   44.39113       -1.5455539E-18
   44.53405       -1.5853100E-18
   44.67696       -1.6962262E-18
   44.81987       -1.8829259E-18
   44.96278       -2.1451688E-18
   45.10569       -2.4767175E-18
   45.24860       -2.8644156E-18
   45.39151       -3.2876709E-18
   45.53443       -3.7185114E-18
   45.67734       -4.1223944E-18
   45.82025       -4.4598688E-18
   45.96316       -4.6891268E-18
   46.10608       -4.7693836E-18
   46.24899       -4.6649119E-18
   46.39190       -4.3494505E-18
   46.53481       -3.8106048E-18
   46.67772       -3.0537930E-18
   46.82063       -2.1052336E-18
   46.96354       -1.0134892E-18
   47.10646        1.5087376E-19
   47.24937        1.2978295E-18
   47.39228        2.3228019E-18
   47.53519        3.1138755E-18
   47.67810        3.5610018E-18
   47.82101        3.5666241E-18
   47.96392        3.0569088E-18
   48.10684        1.9925418E-18
   48.24975        3.7795237E-19
   48.39266       -1.7322234E-18
   48.53557       -4.2305106E-18
   48.67849       -6.9586387E-18
   48.82140       -9.7147334E-18
   48.96431       -1.2265673E-17
   49.10722       -1.4364097E-17
   49.25013       -1.5769001E-17
   49.39304       -1.6268348E-17
   49.53595       -1.5701796E-17
   49.67887       -1.3981314E-17
   49.82178       -1.1107548E-17
   49.96469       -7.1799046E-18
   50.10760       -2.3988378E-18
   50.25051        2.9406651E-18
   50.39342        8.4645649E-18
   50.53634        1.3743610E-17
   50.67925        1.8324133E-17
   50.82216        2.1763635E-17
   50.96507        2.3668529E-17
   51.10798        2.3731019E-17
   51.25090        2.1762017E-17
   51.39381        1.7717229E-17
   51.53672        1.1713844E-17
   51.67963        4.0359035E-18
   51.82254       -4.8728709E-18
   51.96545       -1.4429211E-17
   52.10837       -2.3942993E-17
   52.25128       -3.2661180E-17
   52.39419       -3.9820991E-17
   52.53710       -4.4709373E-17
   52.68001       -4.6725186E-17
   52.82293       -4.5439873E-17
   52.96584       -4.0651851E-17
   53.10875       -3.2429510E-17
   53.25166       -2.1137740E-17
   53.39457       -7.4432507E-18
   53.53748        7.7053338E-18
   53.68040        2.3124939E-17
   53.82331        3.7473651E-17
   53.96622        4.9352292E-17
   54.10913        5.7426921E-17
   54.25204        6.0564001E-17
   54.39495        5.7967077E-17
   54.53786        4.9301543E-17
   54.68078        3.4792540E-17
   54.82369        1.5281389E-17
   54.96660       -7.7723048E-18
   55.10951       -3.2352069E-17
   55.25242       -5.6013243E-17
   55.39534       -7.6075827E-17
   55.53825       -8.9870798E-17
   55.68116       -9.5021612E-17
   55.82407       -8.9735915E-17
   55.96698       -7.3077728E-17
   56.10989       -4.5188295E-17
   56.25281       -7.4251744E-18
   56.39572        3.7606029E-17
   56.53863        8.6144462E-17
   56.68154        1.3349722E-16
   56.82445        1.7438589E-16
   56.96737        2.0339544E-16
   57.11028        2.1549220E-16
   57.25319        2.0656697E-16
   57.39610        1.7395303E-16
   57.53901        1.1686676E-16
   57.68192        3.6722263E-17
   57.82484       -6.2721407E-17
   57.96775       -1.7540800E-16
   58.11066       -2.9323976E-16
   58.25357       -4.0653598E-16
   58.39648       -5.0467176E-16
   58.53939       -5.7685855E-16
   58.68230       -6.1301442E-16
   58.82522       -6.0466209E-16
   58.96813       -5.4578912E-16
   59.11104       -4.3360231E-16
   59.25395       -2.6911346E-16
   59.39687       -5.7501745E-17
   59.53978        1.9179184E-16
   59.68269        4.6526757E-16
   59.82560        7.4588101E-16
   59.96851        1.0138642E-15
   60.11142        1.2478304E-15
   60.25433        1.4261180E-15
   60.39725        1.5283112E-15
   60.54016        1.5368538E-15
   60.68307        1.4386563E-15
   60.82598        1.2265806E-15
   60.96889        9.0068317E-16
   61.11180        4.6909293E-16
   61.25471       -5.1588495E-17
   61.39763       -6.3645738E-16
   61.54054       -1.2531094E-15
   61.68345       -1.8630939E-15
   61.82636       -2.4239885E-15
   61.96928       -2.8920104E-15
   62.11219       -3.2250225E-15
   62.25510       -3.3857451E-15
   62.39801       -3.3449418E-15
   62.54092       -3.0843265E-15
   62.68383       -2.5989338E-15
   62.82674       -1.8987173E-15
   62.96966       -1.0091789E-15
   63.11257        2.9104472E-17
   63.25548        1.1621035E-15
   63.39839        2.3250752E-15
   63.54131        3.4462840E-15
   63.68422        4.4514830E-15
   63.82713        5.2688664E-15
   63.97004        5.8341448E-15
   64.11295        6.0953660E-15
   64.25586        6.0171133E-15
   64.39877        5.5837416E-15
   64.54169        4.8013643E-15
   64.68460        3.6984042E-15
   64.82751        2.3246051E-15
   64.97042        7.4852259E-16
   65.11333       -9.4637498E-16
   65.25625       -2.6667630E-15
   65.39915       -4.3153368E-15
   65.54207       -5.7971125E-15
   65.68498       -7.0256961E-15
   65.82789       -7.9290669E-15
   65.97080       -8.4544171E-15
   66.11372       -8.5716761E-15
   66.25663       -8.2753959E-15
   66.39954       -7.5848234E-15
   66.54245       -6.5420996E-15
   66.68536       -5.2086944E-15
   66.82828       -3.6603267E-15
   66.97118       -1.9807681E-15
   67.11410       -2.5505041E-16
   67.25701        1.4373117E-15
   67.39992        3.0284592E-15
   67.54283        4.4670536E-15
   67.68575        5.7213442E-15
   67.82866        6.7800316E-15
   67.97157        7.6507370E-15
   68.11448        8.3561003E-15
   68.25739        8.9278001E-15
   68.40031        9.3990054E-15
   68.54321        9.7960512E-15
   68.68613        1.0130207E-14
   68.82904        1.0390580E-14
   68.97195        1.0539135E-14
   69.11486        1.0508729E-14
   69.25777        1.0204833E-14
   69.40069        9.5113397E-15
   69.54359        8.3004248E-15
   69.68651        6.4460753E-15
   69.82942        3.8404165E-15
   69.97233        4.1161365E-16
   70.11524       -3.8582342E-15
   70.25816       -8.9169827E-15
   70.40107       -1.4629968E-14
   70.54398       -2.0772963E-14
   70.68689       -2.7032062E-14
   70.82980       -3.3011632E-14
   70.97272       -3.8250849E-14
   71.11562       -4.2248689E-14
   71.25854       -4.4496521E-14
   71.40145       -4.4516633E-14
   71.54436       -4.1904400E-14
   71.68727       -3.6371114E-14
   71.83018       -2.7784175E-14
   71.97310       -1.6201077E-14
   72.11600       -1.8937529E-15
   72.25892        1.4639865E-14
   72.40183        3.2679473E-14
   72.54475        5.1302807E-14
   72.68765        6.9423200E-14
   72.83057        8.5843516E-14
   72.97348        9.9324229E-14
   73.11639        1.0866224E-13
   73.25930        1.1277582E-13
   73.40221        1.1079032E-13
   73.54513        1.0211860E-13
   73.68803        8.6529925E-14
   73.83095        6.4201879E-14
   73.97386        3.5749659E-14
   74.11678        2.2294178E-15
   74.25968       -3.4887163E-14
   74.40260       -7.3767422E-14
   74.54551       -1.1230016E-13
   74.68842       -1.4820266E-13
   74.83133       -1.7914701E-13
   74.97424       -2.0289911E-13
   75.11716       -2.1746236E-13
   75.26006       -2.2121695E-13
   75.40298       -2.1304603E-13
   75.54589       -1.9243971E-13
   75.68880       -1.5956914E-13
   75.83171       -1.1532410E-13
   75.97462       -6.1309546E-14
   76.11754        2.0119857E-16
   76.26044        6.6356168E-14
   76.40336        1.3385458E-13
   76.54627        1.9911100E-13
   76.68919        2.5844566E-13
   76.83209        3.0829056E-13
   76.97501        3.4539987E-13
   77.11792        3.6705133E-13
   77.26083        3.7122641E-13
   77.40374        3.5675654E-13
   77.54665        3.2342531E-13
   77.68957        2.7201830E-13
   77.83247        2.0431539E-13
   77.97539        1.2302430E-13
   78.11830        3.1657402E-14
   78.26122       -6.5641645E-14
   78.40412       -1.6431205E-13
   78.54704       -2.5961782E-13
   78.68995       -3.4690276E-13
   78.83286       -4.2184206E-13
   78.97577       -4.8067518E-13
   79.11868       -5.2040398E-13
   79.26160       -5.3894465E-13
   79.40450       -5.3522275E-13
   79.54742       -5.0920748E-13
   79.69033       -4.6188232E-13
   79.83324       -3.9515738E-13
   79.97615       -3.1173011E-13
   80.11906       -2.1490616E-13
   80.26198       -1.0839484E-13
   80.40488        3.9047740E-15
   80.54780        1.1811083E-13
   80.69071        2.3054302E-13
   80.83363        3.3787103E-13
   80.97653        4.3721678E-13
   81.11945        5.2620479E-13
   81.26236        6.0295941E-13
   81.40527        6.6605304E-13
   81.54818        7.1441383E-13
   81.69109        7.4720606E-13
   81.83401        7.6369933E-13
   81.97691        7.6314443E-13
   82.11983        7.4467456E-13
   82.26274        7.0724806E-13
   82.40565        6.4964760E-13
   82.54856        5.7054312E-13
   82.69147        4.6862270E-13
   82.83439        3.4278645E-13
   82.97730        1.9239285E-13
   83.12021        1.7539623E-14
   83.26312       -1.8064504E-13
   83.40604       -3.9972778E-13
   83.54894       -6.3574206E-13
   83.69186       -8.8303556E-13
   83.83477       -1.1342189E-12
   83.97768       -1.3802361E-12
   84.12059       -1.6105686E-12
   84.26350       -1.8135753E-12
   84.40642       -1.9769626E-12
   84.54933       -2.0883636E-12
   84.69224       -2.1359988E-12
   84.83515       -2.1093867E-12
   84.97807       -2.0000549E-12
   85.12097       -1.8022127E-12
   85.26389       -1.5133389E-12
   85.40680       -1.1346435E-12
   85.54971       -6.7136634E-13
   85.69262       -1.3288994E-13
   85.83553        4.6735229E-13
   85.97845        1.1121752E-12
   86.12135        1.7811411E-12
   86.26427        2.4512378E-12
   86.40718        3.0977072E-12
   86.55009        3.6949849E-12
   86.69300        4.2177008E-12
   86.83591        4.6417007E-12
   86.97883        4.9450249E-12
   87.12174        5.1088057E-12
   87.26465        5.1180375E-12
   87.40756        4.9621761E-12
   87.55048        4.6355524E-12
   87.69338        4.1375770E-12
   87.83630        3.4727423E-12
   87.97921        2.6504320E-12
   88.12212        1.6845671E-12
   88.26503        5.9312603E-13
   88.40794       -6.0241130E-13
   88.55086       -1.8776432E-12
   88.69377       -3.2057978E-12
   88.83668       -4.5582058E-12
   88.97959       -5.9046587E-12
   89.12251       -7.2136316E-12
   89.26541       -8.4523716E-12
   89.40833       -9.5868634E-12
   89.55124       -1.0581739E-11
   89.69415       -1.1400172E-11
   89.83706       -1.2003879E-11
   89.97997       -1.2353282E-11
   90.12289       -1.2407973E-11
   90.26580       -1.2127555E-11
   90.40871       -1.1472921E-11
   90.55162       -1.0408042E-11
   90.69453       -8.9022505E-12
   90.83744       -6.9329681E-12
   90.98035       -4.4887987E-12
   91.12327       -1.5728213E-12
   91.26618        1.7940983E-12
   91.40909        5.5702313E-12
   91.55200        9.6903987E-12
   91.69492        1.4064151E-11
   91.83783        1.8574987E-11
   91.98074        2.3080848E-11
   92.12365        2.7416085E-11
   92.26656        3.1395022E-11
   92.40947        3.4817177E-11
   92.55238        3.7474066E-11
   92.69530        3.9157469E-11
   92.83821        3.9668914E-11
   92.98112        3.8829991E-11
   93.12403        3.6493121E-11
   93.26694        3.2552259E-11
   93.40986        2.6952964E-11
   93.55276        1.9701287E-11
   93.69568        1.0870921E-11
   93.83859        6.0805240E-13
   93.98150       -1.0866538E-11
   94.12441       -2.3258478E-11
   94.26733       -3.6204185E-11
   94.41024       -4.9278723E-11
   94.55315       -6.2007101E-11
   94.69606       -7.3878757E-11
   94.83897       -8.4364918E-11
   94.98188       -9.2938227E-11
   95.12479       -9.9093962E-11
   95.26771       -1.0237209E-10
   95.41062       -1.0237924E-10
   95.55353       -9.8809592E-11
   95.69644       -9.1463885E-11
   95.83936       -8.0265461E-11
   95.98227       -6.5272635E-11
   96.12518       -4.6686703E-11
   96.26809       -2.4854903E-11
   96.41100       -2.6812959E-13
   96.55391        2.6446867E-11
   96.69682        5.4540691E-11
   96.83974        8.3159708E-11
   96.98265        1.1136915E-10
   97.12556        1.3818037E-10
   97.26847        1.6258127E-10
   97.41138        1.8356935E-10
   97.55430        2.0018609E-10
   97.69720        2.1155168E-10
   97.84012        2.1689929E-10
   97.98303        2.1560743E-10
   98.12594        2.0722980E-10
   98.26885        1.9152122E-10
   98.41177        1.6845909E-10
   98.55468        1.3825931E-10
   98.69759        1.0138584E-10
   98.84050        5.8553364E-11
   98.98341        1.0722451E-11
   99.12633       -4.0913290E-11
   99.26923       -9.4948313E-11
   99.41215       -1.4979447E-10
   99.55506       -2.0371863E-10
   99.69797       -2.5488794E-10
   99.84088       -3.0142236E-10
   99.98380       -3.4145317E-10
   100.1267       -3.7318609E-10
   100.2696       -3.9496797E-10
   100.4125       -4.0535414E-10
   100.5554       -4.0317508E-10
   100.6984       -3.8759945E-10
   100.8413       -3.5819098E-10
   100.9842       -3.1495662E-10
   101.1271       -2.5838343E-10
   101.2700       -1.8946152E-10
   101.4129       -1.0969088E-10
   101.5558       -2.1070670E-11
   101.6987        7.3930848E-11
   101.8416        1.7242592E-10
   101.9846        2.7117672E-10
   102.1275        3.6668357E-10
   102.2704        4.5529067E-10
   102.4133        5.3330623E-10
   102.5562        5.9713490E-10
   102.6991        6.4341732E-10
   102.8420        6.6917327E-10
   102.9849        6.7194278E-10
   103.1279        6.4991978E-10
   103.2708        6.0207356E-10
   103.4137        5.2825061E-10
   103.5566        4.2925416E-10
   103.6995        3.0689443E-10
   103.8424        1.6400610E-10
   103.9853        4.4304556E-12
   104.1282       -1.6704087E-10
   104.2711       -3.4476125E-10
   104.4141       -5.2236293E-10
   104.5570       -6.9292783E-10
   104.6999       -8.4919183E-10
   104.8428       -9.8377817E-10
   104.9857       -1.0894540E-09
   105.1286       -1.1594019E-09
   105.2715       -1.1874999E-09
   105.4144       -1.1685986E-09
   105.5574       -1.0987882E-09
   105.7003       -9.7564357E-10
   105.8432       -7.9843815E-10
   105.9861       -5.6831784E-10
   106.1290       -2.8842531E-10
   106.2719        3.6032309E-11
   106.4148        3.9777837E-10
   106.5577        7.8752965E-10
   106.7006        1.1941287E-09
   106.8436        1.6047468E-09
   106.9865        2.0051547E-09
   107.1294        2.3800586E-09
   107.2723        2.7134934E-09
   107.4152        2.9892651E-09
   107.5581        3.1914325E-09
   107.7010        3.3048155E-09
   107.8439        3.3155168E-09
   107.9869        3.2114409E-09
   108.1298        2.9828002E-09
   108.2727        2.6225861E-09
   108.4156        2.1269999E-09
   108.5585        1.4958199E-09
   108.7014        7.3270062E-10
   108.8443       -1.5460959E-10
   108.9872       -1.1541416E-09
   109.1301       -2.2496740E-09
   109.2731       -3.4208014E-09
   109.4160       -4.6431032E-09
   109.5589       -5.8884129E-09
   109.7018       -7.1251853E-09
   109.8447       -8.3189535E-09
   109.9876       -9.4328731E-09
   110.1305       -1.0428344E-08
   110.2734       -1.1265694E-08
   110.4164       -1.1904933E-08
   110.5593       -1.2306542E-08
   110.7022       -1.2432317E-08
   110.8451       -1.2246231E-08
   110.9880       -1.1715321E-08
   111.1309       -1.0810602E-08
   111.2738       -9.5079713E-09
   111.4167       -7.7891320E-09
   111.5596       -5.6424967E-09
   111.7026       -3.0640941E-09
   111.8455       -5.8446678E-11
   111.9884        3.3605769E-09
   112.1313        7.1689525E-09
   112.2742        1.1331746E-08
   112.4171        1.5802438E-08
   112.5600        2.0522352E-08
   112.7029        2.5420208E-08
   112.8458        3.0411847E-08
   112.9888        3.5400170E-08
   113.1317        4.0275289E-08
   113.2746        4.4915041E-08
   113.4175        4.9185758E-08
   113.5604        5.2943516E-08
   113.7033        5.6035756E-08
   113.8462        5.8303407E-08
   113.9891        5.9583520E-08
   114.1321        5.9712413E-08
   114.2750        5.8529359E-08
   114.4179        5.5880772E-08
   114.5608        5.1624923E-08
   114.7037        4.5637027E-08
   114.8466        3.7814718E-08
   114.9895        2.8083734E-08
   115.1324        1.6403778E-08
   115.2754        2.7742655E-09
   115.4183       -1.2760101E-08
   115.5612       -3.0104150E-08
   115.7041       -4.9107726E-08
   115.8470       -6.9561956E-08
   115.9899       -9.1196590E-08
   116.1328       -1.1367862E-07
   116.2757       -1.3661236E-07
   116.4186       -1.5954120E-07
   116.5616       -1.8195122E-07
   116.7045       -2.0327663E-07
   116.8474       -2.2290750E-07
   116.9903       -2.4019945E-07
   117.1332       -2.5448540E-07
   117.2761       -2.6508937E-07
   117.4190       -2.7134240E-07
   117.5619       -2.7260000E-07
   117.7048       -2.6826120E-07
   117.8478       -2.5778880E-07
   117.9907       -2.4073057E-07
   118.1336       -2.1674096E-07
   118.2765       -1.8560272E-07
   118.4194       -1.4724833E-07
   118.5623       -1.0178048E-07
   118.7052       -4.9491074E-08
   118.8481        9.1214583E-09
   118.9911        7.3337326E-08
   119.1340        1.4220328E-07
   119.2769        2.1452371E-07
   119.4198        2.8885546E-07
   119.5627        3.6350627E-07
   119.7056        4.3653765E-07
   119.8485        5.0577177E-07
   119.9914        5.6880276E-07
   120.1343        6.2301274E-07
   120.2773        6.6559130E-07
   120.4202        6.9355985E-07
   120.5631        7.0379912E-07
   120.7060        6.9308055E-07
   120.8489        6.5810053E-07
   120.9918        5.9551695E-07
   121.1347        5.0198781E-07
   121.2776        3.7421151E-07
   121.4206        2.0896775E-07
   121.5635        3.1582821E-09
   121.7064       -2.4615233E-07
   121.8493       -5.4169743E-07
   121.9922       -8.8597022E-07
   122.1351       -1.2811882E-06
   122.2780       -1.7292609E-06
   122.4209       -2.2317590E-06
   122.5639       -2.7898891E-06