  -7.200000       -2.0450126E-18
  -7.057088       -2.0484967E-18
  -6.914176       -2.0551641E-18
  -6.771265       -2.0645072E-18
  -6.628353       -2.0758451E-18
  -6.485441       -2.0883740E-18
  -6.342530       -2.1012259E-18
  -6.199618       -2.1135362E-18
  -6.056706       -2.1245098E-18
  -5.913795       -2.1334886E-18
  -5.770883       -2.1400045E-18
  -5.627971       -2.1438216E-18
  -5.485059       -2.1449560E-18
  -5.342147       -2.1436756E-18
  -5.199236       -2.1404742E-18
  -5.056324       -2.1360268E-18
  -4.913413       -2.1311270E-18
  -4.770501       -2.1266121E-18
  -4.627589       -2.1232870E-18
  -4.484677       -2.1218545E-18
  -4.341765       -2.1228501E-18
  -4.198854       -2.1265988E-18
  -4.055942       -2.1331902E-18
  -3.913030       -2.1424731E-18
  -3.770118       -2.1540720E-18
  -3.627207       -2.1674206E-18
  -3.484295       -2.1818090E-18
  -3.341383       -2.1964394E-18
  -3.198472       -2.2104890E-18
  -3.055560       -2.2231736E-18
  -2.912648       -2.2338074E-18
  -2.769737       -2.2418547E-18
  -2.626825       -2.2469757E-18
  -2.483913       -2.2490547E-18
  -2.341001       -2.2482134E-18
  -2.198090       -2.2448094E-18
  -2.055178       -2.2394083E-18
  -1.912266       -2.2327460E-18
  -1.769354       -2.2256690E-18
  -1.626443       -2.2190646E-18
  -1.483531       -2.2137874E-18
  -1.340619       -2.2105806E-18
  -1.197708       -2.2100142E-18
  -1.054796       -2.2124314E-18
 -0.9118841       -2.2179185E-18
 -0.7689723       -2.2262981E-18
 -0.6260606       -2.2371472E-18
 -0.4831489       -2.2498349E-18
 -0.3402372       -2.2635820E-18
 -0.1973254       -2.2775270E-18
 -5.4413714E-02   -2.2908027E-18
  8.8498011E-02   -2.3026067E-18
  0.2314097       -2.3122664E-18
  0.3743215       -2.3192912E-18
  0.5172332       -2.3234066E-18
  0.6601449       -2.3245756E-18
  0.8030567       -2.3229968E-18
  0.9459684       -2.3190887E-18
   1.088880       -2.3134589E-18
   1.231792       -2.3068551E-18
   1.374704       -2.3001099E-18
   1.517615       -2.2940733E-18
   1.660527       -2.2895468E-18
   1.803439       -2.2872129E-18
   1.946350       -2.2875789E-18
   2.089262       -2.2909261E-18
   2.232174       -2.2972807E-18
   2.375086       -2.3064076E-18
   2.517997       -2.3178256E-18
   2.660909       -2.3308461E-18
   2.803821       -2.3446327E-18
   2.946733       -2.3582762E-18
   3.089644       -2.3708750E-18
   3.232556       -2.3816151E-18
   3.375468       -2.3898441E-18
   3.518379       -2.3951232E-18
   3.661291       -2.3972656E-18
   3.804203       -2.3963462E-18
   3.947115       -2.3926904E-18
   4.090026       -2.3868439E-18
   4.232938       -2.3795230E-18
   4.375850       -2.3715537E-18
   4.518762       -2.3638090E-18
   4.661673       -2.3571355E-18
   4.804585       -2.3522924E-18
   4.947497       -2.3498909E-18
   5.090408       -2.3503493E-18
   5.233320       -2.3538543E-18
   5.376232       -2.3603448E-18
   5.519144       -2.3695110E-18
   5.662055       -2.3808142E-18
   5.804967       -2.3935249E-18
   5.947879       -2.4067796E-18
   6.090790       -2.4196540E-18
   6.233702       -2.4312416E-18
   6.376614       -2.4407366E-18
   6.519526       -2.4475108E-18
   6.662437       -2.4511744E-18
   6.805349       -2.4516144E-18
   6.948261       -2.4490101E-18
   7.091173       -2.4438170E-18
   7.234084       -2.4367273E-18
   7.376996       -2.4286050E-18
   7.519908       -2.4204068E-18
   7.662819       -2.4130964E-18
   7.805731       -2.4075607E-18
   7.948643       -2.4045330E-18
   8.091555       -2.4045321E-18
   8.234467       -2.4078237E-18
   8.377378       -2.4143992E-18
   8.520289       -2.4239767E-18
   8.663201       -2.4360266E-18
   8.806113       -2.4498116E-18
   8.949025       -2.4644413E-18
   9.091937       -2.4789426E-18
   9.234848       -2.4923355E-18
   9.377760       -2.5037090E-18
   9.520672       -2.5123005E-18
   9.663584       -2.5175618E-18
   9.806496       -2.5192123E-18
   9.949407       -2.5172707E-18
   10.09232       -2.5120625E-18
   10.23523       -2.5042012E-18
   10.37814       -2.4945362E-18
   10.52105       -2.4840850E-18
   10.66397       -2.4739413E-18
   10.80688       -2.4651779E-18
   10.94979       -2.4587478E-18
   11.09270       -2.4553984E-18
   11.23561       -2.4556050E-18
   11.37852       -2.4595316E-18
   11.52144       -2.4670186E-18
   11.66435       -2.4776018E-18
   11.80726       -2.4905583E-18
   11.95017       -2.5049699E-18
   12.09308       -2.5198027E-18
   12.23599       -2.5339969E-18
   12.37891       -2.5465491E-18
   12.52182       -2.5565940E-18
   12.66473       -2.5634724E-18
   12.80764       -2.5667845E-18
   12.95055       -2.5664211E-18
   13.09346       -2.5625793E-18
   13.23638       -2.5557484E-18
   13.37929       -2.5466761E-18
   13.52220       -2.5363128E-18
   13.66511       -2.5257321E-18
   13.80802       -2.5160425E-18
   13.95094       -2.5082887E-18
   14.09385       -2.5033548E-18
   14.23676       -2.5018828E-18
   14.37967       -2.5042049E-18
   14.52258       -2.5103120E-18
   14.66549       -2.5198463E-18
   14.80841       -2.5321365E-18
   14.95132       -2.5462551E-18
   15.09423       -2.5611071E-18
   15.23714       -2.5755321E-18
   15.38005       -2.5884076E-18
   15.52296       -2.5987500E-18
   15.66588       -2.6058005E-18
   15.80879       -2.6090863E-18
   15.95170       -2.6084560E-18
   16.09461       -2.6040886E-18
   16.23752       -2.5964726E-18
   16.38043       -2.5863651E-18
   16.52335       -2.5747246E-18
   16.66626       -2.5626399E-18
   16.80917       -2.5512395E-18
   16.95208       -2.5416076E-18
   17.09499       -2.5346946E-18
   17.23791       -2.5312413E-18
   17.38082       -2.5317182E-18
   17.52373       -2.5362762E-18
   17.66664       -2.5447312E-18
   17.80955       -2.5565686E-18
   17.95246       -2.5709778E-18
   18.09538       -2.5869180E-18
   18.23829       -2.6031992E-18
   18.38120       -2.6185856E-18
   18.52411       -2.6319022E-18
   18.66702       -2.6421400E-18
   18.80993       -2.6485442E-18
   18.95285       -2.6506835E-18
   19.09576       -2.6484872E-18
   19.23867       -2.6422457E-18
   19.38158       -2.6325842E-18
   19.52449       -2.6203998E-18
   19.66740       -2.6067803E-18
   19.81032       -2.5929060E-18
   19.95323       -2.5799449E-18
   20.09614       -2.5689581E-18
   20.23905       -2.5608099E-18
   20.38196       -2.5561022E-18
   20.52488       -2.5551299E-18
   20.66779       -2.5578617E-18
   20.81070       -2.5639485E-18
   20.95361       -2.5727565E-18
   21.09652       -2.5834220E-18
   21.23943       -2.5949266E-18
   21.38235       -2.6061872E-18
   21.52526       -2.6161496E-18
   21.66817       -2.6238860E-18
   21.81108       -2.6286844E-18
   21.95399       -2.6301155E-18
   22.09690       -2.6280831E-18
   22.23981       -2.6228371E-18
   22.38273       -2.6149557E-18
   22.52564       -2.6052941E-18
   22.66855       -2.5949018E-18
   22.81146       -2.5849231E-18
   22.95437       -2.5764794E-18
   23.09729       -2.5705612E-18
   23.24020       -2.5679287E-18
   23.38311       -2.5690398E-18
   23.52602       -2.5740074E-18
   23.66893       -2.5825939E-18
   23.81184       -2.5942371E-18
   23.95476       -2.6081089E-18
   24.09767       -2.6231899E-18
   24.24058       -2.6383641E-18
   24.38349       -2.6525106E-18
   24.52640       -2.6645944E-18
   24.66932       -2.6737474E-18
   24.81223       -2.6793309E-18
   24.95514       -2.6809838E-18
   25.09805       -2.6786459E-18
   25.24096       -2.6725656E-18
   25.38387       -2.6632838E-18
   25.52678       -2.6515949E-18
   25.66970       -2.6384911E-18
   25.81261       -2.6250864E-18
   25.95552       -2.6125288E-18
   26.09843       -2.6019024E-18
   26.24134       -2.5941350E-18
   26.38426       -2.5899141E-18
   26.52717       -2.5896194E-18
   26.67008       -2.5932877E-18
   26.81299       -2.6006056E-18
   26.95590       -2.6109420E-18
   27.09881       -2.6234046E-18
   27.24173       -2.6369273E-18
   27.38464       -2.6503711E-18
   27.52755       -2.6626290E-18
   27.67046       -2.6727266E-18
   27.81337       -2.6799047E-18
   27.95629       -2.6836816E-18
   28.09920       -2.6838861E-18
   28.24211       -2.6806636E-18
   28.38502       -2.6744571E-18
   28.52793       -2.6659607E-18
   28.67084       -2.6560604E-18
   28.81376       -2.6457566E-18
   28.95667       -2.6360799E-18
   29.09958       -2.6280047E-18
   29.24249       -2.6223669E-18
   29.38540       -2.6197861E-18
   29.52831       -2.6206079E-18
   29.67122       -2.6248664E-18
   29.81414       -2.6322715E-18
   29.95705       -2.6422299E-18
   30.09996       -2.6538919E-18
   30.24287       -2.6662312E-18
   30.38578       -2.6781418E-18
   30.52870       -2.6885469E-18
   30.67161       -2.6965077E-18
   30.81452       -2.7013202E-18
   30.95743       -2.7025856E-18
   31.10034       -2.7002505E-18
   31.24325       -2.6946095E-18
   31.38617       -2.6862684E-18
   31.52908       -2.6760852E-18
   31.67199       -2.6650750E-18
   31.81490       -2.6543182E-18
   31.95781       -2.6448542E-18
   32.10072       -2.6375934E-18
   32.24364       -2.6332414E-18
   32.38655       -2.6322450E-18
   32.52946       -2.6347640E-18
   32.67237       -2.6406641E-18
   32.81528       -2.6495325E-18
   32.95819       -2.6607158E-18
   33.10111       -2.6733704E-18
   33.24402       -2.6865286E-18
   33.38693       -2.6991745E-18
   33.52984       -2.7103247E-18
   33.67275       -2.7191122E-18
   33.81567       -2.7248628E-18
   33.95858       -2.7271549E-18
   34.10149       -2.7258672E-18
   34.24440       -2.7211957E-18
   34.38731       -2.7136407E-18
   34.53022       -2.7039678E-18
   34.67313       -2.6931355E-18
   34.81605       -2.6822068E-18
   34.95896       -2.6722465E-18
   35.10187       -2.6642205E-18
   35.24478       -2.6589022E-18
   35.38770       -2.6568040E-18
   35.53061       -2.6581331E-18
   35.67352       -2.6627784E-18
   35.81643       -2.6703318E-18
   35.95934       -2.6801326E-18
   36.10225       -2.6913363E-18
   36.24516       -2.7029959E-18
   36.38808       -2.7141523E-18
   36.53099       -2.7239171E-18
   36.67390       -2.7315535E-18
   36.81681       -2.7365356E-18
   36.95972       -2.7385934E-18
   37.10263       -2.7377290E-18
   37.24555       -2.7342122E-18
   37.38846       -2.7285487E-18
   37.53137       -2.7214228E-18
   37.67428       -2.7136260E-18
   37.81719       -2.7059735E-18
   37.96011       -2.6992235E-18
   38.10302       -2.6940030E-18
   38.24593       -2.6907550E-18
   38.38884       -2.6897171E-18
   38.53175       -2.6909244E-18
   38.67466       -2.6942447E-18
   38.81758       -2.6994326E-18
   38.96049       -2.7061892E-18
   39.10340       -2.7142205E-18
   39.24631       -2.7232721E-18
   39.38922       -2.7331365E-18
   39.53214       -2.7436266E-18
   39.67505       -2.7545222E-18
   39.81796       -2.7655020E-18
   39.96087       -2.7760746E-18
   40.10378       -2.7855371E-18
   40.24669       -2.7929737E-18
   40.38961       -2.7973116E-18
   40.53252       -2.7974332E-18
   40.67543       -2.7923421E-18
   40.81834       -2.7813549E-18
   40.96125       -2.7642939E-18
   41.10416       -2.7416486E-18
   41.24707       -2.7146618E-18
   41.38999       -2.6853285E-18
   41.53290       -2.6562835E-18
   41.67581       -2.6305899E-18
   41.81872       -2.6114371E-18
   41.96163       -2.6017998E-18
   42.10455       -2.6040874E-18
   42.24746       -2.6198390E-18
   42.39037       -2.6495044E-18
   42.53328       -2.6923374E-18
   42.67619       -2.7464162E-18
   42.81910       -2.8087805E-18
   42.96202       -2.8756570E-18
   43.10493       -2.9427397E-18
   43.24784       -3.0054745E-18
   43.39075       -3.0593172E-18
   43.53366       -3.0999326E-18
   43.67657       -3.1233312E-18
   43.81948       -3.1259559E-18
   43.96240       -3.1047552E-18
   44.10531       -3.0572856E-18
   44.24822       -2.9818864E-18
   44.39113       -2.8779667E-18
   44.53405       -2.7464090E-18
   44.67696       -2.5900630E-18
   44.81987       -2.4142739E-18
   44.96278       -2.2273459E-18
   45.10569       -2.0408136E-18
   45.24860       -1.8694052E-18
   45.39151       -1.7305737E-18
   45.53443       -1.6435239E-18
   45.67734       -1.6277187E-18
   45.82025       -1.7009170E-18
   45.96316       -1.8768842E-18
   46.10608       -2.1629859E-18
   46.24899       -2.5579363E-18
   46.39190       -3.0500064E-18
   46.53481       -3.6159969E-18
   46.67772       -4.2212296E-18
   46.82063       -4.8207491E-18
   46.96354       -5.3617980E-18
   47.10646       -5.7875040E-18
   47.24937       -6.0415800E-18
   47.39228       -6.0736874E-18
   47.53519       -5.8450224E-18
   47.67810       -5.3335936E-18
   47.82101       -4.5386354E-18
   47.96392       -3.4836364E-18
   48.10684       -2.2175219E-18
   48.24975       -8.1368309E-19
   48.39266        6.3330266E-19
   48.53557        2.0132042E-18
   48.67849        3.2076635E-18
   48.82140        4.0992499E-18
   48.96431        4.5813961E-18
   49.10722        4.5684346E-18
   49.25013        4.0048743E-18
   49.39304        2.8730464E-18
   49.53595        1.1983036E-18
   49.67887       -9.4887687E-19
   49.82178       -3.4543600E-18
   49.96469       -6.1655656E-18
   50.10760       -8.9003104E-18
   50.25051       -1.1458840E-17
   50.39342       -1.3638302E-17
   50.53634       -1.5248636E-17
   50.67925       -1.6128670E-17
   50.82216       -1.6161096E-17
   50.96507       -1.5284974E-17
   51.10798       -1.3504563E-17
   51.25090       -1.0893438E-17
   51.39381       -7.5932252E-18
   51.53672       -3.8065913E-18
   51.67963        2.1531348E-19
   51.82254        4.1904300E-18
   51.96545        7.8272950E-18
   52.10837        1.0849013E-17
   52.25128        1.3017900E-17
   52.39419        1.4158741E-17
   52.53710        1.4178451E-17
   52.68001        1.3080017E-17
   52.82293        1.0968786E-17
   52.96584        8.0495154E-18
   53.10875        4.6133182E-18
   53.25166        1.0142726E-18
   53.39457       -2.3633557E-18
   53.53748       -5.1454518E-18
   53.68040       -7.0128323E-18
   53.82331       -7.7464315E-18
   53.96622       -7.2679637E-18
   54.10913       -5.6707809E-18
   54.25204       -3.2355571E-18
   54.39495       -4.2634432E-19
   54.53786        2.1363070E-18
   54.68078        3.7262654E-18
   54.82369        3.5854379E-18
   54.96660        1.0157184E-18
   55.10951       -4.5180076E-18
   55.25242       -1.3283730E-17
   55.39534       -2.5188833E-17
   55.53825       -3.9710168E-17
   55.68116       -5.5859785E-17
   55.82407       -7.2196555E-17
   55.96698       -8.6890685E-17
   56.10989       -9.7842787E-17
   56.25281       -1.0285406E-16
   56.39572       -9.9837636E-17
   56.53863       -8.7055393E-17
   56.68154       -6.3360043E-17
   56.82445       -2.8418402E-17
   56.96737        1.7108590E-17
   57.11028        7.1453052E-17
   57.25319        1.3171421E-16
   57.39610        1.9393292E-16
   57.53901        2.5327283E-16
   57.68192        3.0430484E-16
   57.82484        3.4138189E-16
   57.96775        3.5908268E-16
   58.11066        3.5269438E-16
   58.25357        3.1869840E-16
   58.39648        2.5522074E-16
   58.53939        1.6240606E-16
   58.68230        4.2678672E-17
   58.82522       -9.9142738E-17
   58.96813       -2.5590123E-16
   59.11104       -4.1834343E-16
   59.25395       -5.7554962E-16
   59.39687       -7.1554119E-16
   59.53978       -8.2604088E-16
   59.68269       -8.9534633E-16
   59.82560       -9.1326658E-16
   59.96851       -8.7205525E-16
   60.11142       -7.6727389E-16
   60.25433       -5.9850644E-16
   60.39725       -3.6985530E-16
   60.54016       -9.0151437E-17
   60.68307        2.2717011E-16
   60.82598        5.6456112E-16
   60.96889        9.0121966E-16
   61.11180        1.2142912E-15
   61.25471        1.4803532E-15
   61.39763        1.6770902E-15
   61.54054        1.7850455E-15
   61.68345        1.7893105E-15
   61.82636        1.6810078E-15
   61.96928        1.4584280E-15
   62.11219        1.1276934E-15
   62.25510        7.0286000E-16
   62.39801        2.0540325E-16
   62.54092       -3.3691061E-16
   62.68383       -8.9171574E-16
   62.82674       -1.4241923E-15
   62.96966       -1.8995139E-15
   63.11257       -2.2854095E-15
   63.25548       -2.5546281E-15
   63.39839       -2.6871011E-15
   63.54131       -2.6716031E-15
   63.68422       -2.5067578E-15
   63.82713       -2.2012790E-15
   63.97004       -1.7734039E-15
   64.11295       -1.2495425E-15
   64.25586       -6.6223482E-16
   64.39877       -4.7575928E-17
   64.54169        5.5768093E-16
   64.68460        1.1190966E-15
   64.82751        1.6073289E-15
   64.97042        2.0004644E-15
   65.11333        2.2856699E-15
   65.25625        2.4599772E-15
   65.39915        2.5300919E-15
   65.54207        2.5111965E-15
   65.68498        2.4248133E-15
   65.82789        2.2958938E-15
   65.97080        2.1493834E-15
   66.11372        2.0065978E-15
   66.25663        1.8817911E-15
   66.39954        1.7793191E-15
   66.54245        1.6917862E-15
   66.68536        1.5995033E-15
   66.82828        1.4714837E-15
   66.97118        1.2680705E-15
   67.11410        9.4511767E-16
   67.25701        4.5947662E-16
   67.39992       -2.2464047E-16
   67.54283       -1.1290042E-15
   67.68575       -2.2551024E-15
   67.82866       -3.5790166E-15
   67.97157       -5.0481609E-15
   68.11448       -6.5805054E-15
   68.25739       -8.0667335E-15
   68.40031       -9.3755409E-15
   68.54321       -1.0361984E-14
   68.68613       -1.0878477E-14
   68.82904       -1.0787739E-14
   68.97195       -9.9767064E-15
   69.11486       -8.3702585E-15
   69.25777       -5.9434625E-15
   69.40069       -2.7311118E-15
   69.54359        1.1665978E-15
   69.68651        5.5831351E-15
   69.82942        1.0289991E-14
   69.97233        1.5006490E-14
   70.11524        1.9414747E-14
   70.25816        2.3179075E-14
   70.40107        2.5968653E-14
   70.54398        2.7482052E-14
   70.68689        2.7471877E-14
   70.82980        2.5767737E-14
   70.97272        2.2295715E-14
   71.11562        1.7092695E-14
   71.25854        1.0314133E-14
   71.40145        2.2342254E-15
   71.54436       -6.7621046E-15
   71.68727       -1.6195456E-14
   71.83018       -2.5515971E-14
   71.97310       -3.4134056E-14
   72.11600       -4.1456249E-14
   72.25892       -4.6924185E-14
   72.40183       -5.0054199E-14
   72.54475       -5.0474961E-14
   72.68765       -4.7960317E-14
   72.83057       -4.2454724E-14
   72.97348       -3.4088878E-14
   73.11639       -2.3183700E-14
   73.25930       -1.0241490E-14
   73.40221        4.0760792E-15
   73.54513        1.8982459E-14
   73.68803        3.3611619E-14
   73.83095        4.7071708E-14
   73.97386        5.8503515E-14
   74.11678        6.7139694E-14
   74.25968        7.2360351E-14
   74.40260        7.3740534E-14
   74.54551        7.1085593E-14
   74.68842        6.4451184E-14
   74.83133        5.4145666E-14
   74.97424        4.0713997E-14
   75.11716        2.4903763E-14
   75.26006        7.6154606E-15
   75.40298       -1.0159474E-14
   75.54589       -2.7408214E-14
   75.68880       -4.3168157E-14
   75.83171       -5.6594889E-14
   75.97462       -6.7020784E-14
   76.11754       -7.3999258E-14
   76.26044       -7.7330815E-14
   76.40336       -7.7068567E-14
   76.54627       -7.3502497E-14
   76.68919       -6.7123905E-14
   76.83209       -5.8572884E-14
   76.97501       -4.8573541E-14
   77.11792       -3.7862803E-14
   77.26083       -2.7119229E-14
   77.40374       -1.6898663E-14
   77.54665       -7.5827338E-15
   77.68957        6.5432242E-16
   77.83247        7.8570700E-15
   77.97539        1.4276544E-14
   78.11830        2.0334576E-14
   78.26122        2.6567236E-14
   78.40412        3.3551886E-14
   78.54704        4.1824075E-14
   78.68995        5.1791748E-14
   78.83286        6.3654872E-14
   78.97577        7.7338641E-14
   79.11868        9.2447500E-14
   79.26160        1.0824633E-13
   79.40450        1.2367254E-13
   79.54742        1.3738136E-13
   79.69033        1.4782282E-13
   79.83324        1.5334743E-13
   79.97615        1.5233398E-13
   80.11906        1.4333122E-13
   80.26198        1.2520295E-13
   80.40488        9.7265545E-14
   80.54780        5.9405937E-14
   80.69071        1.2169096E-14
   80.83363       -4.3194540E-14
   80.97653       -1.0472929E-13
   81.11945       -1.6982634E-13
   81.26236       -2.3532841E-13
   81.40527       -2.9768427E-13
   81.54818       -3.5314495E-13
   81.69109       -3.9799173E-13
   81.83401       -4.2878030E-13
   81.97691       -4.4258523E-13
   82.11983       -4.3722556E-13
   82.26274       -4.1145407E-13
   82.40565       -3.6509291E-13
   82.54856       -2.9910232E-13
   82.69147       -2.1557280E-13
   82.83439       -1.1763701E-13
   82.97730       -9.3045383E-15
   83.12021        1.0477199E-13
   83.26312        2.1958345E-13
   83.40604        3.3008278E-13
   83.54894        4.3151046E-13
   83.69186        5.1970071E-13
   83.83477        5.9134137E-13
   83.97768        6.4416457E-13
   84.12059        6.7704940E-13
   84.26350        6.9002464E-13
   84.40642        6.8417011E-13
   84.54933        6.6142138E-13
   84.69224        6.2429489E-13
   84.83515        5.7555723E-13
   84.97807        5.1786830E-13
   85.12097        4.5343403E-13
   85.26389        3.8370403E-13
   85.40680        3.0914805E-13
   85.54971        2.2913979E-13
   85.69262        1.4196870E-13
   85.83553        4.4990399E-14
   85.97845       -6.5085456E-14
   86.12135       -1.9178435E-13
   86.26427       -3.3835819E-13
   86.40718       -5.0721504E-13
   86.55009       -6.9933355E-13
   86.69300       -9.1370867E-13
   86.83591       -1.1468859E-12
   86.97883       -1.3926289E-12
   87.12174       -1.6417690E-12
   87.26465       -1.8822684E-12
   87.40756       -2.0995193E-12
   87.55048       -2.2768879E-12
   87.69338       -2.3964871E-12
   87.83630       -2.4401577E-12
   87.97921       -2.3906055E-12
   88.12212       -2.2326386E-12
   88.26503       -1.9544303E-12
   88.40794       -1.5487305E-12
   88.55086       -1.0139361E-12
   88.69377       -3.5494342E-13
   88.83668        4.1629222E-13
   88.97959        1.2805480E-12
   89.12251        2.2115272E-12
   89.26541        3.1764626E-12
   89.40833        4.1371290E-12
   89.55124        5.0512407E-12
   89.69415        5.8741670E-12
   89.83706        6.5608951E-12
   89.97997        7.0681421E-12
   90.12289        7.3565052E-12
   90.26580        7.3925423E-12
   90.40871        7.1506629E-12
   90.55162        6.6147348E-12
   90.69453        5.7793176E-12
   90.83744        4.6504541E-12
   90.98035        3.2459866E-12
   91.12327        1.5953814E-12
   91.26618       -2.6092504E-13
   91.40909       -2.2726129E-12
   91.55200       -4.3809492E-12
   91.69492       -6.5205476E-12
   91.83783       -8.6213614E-12
   91.98074       -1.0610787E-11
   92.12365       -1.2415838E-11
   92.26656       -1.3965268E-11
   92.40947       -1.5191629E-11
   92.55238       -1.6033196E-11
   92.69530       -1.6435738E-11
   92.83821       -1.6354135E-11
   92.98112       -1.5753827E-11
   93.12403       -1.4612122E-11
   93.26694       -1.2919390E-11
   93.40986       -1.0680105E-11
   93.55276       -7.9137955E-12
   93.69568       -4.6558564E-12
   93.83859       -9.5820281E-13
   93.98150        3.1102915E-12
   94.12441        7.4636365E-12
   94.26733        1.1998949E-11
   94.41024        1.6597128E-11
   94.55315        2.1124148E-11
   94.69606        2.5433013E-11
   94.83897        2.9366488E-11
   94.98188        3.2760718E-11
   95.12479        3.5449654E-11
   95.26771        3.7270419E-11
   95.41062        3.8069384E-11
   95.55353        3.7708947E-11
   95.69644        3.6074761E-11
   95.83936        3.3083147E-11
   95.98227        2.8688371E-11
   96.12518        2.2889470E-11
   96.26809        1.5736142E-11
   96.41100        7.3333327E-12
   96.55391       -2.1558775E-12
   96.69682       -1.2509532E-11
   96.83974       -2.3448464E-11
   96.98265       -3.4640683E-11
   97.12556       -4.5708576E-11
   97.26847       -5.6238948E-11
   97.41138       -6.5795869E-11
   97.55430       -7.3935899E-11
   97.69720       -8.0225444E-11
   97.84012       -8.4259509E-11
   97.98303       -8.5681226E-11
   98.12594       -8.4201264E-11
   98.26885       -7.9616334E-11
   98.41177       -7.1825622E-11
   98.55468       -6.0844350E-11
   98.69759       -4.6813536E-11
   98.84050       -3.0005040E-11
   98.98341       -1.0821397E-11
   99.12633        1.0210127E-11
   99.26923        3.2449404E-11
   99.41215        5.5161171E-11
   99.55506        7.7538240E-11
   99.69797        9.8729511E-11
   99.84088        1.1787188E-10
   99.98380        1.3412473E-10
   100.1267        1.4670565E-10
   100.2696        1.5492585E-10
   100.4125        1.5822350E-10
   100.5554        1.5619359E-10
   100.6984        1.4861232E-10
   100.8413        1.3545541E-10
   100.9842        1.1690832E-10
   101.1271        9.3368410E-11
   101.2700        6.5438183E-11
   101.4129        3.3909712E-11
   101.5558       -2.5929511E-13
   101.6987       -3.5976899E-11
   101.8416       -7.2054689E-11
   101.9846       -1.0725040E-10
   102.1275       -1.4031354E-10
   102.2704       -1.7003213E-10
   102.4133       -1.9527870E-10
   102.5562       -2.1505352E-10
   102.6991       -2.2852330E-10
   102.8420       -2.3505373E-10
   102.9849       -2.3423460E-10
   103.1279       -2.2589702E-10
   103.2708       -2.1012109E-10
   103.4137       -1.8723509E-10
   103.5566       -1.5780580E-10
   103.6995       -1.2262050E-10
   103.8424       -8.2661648E-11
   103.9853       -3.9075500E-11
   104.1282        6.8643325E-12
   104.2711        5.3796814E-11
   104.4141        1.0031542E-10
   104.5570        1.4501078E-10
   104.6999        1.8651272E-10
   104.8428        2.2353033E-10
   104.9857        2.5488919E-10
   105.1286        2.7956487E-10
   105.2715        2.9671135E-10
   105.4144        3.0568501E-10
   105.5574        3.0606223E-10
   105.7003        2.9765182E-10
   105.8432        2.8050057E-10
   105.9861        2.5489347E-10
   106.1290        2.2134679E-10
   106.2719        1.8059677E-10
   106.4148        1.3358156E-10
   106.5577        8.1418310E-11
   106.7006        2.5376220E-11
   106.8436       -3.3154254E-11
   106.9865       -9.2695504E-11
   107.1294       -1.5171840E-10
   107.2723       -2.0867895E-10
   107.4152       -2.6205493E-10
   107.5581       -3.1038158E-10
   107.7010       -3.5228465E-10
   107.8439       -3.8651093E-10
   107.9869       -4.1195589E-10
   108.1298       -4.2768539E-10
   108.2727       -4.3295489E-10
   108.4156       -4.2722337E-10
   108.5585       -4.1016321E-10
   108.7014       -3.8166603E-10
   108.8443       -3.4184547E-10
   108.9872       -2.9103711E-10
   109.1301       -2.2979621E-10
   109.2731       -1.5889424E-10
   109.4160       -7.9314250E-11
   109.5589        7.7539962E-12
   109.7018        1.0091952E-10
   109.8447        1.9859576E-10
   109.9876        2.9900707E-10
   110.1305        4.0019679E-10
   110.2734        5.0003685E-10
   110.4164        5.9624133E-10
   110.5593        6.8638401E-10
   110.7022        7.6792100E-10
   110.8451        8.3822121E-10
   110.9880        8.9460261E-10
   111.1309        9.3437835E-10
   111.2738        9.5491015E-10
   111.4167        9.5367114E-10
   111.5596        9.2831559E-10
   111.7026        8.7675622E-10
   111.8455        7.9724494E-10
   111.9884        6.8845873E-10
   112.1313        5.4958421E-10
   112.2742        3.8040193E-10
   112.4171        1.8136380E-10
   112.5600       -4.6335470E-11
   112.7029       -3.0069824E-10
   112.8458       -5.7887634E-10
   112.9888       -8.7713864E-10
   113.1317       -1.1908560E-09
   113.2746       -1.5145040E-09
   113.4175       -1.8416862E-09
   113.5604       -2.1651780E-09
   113.7033       -2.4769926E-09
   113.8462       -2.7684683E-09
   113.9891       -3.0303811E-09
   114.1321       -3.2530783E-09
   114.2750       -3.4266396E-09
   114.4179       -3.5410610E-09
   114.5608       -3.5864662E-09
   114.7037       -3.5533423E-09
   114.8466       -3.4328005E-09
   114.9895       -3.2168603E-09
   115.1324       -2.8987530E-09
   115.2754       -2.4732401E-09
   115.4183       -1.9369428E-09
   115.5612       -1.2886719E-09
   115.7041       -5.2974664E-10
   115.8470        3.3570494E-10
   115.9899        1.3004812E-09
   116.1328        2.3540909E-09
   116.2757        3.4826022E-09
   116.4186        4.6685660E-09
   116.5616        5.8910401E-09
   116.7045        7.1257071E-09
   116.8474        8.3451175E-09
   116.9903        9.5190451E-09
   117.1332        1.0614975E-08
   117.2761        1.1598698E-08
   117.4190        1.2435041E-08
   117.5619        1.3088692E-08
   117.7048        1.3525111E-08
   117.8478        1.3711527E-08
   117.9907        1.3617986E-08
   118.1336        1.3218418E-08
   118.2765        1.2491723E-08
   118.4194        1.1422820E-08
   118.5623        1.0003670E-08
   118.7052        8.2342231E-09
   118.8481        6.1232748E-09
   118.9911        3.6892207E-09
   119.1340        9.6068642E-10
   119.2769       -2.0229807E-09
   119.4198       -5.2113602E-09
   119.5627       -8.5427683E-09
   119.7056       -1.1944215E-08
   119.8485       -1.5331537E-08
   119.9914       -1.8609676E-08
   120.1343       -2.1673127E-08
   120.2773       -2.4406553E-08
   120.4202       -2.6685534E-08
   120.5631       -2.8377492E-08
   120.7060       -2.9342733E-08
   120.8489       -2.9435650E-08
   120.9918       -2.8506038E-08
   121.1347       -2.6400524E-08
   121.2776       -2.2964111E-08
   121.4206       -1.8041808E-08
   121.5635       -1.1480298E-08
   121.7064       -3.1296954E-09
   121.8493        7.1547186E-09
   121.9922        1.9510729E-08
   122.1351        3.4067476E-08
   122.2780        5.0943790E-08
   122.4209        7.0246550E-08
   122.5639        9.2069271E-08