-7.200000 -2.0450126E-18
-7.057088 -2.0484967E-18
-6.914176 -2.0551641E-18
-6.771265 -2.0645072E-18
-6.628353 -2.0758451E-18
-6.485441 -2.0883740E-18
-6.342530 -2.1012259E-18
-6.199618 -2.1135362E-18
-6.056706 -2.1245098E-18
-5.913795 -2.1334886E-18
-5.770883 -2.1400045E-18
-5.627971 -2.1438216E-18
-5.485059 -2.1449560E-18
-5.342147 -2.1436756E-18
-5.199236 -2.1404742E-18
-5.056324 -2.1360270E-18
-4.913413 -2.1311270E-18
-4.770501 -2.1266119E-18
-4.627589 -2.1232868E-18
-4.484677 -2.1218545E-18
-4.341765 -2.1228503E-18
-4.198854 -2.1265988E-18
-4.055942 -2.1331902E-18
-3.913030 -2.1424731E-18
-3.770118 -2.1540722E-18
-3.627207 -2.1674208E-18
-3.484295 -2.1818088E-18
-3.341383 -2.1964392E-18
-3.198472 -2.2104888E-18
-3.055560 -2.2231736E-18
-2.912648 -2.2338072E-18
-2.769737 -2.2418549E-18
-2.626825 -2.2469760E-18
-2.483913 -2.2490547E-18
-2.341001 -2.2482132E-18
-2.198090 -2.2448092E-18
-2.055178 -2.2394083E-18
-1.912266 -2.2327458E-18
-1.769354 -2.2256688E-18
-1.626443 -2.2190646E-18
-1.483531 -2.2137874E-18
-1.340619 -2.2105804E-18
-1.197708 -2.2100140E-18
-1.054796 -2.2124310E-18
-0.9118841 -2.2179181E-18
-0.7689723 -2.2262979E-18
-0.6260606 -2.2371472E-18
-0.4831489 -2.2498351E-18
-0.3402372 -2.2635818E-18
-0.1973254 -2.2775273E-18
-5.4413714E-02 -2.2908035E-18
8.8498011E-02 -2.3026082E-18
0.2314097 -2.3122684E-18
0.3743215 -2.3192933E-18
0.5172332 -2.3234089E-18
0.6601449 -2.3245773E-18
0.8030567 -2.3229982E-18
0.9459684 -2.3190894E-18
1.088880 -2.3134587E-18
1.231792 -2.3068543E-18
1.374704 -2.3001082E-18
1.517615 -2.2940715E-18
1.660527 -2.2895447E-18
1.803439 -2.2872119E-18
1.946350 -2.2875787E-18
2.089262 -2.2909268E-18
2.232174 -2.2972822E-18
2.375086 -2.3064099E-18
2.517997 -2.3178283E-18
2.660909 -2.3308486E-18
2.803821 -2.3446350E-18
2.946733 -2.3582779E-18
3.089644 -2.3708756E-18
3.232556 -2.3816149E-18
3.375468 -2.3898427E-18
3.518379 -2.3951211E-18
3.661291 -2.3972621E-18
3.804203 -2.3963420E-18
3.947115 -2.3926861E-18
4.090026 -2.3868398E-18
4.232938 -2.3795190E-18
4.375850 -2.3715506E-18
4.518762 -2.3638055E-18
4.661673 -2.3571324E-18
4.804585 -2.3522897E-18
4.947497 -2.3498888E-18
5.090408 -2.3503475E-18
5.233320 -2.3538527E-18
5.376232 -2.3603431E-18
5.519144 -2.3695095E-18
5.662055 -2.3808127E-18
5.804967 -2.3935234E-18
5.947879 -2.4067788E-18
6.090790 -2.4196534E-18
6.233702 -2.4312416E-18
6.376614 -2.4407374E-18
6.519526 -2.4475129E-18
6.662437 -2.4511765E-18
6.805349 -2.4516171E-18
6.948261 -2.4490128E-18
7.091173 -2.4438203E-18
7.234084 -2.4367308E-18
7.376996 -2.4286083E-18
7.519908 -2.4204101E-18
7.662819 -2.4130993E-18
7.805731 -2.4075631E-18
7.948643 -2.4045353E-18
8.091555 -2.4045346E-18
8.234467 -2.4078268E-18
8.377378 -2.4144027E-18
8.520289 -2.4239808E-18
8.663201 -2.4360316E-18
8.806113 -2.4498166E-18
8.949025 -2.4644459E-18
9.091937 -2.4789461E-18
9.234848 -2.4923372E-18
9.377760 -2.5037084E-18
9.520672 -2.5122972E-18
9.663584 -2.5175565E-18
9.806496 -2.5192048E-18
9.949407 -2.5172618E-18
10.09232 -2.5120534E-18
10.23523 -2.5041921E-18
10.37814 -2.4945284E-18
10.52105 -2.4840788E-18
10.66397 -2.4739374E-18
10.80688 -2.4651757E-18
10.94979 -2.4587474E-18
11.09270 -2.4553996E-18
11.23561 -2.4556083E-18
11.37852 -2.4595366E-18
11.52144 -2.4670246E-18
11.66435 -2.4776090E-18
11.80726 -2.4905653E-18
11.95017 -2.5049763E-18
12.09308 -2.5198080E-18
12.23599 -2.5340006E-18
12.37891 -2.5465504E-18
12.52182 -2.5565936E-18
12.66473 -2.5634704E-18
12.80764 -2.5667803E-18
12.95055 -2.5664168E-18
13.09346 -2.5625753E-18
13.23638 -2.5557451E-18
13.37929 -2.5466740E-18
13.52220 -2.5363113E-18
13.66511 -2.5257317E-18
13.80802 -2.5160431E-18
13.95094 -2.5082902E-18
14.09385 -2.5033575E-18
14.23676 -2.5018861E-18
14.37967 -2.5042097E-18
14.52258 -2.5103168E-18
14.66549 -2.5198511E-18
14.80841 -2.5321403E-18
14.95132 -2.5462578E-18
15.09423 -2.5611083E-18
15.23714 -2.5755317E-18
15.38005 -2.5884049E-18
15.52296 -2.5987449E-18
15.66588 -2.6057937E-18
15.80879 -2.6090778E-18
15.95170 -2.6084469E-18
16.09461 -2.6040802E-18
16.23752 -2.5964660E-18
16.38043 -2.5863607E-18
16.52335 -2.5747235E-18
16.66626 -2.5626415E-18
16.80917 -2.5512444E-18
16.95208 -2.5416146E-18
17.09499 -2.5347035E-18
17.23791 -2.5312517E-18
17.38082 -2.5317285E-18
17.52373 -2.5362863E-18
17.66664 -2.5447399E-18
17.80955 -2.5565748E-18
17.95246 -2.5709816E-18
18.09538 -2.5869184E-18
18.23829 -2.6031969E-18
18.38120 -2.6185808E-18
18.52411 -2.6318951E-18
18.66702 -2.6421309E-18
18.80993 -2.6485341E-18
18.95285 -2.6506740E-18
19.09576 -2.6484793E-18
19.23867 -2.6422401E-18
19.38158 -2.6325813E-18
19.52449 -2.6204002E-18
19.66740 -2.6067834E-18
19.81032 -2.5929110E-18
19.95323 -2.5799515E-18
20.09614 -2.5689645E-18
20.23905 -2.5608155E-18
20.38196 -2.5561072E-18
20.52488 -2.5551326E-18
20.66779 -2.5578625E-18
20.81070 -2.5639472E-18
20.95361 -2.5727536E-18
21.09652 -2.5834176E-18
21.23943 -2.5949218E-18
21.38235 -2.6061816E-18
21.52526 -2.6161448E-18
21.66817 -2.6238827E-18
21.81108 -2.6286824E-18
21.95399 -2.6301155E-18
22.09690 -2.6280854E-18
22.23981 -2.6228406E-18
22.38273 -2.6149609E-18
22.52564 -2.6053005E-18
22.66855 -2.5949096E-18
22.81146 -2.5849309E-18
22.95437 -2.5764869E-18
23.09729 -2.5705672E-18
23.24020 -2.5679326E-18
23.38311 -2.5690412E-18
23.52602 -2.5740059E-18
23.66893 -2.5825894E-18
23.81184 -2.5942295E-18
23.95476 -2.6080982E-18
24.09767 -2.6231767E-18
24.24058 -2.6383490E-18
24.38349 -2.6524936E-18
24.52640 -2.6645771E-18
24.66932 -2.6737306E-18
24.81223 -2.6793158E-18
24.95514 -2.6809701E-18
25.09805 -2.6786346E-18
25.24096 -2.6725569E-18
25.38387 -2.6632778E-18
25.52678 -2.6515918E-18
25.66970 -2.6384911E-18
25.81261 -2.6250893E-18
25.95552 -2.6125333E-18
26.09843 -2.6019088E-18
26.24134 -2.5941432E-18
26.38426 -2.5899230E-18
26.52717 -2.5896287E-18
26.67008 -2.5932968E-18
26.81299 -2.6006147E-18
26.95590 -2.6109507E-18
27.09881 -2.6234128E-18
27.24173 -2.6369352E-18
27.38464 -2.6503789E-18
27.52755 -2.6626365E-18
27.67046 -2.6727328E-18
27.81337 -2.6799105E-18
27.95629 -2.6836872E-18
28.09920 -2.6838915E-18
28.24211 -2.6806694E-18
28.38502 -2.6744629E-18
28.52793 -2.6659671E-18
28.67084 -2.6560678E-18
28.81376 -2.6457643E-18
28.95667 -2.6360887E-18
29.09958 -2.6280151E-18
29.24249 -2.6223772E-18
29.38540 -2.6197960E-18
29.52831 -2.6206170E-18
29.67122 -2.6248734E-18
29.81414 -2.6322773E-18
29.95705 -2.6422333E-18
30.09996 -2.6538938E-18
30.24287 -2.6662318E-18
30.38578 -2.6781410E-18
30.52870 -2.6885444E-18
30.67161 -2.6965042E-18
30.81452 -2.7013157E-18
30.95743 -2.7025806E-18
31.10034 -2.7002445E-18
31.24325 -2.6946025E-18
31.38617 -2.6862612E-18
31.52908 -2.6760767E-18
31.67199 -2.6650661E-18
31.81490 -2.6543084E-18
31.95781 -2.6448447E-18
32.10072 -2.6375843E-18
32.24364 -2.6332333E-18
32.38655 -2.6322388E-18
32.52946 -2.6347597E-18
32.67237 -2.6406614E-18
32.81528 -2.6495323E-18
32.95819 -2.6607176E-18
33.10111 -2.6733735E-18
33.24402 -2.6865327E-18
33.38693 -2.6991784E-18
33.52984 -2.7103288E-18
33.67275 -2.7191162E-18
33.81567 -2.7248651E-18
33.95858 -2.7271553E-18
34.10149 -2.7258658E-18
34.24440 -2.7211926E-18
34.38731 -2.7136365E-18
34.53022 -2.7039622E-18
34.67313 -2.6931291E-18
34.81605 -2.6822001E-18
34.95896 -2.6722403E-18
35.10187 -2.6642139E-18
35.24478 -2.6588962E-18
35.38770 -2.6567982E-18
35.53061 -2.6581271E-18
35.67352 -2.6627724E-18
35.81643 -2.6703255E-18
35.95934 -2.6801262E-18
36.10225 -2.6913293E-18
36.24516 -2.7029893E-18
36.38808 -2.7141454E-18
36.53099 -2.7239107E-18
36.67390 -2.7315473E-18
36.81681 -2.7365306E-18
36.95972 -2.7385890E-18
37.10263 -2.7377261E-18
37.24555 -2.7342118E-18
37.38846 -2.7285510E-18
37.53137 -2.7214286E-18
37.67428 -2.7136353E-18
37.81719 -2.7059874E-18
37.96011 -2.6992423E-18
38.10302 -2.6940261E-18
38.24593 -2.6907830E-18
38.38884 -2.6897494E-18
38.53175 -2.6909600E-18
38.67466 -2.6942813E-18
38.81758 -2.6994682E-18
38.96049 -2.7062206E-18
39.10340 -2.7142447E-18
39.24631 -2.7232850E-18
39.38922 -2.7331330E-18
39.53214 -2.7436032E-18
39.67505 -2.7544761E-18
39.81796 -2.7654308E-18
39.96087 -2.7759784E-18
40.10378 -2.7854182E-18
40.24669 -2.7928366E-18
40.38961 -2.7971629E-18
40.53252 -2.7972837E-18
40.67543 -2.7922038E-18
40.81834 -2.7812422E-18
40.96125 -2.7642238E-18
41.10416 -2.7416374E-18
41.24707 -2.7147255E-18
41.38999 -2.6854805E-18
41.53290 -2.6565344E-18
41.67581 -2.6309427E-18
41.81872 -2.6118881E-18
41.96163 -2.6023363E-18
42.10455 -2.6046855E-18
42.24746 -2.6204645E-18
42.39037 -2.6501121E-18
42.53328 -2.6928730E-18
42.67619 -2.7468193E-18
42.81910 -2.8089862E-18
42.96202 -2.8756034E-18
43.10493 -2.9423710E-18
43.24784 -3.0047483E-18
43.39075 -3.0582125E-18
43.53366 -3.0984544E-18
43.67657 -3.1215160E-18
43.81948 -3.1238755E-18
43.96240 -3.1025200E-18
44.10531 -3.0550402E-18
44.24822 -2.9798088E-18
44.39113 -2.8762592E-18
44.53405 -2.7452859E-18
44.67696 -2.5897366E-18
44.81987 -2.4149383E-18
44.96278 -2.2291544E-18
45.10569 -2.0438603E-18
45.24860 -1.8737047E-18
45.39151 -1.7360434E-18
45.53443 -1.6499725E-18
45.67734 -1.6348380E-18
45.82025 -1.7082845E-18
45.96316 -1.8839754E-18
46.10608 -2.1691953E-18
46.24899 -2.5626117E-18
46.39190 -3.0524906E-18
46.53481 -3.6156797E-18
46.67772 -4.2176041E-18
46.82063 -4.8134728E-18
46.96354 -5.3507472E-18
47.10646 -5.7728261E-18
47.24937 -6.0237269E-18
47.39228 -6.0534368E-18
47.53519 -5.8234735E-18
47.67810 -5.3121374E-18
47.82101 -4.5188968E-18
47.96392 -3.4673877E-18
48.10684 -2.2065703E-18
48.24975 -8.0973791E-19
48.39266 6.2877762E-19
48.53557 1.9991415E-18
48.67849 3.1835367E-18
48.82140 4.0651994E-18
48.96431 4.5383215E-18
49.10722 4.5180460E-18
49.25013 3.9496807E-18
49.39304 2.8162894E-18
49.53595 1.1438227E-18
49.67887 -9.9684570E-19
49.82178 -3.4914417E-18
49.96469 -6.1875533E-18
50.10760 -8.9035000E-18
50.25051 -1.1440370E-17
50.39342 -1.3596481E-17
50.53634 -1.5183214E-17
50.67925 -1.6041054E-17
50.82216 -1.6054442E-17
50.96507 -1.5164186E-17
51.10798 -1.3376146E-17
51.25090 -1.0765216E-17
51.39381 -7.4739251E-18
51.53672 -3.7053225E-18
51.67963 2.8968160E-19
51.82254 4.2299291E-18
51.96545 7.8255174E-18
52.10837 1.0801738E-17
52.25128 1.2923609E-17
52.39419 1.4018978E-17
52.53710 1.3997995E-17
52.68001 1.2866832E-17
52.82293 1.0733710E-17
52.96584 7.8057271E-18
53.10875 4.3755538E-18
53.25166 7.9789956E-19
53.39457 -2.5434092E-18
53.53748 -5.2757968E-18
53.68040 -7.0826612E-18
53.82331 -7.7484390E-18
53.96622 -7.1990538E-18
54.10913 -5.5324234E-18
54.25204 -3.0338625E-18
54.39495 -1.7169798E-19
54.53786 2.4299502E-18
54.68078 4.0424379E-18
54.82369 3.9064949E-18
54.96660 1.3242935E-18
55.10951 -4.2375247E-18
55.25242 -1.3043802E-17
55.39534 -2.4997739E-17
55.53825 -3.9571288E-17
55.68116 -5.5771429E-17
55.82407 -7.2152444E-17
55.96698 -8.6880904E-17
56.10989 -9.7855407E-17
56.25281 -1.0287715E-16
56.39572 -9.9861472E-17
56.53863 -8.7074769E-17
56.68154 -6.3376289E-17
56.82445 -2.8440987E-17
56.96737 1.7061444E-17
57.11028 7.1354611E-17
57.25319 1.3153068E-16
57.39610 1.9362619E-16
57.53901 2.5280437E-16
57.68192 3.0364056E-16
57.82484 3.4049782E-16
57.96775 3.5797071E-16
58.11066 3.5136782E-16
58.25357 3.1719655E-16
58.39648 2.5361201E-16
58.53939 1.6078877E-16
58.68230 4.1179450E-17
58.82522 -1.0037370E-16
58.96813 -2.5669810E-16
59.11104 -4.1853563E-16
59.25395 -5.7497518E-16
59.39687 -7.1406217E-16
59.53978 -8.2355971E-16
59.68269 -8.9182204E-16
59.82560 -9.0872882E-16
59.96851 -8.6661598E-16
60.11142 -7.6113380E-16
60.25433 -5.9195607E-16
60.39725 -3.6326887E-16
60.54016 -8.3973662E-17
60.68307 2.3244522E-16
60.82598 5.6841835E-16
60.96889 9.0315661E-16
61.11180 1.2138567E-15
61.25471 1.4771873E-15
61.39763 1.6709638E-15
61.54054 1.7758959E-15
61.68345 1.7772697E-15
61.82636 1.6664211E-15
61.96928 1.4418591E-15
62.11219 1.1099153E-15
62.25510 6.8483027E-16
62.39801 1.8822216E-16
62.54092 -3.5205619E-16
62.68383 -9.0362099E-16
62.82674 -1.4317126E-15
62.96966 -1.9016478E-15
63.11257 -2.2813799E-15
63.25548 -2.5439593E-15
63.39839 -2.6696797E-15
63.54131 -2.6477242E-15
63.68422 -2.4771464E-15
63.82713 -2.1670859E-15
63.97004 -1.7361724E-15
64.11295 -1.2111466E-15
64.25586 -6.2479014E-16
64.39877 -1.3328530E-17
64.54169 5.8648402E-16
64.68460 1.1403465E-15
64.82751 1.6191944E-15
64.97042 2.0015259E-15
65.11333 2.2750329E-15
65.25625 2.4373623E-15
65.39915 2.4958893E-15
65.54207 2.4664824E-15
65.68498 2.3713238E-15
65.82789 2.2359544E-15
65.97080 2.0858002E-15
66.11372 1.9425106E-15
66.25663 1.8205014E-15
66.39954 1.7241018E-15
66.54245 1.6456957E-15
66.68536 1.5651881E-15
66.82828 1.4510252E-15
66.97118 1.2628503E-15
67.11410 9.5573163E-16
67.25701 4.8569674E-16
67.39992 -1.8385078E-16
67.54283 -1.0754181E-15
67.68575 -2.1911133E-15
67.82866 -3.5074813E-15
67.97157 -4.9722113E-15
68.11448 -6.5033470E-15
68.25739 -7.9914501E-15
68.40031 -9.3049119E-15
68.54321 -1.0298335E-14
68.68613 -1.0823582E-14
68.82904 -1.0742765E-14
68.97195 -9.9422279E-15
69.11486 -8.3463222E-15
69.25777 -5.9297024E-15
69.40069 -2.7269065E-15
69.54359 1.1619525E-15
69.68651 5.5702416E-15
69.82942 1.0269189E-14
69.97233 1.4977730E-14
70.11524 1.9377524E-14
70.25816 2.3132419E-14
70.40107 2.5911214E-14
70.54398 2.7412243E-14
70.68689 2.7388106E-14
70.82980 2.5668681E-14
70.97272 2.2180639E-14
71.11562 1.6961772E-14
71.25854 1.0168741E-14
71.40145 2.0771933E-15
71.54436 -6.9263426E-15
71.68727 -1.6360814E-14
71.83018 -2.5674799E-14
71.97310 -3.4277377E-14
72.11600 -4.1574146E-14
72.25892 -4.7006293E-14
72.40183 -5.0090350E-14
72.54475 -5.0455865E-14
72.68765 -4.7878307E-14
72.83057 -4.2304447E-14
72.97348 -3.3867955E-14
73.11639 -2.2893227E-14
73.25930 -9.8863763E-15
73.40221 4.4869813E-15
73.54513 1.9436464E-14
73.68803 3.4092592E-14
73.83095 4.7560656E-14
73.97386 5.8979426E-14
74.11678 6.7580551E-14
74.25968 7.2744240E-14
74.40260 7.4046800E-14
74.54551 7.1296010E-14
74.68842 6.4550938E-14
74.83133 5.4124213E-14
74.97424 4.0565614E-14
75.11716 2.4627864E-14
75.26006 7.2165437E-15
75.40298 -1.0672165E-14
75.54589 -2.8021315E-14
75.68880 -4.3865051E-14
75.83171 -5.7356714E-14
75.97462 -6.7827498E-14
76.11754 -7.4830631E-14
76.26044 -7.8167284E-14
76.40336 -7.7891849E-14
76.54627 -7.4295889E-14
76.68919 -6.7872222E-14
76.83209 -5.9262016E-14
76.97501 -4.9189761E-14
77.11792 -3.8391758E-14
77.26083 -2.7544883E-14
77.40374 -1.7202241E-14
77.54665 -7.7419421E-15
77.68957 6.6577743E-16
77.83247 8.0693415E-15
77.97539 1.4722839E-14
78.11830 2.1049562E-14
78.26122 2.7584648E-14
78.40412 3.4901366E-14
78.54704 4.3527400E-14
78.68995 5.3858583E-14
78.83286 6.6078416E-14
78.97577 8.0091478E-14
79.11868 9.5478008E-14
79.26160 1.1147607E-13
79.40450 1.2699515E-13
79.54742 1.4066290E-13
79.69033 1.5090445E-13
79.83324 1.5605005E-13
79.97615 1.5446513E-13
80.11906 1.4469402E-13
80.26198 1.2560687E-13
80.40488 9.6538520E-14
80.54780 5.7407143E-14
80.69071 8.8017938E-15
80.83363 -4.7971077E-14
80.97653 -1.1088945E-13
81.11945 -1.7727050E-13
81.26236 -2.4387854E-13
81.40527 -3.0708354E-13
81.54818 -3.6306215E-13
81.69109 -4.0802989E-13
81.83401 -4.3849058E-13
81.97691 -4.5148469E-13
82.11983 -4.4481901E-13
82.26274 -4.1725862E-13
82.40565 -3.6866395E-13
82.54856 -3.0005992E-13
82.69147 -2.1362660E-13
82.83439 -1.1260865E-13
82.97730 -1.1452652E-15
83.12021 1.1596895E-13
83.26312 2.3357737E-13
83.40604 3.4648741E-13
83.54894 4.4980355E-13
83.69186 5.3924112E-13
83.83477 6.1139353E-13
83.97768 6.6392876E-13
84.12059 6.9569627E-13
84.26350 7.0673328E-13
84.40642 6.9816608E-13
84.54933 6.7201404E-13
84.69224 6.3091139E-13
84.83515 5.7777134E-13
84.97807 5.1542201E-13
85.12097 4.4625160E-13
85.26389 3.7189669E-13
85.40680 2.9300973E-13
85.54971 2.0913413E-13
85.69262 1.1870776E-13
85.83553 1.9206901E-14
85.97845 -9.2571079E-14
86.12135 -2.2009993E-13
86.26427 -3.6661641E-13
86.40718 -5.3454967E-13
86.55009 -7.2493145E-13
86.69300 -9.3683698E-13
86.83591 -1.1669137E-12
86.97883 -1.4090409E-12
87.12174 -1.6541714E-12
87.26465 -1.8903889E-12
87.40756 -2.1031998E-12
87.55048 -2.2760702E-12
87.69338 -2.3911988E-12
87.83630 -2.4304918E-12
87.97921 -2.3767028E-12
88.12212 -2.2146707E-12
88.26503 -1.9325880E-12
88.40794 -1.5232142E-12
88.55086 -9.8495420E-13
88.69377 -3.2271722E-13
88.83668 4.5151713E-13
88.97959 1.3184888E-12
89.12251 2.2518406E-12
89.26541 3.2187224E-12
89.40833 4.1808037E-12
89.55124 5.0956691E-12
89.69415 5.9185417E-12
89.83706 6.6042488E-12
89.97997 7.1093400E-12
90.12289 7.3942527E-12
90.26580 7.4253988E-12
90.40871 7.1770645E-12
90.55162 6.6330366E-12
90.69453 5.7878394E-12
90.83744 4.6475415E-12
90.98035 3.2300781E-12
91.12327 1.5650862E-12
91.26618 -3.0674513E-13
91.40909 -2.3347589E-12
91.55200 -4.4597954E-12
91.69492 -6.6159630E-12
91.83783 -8.7326283E-12
91.98074 -1.0736536E-11
92.12365 -1.2553991E-11
92.26656 -1.4113009E-11
92.40947 -1.5345385E-11
92.55238 -1.6188656E-11
92.69530 -1.6587898E-11
92.83821 -1.6497375E-11
92.98112 -1.5882032E-11
93.12403 -1.4718848E-11
93.26694 -1.2998051E-11
93.40986 -1.0724220E-11
93.55276 -7.9172649E-12
93.69568 -4.6132594E-12
93.83859 -8.6512172E-13
93.98150 3.2569390E-12
94.12441 7.6652773E-12
94.26733 1.2255048E-11
94.41024 1.6904938E-11
94.55315 2.1478505E-11
94.69606 2.5826223E-11
94.83897 2.9788325E-11
94.98188 3.3198506E-11
95.12479 3.5888521E-11
95.26771 3.7693633E-11
95.41062 3.8458865E-11
95.55353 3.8045907E-11
95.69644 3.6340431E-11
95.83936 3.3259614E-11
95.98227 2.8759469E-11
96.12518 2.2841692E-11
96.26809 1.5559524E-11
96.41100 7.0222825E-12
96.55391 -2.6018916E-12
96.69682 -1.3085442E-11
96.83974 -2.4143297E-11
96.98265 -3.5437483E-11
97.12556 -4.6584611E-11
97.26847 -5.7166234E-11
97.41138 -6.6741945E-11
97.55430 -7.4864913E-11
97.69720 -8.1099467E-11
97.84012 -8.5040038E-11
97.98303 -8.6330852E-11
98.12594 -8.4685460E-11
98.26885 -7.9905103E-11
98.41177 -7.1895150E-11
98.55468 -6.0678448E-11
98.69759 -4.6404786E-11
98.84050 -2.9355636E-11
98.98341 -9.9435642E-12
99.12633 1.1294144E-11
99.26923 3.3707828E-11
99.41215 5.6553640E-11
99.55506 7.9017189E-11
99.69797 1.0024194E-10
99.84088 1.1936142E-10
99.98380 1.3553393E-10
100.1267 1.4797846E-10
100.2696 1.5601002E-10
100.4125 1.5907289E-10
100.5554 1.5677026E-10
100.6984 1.4888839E-10
100.8413 1.3541424E-10
100.9842 1.1654547E-10
101.1271 9.2691965E-11
101.2700 6.4468493E-11
101.4129 3.2678599E-11
101.5558 -1.7097843E-12
101.6987 -3.7596235E-11
101.8416 -7.3785936E-11
101.9846 -1.0903255E-10
102.1275 -1.4208400E-10
102.2704 -1.7172927E-10
102.4133 -1.9684425E-10
102.5562 -2.1643479E-10
102.6991 -2.2967506E-10
102.8420 -2.3593980E-10
102.9849 -2.3482907E-10
103.1279 -2.2618477E-10
103.2708 -2.1009817E-10
103.4137 -1.8690852E-10
103.5566 -1.5719280E-10
103.6995 -1.2174761E-10
103.8424 -8.1563381E-11
103.9853 -3.7792880E-11
104.1282 8.2854617E-12
104.2711 5.5307474E-11
104.4141 1.0186521E-10
104.5570 1.4654955E-10
104.6999 1.8799208E-10
104.8428 2.2490521E-10
104.9857 2.5611885E-10
105.1286 2.8061412E-10
105.2715 2.9755140E-10
105.4144 3.0629421E-10
105.5574 3.0642658E-10
105.7003 2.9776537E-10
105.8432 2.8036568E-10
105.9861 2.5452063E-10
106.1290 2.2075515E-10
106.2719 1.7981326E-10
106.4148 1.3264061E-10
106.5577 8.0361245E-11
106.7006 2.4250236E-11
106.8436 -3.4297367E-11
106.9865 -9.3800974E-11
107.1294 -1.5273033E-10
107.2723 -2.0954261E-10
107.4152 -2.6271910E-10
107.5581 -3.1080097E-10
107.7010 -3.5242279E-10
107.8439 -3.8634271E-10
107.9869 -4.1146961E-10
108.1298 -4.2688522E-10
108.2727 -4.3186218E-10
108.4156 -4.2587753E-10
108.5585 -4.0862166E-10
108.7014 -3.8000322E-10
108.8443 -3.4015138E-10
108.9872 -2.8941419E-10
109.1301 -2.2835561E-10
109.2731 -1.5775108E-10
109.4160 -7.8582384E-11
109.5589 7.9679440E-12
109.7018 1.0052235E-10
109.8447 1.9751385E-10
109.9876 2.9719244E-10
110.1305 3.9763218E-10
110.2734 4.9673998E-10
110.4164 5.9226807E-10
110.5593 6.8182904E-10
110.7022 7.6291823E-10
110.8451 8.3294038E-10
110.9880 8.8924568E-10
111.1309 9.2917213E-10
111.2738 9.5009889E-10
111.4167 9.4950625E-10
111.5596 9.2504487E-10
111.7026 8.7461161E-10
111.8455 7.9643125E-10
111.9884 6.8914213E-10
112.1313 5.5188193E-10
112.2742 3.8437259E-10
112.4171 1.8700143E-10
112.5600 -3.9105517E-11
112.7029 -2.9202085E-10
112.8458 -5.6896476E-10
112.9888 -8.6626917E-10
113.1317 -1.1793598E-09
113.2746 -1.5027558E-09
113.4175 -1.8300910E-09
113.5604 -2.1541549E-09
113.7033 -2.4669573E-09
113.8462 -2.7598164E-09
113.9891 -3.0234693E-09
114.1321 -3.2482081E-09
114.2750 -3.4240437E-09
114.4179 -3.5408902E-09
114.5608 -3.5887813E-09
114.7037 -3.5581094E-09
114.8466 -3.4398913E-09
114.9895 -3.2260552E-09
115.1324 -2.9097504E-09
115.2754 -2.4856708E-09
115.4183 -1.9503861E-09
115.5612 -1.3026752E-09
115.7041 -5.4384824E-10
115.8470 3.2195299E-10
115.9899 1.2874906E-09
116.1328 2.3422160E-09
116.2757 3.4721208E-09
116.4186 4.6596664E-09
116.5616 5.8838099E-09
116.7045 7.1201316E-09
116.8474 8.3410816E-09
116.9903 9.5163424E-09
117.1332 1.0613318E-08
117.2761 1.1597747E-08
117.4190 1.2434421E-08
117.5619 1.3088024E-08
117.7048 1.3524041E-08
117.8478 1.3709753E-08
117.9907 1.3615289E-08
118.1336 1.3214684E-08
118.2765 1.2486955E-08
118.4194 1.1417163E-08
118.5623 9.9974073E-09
118.7052 8.2277740E-09
118.8481 6.1171832E-09
118.9911 3.6841332E-09
119.1340 9.5732378E-10
119.2769 -2.0238557E-09
119.4198 -5.2089839E-09
119.5627 -8.5364160E-09
119.7056 -1.1933247E-08
119.8485 -1.5315440E-08
119.9914 -1.8588093E-08
120.1343 -2.1645903E-08
120.2773 -2.4373744E-08
120.4202 -2.6647424E-08
120.5631 -2.8334586E-08
120.7060 -2.9295750E-08
120.8489 -2.9385493E-08
120.9918 -2.8453760E-08
121.1347 -2.6347294E-08
121.2776 -2.2911159E-08
121.4206 -1.7990367E-08
121.5635 -1.1431559E-08
121.7064 -3.0847440E-09
121.8493 7.1949406E-09
121.9922 1.9545459E-08
122.1351 3.4096143E-08
122.2780 5.0966040E-08
122.4209 7.0262253E-08
122.5639 9.2078501E-08
122.7068 1.1649371E-07
122.8497 1.4357076E-07
122.9926 1.7335553E-07
123.1355 2.0587598E-07
123.2784 2.4114146E-07
123.4213 2.7914237E-07
123.5642 3.1984985E-07
123.7071 3.6321589E-07
123.8501 4.0917368E-07
123.9930 4.5763801E-07
124.1359 5.0850622E-07
124.2788 5.6165914E-07
124.4217 6.1696250E-07
124.5646 6.7426851E-07
124.7075 7.3341778E-07
124.8504 7.9424120E-07
124.9933 8.5656239E-07
125.1363 9.2020025E-07
125.2792 9.8497151E-07
125.4221 1.0506935E-06
125.5650 1.1171873E-06
125.7079 1.1842803E-06
125.8508 1.2518097E-06
125.9937 1.3196251E-06
126.1366 1.3875909E-06
126.2795 1.4555894E-06
126.4225 1.5235225E-06
126.5654 1.5913140E-06
126.7083 1.6589111E-06
126.8512 1.7262851E-06
126.9941 1.7934328E-06
127.1370 1.8603768E-06
127.2799 1.9271640E-06
127.4228 1.9938673E-06
127.5658 2.0605828E-06
127.7087 2.1274293E-06
127.8516 2.1945473E-06
127.9945 2.2620959E-06
128.1374 2.3302516E-06
128.2803 2.3992056E-06
128.4232 2.4691624E-06
128.5661 2.5403360E-06
128.7090 2.6129489E-06
128.8520 2.6872285E-06
128.9949 2.7634051E-06
129.1378 2.8417094E-06
129.2807 2.9223700E-06
129.4236 3.0056110E-06
129.5665 3.0916497E-06
129.7094 3.1806935E-06
129.8523 3.2729381E-06
129.9953 3.3685651E-06
130.1382 3.4677396E-06
130.2811 3.5706080E-06
130.4240 3.6772958E-06
130.5669 3.7879074E-06
130.7098 3.9025226E-06
130.8527 4.0211980E-06
130.9956 4.1439644E-06
131.1385 4.2708275E-06
131.2815 4.4017693E-06
131.4244 4.5367460E-06
131.5673 4.6756936E-06
131.7102 4.8185257E-06
131.8531 4.9651385E-06
131.9960 5.1154116E-06
132.1389 5.2692103E-06
132.2818 5.4263924E-06
132.4248 5.5868077E-06
132.5677 5.7503039E-06
132.7106 5.9167269E-06
132.8535 6.0859288E-06
132.9964 6.2577642E-06
133.1393 6.4320984E-06
133.2822 6.6088069E-06
133.4251 6.7877772E-06
133.5681 6.9689104E-06
133.7110 7.1521190E-06
133.8539 7.3373321E-06
133.9968 7.5244907E-06
134.1397 7.7135473E-06
134.2826 7.9044667E-06
134.4255 8.0972222E-06
134.5684 8.2917950E-06
134.7113 8.4881694E-06
134.8542 8.6863329E-06
134.9972 8.8862753E-06
135.1401 9.0879812E-06
135.2830 9.2914315E-06
135.4259 9.4966008E-06
135.5688 9.7034554E-06
135.7117 9.9119488E-06
135.8546 1.0122027E-05
135.9975 1.0333618E-05
136.1405 1.0546641E-05
136.2834 1.0760998E-05
136.4263 1.0976579E-05
136.5692 1.1193264E-05
136.7121 1.1410922E-05
136.8550 1.1629410E-05
136.9979 1.1848583E-05
137.1408 1.2068291E-05
137.2838 1.2288382E-05
137.4267 1.2508708E-05
137.5696 1.2729125E-05
137.7125 1.2949500E-05
137.8554 1.3169710E-05
137.9983 1.3389642E-05
138.1412 1.3609206E-05
138.2841 1.3828327E-05
138.4270 1.4046950E-05
138.5700 1.4265042E-05
138.7129 1.4482590E-05
138.8558 1.4699603E-05
138.9987 1.4916113E-05
139.1416 1.5132170E-05
139.2845 1.5347845E-05
139.4274 1.5563228E-05
139.5703 1.5778425E-05
139.7133 1.5993557E-05
139.8562 1.6208762E-05
139.9991 1.6424183E-05
140.1420 1.6639977E-05
140.2849 1.6856302E-05
140.4278 1.7073327E-05
140.5707 1.7291215E-05
140.7136 1.7510129E-05
140.8566 1.7730221E-05
140.9995 1.7951641E-05
141.1424 1.8174516E-05
141.2853 1.8398965E-05
141.4282 1.8625078E-05
141.5711 1.8852923E-05
141.7140 1.9082536E-05
141.8569 1.9313928E-05
141.9998 1.9547067E-05
142.1427 1.9781895E-05
142.2857 2.0018311E-05
142.4286 2.0256177E-05
142.5715 2.0495321E-05
142.7144 2.0735535E-05
142.8573 2.0976584E-05
143.0002 2.1218200E-05
143.1431 2.1460102E-05
143.2860 2.1701986E-05
143.4290 2.1943539E-05
143.5719 2.2184453E-05
143.7148 2.2424414E-05
143.8577 2.2663124E-05
144.0006 2.2900305E-05
144.1435 2.3135703E-05
144.2864 2.3369093E-05
144.4293 2.3600291E-05
144.5723 2.3829149E-05
144.7152 2.4055566E-05
144.8581 2.4279490E-05
145.0010 2.4500920E-05
145.1439 2.4719893E-05
145.2868 2.4936504E-05
145.4297 2.5150895E-05
145.5726 2.5363248E-05
145.7155 2.5573789E-05
145.8585 2.5782780E-05
146.0014 2.5990519E-05
146.1443 2.6197331E-05
146.2872 2.6403559E-05
146.4301 2.6609569E-05
146.5730 2.6815731E-05
146.7159 2.7022415E-05
146.8588 2.7229997E-05
147.0018 2.7438831E-05
147.1447 2.7649263E-05
147.2876 2.7861606E-05
147.4305 2.8076149E-05
147.5734 2.8293140E-05
147.7163 2.8512783E-05
147.8592 2.8735238E-05
148.0021 2.8960609E-05
148.1451 2.9188945E-05
148.2880 2.9420231E-05
148.4309 2.9654397E-05
148.5738 2.9891304E-05
148.7167 3.0130752E-05
148.8596 3.0372474E-05
149.0025 3.0616149E-05
149.1454 3.0861396E-05
149.2883 3.1107782E-05
149.4312 3.1354823E-05
149.5742 3.1602001E-05
149.7171 3.1848755E-05
149.8600 3.2094511E-05
150.0029 3.2338670E-05
150.1458 3.2580636E-05
150.2887 3.2819808E-05
150.4316 3.3055607E-05
150.5745 3.3287470E-05
150.7175 3.3514869E-05
150.8604 3.3737324E-05
151.0033 3.3954391E-05
151.1462 3.4165692E-05
151.2891 3.4370889E-05
151.4320 3.4569734E-05
151.5749 3.4762019E-05
151.7178 3.4947618E-05
151.8607 3.5126450E-05
152.0037 3.5298519E-05
152.1466 3.5463869E-05
152.2895 3.5622616E-05
152.4324 3.5774905E-05
152.5753 3.5920941E-05
152.7182 3.6060956E-05
152.8611 3.6195201E-05
153.0040 3.6323952E-05
153.1470 3.6447502E-05
153.2899 3.6566129E-05
153.4328 3.6680114E-05
153.5757 3.6789719E-05
153.7186 3.6895181E-05
153.8615 3.6996706E-05
154.0044 3.7094458E-05
154.1473 3.7188558E-05
154.2903 3.7279086E-05
154.4332 3.7366062E-05
154.5761 3.7449452E-05
154.7190 3.7529175E-05
154.8619 3.7605088E-05
155.0048 3.7677011E-05
155.1477 3.7744714E-05
155.2906 3.7807924E-05
155.4335 3.7866335E-05
155.5765 3.7919632E-05
155.7194 3.7967468E-05
155.8623 3.8009504E-05
156.0052 3.8045408E-05
156.1481 3.8074864E-05
156.2910 3.8097591E-05
156.4339 3.8113354E-05
156.5768 3.8121972E-05
156.7197 3.8123329E-05
156.8627 3.8117400E-05
157.0056 3.8104230E-05
157.1485 3.8083963E-05
157.2914 3.8056853E-05
157.4343 3.8023234E-05
157.5772 3.7983544E-05
157.7201 3.7938324E-05
157.8630 3.7888192E-05
158.0060 3.7833852E-05
158.1489 3.7776066E-05
158.2918 3.7715650E-05
158.4347 3.7653444E-05
158.5776 3.7590318E-05
158.7205 3.7527119E-05
158.8634 3.7464677E-05
159.0063 3.7403770E-05
159.1492 3.7345100E-05
159.2922 3.7289297E-05
159.4351 3.7236870E-05
159.5780 3.7188220E-05
159.7209 3.7143611E-05
159.8638 3.7103153E-05
160.0067 3.7066828E-05
160.1496 3.7034446E-05
160.2925 3.7005673E-05
160.4355 3.6980025E-05
160.5784 3.6956870E-05
160.7213 3.6935438E-05
160.8642 3.6914855E-05
161.0071 3.6894118E-05
161.1500 3.6872156E-05
161.2929 3.6847810E-05
161.4358 3.6819874E-05
161.5788 3.6787129E-05
161.7217 3.6748334E-05
161.8646 3.6702277E-05
162.0075 3.6647791E-05
162.1504 3.6583766E-05
162.2933 3.6509195E-05
162.4362 3.6423175E-05
162.5791 3.6324938E-05
162.7220 3.6213882E-05
162.8650 3.6089561E-05
163.0079 3.5951722E-05
163.1508 3.5800309E-05
163.2937 3.5635469E-05
163.4366 3.5457553E-05
163.5795 3.5267127E-05
163.7224 3.5064946E-05
163.8653 3.4851972E-05
164.0083 3.4629320E-05
164.1512 3.4398279E-05
164.2941 3.4160268E-05
164.4370 3.3916804E-05
164.5799 3.3669476E-05
164.7228 3.3419921E-05
164.8657 3.3169785E-05
165.0086 3.2920674E-05
165.1515 3.2674143E-05
165.2944 3.2431650E-05
165.4374 3.2194515E-05
165.5803 3.1963918E-05
165.7232 3.1740848E-05
165.8661 3.1526095E-05
166.0090 3.1320229E-05
166.1519 3.1123589E-05
166.2948 3.0936273E-05
166.4377 3.0758143E-05
166.5807 3.0588824E-05
166.7236 3.0427715E-05
166.8665 3.0274003E-05
167.0094 3.0126692E-05
167.1523 2.9984627E-05
167.2952 2.9846527E-05
167.4381 2.9711033E-05
167.5810 2.9576728E-05
167.7240 2.9442208E-05
167.8669 2.9306115E-05
168.0098 2.9167184E-05
168.1527 2.9024292E-05
168.2956 2.8876491E-05
168.4385 2.8723058E-05
168.5814 2.8563507E-05
168.7243 2.8397626E-05
168.8672 2.8225482E-05
169.0102 2.8047427E-05
169.1531 2.7864082E-05
169.2960 2.7676339E-05
169.4389 2.7485317E-05
169.5818 2.7292346E-05
169.7247 2.7098919E-05
169.8676 2.6906642E-05
170.0105 2.6717204E-05
170.1535 2.6532307E-05
170.2964 2.6353640E-05
170.4393 2.6182803E-05
170.5822 2.6021287E-05
170.7251 2.5870413E-05
170.8680 2.5731308E-05
171.0109 2.5604862E-05
171.1538 2.5491716E-05
171.2968 2.5392234E-05
171.4397 2.5306499E-05
171.5826 2.5234311E-05
171.7255 2.5175186E-05
171.8684 2.5128369E-05
172.0113 2.5092857E-05
172.1542 2.5067415E-05
172.2971 2.5050613E-05
172.4400 2.5040859E-05
172.5829 2.5036443E-05
172.7259 2.5035568E-05
172.8688 2.5036412E-05
173.0117 2.5037160E-05
173.1546 2.5036063E-05
173.2975 2.5031484E-05
173.4404 2.5021938E-05
173.5833 2.5006140E-05
173.7262 2.4983041E-05
173.8692 2.4951862E-05
174.0121 2.4912124E-05
174.1550 2.4863672E-05
174.2979 2.4806675E-05
174.4408 2.4741643E-05
174.5837 2.4669414E-05