  -7.200000        1.0838620E-17
  -7.057088        1.0849875E-17
  -6.914176        1.0869767E-17
  -6.771265        1.0893945E-17
  -6.628353        1.0917392E-17
  -6.485441        1.0935673E-17
  -6.342530        1.0946010E-17
  -6.199618        1.0947930E-17
  -6.056706        1.0943325E-17
  -5.913795        1.0935903E-17
  -5.770883        1.0930181E-17
  -5.627971        1.0930269E-17
  -5.485059        1.0938782E-17
  -5.342147        1.0956126E-17
  -5.199236        1.0980372E-17
  -5.056324        1.1007738E-17
  -4.913413        1.1033548E-17
  -4.770501        1.1053433E-17
  -4.627589        1.1064457E-17
  -4.484677        1.1065890E-17
  -4.341765        1.1059402E-17
  -4.198854        1.1048665E-17
  -4.055942        1.1038423E-17
  -3.913030        1.1033296E-17
  -3.770118        1.1036613E-17
  -3.627207        1.1049559E-17
  -3.484295        1.1070879E-17
  -3.341383        1.1097195E-17
  -3.198472        1.1123864E-17
  -3.055560        1.1146156E-17
  -2.912648        1.1160449E-17
  -2.769737        1.1165147E-17
  -2.626825        1.1161074E-17
  -2.483913        1.1151253E-17
  -2.341001        1.1140123E-17
  -2.198090        1.1132396E-17
  -2.055178        1.1131850E-17
  -1.912266        1.1140357E-17
  -1.769354        1.1157410E-17
  -1.626443        1.1180258E-17
  -1.483531        1.1204614E-17
  -1.340619        1.1225771E-17
  -1.197708        1.1239812E-17
  -1.054796        1.1244633E-17
 -0.9118841        1.1240491E-17
 -0.7689723        1.1229951E-17
 -0.6260606        1.1217233E-17
 -0.4831489        1.1207138E-17
 -0.3402372        1.1203810E-17
 -0.1973254        1.1209666E-17
 -5.4413714E-02    1.1224771E-17
  8.8498011E-02    1.1246801E-17
  0.2314097        1.1271628E-17
  0.3743215        1.1294372E-17
  0.5172332        1.1310643E-17
  0.6601449        1.1317668E-17
  0.8030567        1.1315007E-17
  0.9459684        1.1304671E-17
   1.088880        1.1290617E-17
   1.231792        1.1277739E-17
   1.374704        1.1270615E-17
   1.517615        1.1272348E-17
   1.660527        1.1283761E-17
   1.803439        1.1303203E-17
   1.946350        1.1326972E-17
   2.089262        1.1350282E-17
   2.232174        1.1368499E-17
   2.375086        1.1378348E-17
   2.517997        1.1378764E-17
   2.660909        1.1371164E-17
   2.803821        1.1359082E-17
   2.946733        1.1347245E-17
   3.089644        1.1340326E-17
   3.232556        1.1341717E-17
   3.375468        1.1352616E-17
   3.518379        1.1371686E-17
   3.661291        1.1395381E-17
   3.804203        1.1418834E-17
   3.947115        1.1437120E-17
   4.090026        1.1446532E-17
   4.232938        1.1445554E-17
   4.375850        1.1435288E-17
   4.518762        1.1419184E-17
   4.661673        1.1402182E-17
   4.804585        1.1389450E-17
   4.947497        1.1385063E-17
   5.090408        1.1390960E-17
   5.233320        1.1406443E-17
   5.376232        1.1428365E-17
   5.519144        1.1451950E-17
   5.662055        1.1472034E-17
   5.804967        1.1484409E-17
   5.947879        1.1486914E-17
   6.090790        1.1479994E-17
   6.233702        1.1466570E-17
   6.376614        1.1451258E-17
   6.519526        1.1439143E-17
   6.662437        1.1434420E-17
   6.805349        1.1439270E-17
   6.948261        1.1453264E-17
   7.091173        1.1473453E-17
   7.234084        1.1495130E-17
   7.376996        1.1513066E-17
   7.519908        1.1522895E-17
   7.662819        1.1522281E-17
   7.805731        1.1511573E-17
   7.948643        1.1493744E-17
   8.091555        1.1473652E-17
   8.234467        1.1456793E-17
   8.377378        1.1447882E-17
   8.520289        1.1449621E-17
   8.663201        1.1461998E-17
   8.806113        1.1482274E-17
   8.949025        1.1505699E-17
   9.091937        1.1526749E-17
   9.234848        1.1540557E-17
   9.377760        1.1544194E-17
   9.520672        1.1537423E-17
   9.663584        1.1522755E-17
   9.806496        1.1504788E-17
   9.949407        1.1488980E-17
   10.09232        1.1480211E-17
   10.23523        1.1481489E-17
   10.37814        1.1493156E-17
   10.52105        1.1512790E-17
   10.66397        1.1535853E-17
   10.80688        1.1556889E-17
   10.94979        1.1570983E-17
   11.09270        1.1575063E-17
   11.23561        1.1568733E-17
   11.37852        1.1554388E-17
   11.52144        1.1536593E-17
   11.66435        1.1520876E-17
   11.80726        1.1512269E-17
   11.95017        1.1513955E-17
   12.09308        1.1526414E-17
   12.23599        1.1547272E-17
   12.37891        1.1571884E-17
   12.52182        1.1594547E-17
   12.66473        1.1609975E-17
   12.80764        1.1614675E-17
   12.95055        1.1607866E-17
   13.09346        1.1591681E-17
   13.23638        1.1570616E-17
   13.37929        1.1550375E-17
   13.52220        1.1536379E-17
   13.66511        1.1532392E-17
   13.80802        1.1539554E-17
   13.95094        1.1556131E-17
   14.09385        1.1578003E-17
   14.23676        1.1599786E-17
   14.37967        1.1616261E-17
   14.52258        1.1623760E-17
   14.66549        1.1621118E-17
   14.80841        1.1609962E-17
   14.95132        1.1594249E-17
   15.09423        1.1579189E-17
   15.23714        1.1569831E-17
   15.38005        1.1569707E-17
   15.52296        1.1579868E-17
   15.66588        1.1598589E-17
   15.80879        1.1621813E-17
   15.95170        1.1644205E-17
   16.09461        1.1660557E-17
   16.23752        1.1667156E-17
   16.38043        1.1662764E-17
   16.52335        1.1648950E-17
   16.66626        1.1629692E-17
   16.80917        1.1610343E-17
   16.95208        1.1596261E-17
   17.09499        1.1591428E-17
   17.23791        1.1597447E-17
   17.38082        1.1613158E-17
   17.52373        1.1634973E-17
   17.66664        1.1657843E-17
   17.80955        1.1676583E-17
   17.95246        1.1687218E-17
   18.09538        1.1687998E-17
   18.23829        1.1679804E-17
   18.38120        1.1665880E-17
   18.52411        1.1650923E-17
   18.66702        1.1639827E-17
   18.80993        1.1636379E-17
   18.95285        1.1642268E-17
   19.09576        1.1656660E-17
   19.23867        1.1676448E-17
   19.38158        1.1697098E-17
   19.52449        1.1713862E-17
   19.66740        1.1723046E-17
   19.81032        1.1722978E-17
   19.95323        1.1714442E-17
   20.09614        1.1700457E-17
   20.23905        1.1685471E-17
   20.38196        1.1674190E-17
   20.52488        1.1670338E-17
   20.66779        1.1675692E-17
   20.81070        1.1689636E-17
   20.95361        1.1709330E-17
   21.09652        1.1730472E-17
   21.23943        1.1748421E-17
   21.38235        1.1759388E-17
   21.52526        1.1761407E-17
   21.66817        1.1754798E-17
   21.81108        1.1742050E-17
   21.95399        1.1727126E-17
   22.09690        1.1714416E-17
   22.23981        1.1707590E-17
   22.38273        1.1708670E-17
   22.52564        1.1717548E-17
   22.66855        1.1732074E-17
   22.81146        1.1748677E-17
   22.95437        1.1763340E-17
   23.09729        1.1772671E-17
   23.24020        1.1774794E-17
   23.38311        1.1769804E-17
   23.52602        1.1759708E-17
   23.66893        1.1747847E-17
   23.81184        1.1737987E-17
   23.95476        1.1733302E-17
   24.09767        1.1735545E-17
   24.24058        1.1744598E-17
   24.38349        1.1758533E-17
   24.52640        1.1774145E-17
   24.66932        1.1787823E-17
   24.81223        1.1796502E-17
   24.95514        1.1798474E-17
   25.09805        1.1793815E-17
   25.24096        1.1784346E-17
   25.38387        1.1773135E-17
   25.52678        1.1763683E-17
   25.66970        1.1759010E-17
   25.81261        1.1760886E-17
   25.95552        1.1769397E-17
   26.09843        1.1782964E-17
   26.24134        1.1798791E-17
   26.38426        1.1813610E-17
   26.52717        1.1824534E-17
   26.67008        1.1829791E-17
   26.81299        1.1829133E-17
   26.95590        1.1823844E-17
   27.09881        1.1816342E-17
   27.24173        1.1809497E-17
   27.38464        1.1805845E-17
   27.52755        1.1806922E-17
   27.67046        1.1812875E-17
   27.81337        1.1822466E-17
   27.95629        1.1833431E-17
   28.09920        1.1843125E-17
   28.24211        1.1849247E-17
   28.38502        1.1850457E-17
   28.52793        1.1846738E-17
   28.67084        1.1839389E-17
   28.81376        1.1830677E-17
   28.95667        1.1823232E-17
   29.09958        1.1819358E-17
   29.24249        1.1820439E-17
   29.38540        1.1826596E-17
   29.52831        1.1836675E-17
   29.67122        1.1848574E-17
   29.81414        1.1859801E-17
   29.95705        1.1868121E-17
   30.09996        1.1872127E-17
   30.24287        1.1871569E-17
   30.38578        1.1867382E-17
   30.52870        1.1861406E-17
   30.67161        1.1855869E-17
   30.81452        1.1852797E-17
   30.95743        1.1853489E-17
   31.10034        1.1858200E-17
   31.24325        1.1866108E-17
   31.38617        1.1875566E-17
   31.52908        1.1884562E-17
   31.67199        1.1891261E-17
   31.81490        1.1894481E-17
   31.95781        1.1893979E-17
   32.10072        1.1890483E-17
   32.24364        1.1885460E-17
   32.38655        1.1880694E-17
   32.52946        1.1877797E-17
   32.67237        1.1877778E-17
   32.81528        1.1880796E-17
   32.95819        1.1886140E-17
   33.10111        1.1892467E-17
   33.24402        1.1898186E-17
   33.38693        1.1901925E-17
   33.52984        1.1902914E-17
   33.67275        1.1901212E-17
   33.81567        1.1897691E-17
   33.95858        1.1893812E-17
   34.10149        1.1891228E-17
   34.24440        1.1891335E-17
   34.38731        1.1894904E-17
   34.53022        1.1901862E-17
   34.67313        1.1911297E-17
   34.81605        1.1921696E-17
   34.95896        1.1931314E-17
   35.10187        1.1938623E-17
   35.24478        1.1942686E-17
   35.38770        1.1943375E-17
   35.53061        1.1941397E-17
   35.67352        1.1938085E-17
   35.81643        1.1935050E-17
   35.95934        1.1933765E-17
   36.10225        1.1935190E-17
   36.24516        1.1939527E-17
   36.38808        1.1946184E-17
   36.53099        1.1953906E-17
   36.67390        1.1961093E-17
   36.81681        1.1966170E-17
   36.95972        1.1967950E-17
   37.10263        1.1965896E-17
   37.24555        1.1960229E-17
   37.38846        1.1951865E-17
   37.53137        1.1942222E-17
   37.67428        1.1932941E-17
   37.81719        1.1925602E-17
   37.96011        1.1921492E-17
   38.10302        1.1921463E-17
   38.24593        1.1925898E-17
   38.38884        1.1934754E-17
   38.53175        1.1947641E-17
   38.67466        1.1963904E-17
   38.81758        1.1982664E-17
   38.96049        1.2002822E-17
   39.10340        1.2023027E-17
   39.24631        1.2041662E-17
   39.38922        1.2056873E-17
   39.53214        1.2066692E-17
   39.67505        1.2069252E-17
   39.81796        1.2063072E-17
   39.96087        1.2047384E-17
   40.10378        1.2022398E-17
   40.24669        1.1989473E-17
   40.38961        1.1951115E-17
   40.53252        1.1910795E-17
   40.67543        1.1872610E-17
   40.81834        1.1840825E-17
   40.96125        1.1819401E-17
   41.10416        1.1811568E-17
   41.24707        1.1819528E-17
   41.38999        1.1844302E-17
   41.53290        1.1885713E-17
   41.67581        1.1942479E-17
   41.81872        1.2012318E-17
   41.96163        1.2092027E-17
   42.10455        1.2177477E-17
   42.24746        1.2263542E-17
   42.39037        1.2344015E-17
   42.53328        1.2411581E-17
   42.67619        1.2458003E-17
   42.81910        1.2474566E-17
   42.96202        1.2452888E-17
   43.10493        1.2386039E-17
   43.24784        1.2269895E-17
   43.39075        1.2104543E-17
   43.53366        1.1895496E-17
   43.67657        1.1654481E-17
   43.81948        1.1399564E-17
   43.96240        1.1154449E-17
   44.10531        1.0946916E-17
   44.24822        1.0806431E-17
   44.39113        1.0761152E-17
   44.53405        1.0834573E-17
   44.67696        1.1042174E-17
   44.81987        1.1388450E-17
   44.96278        1.1864666E-17
   45.10569        1.2447646E-17
   45.24860        1.3099815E-17
   45.39151        1.3770612E-17
   45.53443        1.4399319E-17
   45.67734        1.4919177E-17
   45.82025        1.5262622E-17
   45.96316        1.5367351E-17
   46.10608        1.5182779E-17
   46.24899        1.4676472E-17
   46.39190        1.3839948E-17
   46.53481        1.2693309E-17
   46.67772        1.1288060E-17
   46.82063        9.7076254E-18
   46.96354        8.0650978E-18
   47.10646        6.4979537E-18
   47.24937        5.1597430E-18
   47.39228        4.2089588E-18
   47.53519        3.7956647E-18
   47.67810        4.0467210E-18
   47.82101        5.0507197E-18
   47.96392        6.8439501E-18
   48.10684        9.3988157E-18
   48.24975        1.2616122E-17
   48.39266        1.6322525E-17
   48.53557        2.0274139E-17
   48.67849        2.4166942E-17
   48.82140        2.7654069E-17
   48.96431        3.0369519E-17
   49.10722        3.1957127E-17
   49.25013        3.2103088E-17
   49.39304        3.0569644E-17
   49.53595        2.7227197E-17
   49.67887        2.2081759E-17
   49.82178        1.5294659E-17
   49.96469        7.1916456E-18
   50.10760       -1.7409821E-18
   50.25051       -1.0874736E-17
   50.39342       -1.9472273E-17
   50.53634       -2.6734927E-17
   50.67925       -3.1862312E-17
   50.82216       -3.4120446E-17
   50.96507       -3.2913699E-17
   51.10798       -2.7854748E-17
   51.25090       -1.8826163E-17
   51.39381       -6.0270683E-18
   51.53672        1.0001293E-17
   51.67963        2.8376189E-17
   51.82254        4.7903740E-17
   51.96545        6.7140232E-17
   52.10837        8.4483079E-17
   52.25128        9.8287063E-17
   52.39419        1.0699892E-16
   52.53710        1.0930017E-16
   52.68001        1.0424655E-16
   52.82293        9.1391043E-17
   52.96584        7.0877348E-17
   53.10875        4.3492181E-17
   53.25166        1.0667083E-17
   53.39457       -2.5575491E-17
   53.53748       -6.2732723E-17
   53.68040       -9.7983898E-17
   53.82331       -1.2839511E-16
   53.96622       -1.5115167E-16
   54.10913       -1.6379997E-16
   54.25204       -1.6447855E-16
   54.39495       -1.5211731E-16
   54.53786       -1.2658602E-16
   54.68078       -8.8775776E-17
   54.82369       -4.0602531E-17
   54.96660        1.5072452E-17
   55.10951        7.4603664E-17
   55.25242        1.3379587E-16
   55.39534        1.8819758E-16
   55.53825        2.3343405E-16
   55.68116        2.6555597E-16
   55.82407        2.8137805E-16
   55.96698        2.7878022E-16
   56.10989        2.5694594E-16
   56.25281        2.1651414E-16
   56.39572        1.5962599E-16
   56.53863        8.9854089E-17
   56.68154        1.2009073E-17
   56.82445       -6.8171998E-17
   56.96737       -1.4444144E-16
   57.11028       -2.1053635E-16
   57.25319       -2.6071918E-16
   57.39610       -2.9032089E-16
   57.53901       -2.9623823E-16
   57.68192       -2.7733439E-16
   57.82484       -2.3469488E-16
   57.96775       -1.7169832E-16
   58.11066       -9.3874299E-17
   58.25357       -8.5383370E-18
   58.39648        7.5784812E-17
   58.53939        1.5011564E-16
   58.68230        2.0589608E-16
   58.82522        2.3591239E-16
   58.96813        2.3517587E-16
   59.11104        2.0166849E-16
   59.25395        1.3686235E-16
   59.39687        4.5937336E-17
   59.53978       -6.2356792E-17
   59.68269       -1.7621693E-16
   59.82560       -2.8166892E-16
   59.96851       -3.6376619E-16
   60.11142       -4.0801987E-16
   60.25433       -4.0194495E-16
   60.39725       -3.3658747E-16
   60.54016       -2.0788674E-16
   60.68307       -1.7729611E-17
   60.82598        2.2543057E-16
   60.96889        5.0649119E-16
   61.11180        8.0421448E-16
   61.25471        1.0923576E-15
   61.39763        1.3413842E-15
   61.54054        1.5206759E-15
   61.68345        1.6011082E-15
   61.82636        1.5578190E-15
   61.96928        1.3729600E-15
   62.11219        1.0382026E-15
   62.25510        5.5675799E-16
   62.39801       -5.5304641E-17
   62.54092       -7.6864518E-16
   62.68383       -1.5412867E-15
   62.82674       -2.3203781E-15
   62.96966       -3.0450824E-15
   63.11257       -3.6504930E-15
   63.25548       -4.0723828E-15
   63.39839       -4.2524971E-15
   63.54131       -4.1440079E-15
   63.68422       -3.7166993E-15
   63.82713       -2.9614112E-15
   63.97004       -1.8932726E-15
   64.11295       -5.5332337E-16
   64.25586        9.9180782E-16
   64.39877        2.6523450E-15
   64.54169        4.3199481E-15
   64.68460        5.8742747E-15
   64.82751        7.1911530E-15
   64.97042        8.1518519E-15
   65.11333        8.6527516E-15
   65.25625        8.6146673E-15
   65.39915        7.9910122E-15
   65.54207        6.7740494E-15
   65.68498        4.9985625E-15
   65.82789        2.7424758E-15
   65.97080        1.2415949E-16
   66.11372       -2.7035763E-15
   66.25663       -5.5625280E-15
   66.39954       -8.2606405E-15
   66.54245       -1.0605279E-14
   66.68536       -1.2417288E-14
   66.82828       -1.3544770E-14
   66.97118       -1.3875519E-14
   67.11410       -1.3347078E-14
   67.25701       -1.1953539E-14
   67.39992       -9.7484234E-15
   67.54283       -6.8432609E-15
   67.68575       -3.4017830E-15
   67.82866        3.6999275E-16
   67.97157        4.2371959E-15
   68.11448        7.9521706E-15
   68.25739        1.1272031E-14
   68.40031        1.3976412E-14
   68.54321        1.5884056E-14
   68.68613        1.6866869E-14
   68.82904        1.6860276E-14
   68.97195        1.5868896E-14
   69.11486        1.3966952E-14
   69.25777        1.1293146E-14
   69.40069        8.0402883E-15
   69.54359        4.4403233E-15
   69.68651        7.4583866E-16
   69.82942       -2.7904651E-15
   69.97233       -5.9366955E-15
   70.11524       -8.5012809E-15
   70.25816       -1.0349331E-14
   70.40107       -1.1414297E-14
   70.54398       -1.1703730E-14
   70.68689       -1.1298406E-14
   70.82980       -1.0344613E-14
   70.97272       -9.0400218E-15
   71.11562       -7.6141172E-15
   71.25854       -6.3047030E-15
   71.40145       -5.3324070E-15
   71.54436       -4.8754242E-15
   71.68727       -5.0467540E-15
   71.83018       -5.8761928E-15
   71.97310       -7.2990498E-15
   72.11600       -9.1530550E-15
   72.25892       -1.1184456E-14
   72.40183       -1.3063464E-14
   72.54475       -1.4408598E-14
   72.68765       -1.4818591E-14
   72.83057       -1.3909865E-14
   72.97348       -1.1356902E-14
   73.11639       -6.9323912E-15
   73.25930       -5.4374602E-16
   73.40221        7.7374969E-15
   73.54513        1.7656659E-14
   73.68803        2.8769992E-14
   73.83095        4.0453870E-14
   73.97386        5.1930025E-14
   74.11678        6.2306571E-14
   74.25968        7.0633359E-14
   74.40260        7.5968562E-14
   74.54551        7.7452428E-14
   74.68842        7.4383045E-14
   74.83133        6.6288121E-14
   74.97424        5.2986695E-14
   75.11716        3.4634798E-14
   75.26006        1.1750094E-14
   75.40298       -1.4788570E-14
   75.54589       -4.3768595E-14
   75.68880       -7.3698155E-14
   75.83171       -1.0288560E-13
   75.97462       -1.2953935E-13
   76.11754       -1.5188195E-13
   76.26044       -1.6827030E-13
   76.40336       -1.7731339E-13
   76.54627       -1.7797803E-13
   76.68919       -1.6967473E-13
   76.83209       -1.5231544E-13
   76.97501       -1.2633845E-13
   77.11792       -9.2697050E-14
   77.26083       -5.2811793E-14
   77.40374       -8.4890565E-15
   77.54665        3.8188995E-14
   77.68957        8.4994979E-14
   77.83247        1.2969802E-13
   77.97539        1.7020599E-13
   78.11830        2.0469690E-13
   78.26122        2.3172962E-13
   78.40412        2.5032437E-13
   78.54704        2.6000640E-13
   78.68995        2.6080898E-13
   78.83286        2.5323480E-13
   78.97577        2.3817870E-13
   79.11868        2.1681788E-13
   79.26160        1.9047889E-13
   79.40450        1.6049309E-13
   79.54742        1.2805431E-13
   79.69033        9.4092113E-14
   79.83324        5.9174860E-14
   79.97615        2.3453336E-14
   80.11906       -1.3345814E-14
   80.26198       -5.1872674E-14
   80.40488       -9.3052681E-14
   80.54780       -1.3793644E-13
   80.69071       -1.8751132E-13
   80.83363       -2.4248903E-13
   80.97653       -3.0308820E-13
   81.11945       -3.6883227E-13
   81.26236       -4.3838349E-13
   81.40527       -5.0943375E-13
   81.54818       -5.7866792E-13
   81.69109       -6.4181310E-13
   81.83401       -6.9377956E-13
   81.97691       -7.2889210E-13
   82.11983       -7.4120527E-13
   82.26274       -7.2488619E-13
   82.40565       -6.7464513E-13
   82.54856       -5.8618664E-13
   82.69147       -4.5665322E-13
   82.83439       -2.8502892E-13
   82.97730       -7.2474924E-14
   83.12021        1.7743226E-13
   83.26312        4.5858207E-13
   83.40604        7.6234776E-13
   83.54894        1.0777510E-12
   83.69186        1.3917743E-12
   83.83477        1.6898159E-12
   83.97768        1.9562709E-12
   84.12059        2.1752166E-12
   84.26350        2.3311732E-12
   84.40642        2.4099037E-12
   84.54933        2.3992139E-12
   84.69224        2.2897131E-12
   84.83515        2.0754928E-12
   84.97807        1.7546835E-12
   85.12097        1.3298583E-12
   85.26389        8.0825196E-13
   85.40680        2.0177763E-13
   85.54971       -4.7316908E-13
   85.69262       -1.1961179E-12
   85.83553       -1.9431301E-12
   85.97845       -2.6875826E-12
   86.12135       -3.4010930E-12
   86.26427       -4.0545518E-12
   86.40718       -4.6192087E-12
   86.55009       -5.0677709E-12
   86.69300       -5.3754640E-12
   86.83591       -5.5210099E-12
   86.97883       -5.4874885E-12
   87.12174       -5.2630500E-12
   87.26465       -4.8414627E-12
   87.40756       -4.2224843E-12
   87.55048       -3.4120573E-12
   87.69338       -2.4223371E-12
   87.83630       -1.2715689E-12
   87.97921        1.6173867E-14
   88.12212        1.4113690E-12
   88.26503        2.8795297E-12
   88.40794        4.3817831E-12
   88.55086        5.8755357E-12
   88.69377        7.3152326E-12
   88.83668        8.6532101E-12
   88.97959        9.8406595E-12
   89.12251        1.0828711E-11
   89.26541        1.1569643E-11
   89.40833        1.2018224E-11
   89.55124        1.2133192E-11
   89.69415        1.1878834E-11
   89.83706        1.1226663E-11
   89.97997        1.0157123E-11
   90.12289        8.6612861E-12
   90.26580        6.7424482E-12
   90.40871        4.4175614E-12
   90.55162        1.7184019E-12
   90.69453       -1.3076232E-12
   90.83744       -4.5971113E-12
   90.98035       -8.0708357E-12
   91.12327       -1.1634523E-11
   91.26618       -1.5180300E-11
   91.40909       -1.8588828E-11
   91.55200       -2.1732165E-11
   91.69492       -2.4477287E-11
   91.83783       -2.6690265E-11
   91.98074       -2.8240970E-11
   92.12365       -2.9008209E-11
   92.26656       -2.8885104E-11
   92.40947       -2.7784554E-11
   92.55238       -2.5644559E-11
   92.69530       -2.2433166E-11
   92.83821       -1.8152788E-11
   92.98112       -1.2843680E-11
   93.12403       -6.5863218E-12
   93.26694        4.9748481E-13
   93.40986        8.2450002E-12
   93.55276        1.6454508E-11
   93.69568        2.4888924E-11
   93.83859        3.3281086E-11
   93.98150        4.1340608E-11
   94.12441        4.8762230E-11
   94.26733        5.5235407E-11
   94.41024        6.0454870E-11
   94.55315        6.4131908E-11
   94.69606        6.6005881E-11
   94.83897        6.5855661E-11
   94.98188        6.3510516E-11
   95.12479        5.8860063E-11
   95.26771        5.1862781E-11
   95.41062        4.2552808E-11
   95.55353        3.1044556E-11
   95.69644        1.7534909E-11
   95.83936        2.3027867E-12
   95.98227       -1.4294155E-11
   96.12518       -3.1825650E-11
   96.26809       -4.9797839E-11
   96.41100       -6.7665006E-11
   96.55391       -8.4843806E-11
   96.69682       -1.0072971E-10
   96.83974       -1.1471514E-10
   96.98265       -1.2620896E-10
   97.12556       -1.3465662E-10
   97.26847       -1.3956029E-10
   97.41138       -1.4049857E-10
   97.55430       -1.3714473E-10
   97.69720       -1.2928315E-10
   97.84012       -1.1682312E-10
   97.98303       -9.9809293E-11
   98.12594       -7.8428694E-11
   98.26885       -5.3013510E-11
   98.41177       -2.4039454E-11
   98.55468        7.8803101E-12
   98.69759        4.2005833E-11
   98.84050        7.7485456E-11
   98.98341        1.1337493E-10
   99.12633        1.4866021E-10
   99.26923        1.8228333E-10
   99.41215        2.1317066E-10
   99.55506        2.4026281E-10
   99.69797        2.6254512E-10
   99.84088        2.7907826E-10
   99.98380        2.8902747E-10
   100.1267        2.9169001E-10
   100.2696        2.8651975E-10
   100.4125        2.7314837E-10
   100.5554        2.5140195E-10
   100.6984        2.2131350E-10
   100.8413        1.8312975E-10
   100.9842        1.3731322E-10
   101.1271        8.4538924E-11
   101.2700        2.5685818E-11
   101.4129       -3.8176337E-11
   101.5558       -1.0580459E-10
   101.6987       -1.7580423E-10
   101.8416       -2.4665350E-10
   101.9846       -3.1673111E-10
   102.1275       -3.8434564E-10
   102.2704       -4.4776680E-10
   102.4133       -5.0525756E-10
   102.5562       -5.5510713E-10
   102.6991       -5.9566441E-10
   102.8420       -6.2537131E-10
   102.9849       -6.4279593E-10
   103.1279       -6.4666578E-10
   103.2708       -6.3589978E-10
   103.4137       -6.0963967E-10
   103.5566       -5.6727983E-10
   103.6995       -5.0849547E-10
   103.8424       -4.3326776E-10
   103.9853       -3.4190603E-10
   104.1282       -2.3506605E-10
   104.2711       -1.1376283E-10
   104.4141        2.0621765E-11
   104.5570        1.6633814E-10
   104.6999        3.2127537E-10
   104.8428        4.8297516E-10
   104.9857        6.4865413E-10
   105.1286        8.1523394E-10
   105.2715        9.7937958E-10
   105.4144        1.1375455E-09
   105.5574        1.2860289E-09
   105.7003        1.4210291E-09
   105.8432        1.5387117E-09
   105.9861        1.6352787E-09
   106.1290        1.7070387E-09
   106.2719        1.7504814E-09
   106.4148        1.7623504E-09
   106.5577        1.7397144E-09
   106.7006        1.6800374E-09
   106.8436        1.5812447E-09
   106.9865        1.4417811E-09
   107.1294        1.2606677E-09
   107.2723        1.0375480E-09
   107.4152        7.7272910E-10
   107.5581        4.6721393E-10
   107.7010        1.2272726E-10
   107.8439       -2.5826702E-10
   107.9869       -6.7255523E-10
   108.1298       -1.1161689E-09
   108.2727       -1.5843862E-09
   108.4156       -2.0717370E-09
   108.5585       -2.5720137E-09
   108.7014       -3.0782819E-09
   108.8443       -3.5828955E-09
   108.9872       -4.0775139E-09
   109.1301       -4.5531179E-09
   109.2731       -5.0000306E-09
   109.4160       -5.4079394E-09
   109.5589       -5.7659229E-09
   109.7018       -6.0624843E-09
   109.8447       -6.2855947E-09
   109.9876       -6.4227508E-09
   110.1305       -6.4610477E-09
   110.2734       -6.3872800E-09
   110.4164       -6.1880687E-09
   110.5593       -5.8500258E-09
   110.7022       -5.3599605E-09
   110.8451       -4.7051341E-09
   110.9880       -3.8735686E-09
   111.1309       -2.8544147E-09
   111.2738       -1.6383851E-09
   111.4167       -2.1824745E-10
   111.5596        1.4106184E-09
   111.7026        3.2496030E-09
   111.8455        5.2961964E-09
   111.9884        7.5432807E-09
   112.1313        9.9783950E-09
   112.2742        1.2582990E-08
   112.4171        1.5331706E-08
   112.5600        1.8191692E-08
   112.7029        2.1121989E-08
   112.8458        2.4073053E-08
   112.9888        2.6986385E-08
   113.1317        2.9794379E-08
   113.2746        3.2420385E-08
   113.4175        3.4779042E-08
   113.5604        3.6776907E-08
   113.7033        3.8313438E-08
   113.8462        3.9282337E-08
   113.9891        3.9573294E-08
   114.1321        3.9074138E-08
   114.2750        3.7673409E-08
   114.4179        3.5263323E-08
   114.5608        3.1743134E-08
   114.7037        2.7022848E-08
   114.8466        2.1027219E-08
   114.9895        1.3699966E-08
   115.1324        5.0081317E-09
   115.2754       -5.0535340E-09
   115.4183       -1.6458314E-08
   115.5612       -2.9143466E-08
   115.7041       -4.3006597E-08
   115.8470       -5.7902568E-08
   115.9899       -7.3641132E-08
   116.1328       -8.9985448E-08
   116.2757       -1.0665169E-07
   116.4186       -1.2330982E-07
   116.5616       -1.3958574E-07
   116.7045       -1.5506492E-07
   116.8474       -1.6929761E-07
   116.9903       -1.8180566E-07
   117.1332       -1.9209099E-07
   117.2761       -1.9964571E-07
   117.4190       -2.0396386E-07
   117.5619       -2.0455458E-07
   117.7048       -2.0095666E-07
   117.8478       -1.9275410E-07
   117.9907       -1.7959270E-07
   118.1336       -1.6119718E-07
   118.2765       -1.3738847E-07
   118.4194       -1.0810110E-07
   118.5623       -7.3399974E-08
   118.7052       -3.3496256E-08
   118.8481        1.1237952E-08
   118.9911        6.0256689E-08
   119.1340        1.1282931E-07
   119.2769        1.6803214E-07
   119.4198        2.2474293E-07
   119.5627        2.8163845E-07
   119.7056        3.3719539E-07
   119.8485        3.8969497E-07
   119.9914        4.3723102E-07
   120.1343        4.7772198E-07
   120.2773        5.0892641E-07
   120.4202        5.2846212E-07
   120.5631        5.3382900E-07
   120.7060        5.2243416E-07
   120.8489        4.9162111E-07
   120.9918        4.3870011E-07
   121.1347        3.6098115E-07
   121.2776        2.5580835E-07
   121.4206        1.2059509E-07
   121.5635       -4.7140464E-08
   121.7064       -2.4973991E-07
   121.8493       -4.8937011E-07
   121.9922       -7.6798972E-07
   122.1351       -1.0873179E-06
   122.2780       -1.4488048E-06
   122.4209       -1.8536056E-06
   122.5639       -2.3025566E-06