-7.200000 1.0838620E-17
-7.057088 1.0849875E-17
-6.914176 1.0869767E-17
-6.771265 1.0893945E-17
-6.628353 1.0917392E-17
-6.485441 1.0935673E-17
-6.342530 1.0946010E-17
-6.199618 1.0947930E-17
-6.056706 1.0943325E-17
-5.913795 1.0935903E-17
-5.770883 1.0930181E-17
-5.627971 1.0930269E-17
-5.485059 1.0938782E-17
-5.342147 1.0956126E-17
-5.199236 1.0980372E-17
-5.056324 1.1007738E-17
-4.913413 1.1033548E-17
-4.770501 1.1053433E-17
-4.627589 1.1064457E-17
-4.484677 1.1065889E-17
-4.341765 1.1059402E-17
-4.198854 1.1048665E-17
-4.055942 1.1038423E-17
-3.913030 1.1033296E-17
-3.770118 1.1036613E-17
-3.627207 1.1049559E-17
-3.484295 1.1070879E-17
-3.341383 1.1097195E-17
-3.198472 1.1123864E-17
-3.055560 1.1146155E-17
-2.912648 1.1160448E-17
-2.769737 1.1165147E-17
-2.626825 1.1161074E-17
-2.483913 1.1151253E-17
-2.341001 1.1140124E-17
-2.198090 1.1132397E-17
-2.055178 1.1131851E-17
-1.912266 1.1140357E-17
-1.769354 1.1157410E-17
-1.626443 1.1180258E-17
-1.483531 1.1204613E-17
-1.340619 1.1225770E-17
-1.197708 1.1239811E-17
-1.054796 1.1244632E-17
-0.9118841 1.1240491E-17
-0.7689723 1.1229951E-17
-0.6260606 1.1217234E-17
-0.4831489 1.1207140E-17
-0.3402372 1.1203811E-17
-0.1973254 1.1209669E-17
-5.4413714E-02 1.1224773E-17
8.8498011E-02 1.1246801E-17
0.2314097 1.1271627E-17
0.3743215 1.1294370E-17
0.5172332 1.1310641E-17
0.6601449 1.1317665E-17
0.8030567 1.1315005E-17
0.9459684 1.1304670E-17
1.088880 1.1290617E-17
1.231792 1.1277739E-17
1.374704 1.1270615E-17
1.517615 1.1272348E-17
1.660527 1.1283762E-17
1.803439 1.1303203E-17
1.946350 1.1326971E-17
2.089262 1.1350281E-17
2.232174 1.1368498E-17
2.375086 1.1378348E-17
2.517997 1.1378765E-17
2.660909 1.1371167E-17
2.803821 1.1359086E-17
2.946733 1.1347248E-17
3.089644 1.1340329E-17
3.232556 1.1341718E-17
3.375468 1.1352616E-17
3.518379 1.1371687E-17
3.661291 1.1395381E-17
3.804203 1.1418834E-17
3.947115 1.1437120E-17
4.090026 1.1446532E-17
4.232938 1.1445555E-17
4.375850 1.1435289E-17
4.518762 1.1419185E-17
4.661673 1.1402183E-17
4.804585 1.1389450E-17
4.947497 1.1385063E-17
5.090408 1.1390959E-17
5.233320 1.1406441E-17
5.376232 1.1428363E-17
5.519144 1.1451947E-17
5.662055 1.1472032E-17
5.804967 1.1484408E-17
5.947879 1.1486916E-17
6.090790 1.1479998E-17
6.233702 1.1466575E-17
6.376614 1.1451263E-17
6.519526 1.1439147E-17
6.662437 1.1434421E-17
6.805349 1.1439269E-17
6.948261 1.1453261E-17
7.091173 1.1473448E-17
7.234084 1.1495125E-17
7.376996 1.1513060E-17
7.519908 1.1522889E-17
7.662819 1.1522277E-17
7.805731 1.1511571E-17
7.948643 1.1493743E-17
8.091555 1.1473652E-17
8.234467 1.1456794E-17
8.377378 1.1447881E-17
8.520289 1.1449620E-17
8.663201 1.1461994E-17
8.806113 1.1482269E-17
8.949025 1.1505696E-17
9.091937 1.1526746E-17
9.234848 1.1540556E-17
9.377760 1.1544194E-17
9.520672 1.1537424E-17
9.663584 1.1522757E-17
9.806496 1.1504790E-17
9.949407 1.1488980E-17
10.09232 1.1480210E-17
10.23523 1.1481487E-17
10.37814 1.1493153E-17
10.52105 1.1512786E-17
10.66397 1.1535849E-17
10.80688 1.1556888E-17
10.94979 1.1570984E-17
11.09270 1.1575065E-17
11.23561 1.1568737E-17
11.37852 1.1554393E-17
11.52144 1.1536597E-17
11.66435 1.1520878E-17
11.80726 1.1512267E-17
11.95017 1.1513951E-17
12.09308 1.1526410E-17
12.23599 1.1547267E-17
12.37891 1.1571880E-17
12.52182 1.1594546E-17
12.66473 1.1609976E-17
12.80764 1.1614680E-17
12.95055 1.1607872E-17
13.09346 1.1591686E-17
13.23638 1.1570621E-17
13.37929 1.1550378E-17
13.52220 1.1536380E-17
13.66511 1.1532391E-17
13.80802 1.1539552E-17
13.95094 1.1556129E-17
14.09385 1.1578004E-17
14.23676 1.1599789E-17
14.37967 1.1616268E-17
14.52258 1.1623769E-17
14.66549 1.1621127E-17
14.80841 1.1609970E-17
14.95132 1.1594256E-17
15.09423 1.1579192E-17
15.23714 1.1569831E-17
15.38005 1.1569703E-17
15.52296 1.1579863E-17
15.66588 1.1598585E-17
15.80879 1.1621811E-17
15.95170 1.1644205E-17
16.09461 1.1660560E-17
16.23752 1.1667161E-17
16.38043 1.1662770E-17
16.52335 1.1648955E-17
16.66626 1.1629693E-17
16.80917 1.1610340E-17
16.95208 1.1596253E-17
17.09499 1.1591418E-17
17.23791 1.1597437E-17
17.38082 1.1613149E-17
17.52373 1.1634969E-17
17.66664 1.1657843E-17
17.80955 1.1676587E-17
17.95246 1.1687225E-17
18.09538 1.1688004E-17
18.23829 1.1679808E-17
18.38120 1.1665879E-17
18.52411 1.1650917E-17
18.66702 1.1639817E-17
18.80993 1.1636366E-17
18.95285 1.1642254E-17
19.09576 1.1656649E-17
19.23867 1.1676442E-17
19.38158 1.1697097E-17
19.52449 1.1713866E-17
19.66740 1.1723053E-17
19.81032 1.1722985E-17
19.95323 1.1714447E-17
20.09614 1.1700457E-17
20.23905 1.1685467E-17
20.38196 1.1674183E-17
20.52488 1.1670328E-17
20.66779 1.1675683E-17
20.81070 1.1689630E-17
20.95361 1.1709329E-17
21.09652 1.1730477E-17
21.23943 1.1748428E-17
21.38235 1.1759398E-17
21.52526 1.1761416E-17
21.66817 1.1754807E-17
21.81108 1.1742058E-17
21.95399 1.1727131E-17
22.09690 1.1714419E-17
22.23981 1.1707593E-17
22.38273 1.1708672E-17
22.52564 1.1717551E-17
22.66855 1.1732080E-17
22.81146 1.1748684E-17
22.95437 1.1763349E-17
23.09729 1.1772680E-17
23.24020 1.1774801E-17
23.38311 1.1769808E-17
23.52602 1.1759707E-17
23.66893 1.1747842E-17
23.81184 1.1737977E-17
23.95476 1.1733291E-17
24.09767 1.1735536E-17
24.24058 1.1744592E-17
24.38349 1.1758530E-17
24.52640 1.1774147E-17
24.66932 1.1787827E-17
24.81223 1.1796510E-17
24.95514 1.1798482E-17
25.09805 1.1793819E-17
25.24096 1.1784344E-17
25.38387 1.1773127E-17
25.52678 1.1763669E-17
25.66970 1.1758991E-17
25.81261 1.1760866E-17
25.95552 1.1769378E-17
26.09843 1.1782951E-17
26.24134 1.1798784E-17
26.38426 1.1813607E-17
26.52717 1.1824535E-17
26.67008 1.1829794E-17
26.81299 1.1829134E-17
26.95590 1.1823842E-17
27.09881 1.1816336E-17
27.24173 1.1809488E-17
27.38464 1.1805835E-17
27.52755 1.1806914E-17
27.67046 1.1812872E-17
27.81337 1.1822468E-17
27.95629 1.1833439E-17
28.09920 1.1843139E-17
28.24211 1.1849263E-17
28.38502 1.1850472E-17
28.52793 1.1846748E-17
28.67084 1.1839393E-17
28.81376 1.1830673E-17
28.95667 1.1823222E-17
29.09958 1.1819344E-17
29.24249 1.1820425E-17
29.38540 1.1826585E-17
29.52831 1.1836671E-17
29.67122 1.1848577E-17
29.81414 1.1859810E-17
29.95705 1.1868135E-17
30.09996 1.1872141E-17
30.24287 1.1871580E-17
30.38578 1.1867387E-17
30.52870 1.1861403E-17
30.67161 1.1855859E-17
30.81452 1.1852784E-17
30.95743 1.1853477E-17
31.10034 1.1858193E-17
31.24325 1.1866109E-17
31.38617 1.1875576E-17
31.52908 1.1884579E-17
31.67199 1.1891280E-17
31.81490 1.1894499E-17
31.95781 1.1893992E-17
32.10072 1.1890489E-17
32.24364 1.1885458E-17
32.38655 1.1880685E-17
32.52946 1.1877784E-17
32.67237 1.1877766E-17
32.81528 1.1880789E-17
32.95819 1.1886140E-17
33.10111 1.1892475E-17
33.24402 1.1898200E-17
33.38693 1.1901940E-17
33.52984 1.1902928E-17
33.67275 1.1901220E-17
33.81567 1.1897692E-17
33.95858 1.1893807E-17
34.10149 1.1891216E-17
34.24440 1.1891323E-17
34.38731 1.1894895E-17
34.53022 1.1901858E-17
34.67313 1.1911302E-17
34.81605 1.1921708E-17
34.95896 1.1931333E-17
35.10187 1.1938643E-17
35.24478 1.1942701E-17
35.38770 1.1943383E-17
35.53061 1.1941395E-17
35.67352 1.1938072E-17
35.81643 1.1935031E-17
35.95934 1.1933744E-17
36.10225 1.1935171E-17
36.24516 1.1939515E-17
36.38808 1.1946180E-17
36.53099 1.1953911E-17
36.67390 1.1961105E-17
36.81681 1.1966184E-17
36.95972 1.1967963E-17
37.10263 1.1965903E-17
37.24555 1.1960229E-17
37.38846 1.1951859E-17
37.53137 1.1942213E-17
37.67428 1.1932935E-17
37.81719 1.1925602E-17
37.96011 1.1921499E-17
38.10302 1.1921476E-17
38.24593 1.1925915E-17
38.38884 1.1934767E-17
38.53175 1.1947644E-17
38.67466 1.1963890E-17
38.81758 1.1982632E-17
38.96049 1.2002770E-17
39.10340 1.2022960E-17
39.24631 1.2041587E-17
39.38922 1.2056799E-17
39.53214 1.2066630E-17
39.67505 1.2069211E-17
39.81796 1.2063062E-17
39.96087 1.2047410E-17
40.10378 1.2022464E-17
40.24669 1.1989579E-17
40.38961 1.1951260E-17
40.53252 1.1910976E-17
40.67543 1.1872819E-17
40.81834 1.1841052E-17
40.96125 1.1819633E-17
41.10416 1.1811788E-17
41.24707 1.1819714E-17
41.38999 1.1844425E-17
41.53290 1.1885744E-17
41.67581 1.1942389E-17
41.81872 1.2012082E-17
41.96163 1.2091627E-17
42.10455 1.2176908E-17
42.24746 1.2262820E-17
42.39037 1.2343172E-17
42.53328 1.2410673E-17
42.67619 1.2457103E-17
42.81910 1.2473765E-17
42.96202 1.2452286E-17
43.10493 1.2385738E-17
43.24784 1.2269989E-17
43.39075 1.2105107E-17
43.53366 1.1896583E-17
43.67657 1.1656103E-17
43.81948 1.1401690E-17
43.96240 1.1156996E-17
44.10531 1.0949741E-17
44.24822 1.0809343E-17
44.39113 1.0763905E-17
44.53405 1.0836883E-17
44.67696 1.1043735E-17
44.81987 1.1388959E-17
44.96278 1.1863847E-17
45.10569 1.2445286E-17
45.24860 1.3095797E-17
45.39151 1.3764946E-17
45.53443 1.4392167E-17
45.67734 1.4910867E-17
45.82025 1.5253662E-17
45.96316 1.5358405E-17
46.10608 1.5174650E-17
46.24899 1.4670045E-17
46.39190 1.3836141E-17
46.53481 1.2692983E-17
46.67772 1.1291941E-17
46.82063 9.7162140E-18
46.96354 8.0785759E-18
47.10646 6.5161165E-18
47.24937 5.1819379E-18
47.39228 4.2340588E-18
47.53519 3.8220786E-18
47.67810 4.0724434E-18
47.82101 5.0734267E-18
47.96392 6.8611398E-18
48.10684 9.4079908E-18
48.24975 1.2615005E-17
48.39266 1.6309292E-17
48.53557 2.0247654E-17
48.67849 2.4126981E-17
48.82140 2.7601498E-17
48.96431 3.0306402E-17
49.10722 3.1886780E-17
49.25013 3.2029992E-17
49.39304 3.0499284E-17
49.53595 2.7165769E-17
49.67887 2.2035776E-17
49.82178 1.5270474E-17
49.96469 7.1948964E-18
50.10760 -1.7059419E-18
50.25051 -1.0805398E-17
50.39342 -1.9368465E-17
50.53634 -2.6599195E-17
50.67925 -3.1700125E-17
50.82216 -3.3940226E-17
50.96507 -3.2726584E-17
51.10798 -2.7674112E-17
51.25090 -1.8666901E-17
51.39381 -5.9046332E-18
51.53672 1.0072017E-17
51.67963 2.8382142E-17
51.82254 4.7834955E-17
51.96545 6.6991062E-17
52.10837 8.4253189E-17
52.25128 9.7982230E-17
52.39419 1.0663136E-16
52.53710 1.0888846E-16
52.68001 1.0381501E-16
52.82293 9.0968606E-17
52.96584 7.0495912E-17
53.10875 4.3184536E-17
53.25166 1.0464561E-17
53.39457 -2.5645613E-17
53.53748 -6.2649720E-17
53.68040 -9.7735902E-17
53.82331 -1.2798099E-16
53.96622 -1.5058224E-16
54.10913 -1.6309843E-16
54.25204 -1.6367998E-16
54.39495 -1.5126727E-16
54.53786 -1.2573807E-16
54.68078 -8.7988261E-17
54.82369 -3.9934599E-17
54.96660 1.5565206E-17
55.10951 7.4873649E-17
55.25242 1.3380770E-16
55.39534 1.8793169E-16
55.53825 2.3288922E-16
55.68116 2.6475084E-16
55.82407 2.8035075E-16
55.96698 2.7758686E-16
56.10989 2.5565720E-16
56.25281 2.1521061E-16
56.39572 1.5839228E-16
56.53863 8.8772249E-17
56.68154 1.1151977E-17
56.82445 -6.8747087E-17
56.96737 -1.4469818E-16
57.11028 -2.1046310E-16
57.25319 -2.6033076E-16
57.39610 -2.8965803E-16
57.53901 -2.9536449E-16
57.68192 -2.7633058E-16
57.82484 -2.3365150E-16
57.96775 -1.7070627E-16
58.11066 -9.3014951E-17
58.25357 -7.8735385E-18
58.39648 7.6221451E-17
58.53939 1.5032545E-16
58.68230 2.0591895E-16
58.82522 2.3582644E-16
58.96813 2.3509296E-16
59.11104 2.0172511E-16
59.25395 1.3720631E-16
59.39687 4.6711104E-17
59.53978 -6.1035202E-17
59.68269 -1.7427364E-16
59.82560 -2.7909307E-16
59.96851 -3.6062573E-16
60.11142 -4.0447208E-16
60.25433 -3.9824000E-16
60.39725 -3.3306365E-16
60.54016 -2.0495624E-16
60.68307 -1.5854829E-17
60.82598 2.2577041E-16
60.96889 5.0484011E-16
61.11180 8.0018573E-16
61.25471 1.0856812E-15
61.39763 1.3319535E-15
61.54054 1.5085872E-15
61.68345 1.5866907E-15
61.82636 1.5416509E-15
61.96928 1.3558663E-15
62.11219 1.0212317E-15
62.25510 5.4114076E-16
62.39801 -6.8219842E-17
62.54092 -7.7747455E-16
62.68383 -1.5447075E-15
62.82674 -2.3172350E-15
62.96966 -3.0344953E-15
63.11257 -3.6319595E-15
63.25548 -4.0458664E-15
63.39839 -4.2184922E-15
63.54131 -4.1035790E-15
63.68422 -3.6714800E-15
63.82713 -2.9135653E-15
63.97004 -1.8454142E-15
64.11295 -5.0839542E-16
64.25586 1.0306881E-15
64.39877 2.6820718E-15
64.54169 4.3376312E-15
64.68460 5.8774468E-15
64.82751 7.1779749E-15
64.97042 8.1212901E-15
65.11333 8.6047214E-15
65.25625 8.5501268E-15
65.39915 7.9119992E-15
65.54207 6.6836426E-15
65.68498 4.9007785E-15
65.82789 2.6420961E-15
65.97080 2.6495454E-17
66.11372 -2.7929730E-15
66.25663 -5.6381842E-15
66.39954 -8.3174993E-15
66.54245 -1.0639030E-14
66.68536 -1.2424666E-14
66.82828 -1.3523805E-14
66.97118 -1.3825713E-14
67.11410 -1.3269494E-14
67.25701 -1.1850794E-14
67.39992 -9.6245804E-15
67.54283 -6.7036225E-15
67.68575 -3.2525997E-15
67.82866 5.2188283E-16
67.97157 4.3847724E-15
68.11448 8.0886522E-15
68.25739 1.1391282E-14
68.40031 1.4073306E-14
68.54321 1.5954763E-14
68.68613 1.6909049E-14
68.82904 1.6873149E-14
68.97195 1.5853206E-14
69.11486 1.3924792E-14
69.25777 1.1227693E-14
69.40069 7.9554385E-15
69.54359 4.3402701E-15
69.68651 6.3464378E-16
69.82942 -2.9092869E-15
69.97233 -6.0605254E-15
70.11524 -8.6286425E-15
70.25816 -1.0479996E-14
70.40107 -1.1549242E-14
70.54398 -1.1844920E-14
70.68689 -1.1448416E-14
70.82980 -1.0506105E-14
70.97272 -9.2151128E-15
71.11562 -7.8036840E-15
71.25854 -6.5076948E-15
71.40145 -5.5452287E-15
71.54436 -5.0914443E-15
71.68727 -5.2560313E-15
71.83018 -6.0654780E-15
71.97310 -7.4520798E-15
72.11600 -9.2511973E-15
72.25892 -1.1207662E-14
72.40183 -1.2991563E-14
72.54475 -1.4222825E-14
72.68765 -1.4503278E-14
72.83057 -1.3454191E-14
72.97348 -1.0756590E-14
73.11639 -6.1912023E-15
73.25930 3.2536423E-16
73.40221 8.7116915E-15
73.54513 1.8703108E-14
73.68803 2.9846399E-14
73.83095 4.1509690E-14
73.97386 5.2908368E-14
74.11678 6.3146808E-14
74.25968 7.1274143E-14
74.40260 7.6351340E-14
74.54551 7.7525131E-14
74.68842 7.4103721E-14
74.83133 6.5628350E-14
74.97424 5.1934511E-14
75.11716 3.3196932E-14
75.26006 9.9532402E-15
75.40298 -1.6897457E-14
75.54589 -4.6123167E-14
75.68880 -7.6214663E-14
75.83171 -1.0546606E-13
75.97462 -1.3207556E-13
76.11754 -1.5426034E-13
76.26044 -1.7037728E-13
76.40336 -1.7904078E-13
76.54627 -1.7922869E-13
76.68919 -1.7036734E-13
76.83209 -1.5238890E-13
76.97501 -1.2575504E-13
77.11792 -9.1444532E-14
77.26083 -5.0904136E-14
77.40374 -5.9657856E-15
77.54665 4.1264616E-14
77.68957 8.8538999E-14
77.83247 1.3360968E-13
77.97539 1.7437214E-13
78.11830 2.0899691E-13
78.26122 2.3603987E-13
78.40412 2.5452250E-13
78.54704 2.6397474E-13
78.68995 2.6443713E-13
78.83286 2.5642105E-13
78.97577 2.4083063E-13
79.11868 2.1885181E-13
79.26160 1.9181874E-13
79.40450 1.6106903E-13
79.54742 1.2780121E-13
79.69033 9.2948801E-14
79.83324 5.7084091E-14
79.97615 2.0363221E-14
80.11906 -1.7478872E-14
80.26198 -5.7079294E-14
80.40488 -9.9344158E-14
80.54780 -1.4529704E-13
80.69071 -1.9588946E-13
80.83363 -2.5178836E-13
80.97653 -3.1315914E-13
81.11945 -3.7946499E-13
81.26236 -4.4930333E-13
81.40527 -5.2029984E-13
81.54818 -5.8907631E-13
81.69109 -6.5130459E-13
81.83401 -7.0185258E-13
81.97691 -7.3502136E-13
82.11983 -7.4486467E-13
82.26274 -7.2557645E-13
82.40565 -6.7192400E-13
82.54856 -5.7970078E-13
82.69147 -4.4616944E-13
82.83439 -2.7046350E-13
82.97730 -5.3917723E-14
83.12021 1.9969986E-13
83.26312 4.8407773E-13
83.40604 7.9038913E-13
83.54894 1.1074668E-12
83.69186 1.4221275E-12
83.83477 1.7196380E-12
83.97768 1.9843053E-12
84.12059 2.2001717E-12
84.26350 2.3517802E-12
84.40642 2.4249784E-12
84.54933 2.4077183E-12
84.69224 2.2908123E-12
84.83515 2.0686055E-12
84.97807 1.7395225E-12
85.12097 1.3064575E-12
85.26389 7.7697836E-13
85.40680 1.6332713E-13
85.54971 -5.1779241E-13
85.69262 -1.2456374E-12
85.83553 -1.9960466E-12
85.97845 -2.7422342E-12
86.12135 -3.4557249E-12
86.26427 -4.1073859E-12
86.40718 -4.6685151E-12
86.55009 -5.1119343E-12
86.69300 -5.4130385E-12
86.83591 -5.5507638E-12
86.97883 -5.5084344E-12
87.12174 -5.2744588E-12
87.26465 -4.8428627E-12
87.40756 -4.2136451E-12
87.55048 -3.3929641E-12
87.69338 -2.3931573E-12
87.83630 -1.2326137E-12
87.97921 6.4484191E-14
88.12212 1.4685337E-12
88.26503 2.9449848E-12
88.40794 4.4549039E-12
88.55086 5.9556240E-12
88.69377 7.4014848E-12
88.83668 8.7446708E-12
88.97959 9.9361630E-12
89.12251 1.0926812E-11
89.26541 1.1668555E-11
89.40833 1.2115755E-11
89.55124 1.2226705E-11
89.69415 1.1965230E-11
89.83706 1.1302392E-11
89.97997 1.0218243E-11
90.12289 8.7035613E-12
90.26580 6.7614993E-12
90.40871 4.4090543E-12
90.55162 1.6782824E-12
90.69453 -1.3828627E-12
90.83744 -4.7101455E-12
90.98035 -8.2232129E-12
91.12327 -1.1826385E-11
91.26618 -1.5410132E-11
91.40909 -1.8853259E-11
91.55200 -2.2025834E-11
91.69492 -2.4792803E-11
91.83783 -2.7018266E-11
91.98074 -2.8570288E-11
92.12365 -2.9326149E-11
92.26656 -2.9177841E-11
92.40947 -2.8037630E-11
92.55238 -2.5843475E-11
92.69530 -2.2564024E-11
92.83821 -1.8203000E-11
92.98112 -1.2802673E-11
93.12403 -6.4462268E-12
93.26694 7.4122528E-13
93.40986 8.5931011E-12
93.55276 1.6903446E-11
93.69568 2.5430711E-11
93.83859 3.3903224E-11
93.98150 4.2026247E-11
94.12441 4.9490530E-11
94.26733 5.5982101E-11
94.41024 6.1193044E-11
94.55315 6.4832896E-11
94.69606 6.6640360E-11
94.83897 6.6394799E-11
94.98188 6.3927176E-11
95.12479 5.9130041E-11
95.26771 5.1965942E-11
95.41062 4.2474135E-11
95.55353 3.0775046E-11
95.69644 1.7072271E-11
95.83936 1.6518690E-12
95.98227 -1.5121166E-11
96.12518 -3.2809370E-11
96.26809 -5.0912080E-11
96.41100 -6.8877501E-11
96.55391 -8.6117169E-11
96.69682 -1.0202260E-10
96.83974 -1.1598372E-10
96.98265 -1.2740838E-10
97.12556 -1.3574263E-10
97.26847 -1.4049091E-10
97.41138 -1.4123568E-10
97.55430 -1.3765553E-10
97.69720 -1.2954145E-10
97.84012 -1.1681039E-10
97.98303 -9.9515576E-11
98.12594 -7.7853071E-11
98.26885 -5.2164311E-11
98.41177 -2.2934132E-11
98.55468 9.2156213E-12
98.69759 4.3537108E-11
98.84050 7.9171787E-11
98.98341 1.1516980E-10
99.12633 1.5051295E-10
99.26923 1.8414072E-10
99.41215 2.1497858E-10
99.55506 2.4196786E-10
99.69797 2.6409633E-10
99.84088 2.8042843E-10
99.98380 2.9013456E-10
100.1267 2.9251837E-10
100.2696 2.8704097E-10
100.4125 2.7334188E-10
100.5554 2.5125552E-10
100.6984 2.2082328E-10
100.8413 1.8230019E-10
100.9842 1.3615677E-10
101.1271 8.3075484E-11
101.2700 2.3942104E-11
101.4129 -4.0167612E-11
101.5558 -1.0800553E-10
101.6987 -1.7817263E-10
101.8416 -2.4914368E-10
101.9846 -3.1929470E-10
102.1275 -3.8693238E-10
102.2704 -4.5032517E-10
102.4133 -5.0773535E-10
102.5562 -5.5745208E-10
102.6991 -5.9782429E-10
102.8420 -6.2729461E-10
102.9849 -6.4443223E-10
103.1279 -6.4796607E-10
103.2708 -6.3681704E-10
103.4137 -6.1012945E-10
103.5566 -5.6730087E-10
103.6995 -5.0801036E-10
103.8424 -4.3224421E-10
103.9853 -3.4031794E-10
104.1282 -2.3289479E-10
104.2711 -1.1099890E-10
104.4141 2.3977081E-11
104.5570 1.7027106E-10
104.6999 3.2575795E-10
104.8428 4.8796367E-10
104.9857 6.5408745E-10
105.1286 8.2103252E-10
105.2715 9.8544461E-10
105.4144 1.1437589E-09
105.5574 1.2922532E-09
105.7003 1.4271089E-09
105.8432 1.5444758E-09
105.9861 1.6405417E-09
106.1290 1.7116056E-09
106.2719 1.7541510E-09
106.4148 1.7649205E-09
106.5577 1.7409882E-09
106.7006 1.6798295E-09
106.8436 1.5793872E-09
106.9865 1.4381325E-09
107.1294 1.2551191E-09
107.2723 1.0300309E-09
107.4152 7.6322226E-10
107.5581 4.5574972E-10
107.7010 1.0939672E-10
107.8439 -2.7330915E-10
107.9869 -6.8908840E-10
108.1298 -1.1339051E-09
108.2727 -1.6029714E-09
108.4156 -2.0907542E-09
108.5585 -2.5909876E-09
108.7014 -3.0966871E-09
108.8443 -3.6001666E-09
108.9872 -4.0930566E-09
109.1301 -4.5663247E-09
109.2731 -5.0102944E-09
109.4160 -5.4146740E-09
109.5589 -5.7685781E-09
109.7018 -6.0605676E-09
109.8447 -6.2786887E-09
109.9876 -6.4105299E-09
110.1305 -6.4432988E-09
110.2734 -6.3639156E-09
110.4164 -6.1591408E-09
110.5593 -5.8157354E-09
110.7022 -5.3206661E-09
110.8451 -4.6613526E-09
110.9880 -3.8259760E-09
111.1309 -2.8038418E-09
111.2738 -1.5858073E-09
111.4167 -1.6477048E-10
111.5596 1.4637738E-09
111.7026 3.3011227E-09
111.8455 5.3446993E-09
111.9884 7.5873459E-09
112.1313 1.0016591E-08
112.2742 1.2613907E-08
112.4171 1.5353985E-08
112.5600 1.8204059E-08
112.7029 2.1123286E-08
112.8458 2.4062267E-08
112.9888 2.6962676E-08
113.1317 2.9757109E-08
113.2746 3.2369140E-08
113.4175 3.4713647E-08
113.5604 3.6697454E-08
113.7033 3.8220293E-08
113.8462 3.9176165E-08
113.9891 3.9455049E-08
114.1321 3.8945092E-08
114.2750 3.7535141E-08
114.4179 3.5117719E-08
114.5608 3.1592400E-08
114.7037 2.6869481E-08
114.8466 2.0874007E-08
114.9895 1.3549974E-08
115.1324 4.8646842E-09
115.2754 -5.1868909E-09
115.4183 -1.6577836E-08
115.5612 -2.9245264E-08
115.7041 -4.3086679E-08
115.8470 -5.7956903E-08
115.9899 -7.3665710E-08
116.1328 -8.9976361E-08
116.2757 -1.0660521E-07
116.4186 -1.2322253E-07
116.5616 -1.3945458E-07
116.7045 -1.5488737E-07
116.8474 -1.6907175E-07
116.9903 -1.8153031E-07
117.1332 -1.9176584E-07
117.2761 -1.9927144E-07
117.4190 -2.0354226E-07
117.5619 -2.0408865E-07
117.7048 -2.0045064E-07
117.8478 -1.9221363E-07
117.9907 -1.7902479E-07
118.1336 -1.6061023E-07
118.2765 -1.3679228E-07
118.4194 -1.0750679E-07
118.5623 -7.2819894E-08
118.7052 -3.2943877E-08
118.8481 1.1748229E-08
118.9911 6.0709723E-08
119.1340 1.1320947E-07
119.2769 1.6832358E-07
119.4198 2.2492986E-07
119.5627 2.8170550E-07
119.7056 3.3712791E-07
119.8485 3.8947948E-07
119.9914 4.3685549E-07
120.1343 4.7717617E-07
120.2773 5.0820239E-07
120.4202 5.2755433E-07
120.5631 5.3273482E-07
120.7060 5.2115422E-07
120.8489 4.9015944E-07
120.9918 4.3706436E-07
121.1347 3.5918302E-07
121.2776 2.5386350E-07
121.4206 1.1852325E-07
121.5635 -4.9315382E-08
121.7064 -2.5198997E-07
121.8493 -4.9166334E-07
121.9922 -7.7029040E-07
122.1351 -1.0895865E-06
122.2780 -1.4509989E-06
122.4209 -1.8556796E-06
122.5639 -2.3044629E-06
122.7068 -2.7978449E-06
122.8497 -3.3359679E-06
122.9926 -3.9186079E-06
123.1355 -4.5451666E-06
123.2784 -5.2146670E-06
123.4213 -5.9257536E-06
123.5642 -6.6766970E-06
123.7071 -7.4653990E-06
123.8501 -8.2894057E-06
123.9930 -9.1459224E-06
124.1359 -1.0031829E-05
124.2788 -1.0943703E-05
124.4217 -1.1877842E-05
124.5646 -1.2830287E-05
124.7075 -1.3796855E-05
124.8504 -1.4773159E-05
124.9933 -1.5754649E-05
125.1363 -1.6736636E-05
125.2792 -1.7714327E-05
125.4221 -1.8682851E-05
125.5650 -1.9637304E-05
125.7079 -2.0572776E-05
125.8508 -2.1484384E-05
125.9937 -2.2367303E-05
126.1366 -2.3216800E-05
126.2795 -2.4028275E-05
126.4225 -2.4797280E-05
126.5654 -2.5519557E-05
126.7083 -2.6191072E-05
126.8512 -2.6808033E-05
126.9941 -2.7366923E-05
127.1370 -2.7864533E-05
127.2799 -2.8297973E-05
127.4228 -2.8664697E-05
127.5658 -2.8962535E-05
127.7087 -2.9189694E-05
127.8516 -2.9344776E-05
127.9945 -2.9426796E-05
128.1374 -2.9435181E-05
128.2803 -2.9369778E-05
128.4232 -2.9230852E-05
128.5661 -2.9019091E-05
128.7090 -2.8735587E-05
128.8520 -2.8381834E-05
128.9949 -2.7959702E-05
129.1378 -2.7471444E-05
129.2807 -2.6919644E-05
129.4236 -2.6307223E-05
129.5665 -2.5637388E-05
129.7094 -2.4913625E-05
129.8523 -2.4139656E-05
129.9953 -2.3319417E-05
130.1382 -2.2457030E-05
130.2811 -2.1556765E-05
130.4240 -2.0623016E-05
130.5669 -1.9660263E-05
130.7098 -1.8673059E-05
130.8527 -1.7665991E-05
130.9956 -1.6643662E-05
131.1385 -1.5610665E-05
131.2815 -1.4571567E-05
131.4244 -1.3530890E-05
131.5673 -1.2493091E-05
131.7102 -1.1462551E-05
131.8531 -1.0443561E-05
131.9960 -9.4403085E-06
132.1389 -8.4568683E-06
132.2818 -7.4971940E-06
132.4248 -6.5651075E-06
132.5677 -5.6642893E-06
132.7106 -4.7982653E-06
132.8535 -3.9703996E-06
132.9964 -3.1838799E-06
133.1393 -2.4417059E-06
133.2822 -1.7466730E-06
133.4251 -1.1013599E-06
133.5681 -5.0810735E-07
133.7110 3.0991352E-08
133.8539 5.1411592E-07
133.9968 9.3973358E-07
134.1397 1.3066107E-06
134.2826 1.6138370E-06
134.4255 1.8608387E-06
134.5684 2.0473854E-06
134.7113 2.1736064E-06
134.8542 2.2399902E-06
134.9972 2.2473935E-06
135.1401 2.1970345E-06
135.2830 2.0904922E-06
135.4259 1.9296906E-06
135.5688 1.7168886E-06
135.7117 1.4546559E-06
135.8546 1.1458536E-06
135.9975 7.9359961E-07
136.1405 4.0124340E-07
136.2834 -2.7670190E-08
136.4263 -4.8943997E-07
136.5692 -9.8024600E-07
136.7121 -1.4961836E-06
136.8550 -2.0333168E-06
136.9979 -2.5877057E-06
137.1408 -3.1554521E-06
137.2838 -3.7327361E-06
137.4267 -4.3158452E-06
137.5696 -4.9012124E-06
137.7125 -5.4854354E-06
137.8554 -6.0652983E-06
137.9983 -6.6377920E-06
138.1412 -7.2001244E-06
138.2841 -7.7497234E-06
138.4270 -8.2842416E-06
138.5700 -8.8015540E-06
138.7129 -9.2997498E-06
138.8558 -9.7771172E-06
138.9987 -1.0232132E-05
139.1416 -1.0663436E-05
139.2845 -1.1069817E-05
139.4274 -1.1450181E-05
139.5703 -1.1803534E-05
139.7133 -1.2128949E-05
139.8562 -1.2425547E-05
139.9991 -1.2692461E-05
140.1420 -1.2928836E-05
140.2849 -1.3133775E-05
140.4278 -1.3306351E-05
140.5707 -1.3445582E-05
140.7136 -1.3550411E-05
140.8566 -1.3619716E-05
140.9995 -1.3652290E-05
141.1424 -1.3646856E-05
141.2853 -1.3602065E-05
141.4282 -1.3516509E-05
141.5711 -1.3388737E-05
141.7140 -1.3217272E-05
141.8569 -1.3000637E-05
141.9998 -1.2737387E-05
142.1427 -1.2426128E-05
142.2857 -1.2065560E-05
142.4286 -1.1654510E-05
142.5715 -1.1191968E-05
142.7144 -1.0677129E-05
142.8573 -1.0109421E-05
143.0002 -9.4885545E-06
143.1431 -8.8145462E-06
143.2860 -8.0877589E-06
143.4290 -7.3089263E-06
143.5719 -6.4791766E-06
143.7148 -5.6000608E-06
143.8577 -4.6735627E-06
144.0006 -3.7021100E-06
144.1435 -2.6885766E-06
144.2864 -1.6362794E-06
144.4293 -5.4897350E-07
144.5723 5.6917634E-07
144.7152 1.7136147E-06
144.8581 2.8794248E-06
145.0010 4.0613718E-06
145.1439 5.2539381E-06
145.2868 6.4513824E-06
145.4297 7.6477891E-06
145.5726 8.8371171E-06
145.7155 1.0013269E-05
145.8585 1.1170152E-05
146.0014 1.2301735E-05
146.1443 1.3402118E-05
146.2872 1.4465596E-05
146.4301 1.5486712E-05
146.5730 1.6460323E-05
146.7159 1.7381650E-05
146.8588 1.8246334E-05
147.0018 1.9050469E-05
147.1447 1.9790656E-05
147.2876 2.0464009E-05
147.4305 2.1068206E-05
147.5734 2.1601489E-05
147.7163 2.2062673E-05
147.8592 2.2451166E-05
148.0021 2.2766948E-05
148.1451 2.3010569E-05
148.2880 2.3183129E-05
148.4309 2.3286260E-05
148.5738 2.3322084E-05
148.7167 2.3293192E-05
148.8596 2.3202594E-05
149.0025 2.3053672E-05
149.1454 2.2850139E-05
149.2883 2.2595992E-05
149.4312 2.2295446E-05
149.5742 2.1952896E-05
149.7171 2.1572854E-05
149.8600 2.1159907E-05
150.0029 2.0718648E-05
150.1458 2.0253645E-05
150.2887 1.9769384E-05
150.4316 1.9270232E-05
150.5745 1.8760391E-05
150.7175 1.8243865E-05
150.8604 1.7724440E-05
151.0033 1.7205661E-05
151.1462 1.6690803E-05
151.2891 1.6182883E-05
151.4320 1.5684651E-05
151.5749 1.5198599E-05
151.7178 1.4726973E-05
151.8607 1.4271793E-05
152.0037 1.3834871E-05
152.1466 1.3417848E-05
152.2895 1.3022212E-05
152.4324 1.2649345E-05
152.5753 1.2300541E-05
152.7182 1.1977056E-05
152.8611 1.1680132E-05
153.0040 1.1411035E-05
153.1470 1.1171075E-05
153.2899 1.0961630E-05
153.4328 1.0784162E-05
153.5757 1.0640221E-05
153.7186 1.0531450E-05
153.8615 1.0459565E-05
154.0044 1.0426339E-05
154.1473 1.0433578E-05
154.2903 1.0483077E-05
154.4332 1.0576581E-05
154.5761 1.0715730E-05
154.7190 1.0902005E-05
154.8619 1.1136665E-05
155.0048 1.1420693E-05
155.1477 1.1754716E-05
155.2906 1.2138961E-05
155.4335 1.2573188E-05
155.5765 1.3056636E-05
155.7194 1.3587983E-05
155.8623 1.4165306E-05
156.0052 1.4786065E-05
156.1481 1.5447078E-05
156.2910 1.6144537E-05
156.4339 1.6874017E-05
156.5768 1.7630504E-05
156.7197 1.8408453E-05
156.8627 1.9201831E-05
157.0056 2.0004187E-05
157.1485 2.0808742E-05
157.2914 2.1608461E-05
157.4343 2.2396162E-05
157.5772 2.3164608E-05
157.7201 2.3906618E-05
157.8630 2.4615161E-05
158.0060 2.5283471E-05
158.1489 2.5905139E-05
158.2918 2.6474210E-05
158.4347 2.6985244E-05
158.5776 2.7433425E-05
158.7205 2.7814589E-05
158.8634 2.8125287E-05
159.0063 2.8362811E-05
159.1492 2.8525219E-05
159.2922 2.8611335E-05
159.4351 2.8620751E-05
159.5780 2.8553788E-05
159.7209 2.8411479E-05
159.8638 2.8195525E-05
160.0067 2.7908229E-05
160.1496 2.7552447E-05
160.2925 2.7131529E-05
160.4355 2.6649226E-05
160.5784 2.6109627E-05
160.7213 2.5517082E-05
160.8642 2.4876139E-05
161.0071 2.4191449E-05
161.1500 2.3467726E-05
161.2929 2.2709661E-05
161.4358 2.1921878E-05
161.5788 2.1108883E-05
161.7217 2.0275016E-05
161.8646 1.9424420E-05
162.0075 1.8561004E-05
162.1504 1.7688424E-05
162.2933 1.6810060E-05
162.4362 1.5929014E-05
162.5791 1.5048099E-05
162.7220 1.4169840E-05
162.8650 1.3296481E-05
163.0079 1.2429992E-05
163.1508 1.1572085E-05
163.2937 1.0724239E-05
163.4366 9.8877026E-06
163.5795 9.0635322E-06
163.7224 8.2526021E-06
163.8653 7.4556392E-06
164.0083 6.6732487E-06
164.1512 5.9059380E-06
164.2941 5.1541474E-06
164.4370 4.4182780E-06
164.5799 3.6987240E-06
164.7228 2.9958908E-06
164.8657 2.3102323E-06
165.0086 1.6422630E-06
165.1515 9.9258170E-07
165.2944 3.6187802E-07
165.4374 -2.4904762E-07
165.5803 -8.3929189E-07
165.7232 -1.4078438E-06
165.8661 -1.9535939E-06
166.0090 -2.4753513E-06
166.1519 -2.9718590E-06
166.2948 -3.4418235E-06
166.4377 -3.8839435E-06
166.5807 -4.2969464E-06
166.7236 -4.6796254E-06
166.8665 -5.0308900E-06
167.0094 -5.3498056E-06
167.1523 -5.6356516E-06
167.2952 -5.8879596E-06
167.4381 -6.1065653E-06
167.5810 -6.2916483E-06
167.7240 -6.4437681E-06
167.8669 -6.5638942E-06
168.0098 -6.6534276E-06
168.1527 -6.7142059E-06
168.2956 -6.7485057E-06
168.4385 -6.7590249E-06
168.5814 -6.7488604E-06
168.7243 -6.7214642E-06
168.8672 -6.6805992E-06
169.0102 -6.6302682E-06
169.1531 -6.5746449E-06
169.2960 -6.5179961E-06
169.4389 -6.4645910E-06
169.5818 -6.4186124E-06
169.7247 -6.3840639E-06
169.8676 -6.3646753E-06
170.0105 -6.3638199E-06
170.1535 -6.3844323E-06
170.2964 -6.4289388E-06
170.4393 -6.4991955E-06
170.5822 -6.5964437E-06
170.7251 -6.7212782E-06
170.8680 -6.8736304E-06
171.0109 -7.0527703E-06
171.1538 -7.2573271E-06
171.2968 -7.4853228E-06
171.4397 -7.7342274E-06
171.5826 -8.0010195E-06
171.7255 -8.2822789E-06
171.8684 -8.5742649E-06
172.0113 -8.8730285E-06
172.1542 -9.1745151E-06
172.2971 -9.4746720E-06
172.4400 -9.7695602E-06
172.5829 -1.0055453E-05
172.7259 -1.0328933E-05
172.8688 -1.0586986E-05
173.0117 -1.0827061E-05
173.1546 -1.1047132E-05
173.2975 -1.1245736E-05
173.4404 -1.1421997E-05
173.5833 -1.1575625E-05
173.7262 -1.1706905E-05
173.8692 -1.1816663E-05
174.0121 -1.1906218E-05
174.1550 -1.1977316E-05
174.2979 -1.2032065E-05
174.4408 -1.2072845E-05
174.5837 -1.2102219E-05
174.7266 -1.2122844E-05
174.8695 -1.2137373E-05
175.0125 -1.2148362E-05
175.1554 -1.2158189E-05
175.2983 -1.2168965E-05
175.4412 -1.2182477E-05
175.5841 -1.2200116E-05