  -7.200000        1.9050412E-18
  -7.057088        1.9083834E-18
  -6.914176        1.9148094E-18
  -6.771265        1.9238906E-18
  -6.628353        1.9350583E-18
  -6.485441        1.9476400E-18
  -6.342530        1.9609079E-18
  -6.199618        1.9741228E-18
  -6.056706        1.9865801E-18
  -5.913795        1.9976540E-18
  -5.770883        2.0068291E-18
  -5.627971        2.0137296E-18
  -5.485059        2.0181381E-18
  -5.342147        2.0200073E-18
  -5.199236        2.0194597E-18
  -5.056324        2.0167842E-18
  -4.913413        2.0124171E-18
  -4.770501        2.0069190E-18
  -4.627589        2.0009435E-18
  -4.484677        1.9951921E-18
  -4.341765        1.9903705E-18
  -4.198854        1.9871352E-18
  -4.055942        1.9860443E-18
  -3.913030        1.9875132E-18
  -3.770118        1.9917758E-18
  -3.627207        1.9988658E-18
  -3.484295        2.0086092E-18
  -3.341383        2.0206354E-18
  -3.198472        2.0344085E-18
  -3.055560        2.0492688E-18
  -2.912648        2.0644859E-18
  -2.769737        2.0793143E-18
  -2.626825        2.0930490E-18
  -2.483913        2.1050713E-18
  -2.341001        2.1148893E-18
  -2.198090        2.1221596E-18
  -2.055178        2.1267000E-18
  -1.912266        2.1284935E-18
  -1.769354        2.1276775E-18
  -1.626443        2.1245346E-18
  -1.483531        2.1194700E-18
  -1.340619        2.1129965E-18
  -1.197708        2.1057063E-18
  -1.054796        2.0982495E-18
 -0.9118841        2.0912987E-18
 -0.7689723        2.0855138E-18
 -0.6260606        2.0815018E-18
 -0.4831489        2.0797740E-18
 -0.3402372        2.0807015E-18
 -0.1973254        2.0844819E-18
 -5.4413714E-02    2.0911124E-18
  8.8498011E-02    2.1003822E-18
  0.2314097        2.1118800E-18
  0.3743215        2.1250266E-18
  0.5172332        2.1391201E-18
  0.6601449        2.1533960E-18
  0.8030567        2.1670924E-18
  0.9459684        2.1795140E-18
   1.088880        2.1900858E-18
   1.231792        2.1983894E-18
   1.374704        2.2041822E-18
   1.517615        2.2074007E-18
   1.660527        2.2081409E-18
   1.803439        2.2066379E-18
   1.946350        2.2032311E-18
   2.089262        2.1983392E-18
   2.232174        2.1924337E-18
   2.375086        2.1860200E-18
   2.517997        2.1796238E-18
   2.660909        2.1737812E-18
   2.803821        2.1690194E-18
   2.946733        2.1658403E-18
   3.089644        2.1646862E-18
   3.232556        2.1659067E-18
   3.375468        2.1697171E-18
   3.518379        2.1761596E-18
   3.661291        2.1850776E-18
   3.804203        2.1961048E-18
   3.947115        2.2086823E-18
   4.090026        2.2220946E-18
   4.232938        2.2355303E-18
   4.375850        2.2481611E-18
   4.518762        2.2592211E-18
   4.661673        2.2680856E-18
   4.804585        2.2743275E-18
   4.947497        2.2777549E-18
   5.090408        2.2784119E-18
   5.233320        2.2765590E-18
   5.376232        2.2726258E-18
   5.519144        2.2671515E-18
   5.662055        2.2607245E-18
   5.804967        2.2539278E-18
   5.947879        2.2472996E-18
   6.090790        2.2413098E-18
   6.233702        2.2363572E-18
   6.376614        2.2327762E-18
   6.519526        2.2308424E-18
   6.662437        2.2307849E-18
   6.805349        2.2327791E-18
   6.948261        2.2369327E-18
   7.091173        2.2432607E-18
   7.234084        2.2516555E-18
   7.376996        2.2618594E-18
   7.519908        2.2734536E-18
   7.662819        2.2858663E-18
   7.805731        2.2984045E-18
   7.948643        2.3103134E-18
   8.091555        2.3208490E-18
   8.234467        2.3293600E-18
   8.377378        2.3353643E-18
   8.520289        2.3386042E-18
   8.663201        2.3390765E-18
   8.806113        2.3370261E-18
   8.949025        2.3329095E-18
   9.091937        2.3273308E-18
   9.234848        2.3209656E-18
   9.377760        2.3144853E-18
   9.520672        2.3084868E-18
   9.663584        2.3034523E-18
   9.806496        2.2997308E-18
   9.949407        2.2975421E-18
   10.09232        2.2970014E-18
   10.23523        2.2981495E-18
   10.37814        2.3009822E-18
   10.52105        2.3054647E-18
   10.66397        2.3115318E-18
   10.80688        2.3190724E-18
   10.94979        2.3279023E-18
   11.09270        2.3377371E-18
   11.23561        2.3481743E-18
   11.37852        2.3586989E-18
   11.52144        2.3687063E-18
   11.66435        2.3775584E-18
   11.80726        2.3846502E-18
   11.95017        2.3894919E-18
   12.09308        2.3917760E-18
   12.23599        2.3914306E-18
   12.37891        2.3886377E-18
   12.52182        2.3838173E-18
   12.66473        2.3775756E-18
   12.80764        2.3706252E-18
   12.95055        2.3636996E-18
   13.09346        2.3574627E-18
   13.23638        2.3524419E-18
   13.37929        2.3489861E-18
   13.52220        2.3472600E-18
   13.66511        2.3472650E-18
   13.80802        2.3488825E-18
   13.95094        2.3519309E-18
   14.09385        2.3562107E-18
   14.23676        2.3615415E-18
   14.37967        2.3677681E-18
   14.52258        2.3747510E-18
   14.66549        2.3823364E-18
   14.80841        2.3903197E-18
   14.95132        2.3984158E-18
   15.09423        2.4062446E-18
   15.23714        2.4133466E-18
   15.38005        2.4192198E-18
   15.52296        2.4233834E-18
   15.66588        2.4254480E-18
   15.80879        2.4251883E-18
   15.95170        2.4225934E-18
   16.09461        2.4178901E-18
   16.23752        2.4115299E-18
   16.38043        2.4041423E-18
   16.52335        2.3964582E-18
   16.66626        2.3892202E-18
   16.80917        2.3830922E-18
   16.95208        2.3785893E-18
   17.09499        2.3760314E-18
   17.23791        2.3755289E-18
   17.38082        2.3770046E-18
   17.52373        2.3802343E-18
   17.66664        2.3849032E-18
   17.80955        2.3906593E-18
   17.95246        2.3971560E-18
   18.09538        2.4040751E-18
   18.23829        2.4111297E-18
   18.38120        2.4180512E-18
   18.52411        2.4245677E-18
   18.66702        2.4303892E-18
   18.80993        2.4352011E-18
   18.95285        2.4386811E-18
   19.09576        2.4405302E-18
   19.23867        2.4405240E-18
   19.38158        2.4385622E-18
   19.52449        2.4347145E-18
   19.66740        2.4292462E-18
   19.81032        2.4226123E-18
   19.95323        2.4154234E-18
   20.09614        2.4083829E-18
   20.23905        2.4022043E-18
   20.38196        2.3975234E-18
   20.52488        2.3948215E-18
   20.66779        2.3943706E-18
   20.81070        2.3962105E-18
   20.95361        2.4001588E-18
   21.09652        2.4058521E-18
   21.23943        2.4128058E-18
   21.38235        2.4204814E-18
   21.52526        2.4283514E-18
   21.66817        2.4359458E-18
   21.81108        2.4428776E-18
   21.95399        2.4488492E-18
   22.09690        2.4536414E-18
   22.23981        2.4570966E-18
   22.38273        2.4591021E-18
   22.52564        2.4595831E-18
   22.66855        2.4585111E-18
   22.81146        2.4559203E-18
   22.95437        2.4519341E-18
   23.09729        2.4467866E-18
   23.24020        2.4408317E-18
   23.38311        2.4345330E-18
   23.52602        2.4284333E-18
   23.66893        2.4230997E-18
   23.81184        2.4190556E-18
   23.95476        2.4167157E-18
   24.09767        2.4163261E-18
   24.24058        2.4179319E-18
   24.38349        2.4213717E-18
   24.52640        2.4263038E-18
   24.66932        2.4322617E-18
   24.81223        2.4387218E-18
   24.95514        2.4451755E-18
   25.09805        2.4511934E-18
   25.24096        2.4564646E-18
   25.38387        2.4608125E-18
   25.52678        2.4641857E-18
   25.66970        2.4666259E-18
   25.81261        2.4682292E-18
   25.95552        2.4691072E-18
   26.09843        2.4693587E-18
   26.24134        2.4690591E-18
   26.38426        2.4682670E-18
   26.52717        2.4670405E-18
   26.67008        2.4654639E-18
   26.81299        2.4636654E-18
   26.95590        2.4618241E-18
   27.09881        2.4601617E-18
   27.24173        2.4589172E-18
   27.38464        2.4583111E-18
   27.52755        2.4585067E-18
   27.67046        2.4595787E-18
   27.81337        2.4614968E-18
   27.95629        2.4641297E-18
   28.09920        2.4672684E-18
   28.24211        2.4706628E-18
   28.38502        2.4740674E-18
   28.52793        2.4772794E-18
   28.67084        2.4801642E-18
   28.81376        2.4826629E-18
   28.95667        2.4847825E-18
   29.09958        2.4865663E-18
   29.24249        2.4880625E-18
   29.38540        2.4892923E-18
   29.52831        2.4902357E-18
   29.67122        2.4908274E-18
   29.81414        2.4909793E-18
   29.95705        2.4906106E-18
   30.09996        2.4896887E-18
   30.24287        2.4882575E-18
   30.38578        2.4864588E-18
   30.52870        2.4845263E-18
   30.67161        2.4827625E-18
   30.81452        2.4814920E-18
   30.95743        2.4810083E-18
   31.10034        2.4815255E-18
   31.24325        2.4831354E-18
   31.38617        2.4857946E-18
   31.52908        2.4893285E-18
   31.67199        2.4934613E-18
   31.81490        2.4978574E-18
   31.95781        2.5021701E-18
   32.10072        2.5060851E-18
   32.24364        2.5093485E-18
   32.38655        2.5117792E-18
   32.52946        2.5132669E-18
   32.67237        2.5137607E-18
   32.81528        2.5132533E-18
   32.95819        2.5117722E-18
   33.10111        2.5093800E-18
   33.24402        2.5061891E-18
   33.38693        2.5023802E-18
   33.52984        2.4982186E-18
   33.67275        2.4940672E-18
   33.81567        2.4903734E-18
   33.95858        2.4876367E-18
   34.10149        2.4863540E-18
   34.24440        2.4869512E-18
   34.38731        2.4897082E-18
   34.53022        2.4946963E-18
   34.67313        2.5017424E-18
   34.81605        2.5104237E-18
   34.95896        2.5200984E-18
   35.10187        2.5299770E-18
   35.24478        2.5392079E-18
   35.38770        2.5469797E-18
   35.53061        2.5526113E-18
   35.67352        2.5556279E-18
   35.81643        2.5558011E-18
   35.95934        2.5531637E-18
   36.10225        2.5479870E-18
   36.24516        2.5407436E-18
   36.38808        2.5320511E-18
   36.53099        2.5226176E-18
   36.67390        2.5131875E-18
   36.81681        2.5044971E-18
   36.95972        2.4972349E-18
   37.10263        2.4920121E-18
   37.24555        2.4893266E-18
   37.38846        2.4895351E-18
   37.53137        2.4928188E-18
   37.67428        2.4991525E-18
   37.81719        2.5082844E-18
   37.96011        2.5197299E-18
   38.10302        2.5327877E-18
   38.24593        2.5465816E-18
   38.38884        2.5601259E-18
   38.53175        2.5724095E-18
   38.67466        2.5824916E-18
   38.81758        2.5895954E-18
   38.96049        2.5931866E-18
   39.10340        2.5930307E-18
   39.24631        2.5892164E-18
   39.38922        2.5821479E-18
   39.53214        2.5725048E-18
   39.67505        2.5611811E-18
   39.81796        2.5492040E-18
   39.96087        2.5376462E-18
   40.10378        2.5275382E-18
   40.24669        2.5197880E-18
   40.38961        2.5151119E-18
   40.53252        2.5139816E-18
   40.67543        2.5165876E-18
   40.81834        2.5228210E-18
   40.96125        2.5322778E-18
   41.10416        2.5442841E-18
   41.24707        2.5579452E-18
   41.38999        2.5722118E-18
   41.53290        2.5859670E-18
   41.67581        2.5981228E-18
   41.81872        2.6077177E-18
   41.96163        2.6140059E-18
   42.10455        2.6165311E-18
   42.24746        2.6151702E-18
   42.39037        2.6101459E-18
   42.53328        2.6020054E-18
   42.67619        2.5915674E-18
   42.81910        2.5798427E-18
   42.96202        2.5679400E-18
   43.10493        2.5569669E-18
   43.24784        2.5479295E-18
   43.39075        2.5416537E-18
   43.53366        2.5387174E-18
   43.67657        2.5394081E-18
   43.81948        2.5437059E-18
   43.96240        2.5512916E-18
   44.10531        2.5615705E-18
   44.24822        2.5737268E-18
   44.39113        2.5867882E-18
   44.53405        2.5997091E-18
   44.67696        2.6114597E-18
   44.81987        2.6211172E-18
   44.96278        2.6279549E-18
   45.10569        2.6315122E-18
   45.24860        2.6316410E-18
   45.39151        2.6285244E-18
   45.53443        2.6226560E-18
   45.67734        2.6147891E-18
   45.82025        2.6058520E-18
   45.96316        2.5968448E-18
   46.10608        2.5887291E-18
   46.24899        2.5823259E-18
   46.39190        2.5782293E-18
   46.53481        2.5767567E-18
   46.67772        2.5779307E-18
   46.82063        2.5815002E-18
   46.96354        2.5869912E-18
   47.10646        2.5937787E-18
   47.24937        2.6011716E-18
   47.39228        2.6084907E-18
   47.53519        2.6151390E-18
   47.67810        2.6206519E-18
   47.82101        2.6247231E-18
   47.96392        2.6272131E-18
   48.10684        2.6281373E-18
   48.24975        2.6276426E-18
   48.39266        2.6259767E-18
   48.53557        2.6234554E-18
   48.67849        2.6204306E-18
   48.82140        2.6172607E-18
   48.96431        2.6142855E-18
   49.10722        2.6118023E-18
   49.25013        2.6100477E-18
   49.39304        2.6091810E-18
   49.53595        2.6092730E-18
   49.67887        2.6103035E-18
   49.82178        2.6121669E-18
   49.96469        2.6146836E-18
   50.10760        2.6176250E-18
   50.25051        2.6207439E-18
   50.39342        2.6238041E-18
   50.53634        2.6266159E-18
   50.67925        2.6290587E-18
   50.82216        2.6310967E-18
   50.96507        2.6327794E-18
   51.10798        2.6342305E-18
   51.25090        2.6356191E-18
   51.39381        2.6371285E-18
   51.53672        2.6389177E-18
   51.67963        2.6410851E-18
   51.82254        2.6436467E-18
   51.96545        2.6465214E-18
   52.10837        2.6495348E-18
   52.25128        2.6524409E-18
   52.39419        2.6549555E-18
   52.53710        2.6567974E-18
   52.68001        2.6577352E-18
   52.82293        2.6576254E-18
   52.96584        2.6564440E-18
   53.10875        2.6543006E-18
   53.25166        2.6514342E-18
   53.39457        2.6481931E-18
   53.53748        2.6449950E-18
   53.68040        2.6422810E-18
   53.82331        2.6404633E-18
   53.96622        2.6398750E-18
   54.10913        2.6407296E-18
   54.25204        2.6430956E-18
   54.39495        2.6468872E-18
   54.53786        2.6518716E-18
   54.68078        2.6576949E-18
   54.82369        2.6639186E-18
   54.96660        2.6700640E-18
   55.10951        2.6756569E-18
   55.25242        2.6802736E-18
   55.39534        2.6835757E-18
   55.53825        2.6853362E-18
   55.68116        2.6854576E-18
   55.82407        2.6839740E-18
   55.96698        2.6810473E-18
   56.10989        2.6769504E-18
   56.25281        2.6720455E-18
   56.39572        2.6667527E-18
   56.53863        2.6615202E-18
   56.68154        2.6567865E-18
   56.82445        2.6529448E-18
   56.96737        2.6503132E-18
   57.11028        2.6491071E-18
   57.25319        2.6494202E-18
   57.39610        2.6512181E-18
   57.53901        2.6543421E-18
   57.68192        2.6585256E-18
   57.82484        2.6634209E-18
   57.96775        2.6686319E-18
   58.11066        2.6737523E-18
   58.25357        2.6784044E-18
   58.39648        2.6822717E-18
   58.53939        2.6851267E-18
   58.68230        2.6868487E-18
   58.82522        2.6874292E-18
   58.96813        2.6869690E-18
   59.11104        2.6856652E-18
   59.25395        2.6837898E-18
   59.39687        2.6816637E-18
   59.53978        2.6796284E-18
   59.68269        2.6780132E-18
   59.82560        2.6771080E-18
   59.96851        2.6771394E-18
   60.11142        2.6782520E-18
   60.25433        2.6804974E-18
   60.39725        2.6838326E-18
   60.54016        2.6881287E-18
   60.68307        2.6931839E-18
   60.82598        2.6987448E-18
   60.96889        2.7045324E-18
   61.11180        2.7102618E-18
   61.25471        2.7156675E-18
   61.39763        2.7205156E-18
   61.54054        2.7246155E-18
   61.68345        2.7278249E-18
   61.82636        2.7300470E-18
   61.96928        2.7312333E-18
   62.11219        2.7313797E-18
   62.25510        2.7305284E-18
   62.39801        2.7287700E-18
   62.54092        2.7262473E-18
   62.68383        2.7231576E-18
   62.82674        2.7197461E-18
   62.96966        2.7162992E-18
   63.11257        2.7131210E-18
   63.25548        2.7105087E-18
   63.39839        2.7087173E-18
   63.54131        2.7079263E-18
   63.68422        2.7082096E-18
   63.82713        2.7095182E-18
   63.97004        2.7116761E-18
   64.11295        2.7143965E-18
   64.25586        2.7173115E-18
   64.39877        2.7200184E-18
   64.54169        2.7221308E-18
   64.68460        2.7233296E-18
   64.82751        2.7234053E-18
   64.97042        2.7222826E-18
   65.11333        2.7200304E-18
   65.25625        2.7168489E-18
   65.39915        2.7130391E-18
   65.54207        2.7089636E-18
   65.68498        2.7050012E-18
   65.82789        2.7015047E-18
   65.97080        2.6987702E-18
   66.11372        2.6970141E-18
   66.25663        2.6963693E-18
   66.39954        2.6968923E-18
   66.54245        2.6985767E-18
   66.68536        2.7013705E-18
   66.82828        2.7051896E-18
   66.97118        2.7099250E-18
   67.11410        2.7154402E-18
   67.25701        2.7215628E-18
   67.39992        2.7280696E-18
   67.54283        2.7346765E-18
   67.68575        2.7410346E-18
   67.82866        2.7467417E-18
   67.97157        2.7513688E-18
   68.11448        2.7545019E-18
   68.25739        2.7557971E-18
   68.40031        2.7550377E-18
   68.54321        2.7521852E-18
   68.68613        2.7474113E-18
   68.82904        2.7411057E-18
   68.97195        2.7338509E-18
   69.11486        2.7263689E-18
   69.25777        2.7194365E-18
   69.40069        2.7137955E-18
   69.54359        2.7100579E-18
   69.68651        2.7086232E-18
   69.82942        2.7096307E-18
   69.97233        2.7129429E-18
   70.11524        2.7181699E-18
   70.25816        2.7247278E-18
   70.40107        2.7319191E-18
   70.54398        2.7390243E-18
   70.68689        2.7453858E-18
   70.82980        2.7504721E-18
   70.97272        2.7539119E-18
   71.11562        2.7555047E-18
   71.25854        2.7551955E-18
   71.40145        2.7530426E-18
   71.54436        2.7491751E-18
   71.68727        2.7437633E-18
   71.83018        2.7370023E-18
   71.97310        2.7291162E-18
   72.11600        2.7203791E-18
   72.25892        2.7111424E-18
   72.40183        2.7018544E-18
   72.54475        2.6930654E-18
   72.68765        2.6854040E-18
   72.83057        2.6795230E-18
   72.97348        2.6760236E-18
   73.11639        2.6753637E-18
   73.25930        2.6777731E-18
   73.40221        2.6831897E-18
   73.54513        2.6912361E-18
   73.68803        2.7012427E-18
   73.83095        2.7123141E-18
   73.97386        2.7234398E-18
   74.11678        2.7336187E-18
   74.25968        2.7419863E-18
   74.40260        2.7479182E-18
   74.54551        2.7510886E-18
   74.68842        2.7514846E-18
   74.83133        2.7493699E-18
   74.97424        2.7452090E-18
   75.11716        2.7395695E-18
   75.26006        2.7330289E-18
   75.40298        2.7260980E-18
   75.54589        2.7191747E-18
   75.68880        2.7125403E-18
   75.83171        2.7063846E-18
   75.97462        2.7008549E-18
   76.11754        2.6961021E-18
   76.26044        2.6923230E-18
   76.40336        2.6897649E-18
   76.54627        2.6887030E-18
   76.68919        2.6893846E-18
   76.83209        2.6919582E-18
   76.97501        2.6963972E-18
   77.11792        2.7024439E-18
   77.26083        2.7095920E-18
   77.40374        2.7171103E-18
   77.54665        2.7241159E-18
   77.68957        2.7296855E-18
   77.83247        2.7329853E-18
   77.97539        2.7334010E-18
   78.11830        2.7306363E-18
   78.26122        2.7247735E-18
   78.40412        2.7162690E-18
   78.54704        2.7058982E-18
   78.68995        2.6946440E-18
   78.83286        2.6835633E-18
   78.97577        2.6736425E-18
   79.11868        2.6656737E-18
   79.26160        2.6601674E-18
   79.40450        2.6573156E-18
   79.54742        2.6570129E-18
   79.69033        2.6589179E-18
   79.83324        2.6625463E-18
   79.97615        2.6673729E-18
   80.11906        2.6729202E-18
   80.26198        2.6788161E-18
   80.40488        2.6848171E-18
   80.54780        2.6907859E-18
   80.69071        2.6966427E-18
   80.83363        2.7023004E-18
   80.97653        2.7076049E-18
   81.11945        2.7122979E-18
   81.26236        2.7160155E-18
   81.40527        2.7183250E-18
   81.54818        2.7187969E-18
   81.69109        2.7170937E-18
   81.83401        2.7130600E-18
   81.97691        2.7067906E-18
   82.11983        2.6986594E-18
   82.26274        2.6892969E-18
   82.40565        2.6795223E-18
   82.54856        2.6702352E-18
   82.69147        2.6622866E-18
   82.83439        2.6563598E-18
   82.97730        2.6528735E-18
   83.12021        2.6519361E-18
   83.26312        2.6533504E-18
   83.40604        2.6566692E-18
   83.54894        2.6612911E-18
   83.69186        2.6665677E-18
   83.83477        2.6719079E-18
   83.97768        2.6768524E-18
   84.12059        2.6811081E-18
   84.26350        2.6845371E-18
   84.40642        2.6871115E-18
   84.54933        2.6888441E-18
   84.69224        2.6897250E-18
   84.83515        2.6896764E-18
   84.97807        2.6885386E-18
   85.12097        2.6861019E-18
   85.26389        2.6821677E-18
   85.40680        2.6766264E-18
   85.54971        2.6695368E-18
   85.69262        2.6611775E-18
   85.83553        2.6520593E-18
   85.97845        2.6428873E-18
   86.12135        2.6344778E-18
   86.26427        2.6276430E-18
   86.40718        2.6230671E-18
   86.55009        2.6211925E-18
   86.69300        2.6221474E-18
   86.83591        2.6257221E-18
   86.97883        2.6314030E-18
   87.12174        2.6384553E-18
   87.26465        2.6460372E-18
   87.40756        2.6533280E-18
   87.55048        2.6596369E-18
   87.69338        2.6644828E-18
   87.83630        2.6676273E-18
   87.97921        2.6690595E-18
   88.12212        2.6689431E-18
   88.26503        2.6675382E-18
   88.40794        2.6651207E-18
   88.55086        2.6619142E-18
   88.69377        2.6580535E-18
   88.83668        2.6535822E-18
   88.97959        2.6484853E-18
   89.12251        2.6427451E-18
   89.26541        2.6364060E-18
   89.40833        2.6296314E-18
   89.55124        2.6227383E-18
   89.69415        2.6161959E-18
   89.83706        2.6105853E-18
   89.97997        2.6065315E-18
   90.12289        2.6046065E-18
   90.26580        2.6052339E-18
   90.40871        2.6086003E-18
   90.55162        2.6145992E-18
   90.69453        2.6228137E-18
   90.83744        2.6325455E-18
   90.98035        2.6428865E-18
   91.12327        2.6528239E-18
   91.26618        2.6613624E-18
   91.40909        2.6676459E-18
   91.55200        2.6710613E-18
   91.69492        2.6713033E-18
   91.83783        2.6684003E-18
   91.98074        2.6626917E-18
   92.12365        2.6547690E-18
   92.26656        2.6453842E-18
   92.40947        2.6353526E-18
   92.55238        2.6254564E-18
   92.69530        2.6163727E-18
   92.83821        2.6086270E-18
   92.98112        2.6025805E-18
   93.12403        2.5984413E-18
   93.26694        2.5962964E-18
   93.40986        2.5961436E-18
   93.55276        2.5979164E-18
   93.69568        2.6014930E-18
   93.83859        2.6066835E-18
   93.98150        2.6132089E-18
   94.12441        2.6206734E-18
   94.26733        2.6285488E-18
   94.41024        2.6361828E-18
   94.55315        2.6428416E-18
   94.69606        2.6477818E-18
   94.83897        2.6503493E-18
   94.98188        2.6500873E-18
   95.12479        2.6468253E-18
   95.26771        2.6407408E-18
   95.41062        2.6323640E-18
   95.55353        2.6225269E-18
   95.69644        2.6122591E-18
   95.83936        2.6026431E-18
   95.98227        2.5946596E-18
   96.12518        2.5890466E-18
   96.26809        2.5862025E-18
   96.41100        2.5861467E-18
   96.55391        2.5885467E-18
   96.69682        2.5928051E-18
   96.83974        2.5981842E-18
   96.98265        2.6039416E-18
   97.12556        2.6094484E-18
   97.26847        2.6142708E-18
   97.41138        2.6181979E-18
   97.55430        2.6212121E-18
   97.69720        2.6234250E-18
   97.84012        2.6249882E-18
   97.98303        2.6260110E-18
   98.12594        2.6265063E-18
   98.26885        2.6263762E-18
   98.41177        2.6254411E-18
   98.55468        2.6235044E-18
   98.69759        2.6204323E-18
   98.84050        2.6162286E-18
   98.98341        2.6110785E-18
   99.12633        2.6053522E-18
   99.26923        2.5995600E-18
   99.41215        2.5942700E-18
   99.55506        2.5900057E-18
   99.69797        2.5871443E-18
   99.84088        2.5858429E-18
   99.98380        2.5860081E-18
   100.1267        2.5873188E-18
   100.2696        2.5892922E-18
   100.4125        2.5913846E-18
   100.5554        2.5931008E-18
   100.6984        2.5940907E-18
   100.8413        2.5942061E-18
   100.9842        2.5935136E-18
   101.1271        2.5922606E-18
   101.2700        2.5907981E-18
   101.4129        2.5894895E-18
   101.5558        2.5886173E-18
   101.6987        2.5883160E-18
   101.8416        2.5885449E-18
   101.9846        2.5891022E-18
   102.1275        2.5896781E-18
   102.2704        2.5899383E-18
   102.4133        2.5896047E-18
   102.5562        2.5885296E-18
   102.6991        2.5867344E-18
   102.8420        2.5844115E-18
   102.9849        2.5818846E-18
   103.1279        2.5795425E-18
   103.2708        2.5777582E-18
   103.4137        2.5768113E-18
   103.5566        2.5768347E-18
   103.6995        2.5777917E-18
   103.8424        2.5794885E-18
   103.9853        2.5816204E-18
   104.1282        2.5838362E-18
   104.2711        2.5858063E-18
   104.4141        2.5872818E-18
   104.5570        2.5881278E-18
   104.6999        2.5883284E-18
   104.8428        2.5879646E-18
   104.9857        2.5871689E-18
   105.1286        2.5860737E-18
   105.2715        2.5847626E-18
   105.4144        2.5832416E-18
   105.5574        2.5814309E-18
   105.7003        2.5791886E-18
   105.8432        2.5763496E-18
   105.9861        2.5727830E-18
   106.1290        2.5684415E-18
   106.2719        2.5634027E-18
   106.4148        2.5578838E-18
   106.5577        2.5522298E-18
   106.7006        2.5468703E-18
   106.8436        2.5422617E-18
   106.9865        2.5388154E-18
   107.1294        2.5368331E-18
   107.2723        2.5364526E-18
   107.4152        2.5376230E-18
   107.5581        2.5401104E-18
   107.7010        2.5435268E-18
   107.8439        2.5473864E-18
   107.9869        2.5511743E-18
   108.1298        2.5544119E-18
   108.2727        2.5567183E-18
   108.4156        2.5578490E-18
   108.5585        2.5577113E-18
   108.7014        2.5563558E-18
   108.8443        2.5539466E-18
   108.9872        2.5507179E-18
   109.1301        2.5469301E-18
   109.2731        2.5428229E-18
   109.4160        2.5385900E-18
   109.5589        2.5343637E-18
   109.7018        2.5302177E-18
   109.8447        2.5261877E-18
   109.9876        2.5222972E-18
   110.1305        2.5185846E-18
   110.2734        2.5151235E-18
   110.4164        2.5120313E-18
   110.5593        2.5094592E-18
   110.7022        2.5075674E-18
   110.8451        2.5064898E-18
   110.9880        2.5062919E-18
   111.1309        2.5069386E-18
   111.2738        2.5082697E-18
   111.4167        2.5100053E-18
   111.5596        2.5117647E-18
   111.7026        2.5131137E-18
   111.8455        2.5136280E-18
   111.9884        2.5129575E-18
   112.1313        2.5108848E-18
   112.2742        2.5073670E-18
   112.4171        2.5025468E-18
   112.5600        2.4967361E-18
   112.7029        2.4903672E-18
   112.8458        2.4839256E-18
   112.9888        2.4778760E-18
   113.1317        2.4725930E-18
   113.2746        2.4683129E-18
   113.4175        2.4651136E-18
   113.5604        2.4629257E-18
   113.7033        2.4615714E-18
   113.8462        2.4608218E-18
   113.9891        2.4604558E-18
   114.1321        2.4603127E-18
   114.2750        2.4603189E-18
   114.4179        2.4604901E-18
   114.5608        2.4609066E-18
   114.7037        2.4616645E-18
   114.8466        2.4628269E-18
   114.9895        2.4643760E-18
   115.1324        2.4661865E-18
   115.2754        2.4680282E-18
   115.4183        2.4695934E-18
   115.5612        2.4705480E-18
   115.7041        2.4705918E-18
   115.8470        2.4695173E-18
   115.9899        2.4672486E-18
   116.1328        2.4638534E-18
   116.2757        2.4595285E-18
   116.4186        2.4545578E-18
   116.5616        2.4492559E-18
   116.7045        2.4439103E-18
   116.8474        2.4387392E-18
   116.9903        2.4338679E-18
   117.1332        2.4293381E-18
   117.2761        2.4251343E-18
   117.4190        2.4212288E-18
   117.5619        2.4176260E-18
   117.7048        2.4143965E-18
   117.8478        2.4116856E-18
   117.9907        2.4096956E-18
   118.1336        2.4086465E-18
   118.2765        2.4087171E-18
   118.4194        2.4099874E-18
   118.5623        2.4123937E-18
   118.7052        2.4157061E-18
   118.8481        2.4195415E-18
   118.9911        2.4234026E-18
   119.1340        2.4267453E-18
   119.2769        2.4290508E-18
   119.4198        2.4299022E-18
   119.5627        2.4290374E-18
   119.7056        2.4263815E-18
   119.8485        2.4220456E-18
   119.9914        2.4163029E-18
   120.1343        2.4095411E-18
   120.2773        2.4022105E-18
   120.4202        2.3947679E-18
   120.5631        2.3876353E-18
   120.7060        2.3811693E-18
   120.8489        2.3756443E-18
   120.9918        2.3712491E-18
   121.1347        2.3680886E-18
   121.2776        2.3661882E-18
   121.4206        2.3654973E-18
   121.5635        2.3658919E-18
   121.7064        2.3671752E-18
   121.8493        2.3690852E-18
   121.9922        2.3713031E-18
   122.1351        2.3734771E-18
   122.2780        2.3752520E-18
   122.4209        2.3763032E-18
   122.5639        2.3763733E-18