  -7.200000        1.0845388E-17
  -7.057088        1.0856369E-17
  -6.914176        1.0876113E-17
  -6.771265        1.0900871E-17
  -6.628353        1.0926148E-17
  -6.485441        1.0947634E-17
  -6.342530        1.0962095E-17
  -6.199618        1.0968025E-17
  -6.056706        1.0965928E-17
  -5.913795        1.0958163E-17
  -5.770883        1.0948405E-17
  -5.627971        1.0940817E-17
  -5.485059        1.0939134E-17
  -5.342147        1.0945841E-17
  -5.199236        1.0961621E-17
  -5.056324        1.0985206E-17
  -4.913413        1.1013627E-17
  -4.770501        1.1042848E-17
  -4.627589        1.1068615E-17
  -4.484677        1.1087350E-17
  -4.341765        1.1096908E-17
  -4.198854        1.1097022E-17
  -4.055942        1.1089361E-17
  -3.913030        1.1077176E-17
  -3.770118        1.1064613E-17
  -3.627207        1.1055854E-17
  -3.484295        1.1054238E-17
  -3.341383        1.1061575E-17
  -3.198472        1.1077770E-17
  -3.055560        1.1100856E-17
  -2.912648        1.1127410E-17
  -2.769737        1.1153278E-17
  -2.626825        1.1174450E-17
  -2.483913        1.1187899E-17
  -2.341001        1.1192226E-17
  -2.198090        1.1187954E-17
  -2.055178        1.1177430E-17
  -1.912266        1.1164335E-17
  -1.769354        1.1152923E-17
  -1.626443        1.1147125E-17
  -1.483531        1.1149725E-17
  -1.340619        1.1161760E-17
  -1.197708        1.1182290E-17
  -1.054796        1.1208572E-17
 -0.9118841        1.1236617E-17
 -0.7689723        1.1262016E-17
 -0.6260606        1.1280852E-17
 -0.4831489        1.1290524E-17
 -0.3402372        1.1290302E-17
 -0.1973254        1.1281488E-17
 -5.4413714E-02    1.1267155E-17
  8.8498011E-02    1.1251503E-17
  0.2314097        1.1238987E-17
  0.3743215        1.1233360E-17
  0.5172332        1.1236885E-17
  0.6601449        1.1249837E-17
  0.8030567        1.1270446E-17
  0.9459684        1.1295265E-17
   1.088880        1.1319915E-17
   1.231792        1.1340031E-17
   1.374704        1.1352218E-17
   1.517615        1.1354808E-17
   1.660527        1.1348250E-17
   1.803439        1.1335045E-17
   1.946350        1.1319222E-17
   2.089262        1.1305492E-17
   2.232174        1.1298222E-17
   2.375086        1.1300482E-17
   2.517997        1.1313352E-17
   2.660909        1.1335647E-17
   2.803821        1.1364139E-17
   2.946733        1.1394210E-17
   3.089644        1.1420816E-17
   3.232556        1.1439552E-17
   3.375468        1.1447587E-17
   3.518379        1.1444265E-17
   3.661291        1.1431254E-17
   3.804203        1.1412182E-17
   3.947115        1.1391869E-17
   4.090026        1.1375291E-17
   4.232938        1.1366527E-17
   4.375850        1.1367889E-17
   4.518762        1.1379445E-17
   4.661673        1.1399031E-17
   4.804585        1.1422739E-17
   4.947497        1.1445792E-17
   5.090408        1.1463607E-17
   5.233320        1.1472800E-17
   5.376232        1.1471944E-17
   5.519144        1.1461888E-17
   5.662055        1.1445573E-17
   5.804967        1.1427395E-17
   5.947879        1.1412239E-17
   6.090790        1.1404397E-17
   6.233702        1.1406613E-17
   6.376614        1.1419452E-17
   6.519526        1.1441136E-17
   6.662437        1.1467896E-17
   6.805349        1.1494743E-17
   6.948261        1.1516525E-17
   7.091173        1.1529018E-17
   7.234084        1.1529834E-17
   7.376996        1.1518942E-17
   7.519908        1.1498696E-17
   7.662819        1.1473357E-17
   7.805731        1.1448201E-17
   7.948643        1.1428428E-17
   8.091555        1.1418074E-17
   8.234467        1.1419175E-17
   8.377378        1.1431364E-17
   8.520289        1.1451975E-17
   8.663201        1.1476642E-17
   8.806113        1.1500261E-17
   8.949025        1.1518103E-17
   9.091937        1.1526843E-17
   9.234848        1.1525278E-17
   9.377760        1.1514577E-17
   9.520672        1.1498006E-17
   9.663584        1.1480190E-17
   9.806496        1.1466065E-17
   9.949407        1.1459756E-17
   10.09232        1.1463630E-17
   10.23523        1.1477720E-17
   10.37814        1.1499677E-17
   10.52105        1.1525247E-17
   10.66397        1.1549174E-17
   10.80688        1.1566358E-17
   10.94979        1.1572990E-17
   11.09270        1.1567425E-17
   11.23561        1.1550598E-17
   11.37852        1.1525879E-17
   11.52144        1.1498401E-17
   11.66435        1.1473990E-17
   11.80726        1.1457929E-17
   11.95017        1.1453832E-17
   12.09308        1.1462872E-17
   12.23599        1.1483518E-17
   12.37891        1.1511871E-17
   12.52182        1.1542500E-17
   12.66473        1.1569615E-17
   12.80764        1.1588312E-17
   12.95055        1.1595620E-17
   13.09346        1.1591112E-17
   13.23638        1.1576964E-17
   13.37929        1.1557425E-17
   13.52220        1.1537839E-17
   13.66511        1.1523417E-17
   13.80802        1.1518061E-17
   13.95094        1.1523470E-17
   14.09385        1.1538762E-17
   14.23676        1.1560665E-17
   14.37967        1.1584274E-17
   14.52258        1.1604165E-17
   14.66549        1.1615648E-17
   14.80841        1.1615862E-17
   14.95132        1.1604466E-17
   15.09423        1.1583769E-17
   15.23714        1.1558277E-17
   15.38005        1.1533731E-17
   15.52296        1.1515858E-17
   15.66588        1.1509123E-17
   15.80879        1.1515732E-17
   15.95170        1.1535128E-17
   16.09461        1.1564084E-17
   16.23752        1.1597380E-17
   16.38043        1.1628907E-17
   16.52335        1.1652976E-17
   16.66626        1.1665519E-17
   16.80917        1.1664946E-17
   16.95208        1.1652451E-17
   17.09499        1.1631715E-17
   17.23791        1.1608064E-17
   17.38082        1.1587280E-17
   17.52373        1.1574321E-17
   17.66664        1.1572232E-17
   17.80955        1.1581502E-17
   17.95246        1.1599989E-17
   18.09538        1.1623437E-17
   18.23829        1.1646478E-17
   18.38120        1.1663871E-17
   18.52411        1.1671716E-17
   18.66702        1.1668369E-17
   18.80993        1.1654838E-17
   18.95285        1.1634585E-17
   19.09576        1.1612755E-17
   19.23867        1.1595028E-17
   19.38158        1.1586330E-17
   19.52449        1.1589691E-17
   19.66740        1.1605542E-17
   19.81032        1.1631557E-17
   19.95323        1.1663143E-17
   20.09614        1.1694427E-17
   20.23905        1.1719539E-17
   20.38196        1.1733909E-17
   20.52488        1.1735278E-17
   20.66779        1.1724198E-17
   20.81070        1.1703907E-17
   20.95361        1.1679595E-17
   21.09652        1.1657245E-17
   21.23943        1.1642287E-17
   21.38235        1.1638390E-17
   21.52526        1.1646653E-17
   21.66817        1.1665381E-17
   21.81108        1.1690509E-17
   21.95399        1.1716558E-17
   22.09690        1.1737918E-17
   22.23981        1.1750142E-17
   22.38273        1.1750982E-17
   22.52564        1.1740896E-17
   22.66855        1.1722920E-17
   22.81146        1.1701954E-17
   22.95437        1.1683588E-17
   23.09729        1.1672794E-17
   23.24020        1.1672743E-17
   23.38311        1.1684059E-17
   23.52602        1.1704664E-17
   23.66893        1.1730268E-17
   23.81184        1.1755365E-17
   23.95476        1.1774528E-17
   24.09767        1.1783681E-17
   24.24058        1.1781055E-17
   24.38349        1.1767607E-17
   24.52640        1.1746798E-17
   24.66932        1.1723791E-17
   24.81223        1.1704261E-17
   24.95514        1.1693078E-17
   25.09805        1.1693205E-17
   25.24096        1.1705028E-17
   25.38387        1.1726303E-17
   25.52678        1.1752708E-17
   25.66970        1.1778867E-17
   25.81261        1.1799611E-17
   25.95552        1.1811163E-17
   26.09843        1.1811985E-17
   26.24134        1.1803083E-17
   26.38426        1.1787716E-17
   26.52717        1.1770572E-17
   26.67008        1.1756632E-17
   26.81299        1.1749976E-17
   26.95590        1.1752821E-17
   27.09881        1.1765019E-17
   27.24173        1.1784109E-17
   27.38464        1.1805929E-17
   27.52755        1.1825606E-17
   27.67046        1.1838717E-17
   27.81337        1.1842324E-17
   27.95629        1.1835649E-17
   28.09920        1.1820251E-17
   28.24211        1.1799652E-17
   28.38502        1.1778516E-17
   28.52793        1.1761586E-17
   28.67084        1.1752617E-17
   28.81376        1.1753554E-17
   28.95667        1.1764148E-17
   29.09958        1.1782070E-17
   29.24249        1.1803510E-17
   29.38540        1.1824082E-17
   29.52831        1.1839847E-17
   29.67122        1.1848190E-17
   29.81414        1.1848374E-17
   29.95705        1.1841632E-17
   30.09996        1.1830803E-17
   30.24287        1.1819600E-17
   30.38578        1.1811691E-17
   30.52870        1.1809817E-17
   30.67161        1.1815145E-17
   30.81452        1.1827012E-17
   30.95743        1.1843103E-17
   31.10034        1.1860021E-17
   31.24325        1.1874106E-17
   31.38617        1.1882308E-17
   31.52908        1.1882912E-17
   31.67199        1.1875945E-17
   31.81490        1.1863173E-17
   31.95781        1.1847701E-17
   32.10072        1.1833267E-17
   32.24364        1.1823389E-17
   32.38655        1.1820578E-17
   32.52946        1.1825783E-17
   32.67237        1.1838185E-17
   32.81528        1.1855399E-17
   32.95819        1.1874029E-17
   33.10111        1.1890417E-17
   33.24402        1.1901460E-17
   33.38693        1.1905272E-17
   33.52984        1.1901571E-17
   33.67275        1.1891691E-17
   33.81567        1.1878248E-17
   33.95858        1.1864524E-17
   34.10149        1.1853722E-17
   34.24440        1.1848275E-17
   34.38731        1.1849331E-17
   34.53022        1.1856562E-17
   34.67313        1.1868306E-17
   34.81605        1.1881996E-17
   34.95896        1.1894800E-17
   35.10187        1.1904275E-17
   35.24478        1.1908931E-17
   35.38770        1.1908534E-17
   35.53061        1.1904129E-17
   35.67352        1.1897747E-17
   35.81643        1.1891888E-17
   35.95934        1.1888911E-17
   36.10225        1.1890444E-17
   36.24516        1.1896998E-17
   36.38808        1.1907817E-17
   36.53099        1.1921044E-17
   36.67390        1.1934135E-17
   36.81681        1.1944436E-17
   36.95972        1.1949791E-17
   37.10263        1.1949044E-17
   37.24555        1.1942322E-17
   37.38846        1.1931028E-17
   37.53137        1.1917565E-17
   37.67428        1.1904830E-17
   37.81719        1.1895600E-17
   37.96011        1.1891950E-17
   38.10302        1.1894813E-17
   38.24593        1.1903794E-17
   38.38884        1.1917258E-17
   38.53175        1.1932693E-17
   38.67466        1.1947244E-17
   38.81758        1.1958320E-17
   38.96049        1.1964129E-17
   39.10340        1.1964039E-17
   39.24631        1.1958679E-17
   39.38922        1.1949773E-17
   39.53214        1.1939733E-17
   39.67505        1.1931119E-17
   39.81796        1.1926071E-17
   39.96087        1.1925847E-17
   40.10378        1.1930562E-17
   40.24669        1.1939182E-17
   40.38961        1.1949779E-17
   40.53252        1.1959981E-17
   40.67543        1.1967520E-17
   40.81834        1.1970758E-17
   40.96125        1.1969075E-17
   41.10416        1.1963021E-17
   41.24707        1.1954217E-17
   41.38999        1.1945004E-17
   41.53290        1.1937933E-17
   41.67581        1.1935185E-17
   41.81872        1.1938076E-17
   41.96163        1.1946732E-17
   42.10455        1.1960023E-17
   42.24746        1.1975779E-17
   42.39037        1.1991226E-17
   42.53328        1.2003578E-17
   42.67619        1.2010636E-17
   42.81910        1.2011283E-17
   42.96202        1.2005738E-17
   43.10493        1.1995536E-17
   43.24784        1.1983213E-17
   43.39075        1.1971768E-17
   43.53366        1.1964016E-17
   43.67657        1.1961962E-17
   43.81948        1.1966357E-17
   43.96240        1.1976508E-17
   44.10531        1.1990426E-17
   44.24822        1.2005249E-17
   44.39113        1.2017880E-17
   44.53405        1.2025685E-17
   44.67696        1.2027094E-17
   44.81987        1.2021987E-17
   44.96278        1.2011730E-17
   45.10569        1.1998901E-17
   45.24860        1.1986718E-17
   45.39151        1.1978305E-17
   45.53443        1.1975979E-17
   45.67734        1.1980693E-17
   45.82025        1.1991797E-17
   45.96316        1.2007156E-17
   46.10608        1.2023614E-17
   46.24899        1.2037710E-17
   46.39190        1.2046474E-17
   46.53481        1.2048131E-17
   46.67772        1.2042535E-17
   46.82063        1.2031237E-17
   46.96354        1.2017167E-17
   47.10646        1.2003971E-17
   47.24937        1.1995183E-17
   47.39228        1.1993397E-17
   47.53519        1.1999635E-17
   47.67810        1.2013075E-17
   47.82101        1.2031187E-17
   47.96392        1.2050271E-17
   48.10684        1.2066275E-17
   48.24975        1.2075707E-17
   48.39266        1.2076447E-17
   48.53557        1.2068249E-17
   48.67849        1.2052850E-17
   48.82140        1.2033608E-17
   48.96431        1.2014805E-17
   49.10722        1.2000699E-17
   49.25013        1.1994603E-17
   49.39304        1.1998142E-17
   49.53595        1.2010886E-17
   49.67887        1.2030430E-17
   49.82178        1.2052910E-17
   49.96469        1.2073838E-17
   50.10760        1.2089062E-17
   50.25051        1.2095670E-17
   50.39342        1.2092598E-17
   50.53634        1.2080844E-17
   50.67925        1.2063227E-17
   50.82216        1.2043756E-17
   50.96507        1.2026744E-17
   51.10798        1.2015875E-17
   51.25090        1.2013419E-17
   51.39381        1.2019772E-17
   51.53672        1.2033423E-17
   51.67963        1.2051332E-17
   51.82254        1.2069655E-17
   51.96545        1.2084617E-17
   52.10837        1.2093371E-17
   52.25128        1.2094620E-17
   52.39419        1.2088882E-17
   52.53710        1.2078334E-17
   52.68001        1.2066280E-17
   52.82293        1.2056363E-17
   52.96584        1.2051691E-17
   53.10875        1.2054107E-17
   53.25166        1.2063723E-17
   53.39457        1.2078874E-17
   53.53748        1.2096470E-17
   53.68040        1.2112678E-17
   53.82331        1.2123795E-17
   53.96622        1.2127101E-17
   54.10913        1.2121507E-17
   54.25204        1.2107855E-17
   54.39495        1.2088790E-17
   54.53786        1.2068243E-17
   54.68078        1.2050617E-17
   54.82369        1.2039855E-17
   54.96660        1.2038610E-17
   55.10951        1.2047654E-17
   55.25242        1.2065705E-17
   55.39534        1.2089657E-17
   55.53825        1.2115211E-17
   55.68116        1.2137730E-17
   55.82407        1.2153180E-17
   55.96698        1.2158926E-17
   56.10989        1.2154239E-17
   56.25281        1.2140415E-17
   56.39572        1.2120470E-17
   56.53863        1.2098507E-17
   56.68154        1.2078874E-17
   56.82445        1.2065293E-17
   56.96737        1.2060143E-17
   57.11028        1.2064039E-17
   57.25319        1.2075777E-17
   57.39610        1.2092658E-17
   57.53901        1.2111095E-17
   57.68192        1.2127399E-17
   57.82484        1.2138543E-17
   57.96775        1.2142771E-17
   58.11066        1.2139928E-17
   58.25357        1.2131432E-17
   58.39648        1.2119926E-17
   58.53939        1.2108671E-17
   58.68230        1.2100811E-17
   58.82522        1.2098689E-17
   58.96813        1.2103319E-17
   59.11104        1.2114167E-17
   59.25395        1.2129250E-17
   59.39687        1.2145562E-17
   59.53978        1.2159718E-17
   59.68269        1.2168689E-17
   59.82560        1.2170475E-17
   59.96851        1.2164576E-17
   60.11142        1.2152131E-17
   60.25433        1.2135731E-17
   60.39725        1.2118901E-17
   60.54016        1.2105380E-17
   60.68307        1.2098323E-17
   60.82598        1.2099622E-17
   60.96889        1.2109463E-17
   61.11180        1.2126245E-17
   61.25471        1.2146870E-17
   61.39763        1.2167358E-17
   61.54054        1.2183669E-17
   61.68345        1.2192551E-17
   61.82636        1.2192244E-17
   61.96928        1.2182884E-17
   62.11219        1.2166509E-17
   62.25510        1.2146669E-17
   62.39801        1.2127708E-17
   62.54092        1.2113858E-17
   62.68383        1.2108355E-17
   62.82674        1.2112740E-17
   62.96966        1.2126517E-17
   63.11257        1.2147237E-17
   63.25548        1.2170983E-17
   63.39839        1.2193191E-17
   63.54131        1.2209591E-17
   63.68422        1.2217111E-17
   63.82713        1.2214519E-17
   63.97004        1.2202688E-17
   64.11295        1.2184404E-17
   64.25586        1.2163779E-17
   64.39877        1.2145367E-17
   64.54169        1.2133194E-17
   64.68460        1.2129891E-17
   64.82751        1.2136135E-17
   64.97042        1.2150497E-17
   65.11333        1.2169757E-17
   65.25625        1.2189606E-17
   65.39915        1.2205594E-17
   65.54207        1.2214114E-17
   65.68498        1.2213222E-17
   65.82789        1.2203100E-17
   65.97080        1.2186058E-17
   66.11372        1.2166077E-17
   66.25663        1.2147978E-17
   66.39954        1.2136368E-17
   66.54245        1.2134638E-17
   66.68536        1.2144165E-17
   66.82828        1.2163956E-17
   66.97118        1.2190769E-17
   67.11410        1.2219743E-17
   67.25701        1.2245369E-17
   67.39992        1.2262638E-17
   67.54283        1.2268108E-17
   67.68575        1.2260660E-17
   67.82866        1.2241779E-17
   67.97157        1.2215294E-17
   68.11448        1.2186607E-17
   68.25739        1.2161594E-17
   68.40031        1.2145371E-17
   68.54321        1.2141219E-17
   68.68613        1.2149888E-17
   68.82904        1.2169424E-17
   68.97195        1.2195587E-17
   69.11486        1.2222750E-17
   69.25777        1.2245112E-17
   69.40069        1.2257950E-17
   69.54359        1.2258639E-17
   69.68651        1.2247227E-17
   69.82942        1.2226410E-17
   69.97233        1.2200941E-17
   70.11524        1.2176559E-17
   70.25816        1.2158722E-17
   70.40107        1.2151371E-17
   70.54398        1.2156047E-17
   70.68689        1.2171536E-17
   70.82980        1.2194138E-17
   70.97272        1.2218505E-17
   71.11562        1.2238856E-17
   71.25854        1.2250307E-17
   71.40145        1.2250011E-17
   71.54436        1.2237847E-17
   71.68727        1.2216492E-17
   71.83018        1.2190856E-17
   71.97310        1.2166992E-17
   72.11600        1.2150738E-17
   72.25892        1.2146364E-17
   72.40183        1.2155568E-17
   72.54475        1.2177021E-17
   72.68765        1.2206596E-17
   72.83057        1.2238214E-17
   72.97348        1.2265156E-17
   73.11639        1.2281524E-17
   73.25930        1.2283550E-17
   73.40221        1.2270449E-17
   73.54513        1.2244627E-17
   73.68803        1.2211198E-17
   73.83095        1.2176902E-17
   73.97386        1.2148672E-17
   74.11678        1.2132151E-17
   74.25968        1.2130498E-17
   74.40260        1.2143714E-17
   74.54551        1.2168678E-17
   74.68842        1.2199840E-17
   74.83133        1.2230442E-17
   74.97424        1.2253995E-17
   75.11716        1.2265677E-17
   75.26006        1.2263362E-17
   75.40298        1.2248052E-17
   75.54589        1.2223614E-17
   75.68880        1.2195903E-17
   75.83171        1.2171439E-17
   75.97462        1.2155958E-17
   76.11754        1.2153134E-17
   76.26044        1.2163765E-17
   76.40336        1.2185591E-17
   76.54627        1.2213793E-17
   76.68919        1.2242056E-17
   76.83209        1.2263957E-17
   76.97501        1.2274399E-17
   77.11792        1.2270750E-17
   77.26083        1.2253441E-17
   77.40374        1.2225911E-17
   77.54665        1.2193880E-17
   77.68957        1.2164123E-17
   77.83247        1.2143010E-17
   77.97539        1.2135118E-17
   78.11830        1.2142234E-17
   78.26122        1.2162956E-17
   78.40412        1.2192987E-17
   78.54704        1.2226059E-17
   78.68995        1.2255280E-17
   78.83286        1.2274626E-17
   78.97577        1.2280235E-17
   79.11868        1.2271224E-17
   79.26160        1.2249857E-17
   79.40450        1.2221024E-17
   79.54742        1.2191148E-17
   79.69033        1.2166756E-17
   79.83324        1.2153048E-17
   79.97615        1.2152772E-17
   80.11906        1.2165642E-17
   80.26198        1.2188446E-17
   80.40488        1.2215799E-17
   80.54780        1.2241376E-17
   80.69071        1.2259339E-17
   80.83363        1.2265643E-17
   80.97653        1.2258918E-17
   81.11945        1.2240756E-17
   81.26236        1.2215309E-17
   81.40527        1.2188328E-17
   81.54818        1.2165839E-17
   81.69109        1.2152788E-17
   81.83401        1.2151928E-17
   81.97691        1.2163217E-17
   82.11983        1.2183859E-17
   82.26274        1.2208956E-17
   82.40565        1.2232633E-17
   82.54856        1.2249370E-17
   82.69147        1.2255239E-17
   82.83439        1.2248775E-17
   82.97730        1.2231284E-17
   83.12021        1.2206533E-17
   83.26312        1.2179898E-17
   83.40604        1.2157163E-17
   83.54894        1.2143245E-17
   83.69186        1.2141130E-17
   83.83477        1.2151248E-17
   83.97768        1.2171416E-17
   84.12059        1.2197354E-17
   84.26350        1.2223642E-17
   84.40642        1.2244911E-17
   84.54933        1.2256993E-17
   84.69224        1.2257784E-17
   84.83515        1.2247645E-17
   84.97807        1.2229252E-17
   85.12097        1.2206956E-17
   85.26389        1.2185800E-17
   85.40680        1.2170401E-17
   85.54971        1.2163966E-17
   85.69262        1.2167628E-17
   85.83553        1.2180250E-17
   85.97845        1.2198720E-17
   86.12135        1.2218670E-17
   86.26427        1.2235440E-17
   86.40718        1.2245093E-17
   86.55009        1.2245254E-17
   86.69300        1.2235600E-17
   86.83591        1.2217906E-17
   86.97883        1.2195651E-17
   87.12174        1.2173270E-17
   87.26465        1.2155232E-17
   87.40756        1.2145113E-17
   87.55048        1.2144884E-17
   87.69338        1.2154541E-17
   87.83630        1.2172145E-17
   87.97921        1.2194258E-17
   88.12212        1.2216674E-17
   88.26503        1.2235286E-17
   88.40794        1.2246905E-17
   88.55086        1.2249872E-17
   88.69377        1.2244338E-17
   88.83668        1.2232163E-17
   88.97959        1.2216474E-17
   89.12251        1.2200966E-17
   89.26541        1.2189120E-17
   89.40833        1.2183472E-17
   89.55124        1.2185116E-17
   89.69415        1.2193503E-17
   89.83706        1.2206604E-17
   89.97997        1.2221368E-17
   90.12289        1.2234393E-17
   90.26580        1.2242662E-17
   90.40871        1.2244186E-17
   90.55162        1.2238428E-17
   90.69453        1.2226427E-17
   90.83744        1.2210576E-17
   90.98035        1.2194148E-17
   91.12327        1.2180609E-17
   91.26618        1.2172924E-17
   91.40909        1.2172934E-17
   91.55200        1.2180986E-17
   91.69492        1.2195848E-17
   91.83783        1.2214949E-17
   91.98074        1.2234891E-17
   92.12365        1.2252116E-17
   92.26656        1.2263609E-17
   92.40947        1.2267492E-17
   92.55238        1.2263388E-17
   92.69530        1.2252471E-17
   92.83821        1.2237226E-17
   92.98112        1.2220924E-17
   93.12403        1.2206953E-17
   93.26694        1.2198125E-17
   93.40986        1.2196101E-17
   93.55276        1.2201061E-17
   93.69568        1.2211676E-17
   93.83859        1.2225391E-17
   93.98150        1.2238984E-17
   94.12441        1.2249251E-17
   94.26733        1.2253705E-17
   94.41024        1.2251127E-17
   94.55315        1.2241856E-17
   94.69606        1.2227742E-17
   94.83897        1.2211778E-17
   94.98188        1.2197474E-17
   95.12479        1.2188100E-17
   95.26771        1.2185964E-17
   95.41062        1.2191876E-17
   95.55353        1.2204916E-17
   95.69644        1.2222577E-17
   95.83936        1.2241249E-17
   95.98227        1.2256956E-17
   96.12518        1.2266198E-17
   96.26809        1.2266706E-17
   96.41100        1.2257968E-17
   96.55391        1.2241373E-17
   96.69682        1.2219969E-17
   96.83974        1.2197847E-17
   96.98265        1.2179295E-17
   97.12556        1.2167893E-17
   97.26847        1.2165740E-17
   97.41138        1.2172989E-17
   97.55430        1.2187804E-17
   97.69720        1.2206737E-17
   97.84012        1.2225469E-17
   97.98303        1.2239756E-17
   98.12594        1.2246363E-17
   98.26885        1.2243794E-17
   98.41177        1.2232658E-17
   98.55468        1.2215553E-17
   98.69759        1.2196529E-17
   98.84050        1.2180196E-17
   98.98341        1.2170704E-17
   99.12633        1.2170784E-17
   99.26923        1.2181099E-17
   99.41215        1.2200022E-17
   99.55506        1.2223922E-17
   99.69797        1.2247900E-17
   99.84088        1.2266821E-17
   99.98380        1.2276417E-17
   100.1267        1.2274238E-17
   100.2696        1.2260215E-17
   100.4125        1.2236732E-17
   100.5554        1.2208149E-17
   100.6984        1.2179910E-17
   100.8413        1.2157395E-17
   100.9842        1.2144776E-17
   101.1271        1.2144126E-17
   101.2700        1.2154982E-17
   101.4129        1.2174460E-17
   101.5558        1.2197887E-17
   101.6987        1.2219840E-17
   101.8416        1.2235336E-17
   101.9846        1.2240935E-17
   102.1275        1.2235474E-17
   102.2704        1.2220321E-17
   102.4133        1.2199030E-17
   102.5562        1.2176516E-17
   102.6991        1.2157934E-17
   102.8420        1.2147486E-17
   102.9849        1.2147467E-17
   103.1279        1.2157728E-17
   103.2708        1.2175723E-17
   103.4137        1.2197087E-17
   103.5566        1.2216641E-17
   103.6995        1.2229595E-17
   103.8424        1.2232650E-17
   103.9853        1.2224782E-17
   104.1282        1.2207492E-17
   104.2711        1.2184491E-17
   104.4141        1.2160869E-17
   104.5570        1.2141950E-17
   104.6999        1.2132088E-17
   104.8428        1.2133669E-17
   104.9857        1.2146567E-17
   105.1286        1.2168143E-17
   105.2715        1.2193818E-17
   105.4144        1.2218075E-17
   105.5574        1.2235670E-17
   105.7003        1.2242765E-17
   105.8432        1.2237762E-17
   105.9861        1.2221618E-17
   106.1290        1.2197603E-17
   106.2719        1.2170552E-17
   106.4148        1.2145786E-17
   106.5577        1.2127930E-17
   106.7006        1.2119933E-17
   106.8436        1.2122454E-17
   106.9865        1.2133791E-17
   107.1294        1.2150328E-17
   107.2723        1.2167410E-17
   107.4152        1.2180434E-17
   107.5581        1.2185907E-17
   107.7010        1.2182232E-17
   107.8439        1.2170049E-17
   107.9869        1.2152061E-17
   108.1298        1.2132387E-17
   108.2727        1.2115589E-17
   108.4156        1.2105612E-17
   108.5585        1.2104863E-17
   108.7014        1.2113642E-17
   108.8443        1.2130062E-17
   108.9872        1.2150451E-17
   109.1301        1.2170175E-17
   109.2731        1.2184662E-17
   109.4160        1.2190427E-17
   109.5589        1.2185835E-17
   109.7018        1.2171474E-17
   109.8447        1.2150023E-17
   109.9876        1.2125657E-17
   110.1305        1.2103146E-17
   110.2734        1.2086810E-17
   110.4164        1.2079607E-17
   110.5593        1.2082511E-17
   110.7022        1.2094350E-17
   110.8451        1.2112100E-17
   110.9880        1.2131581E-17
   111.1309        1.2148385E-17
   111.2738        1.2158825E-17
   111.4167        1.2160706E-17
   111.5596        1.2153740E-17
   111.7026        1.2139526E-17
   111.8455        1.2121125E-17
   111.9884        1.2102323E-17
   112.1313        1.2086764E-17
   112.2742        1.2077146E-17
   112.4171        1.2074666E-17
   112.5600        1.2078818E-17
   112.7029        1.2087582E-17
   112.8458        1.2097951E-17
   112.9888        1.2106656E-17
   113.1317        1.2110932E-17
   113.2746        1.2109133E-17
   113.4175        1.2101085E-17
   113.5604        1.2088088E-17
   113.7033        1.2072598E-17
   113.8462        1.2057650E-17
   113.9891        1.2046175E-17
   114.1321        1.2040366E-17
   114.2750        1.2041219E-17
   114.4179        1.2048346E-17
   114.5608        1.2060096E-17
   114.7037        1.2073936E-17
   114.8466        1.2087006E-17
   114.9895        1.2096715E-17
   115.1324        1.2101254E-17
   115.2754        1.2099926E-17
   115.4183        1.2093225E-17
   115.5612        1.2082669E-17
   115.7041        1.2070424E-17
   115.8470        1.2058828E-17
   115.9899        1.2049894E-17
   116.1328        1.2044914E-17
   116.2757        1.2044234E-17
   116.4186        1.2047229E-17
   116.5616        1.2052494E-17
   116.7045        1.2058174E-17
   116.8474        1.2062384E-17
   116.9903        1.2063615E-17
   117.1332        1.2061051E-17
   117.2761        1.2054731E-17
   117.4190        1.2045533E-17
   117.5619        1.2034980E-17
   117.7048        1.2024919E-17
   117.8478        1.2017138E-17
   117.9907        1.2012985E-17
   118.1336        1.2013098E-17
   118.2765        1.2017259E-17
   118.4194        1.2024444E-17
   118.5623        1.2033023E-17
   118.7052        1.2041094E-17
   118.8481        1.2046878E-17
   118.9911        1.2049083E-17
   119.1340        1.2047177E-17
   119.2769        1.2041504E-17
   119.4198        1.2033215E-17
   119.5627        1.2024029E-17
   119.7056        1.2015879E-17
   119.8485        1.2010495E-17
   119.9914        1.2009040E-17
   120.1343        1.2011843E-17
   120.2773        1.2018329E-17
   120.4202        1.2027113E-17
   120.5631        1.2036289E-17
   120.7060        1.2043811E-17
   120.8489        1.2047928E-17
   120.9918        1.2047546E-17
   121.1347        1.2042460E-17
   121.2776        1.2033402E-17
   121.4206        1.2021887E-17
   121.5635        1.2009904E-17
   121.7064        1.1999493E-17
   121.8493        1.1992326E-17
   121.9922        1.1989356E-17
   122.1351        1.1990618E-17
   122.2780        1.1995237E-17
   122.4209        1.2001616E-17
   122.5639        1.2007794E-17