  -7.200000        9.9185842E-19
  -7.057088        9.9365340E-19
  -6.914176        9.9687744E-19
  -6.771265        1.0009530E-18
  -6.628353        1.0052192E-18
  -6.485441        1.0090680E-18
  -6.342530        1.0120473E-18
  -6.199618        1.0139340E-18
  -6.056706        1.0147568E-18
  -5.913795        1.0147751E-18
  -5.770883        1.0144233E-18
  -5.627971        1.0142251E-18
  -5.485059        1.0146927E-18
  -5.342147        1.0162250E-18
  -5.199236        1.0190186E-18
  -5.056324        1.0230141E-18
  -4.913413        1.0278973E-18
  -4.770501        1.0331489E-18
  -4.627589        1.0381532E-18
  -4.484677        1.0423275E-18
  -4.341765        1.0452491E-18
  -4.198854        1.0467432E-18
  -4.055942        1.0469162E-18
  -3.913030        1.0461238E-18
  -3.770118        1.0448901E-18
  -3.627207        1.0437976E-18
  -3.484295        1.0433775E-18
  -3.341383        1.0440170E-18
  -3.198472        1.0458904E-18
  -3.055560        1.0489363E-18
  -2.912648        1.0528642E-18
  -2.769737        1.0572058E-18
  -2.626825        1.0613987E-18
  -2.483913        1.0648974E-18
  -2.341001        1.0672837E-18
  -2.198090        1.0683641E-18
  -2.055178        1.0682154E-18
  -1.912266        1.0671726E-18
  -1.769354        1.0657527E-18
  -1.626443        1.0645436E-18
  -1.483531        1.0640738E-18
  -1.340619        1.0647037E-18
  -1.197708        1.0665579E-18
  -1.054796        1.0695121E-18
 -0.9118841        1.0732264E-18
 -0.7689723        1.0772171E-18
 -0.6260606        1.0809471E-18
 -0.4831489        1.0839242E-18
 -0.3402372        1.0857911E-18
 -0.1973254        1.0863948E-18
 -5.4413714E-02    1.0858265E-18
  8.8498011E-02    1.0844092E-18
  0.2314097        1.0826435E-18
  0.3743215        1.0811050E-18
  0.5172332        1.0803198E-18
  0.6601449        1.0806461E-18
  0.8030567        1.0821946E-18
  0.9459684        1.0848031E-18
   1.088880        1.0880798E-18
   1.231792        1.0914937E-18
   1.374704        1.0944933E-18
   1.517615        1.0966200E-18
   1.660527        1.0975970E-18
   1.803439        1.0973811E-18
   1.946350        1.0961673E-18
   2.089262        1.0943585E-18
   2.232174        1.0924950E-18
   2.375086        1.0911564E-18
   2.517997        1.0908531E-18
   2.660909        1.0919170E-18
   2.803821        1.0944217E-18
   2.946733        1.0981507E-18
   3.089644        1.1026291E-18
   3.232556        1.1072171E-18
   3.375468        1.1112460E-18
   3.518379        1.1141609E-18
   3.661291        1.1156376E-18
   3.804203        1.1156452E-18
   3.947115        1.1144406E-18
   4.090026        1.1125063E-18
   4.232938        1.1104491E-18
   4.375850        1.1088801E-18
   4.518762        1.1083031E-18
   4.661673        1.1090248E-18
   4.804585        1.1110967E-18
   4.947497        1.1142988E-18
   5.090408        1.1181722E-18
   5.233320        1.1220992E-18
   5.376232        1.1254263E-18
   5.519144        1.1276006E-18
   5.662055        1.1282981E-18
   5.804967        1.1274999E-18
   5.947879        1.1255028E-18
   6.090790        1.1228537E-18
   6.233702        1.1202225E-18
   6.376614        1.1182521E-18
   6.519526        1.1174186E-18
   6.662437        1.1179361E-18
   6.805349        1.1197211E-18
   6.948261        1.1224176E-18
   7.091173        1.1254743E-18
   7.234084        1.1282447E-18
   7.376996        1.1301135E-18
   7.519908        1.1306118E-18
   7.662819        1.1295168E-18
   7.805731        1.1269134E-18
   7.948643        1.1231974E-18
   8.091555        1.1190168E-18
   8.234467        1.1151514E-18
   8.377378        1.1123567E-18
   8.520289        1.1111987E-18
   8.663201        1.1119351E-18
   8.806113        1.1144596E-18
   8.949025        1.1183326E-18
   9.091937        1.1228806E-18
   9.234848        1.1273394E-18
   9.377760        1.1310069E-18
   9.520672        1.1333722E-18
   9.663584        1.1341955E-18
   9.806496        1.1335419E-18
   9.949407        1.1317567E-18
   10.09232        1.1293935E-18
   10.23523        1.1271049E-18
   10.37814        1.1255114E-18
   10.52105        1.1250685E-18
   10.66397        1.1259579E-18
   10.80688        1.1280321E-18
   10.94979        1.1308356E-18
   11.09270        1.1336982E-18
   11.23561        1.1358823E-18
   11.37852        1.1367531E-18
   11.52144        1.1359193E-18
   11.66435        1.1333212E-18
   11.80726        1.1292413E-18
   11.95017        1.1242477E-18
   12.09308        1.1190766E-18
   12.23599        1.1144985E-18
   12.37891        1.1111808E-18
   12.52182        1.1095716E-18
   12.66473        1.1098247E-18
   12.80764        1.1117716E-18
   12.95055        1.1149494E-18
   13.09346        1.1186934E-18
   13.23638        1.1222700E-18
   13.37929        1.1250328E-18
   13.52220        1.1265718E-18
   13.66511        1.1268013E-18
   13.80802        1.1259800E-18
   13.95094        1.1246390E-18
   14.09385        1.1234515E-18
   14.23676        1.1230661E-18
   14.37967        1.1239559E-18
   14.52258        1.1263138E-18
   14.66549        1.1300112E-18
   14.80841        1.1346222E-18
   14.95132        1.1395067E-18
   15.09423        1.1439250E-18
   15.23714        1.1471724E-18
   15.38005        1.1487131E-18
   15.52296        1.1482896E-18
   15.66588        1.1459920E-18
   15.80879        1.1422575E-18
   15.95170        1.1378001E-18
   16.09461        1.1334669E-18
   16.23752        1.1300622E-18
   16.38043        1.1281673E-18
   16.52335        1.1280144E-18
   16.66626        1.1294435E-18
   16.80917        1.1319480E-18
   16.95208        1.1348010E-18
   17.09499        1.1372213E-18
   17.23791        1.1385386E-18
   17.38082        1.1383209E-18
   17.52373        1.1364554E-18
   17.66664        1.1331611E-18
   17.80955        1.1289494E-18
   17.95246        1.1245348E-18
   18.09538        1.1207094E-18
   18.23829        1.1181967E-18
   18.38120        1.1175051E-18
   18.52411        1.1188166E-18
   18.66702        1.1219359E-18
   18.80993        1.1263252E-18
   18.95285        1.1312196E-18
   19.09576        1.1357978E-18
   19.23867        1.1393671E-18
   19.38158        1.1415125E-18
   19.52449        1.1421694E-18
   19.66740        1.1416177E-18
   19.81032        1.1403939E-18
   19.95323        1.1391606E-18
   20.09614        1.1385593E-18
   20.23905        1.1390829E-18
   20.38196        1.1409794E-18
   20.52488        1.1442006E-18
   20.66779        1.1484005E-18
   20.81070        1.1529892E-18
   20.95361        1.1572348E-18
   21.09652        1.1604058E-18
   21.23943        1.1619257E-18
   21.38235        1.1615125E-18
   21.52526        1.1592513E-18
   21.66817        1.1555920E-18
   21.81108        1.1512557E-18
   21.95399        1.1470767E-18
   22.09690        1.1438215E-18
   22.23981        1.1420330E-18
   22.38273        1.1419261E-18
   22.52564        1.1433634E-18
   22.66855        1.1458966E-18
   22.81146        1.1488631E-18
   22.95437        1.1515176E-18
   23.09729        1.1531738E-18
   23.24020        1.1533362E-18
   23.38311        1.1518051E-18
   23.52602        1.1487344E-18
   23.66893        1.1446207E-18
   23.81184        1.1402229E-18
   23.95476        1.1364110E-18
   24.09767        1.1339832E-18
   24.24058        1.1334910E-18
   24.38349        1.1351113E-18
   24.52640        1.1386126E-18
   24.66932        1.1434046E-18
   24.81223        1.1486663E-18
   24.95514        1.1535111E-18
   25.09805        1.1571555E-18
   25.24096        1.1590516E-18
   25.38387        1.1589746E-18
   25.52678        1.1570511E-18
   25.66970        1.1537305E-18
   25.81261        1.1497094E-18
   25.95552        1.1458023E-18
   26.09843        1.1427931E-18
   26.24134        1.1412723E-18
   26.38426        1.1415158E-18
   26.52717        1.1434194E-18
   26.67008        1.1465284E-18
   26.81299        1.1501464E-18
   26.95590        1.1535039E-18
   27.09881        1.1559405E-18
   27.24173        1.1570487E-18
   27.38464        1.1567481E-18
   27.52755        1.1552845E-18
   27.67046        1.1531550E-18
   27.81337        1.1509943E-18
   27.95629        1.1494450E-18
   28.09920        1.1490363E-18
   28.24211        1.1500857E-18
   28.38502        1.1526306E-18
   28.52793        1.1564056E-18
   28.67084        1.1608744E-18
   28.81376        1.1653193E-18
   28.95667        1.1689851E-18
   29.09958        1.1712427E-18
   29.24249        1.1717408E-18
   29.38540        1.1704974E-18
   29.52831        1.1678979E-18
   29.67122        1.1646080E-18
   29.81414        1.1614170E-18
   29.95705        1.1590572E-18
   30.09996        1.1580481E-18
   30.24287        1.1586001E-18
   30.38578        1.1605860E-18
   30.52870        1.1635811E-18
   30.67161        1.1669506E-18
   30.81452        1.1699685E-18
   30.95743        1.1719486E-18
   31.10034        1.1723726E-18
   31.24325        1.1710037E-18
   31.38617        1.1679501E-18
   31.52908        1.1636754E-18
   31.67199        1.1589238E-18
   31.81490        1.1545789E-18
   31.95781        1.1514769E-18
   32.10072        1.1502303E-18
   32.24364        1.1510899E-18
   32.38655        1.1539001E-18
   32.52946        1.1581443E-18
   32.67237        1.1630633E-18
   32.81528        1.1678190E-18
   32.95819        1.1716527E-18
   33.10111        1.1740186E-18
   33.24402        1.1746660E-18
   33.38693        1.1736696E-18
   33.52984        1.1714058E-18
   33.67275        1.1684782E-18
   33.81567        1.1656029E-18
   33.95858        1.1634651E-18
   34.10149        1.1625715E-18
   34.24440        1.1631367E-18
   34.38731        1.1650274E-18
   34.53022        1.1677924E-18
   34.67313        1.1707711E-18
   34.81605        1.1732512E-18
   34.95896        1.1746408E-18
   35.10187        1.1745998E-18
   35.24478        1.1731108E-18
   35.38770        1.1704652E-18
   35.53061        1.1671970E-18
   35.67352        1.1639641E-18
   35.81643        1.1614229E-18
   35.95934        1.1601034E-18
   36.10225        1.1603120E-18
   36.24516        1.1620674E-18
   36.38808        1.1650812E-18
   36.53099        1.1688038E-18
   36.67390        1.1725277E-18
   36.81681        1.1755341E-18
   36.95972        1.1772614E-18
   37.10263        1.1774416E-18
   37.24555        1.1761733E-18
   37.38846        1.1739026E-18
   37.53137        1.1713203E-18
   37.67428        1.1692013E-18
   37.81719        1.1682303E-18
   37.96011        1.1688597E-18
   38.10302        1.1712234E-18
   38.24593        1.1751189E-18
   38.38884        1.1800498E-18
   38.53175        1.1853108E-18
   38.67466        1.1901081E-18
   38.81758        1.1936902E-18
   38.96049        1.1954837E-18
   39.10340        1.1952091E-18
   39.24631        1.1929505E-18
   39.38922        1.1891571E-18
   39.53214        1.1845636E-18
   39.67505        1.1800419E-18
   39.81796        1.1764089E-18
   39.96087        1.1742527E-18
   40.10378        1.1738108E-18
   40.24669        1.1749401E-18
   40.38961        1.1771713E-18
   40.53252        1.1798363E-18
   40.67543        1.1822164E-18
   40.81834        1.1836905E-18
   40.96125        1.1838441E-18
   41.10416        1.1825346E-18
   41.24707        1.1799096E-18
   41.38999        1.1763816E-18
   41.53290        1.1725634E-18
   41.67581        1.1691600E-18
   41.81872        1.1668368E-18
   41.96163        1.1660807E-18
   42.10455        1.1670897E-18
   42.24746        1.1697206E-18
   42.39037        1.1735214E-18
   42.53328        1.1778347E-18
   42.67619        1.1819532E-18
   42.81910        1.1852842E-18
   42.96202        1.1874703E-18
   43.10493        1.1884481E-18
   43.24784        1.1884328E-18
   43.39075        1.1878465E-18
   43.53366        1.1872118E-18
   43.67657        1.1870388E-18
   43.81948        1.1877226E-18
   43.96240        1.1894638E-18
   44.10531        1.1922189E-18
   44.24822        1.1956912E-18
   44.39113        1.1993680E-18
   44.53405        1.2026105E-18
   44.67696        1.2047807E-18
   44.81987        1.2053884E-18
   44.96278        1.2042098E-18
   45.10569        1.2013533E-18
   45.24860        1.1972456E-18
   45.39151        1.1925432E-18
   45.53443        1.1879942E-18
   45.67734        1.1842865E-18
   45.82025        1.1819218E-18
   45.96316        1.1811338E-18
   46.10608        1.1818658E-18
   46.24899        1.1837998E-18
   46.39190        1.1864225E-18
   46.53481        1.1891172E-18
   46.67772        1.1912806E-18
   46.82063        1.1924332E-18
   46.96354        1.1923249E-18
   47.10646        1.1909971E-18
   47.24937        1.1887870E-18
   47.39228        1.1862612E-18
   47.53519        1.1840937E-18
   47.67810        1.1829077E-18
   47.82101        1.1831302E-18
   47.96392        1.1848979E-18
   48.10684        1.1880340E-18
   48.24975        1.1920986E-18
   48.39266        1.1964870E-18
   48.53557        1.2005525E-18
   48.67849        1.2037195E-18
   48.82140        1.2055757E-18
   48.96431        1.2059323E-18
   49.10722        1.2048484E-18
   49.25013        1.2026285E-18
   49.39304        1.1997731E-18
   49.53595        1.1968907E-18
   49.67887        1.1945826E-18
   49.82178        1.1933095E-18
   49.96469        1.1932873E-18
   50.10760        1.1944389E-18
   50.25051        1.1964136E-18
   50.39342        1.1986856E-18
   50.53634        1.2006891E-18
   50.67925        1.2019576E-18
   50.82216        1.2022298E-18
   50.96507        1.2014940E-18
   51.10798        1.1999748E-18
   51.25090        1.1980727E-18
   51.39381        1.1962819E-18
   51.53672        1.1951000E-18
   51.67963        1.1949427E-18
   51.82254        1.1960650E-18
   51.96545        1.1985026E-18
   52.10837        1.2020394E-18
   52.25128        1.2062200E-18
   52.39419        1.2104178E-18
   52.53710        1.2139550E-18
   52.68001        1.2162468E-18
   52.82293        1.2169330E-18
   52.96584        1.2159660E-18
   53.10875        1.2136178E-18
   53.25166        1.2104148E-18
   53.39457        1.2070173E-18
   53.53748        1.2040769E-18
   53.68040        1.2021127E-18
   53.82331        1.2014266E-18
   53.96622        1.2020643E-18
   54.10913        1.2038226E-18
   54.25204        1.2062905E-18
   54.39495        1.2089235E-18
   54.53786        1.2111376E-18
   54.68078        1.2124236E-18
   54.82369        1.2124541E-18
   54.96660        1.2111670E-18
   55.10951        1.2087952E-18
   55.25242        1.2058277E-18
   55.39534        1.2029060E-18
   55.53825        1.2006783E-18
   55.68116        1.1996549E-18
   55.82407        1.2000981E-18
   55.96698        1.2019735E-18
   56.10989        1.2049753E-18
   56.25281        1.2085964E-18
   56.39572        1.2122387E-18
   56.53863        1.2153236E-18
   56.68154        1.2173874E-18
   56.82445        1.2181638E-18
   56.96737        1.2176263E-18
   57.11028        1.2160009E-18
   57.25319        1.2137299E-18
   57.39610        1.2113886E-18
   57.53901        1.2095680E-18
   57.68192        1.2087394E-18
   57.82484        1.2091405E-18
   57.96775        1.2107160E-18
   58.11066        1.2131314E-18
   58.25357        1.2158533E-18
   58.39648        1.2182812E-18
   58.53939        1.2198827E-18
   58.68230        1.2203059E-18
   58.82522        1.2194417E-18
   58.96813        1.2174347E-18
   59.11104        1.2146465E-18
   59.25395        1.2115926E-18
   59.39687        1.2088512E-18
   59.53978        1.2069646E-18
   59.68269        1.2063392E-18
   59.82560        1.2071582E-18
   59.96851        1.2093241E-18
   60.11142        1.2124597E-18
   60.25433        1.2159731E-18
   60.39725        1.2191828E-18
   60.54016        1.2214698E-18
   60.68307        1.2224227E-18
   60.82598        1.2219302E-18
   60.96889        1.2201969E-18
   61.11180        1.2176861E-18
   61.25471        1.2150100E-18
   61.39763        1.2127982E-18
   61.54054        1.2115794E-18
   61.68345        1.2116976E-18
   61.82636        1.2132632E-18
   61.96928        1.2161423E-18
   62.11219        1.2199799E-18
   62.25510        1.2242545E-18
   62.39801        1.2283633E-18
   62.54092        1.2317323E-18
   62.68383        1.2339352E-18
   62.82674        1.2347842E-18
   62.96966        1.2343755E-18
   63.11257        1.2330613E-18
   63.25548        1.2313567E-18
   63.39839        1.2298060E-18
   63.54131        1.2288451E-18
   63.68422        1.2287020E-18
   63.82713        1.2293571E-18
   63.97004        1.2305674E-18
   64.11295        1.2319384E-18
   64.25586        1.2330182E-18
   64.39877        1.2333918E-18
   64.54169        1.2327628E-18
   64.68460        1.2310080E-18
   64.82751        1.2282120E-18
   64.97042        1.2246693E-18
   65.11333        1.2208505E-18
   65.25625        1.2173273E-18
   65.39915        1.2146660E-18
   65.54207        1.2133081E-18
   65.68498        1.2134679E-18
   65.82789        1.2150780E-18
   65.97080        1.2178034E-18
   66.11372        1.2211170E-18
   66.25663        1.2244194E-18
   66.39954        1.2271658E-18
   66.54245        1.2289711E-18
   66.68536        1.2296689E-18
   66.82828        1.2293204E-18
   66.97118        1.2281837E-18
   67.11410        1.2266538E-18
   67.25701        1.2251872E-18
   67.39992        1.2242161E-18
   67.54283        1.2240662E-18
   67.68575        1.2248844E-18
   67.82866        1.2265973E-18
   67.97157        1.2289126E-18
   68.11448        1.2313752E-18
   68.25739        1.2334673E-18
   68.40031        1.2347320E-18
   68.54321        1.2348820E-18
   68.68613        1.2338708E-18
   68.82904        1.2318988E-18
   68.97195        1.2293623E-18
   69.11486        1.2267640E-18
   69.25777        1.2246119E-18
   69.40069        1.2233264E-18
   69.54359        1.2231720E-18
   69.68651        1.2242206E-18
   69.82942        1.2263415E-18
   69.97233        1.2292152E-18
   70.11524        1.2323792E-18
   70.25816        1.2353039E-18
   70.40107        1.2374903E-18
   70.54398        1.2385762E-18
   70.68689        1.2384238E-18
   70.82980        1.2371548E-18
   70.97272        1.2351248E-18
   71.11562        1.2328391E-18
   71.25854        1.2308302E-18
   71.40145        1.2295352E-18
   71.54436        1.2292068E-18
   71.68727        1.2298724E-18
   71.83018        1.2313461E-18
   71.97310        1.2332823E-18
   72.11600        1.2352466E-18
   72.25892        1.2367944E-18
   72.40183        1.2375468E-18
   72.54475        1.2372571E-18
   72.68765        1.2358655E-18
   72.83057        1.2335326E-18
   72.97348        1.2306260E-18
   73.11639        1.2276671E-18
   73.25930        1.2252260E-18
   73.40221        1.2237933E-18
   73.54513        1.2236578E-18
   73.68803        1.2248321E-18
   73.83095        1.2270451E-18
   73.97386        1.2298033E-18
   74.11678        1.2325036E-18
   74.25968        1.2345665E-18
   74.40260        1.2355510E-18
   74.54551        1.2352280E-18
   74.68842        1.2336132E-18
   74.83133        1.2309540E-18
   74.97424        1.2276833E-18
   75.11716        1.2243477E-18
   75.26006        1.2215175E-18
   75.40298        1.2196853E-18
   75.54589        1.2191666E-18
   75.68880        1.2200251E-18
   75.83171        1.2220475E-18
   75.97462        1.2247773E-18
   76.11754        1.2276139E-18
   76.26044        1.2299501E-18
   76.40336        1.2313093E-18
   76.54627        1.2314510E-18
   76.68919        1.2304146E-18
   76.83209        1.2284956E-18
   76.97501        1.2261641E-18
   77.11792        1.2239602E-18
   77.26083        1.2223823E-18
   77.40374        1.2217929E-18
   77.54665        1.2223559E-18
   77.68957        1.2240015E-18
   77.83247        1.2264343E-18
   77.97539        1.2291805E-18
   78.11830        1.2316681E-18
   78.26122        1.2333428E-18
   78.40412        1.2337888E-18
   78.54704        1.2328284E-18
   78.68995        1.2305738E-18
   78.83286        1.2274095E-18
   78.97577        1.2239045E-18
   79.11868        1.2206865E-18
   79.26160        1.2183027E-18
   79.40450        1.2171088E-18
   79.54742        1.2172073E-18
   79.69033        1.2184438E-18
   79.83324        1.2204500E-18
   79.97615        1.2227197E-18
   80.11906        1.2247027E-18
   80.26198        1.2259011E-18
   80.40488        1.2259588E-18
   80.54780        1.2247391E-18
   80.69071        1.2223592E-18
   80.83363        1.2191841E-18
   80.97653        1.2157610E-18
   81.11945        1.2127041E-18
   81.26236        1.2105574E-18
   81.40527        1.2096672E-18
   81.54818        1.2101024E-18
   81.69109        1.2116462E-18
   81.83401        1.2138574E-18
   81.97691        1.2161760E-18
   82.11983        1.2180494E-18
   82.26274        1.2190395E-18
   82.40565        1.2188979E-18
   82.54856        1.2175964E-18
   82.69147        1.2153256E-18
   82.83439        1.2124605E-18
   82.97730        1.2094986E-18
   83.12021        1.2069795E-18
   83.26312        1.2053821E-18
   83.40604        1.2050232E-18
   83.54894        1.2059787E-18
   83.69186        1.2080499E-18
   83.83477        1.2107941E-18
   83.97768        1.2136188E-18
   84.12059        1.2159164E-18
   84.26350        1.2172010E-18
   84.40642        1.2172107E-18
   84.54933        1.2159505E-18
   84.69224        1.2136684E-18
   84.83515        1.2107849E-18
   84.97807        1.2077961E-18
   85.12097        1.2051788E-18
   85.26389        1.2033088E-18
   85.40680        1.2024056E-18
   85.54971        1.2024951E-18
   85.69262        1.2034028E-18
   85.83553        1.2047797E-18
   85.97845        1.2061622E-18
   86.12135        1.2070714E-18
   86.26427        1.2071175E-18
   86.40718        1.2061055E-18
   86.55009        1.2040907E-18
   86.69300        1.2013740E-18
   86.83591        1.1984341E-18
   86.97883        1.1958128E-18
   87.12174        1.1939888E-18
   87.26465        1.1932731E-18
   87.40756        1.1937525E-18
   87.55048        1.1952804E-18
   87.69338        1.1975165E-18
   87.83630        1.1999913E-18
   87.97921        1.2021866E-18
   88.12212        1.2036223E-18
   88.26503        1.2039353E-18
   88.40794        1.2029542E-18
   88.55086        1.2007419E-18
   88.69377        1.1976011E-18
   88.83668        1.1940245E-18
   88.97959        1.1905996E-18
   89.12251        1.1878843E-18
   89.26541        1.1862839E-18
   89.40833        1.1859673E-18
   89.55124        1.1868384E-18
   89.69415        1.1885734E-18
   89.83706        1.1907026E-18
   89.97997        1.1927117E-18
   90.12289        1.1941433E-18
   90.26580        1.1946695E-18
   90.40871        1.1941408E-18
   90.55162        1.1926035E-18
   90.69453        1.1902923E-18
   90.83744        1.1875934E-18
   90.98035        1.1849743E-18
   91.12327        1.1828943E-18
   91.26618        1.1816999E-18
   91.40909        1.1815390E-18
   91.55200        1.1823143E-18
   91.69492        1.1837018E-18
   91.83783        1.1852261E-18
   91.98074        1.1863756E-18
   92.12365        1.1867286E-18
   92.26656        1.1860464E-18
   92.40947        1.1843162E-18
   92.55238        1.1817422E-18
   92.69530        1.1786889E-18
   92.83821        1.1756083E-18
   92.98112        1.1729558E-18
   93.12403        1.1711155E-18
   93.26694        1.1703338E-18
   93.40986        1.1706711E-18
   93.55276        1.1719721E-18
   93.69568        1.1738801E-18
   93.83859        1.1758924E-18
   93.98150        1.1774587E-18
   94.12441        1.1781093E-18
   94.26733        1.1775689E-18
   94.41024        1.1758287E-18
   94.55315        1.1731523E-18
   94.69606        1.1700086E-18
   94.83897        1.1669575E-18
   94.98188        1.1645225E-18
   95.12479        1.1630813E-18
   95.26771        1.1628018E-18
   95.41062        1.1636265E-18
   95.55353        1.1653002E-18
   95.69644        1.1674213E-18
   95.83936        1.1695161E-18
   95.98227        1.1711158E-18
   96.12518        1.1718426E-18
   96.26809        1.1714901E-18
   96.41100        1.1700792E-18
   96.55391        1.1678695E-18
   96.69682        1.1653201E-18
   96.83974        1.1629878E-18
   96.98265        1.1614009E-18
   97.12556        1.1609276E-18
   97.26847        1.1616882E-18
   97.41138        1.1635302E-18
   97.55430        1.1660705E-18
   97.69720        1.1687847E-18
   97.84012        1.1711209E-18
   97.98303        1.1726024E-18
   98.12594        1.1729072E-18
   98.26885        1.1719102E-18
   98.41177        1.1696985E-18
   98.55468        1.1665539E-18
   98.69759        1.1629074E-18
   98.84050        1.1592693E-18
   98.98341        1.1561313E-18
   99.12633        1.1538699E-18
   99.26923        1.1526571E-18
   99.41215        1.1524242E-18
   99.55506        1.1528743E-18
   99.69797        1.1535633E-18
   99.84088        1.1540102E-18
   99.98380        1.1538179E-18
   100.1267        1.1527592E-18
   100.2696        1.1508213E-18
   100.4125        1.1481945E-18
   100.5554        1.1452230E-18
   100.6984        1.1423339E-18
   100.8413        1.1399613E-18
   100.9842        1.1384762E-18
   101.1271        1.1381207E-18
   101.2700        1.1389558E-18
   101.4129        1.1408374E-18
   101.5558        1.1434195E-18
   101.6987        1.1462113E-18
   101.8416        1.1486660E-18
   101.9846        1.1503019E-18
   102.1275        1.1508060E-18
   102.2704        1.1501064E-18
   102.4133        1.1483772E-18
   102.5562        1.1459899E-18
   102.6991        1.1434157E-18
   102.8420        1.1411207E-18
   102.9849        1.1394777E-18
   103.1279        1.1387055E-18
   103.2708        1.1388453E-18
   103.4137        1.1397622E-18
   103.5566        1.1411740E-18
   103.6995        1.1426916E-18
   103.8424        1.1438840E-18
   103.9853        1.1443577E-18
   104.1282        1.1438458E-18
   104.2711        1.1422786E-18
   104.4141        1.1398235E-18
   104.5570        1.1368603E-18
   104.6999        1.1339021E-18
   104.8428        1.1314754E-18
   104.9857        1.1299962E-18
   105.1286        1.1296740E-18
   105.2715        1.1304738E-18
   105.4144        1.1321340E-18
   105.5574        1.1342353E-18
   105.7003        1.1362877E-18
   105.8432        1.1378213E-18
   105.9861        1.1384654E-18
   106.1290        1.1380054E-18
   106.2719        1.1364246E-18
   106.4148        1.1339161E-18
   106.5577        1.1308656E-18
   106.7006        1.1277894E-18
   106.8436        1.1252389E-18
   106.9865        1.1236789E-18
   107.1294        1.1233731E-18
   107.2723        1.1243138E-18
   107.4152        1.1262150E-18
   107.5581        1.1285763E-18
   107.7010        1.1307991E-18
   107.8439        1.1323233E-18
   107.9869        1.1327441E-18
   108.1298        1.1318833E-18
   108.2727        1.1298144E-18
   108.4156        1.1268288E-18
   108.5585        1.1233765E-18
   108.7014        1.1199802E-18
   108.8443        1.1171454E-18
   108.9872        1.1152679E-18
   109.1301        1.1145542E-18
   109.2731        1.1149702E-18
   109.4160        1.1162367E-18
   109.5589        1.1178834E-18
   109.7018        1.1193485E-18
   109.8447        1.1201137E-18
   109.9876        1.1198338E-18
   110.1305        1.1184168E-18
   110.2734        1.1160477E-18
   110.4164        1.1131364E-18
   110.5593        1.1102178E-18
   110.7022        1.1078329E-18
   110.8451        1.1064164E-18
   110.9880        1.1062185E-18
   111.1309        1.1072675E-18
   111.2738        1.1093671E-18
   111.4167        1.1121324E-18
   111.5596        1.1150520E-18
   111.7026        1.1175750E-18
   111.8455        1.1192159E-18
   111.9884        1.1196576E-18
   112.1313        1.1188261E-18
   112.2742        1.1169169E-18
   112.4171        1.1143546E-18
   112.5600        1.1116943E-18
   112.7029        1.1094891E-18
   112.8458        1.1081590E-18
   112.9888        1.1078998E-18
   113.1317        1.1086528E-18
   113.2746        1.1101341E-18
   113.4175        1.1119107E-18
   113.5604        1.1134945E-18
   113.7033        1.1144368E-18
   113.8462        1.1144024E-18
   113.9891        1.1132296E-18
   114.1321        1.1109596E-18
   114.2750        1.1078438E-18
   114.4179        1.1043105E-18
   114.5608        1.1008932E-18
   114.7037        1.0981264E-18
   114.8466        1.0964238E-18
   114.9895        1.0959794E-18
   115.1324        1.0967149E-18
   115.2754        1.0982926E-18
   115.4183        1.1001996E-18
   115.5612        1.1018679E-18
   115.7041        1.1028071E-18
   115.8470        1.1026996E-18
   115.9899        1.1014566E-18
   116.1328        1.0992131E-18
   116.2757        1.0962887E-18
   116.4186        1.0931194E-18
   116.5616        1.0901818E-18
   116.7045        1.0879142E-18
   116.8474        1.0866409E-18
   116.9903        1.0865033E-18
   117.1332        1.0874230E-18
   117.2761        1.0890975E-18
   117.4190        1.0910501E-18
   117.5619        1.0927277E-18
   117.7048        1.0936227E-18
   117.8478        1.0933920E-18
   117.9907        1.0919356E-18
   118.1336        1.0894121E-18
   118.2765        1.0861934E-18
   118.4194        1.0827744E-18
   118.5623        1.0796654E-18
   118.7052        1.0772954E-18
   118.8481        1.0759435E-18
   118.9911        1.0757022E-18
   119.1340        1.0764725E-18
   119.2769        1.0779837E-18
   119.4198        1.0798365E-18
   119.5627        1.0815745E-18
   119.7056        1.0827679E-18
   119.8485        1.0831077E-18
   119.9914        1.0824818E-18
   120.1343        1.0810105E-18
   120.2773        1.0790254E-18
   120.4202        1.0769934E-18
   120.5631        1.0754061E-18
   120.7060        1.0746616E-18
   120.8489        1.0749762E-18
   120.9918        1.0763458E-18
   121.1347        1.0785525E-18
   121.2776        1.0812159E-18
   121.4206        1.0838672E-18
   121.5635        1.0860255E-18
   121.7064        1.0872754E-18
   121.8493        1.0873333E-18
   121.9922        1.0860999E-18
   122.1351        1.0836862E-18
   122.2780        1.0804059E-18
   122.4209        1.0767255E-18
   122.5639        1.0731693E-18