  -7.200000        1.0339476E-17
  -7.057088        1.0347800E-17
  -6.914176        1.0362742E-17
  -6.771265        1.0381435E-17
  -6.628353        1.0400463E-17
  -6.485441        1.0416599E-17
  -6.342530        1.0427498E-17
  -6.199618        1.0432179E-17
  -6.056706        1.0431221E-17
  -5.913795        1.0426592E-17
  -5.770883        1.0421178E-17
  -5.627971        1.0418112E-17
  -5.485059        1.0420044E-17
  -5.342147        1.0428522E-17
  -5.199236        1.0443627E-17
  -5.056324        1.0463933E-17
  -4.913413        1.0486808E-17
  -4.770501        1.0508988E-17
  -4.627589        1.0527303E-17
  -4.484677        1.0539371E-17
  -4.341765        1.0544141E-17
  -4.198854        1.0542122E-17
  -4.055942        1.0535285E-17
  -3.913030        1.0526620E-17
  -3.770118        1.0519487E-17
  -3.627207        1.0516868E-17
  -3.484295        1.0520708E-17
  -3.341383        1.0531487E-17
  -3.198472        1.0548116E-17
  -3.055560        1.0568184E-17
  -2.912648        1.0588500E-17
  -2.769737        1.0605809E-17
  -2.626825        1.0617527E-17
  -2.483913        1.0622326E-17
  -2.341001        1.0620437E-17
  -2.198090        1.0613607E-17
  -2.055178        1.0604719E-17
  -1.912266        1.0597144E-17
  -1.769354        1.0593991E-17
  -1.626443        1.0597410E-17
  -1.483531        1.0608098E-17
  -1.340619        1.0625135E-17
  -1.197708        1.0646172E-17
  -1.054796        1.0667944E-17
 -0.9118841        1.0686985E-17
 -0.7689723        1.0700394E-17
 -0.6260606        1.0706476E-17
 -0.4831489        1.0705113E-17
 -0.3402372        1.0697793E-17
 -0.1973254        1.0687277E-17
 -5.4413714E-02    1.0676981E-17
  8.8498011E-02    1.0670218E-17
  0.2314097        1.0669457E-17
  0.3743215        1.0675779E-17
  0.5172332        1.0688638E-17
  0.6601449        1.0705994E-17
  0.8030567        1.0724780E-17
  0.9459684        1.0741604E-17
   1.088880        1.0753527E-17
   1.231792        1.0758739E-17
   1.374704        1.0756985E-17
   1.517615        1.0749638E-17
   1.660527        1.0739402E-17
   1.803439        1.0729713E-17
   1.946350        1.0723964E-17
   2.089262        1.0724737E-17
   2.232174        1.0733199E-17
   2.375086        1.0748829E-17
   2.517997        1.0769497E-17
   2.660909        1.0791925E-17
   2.803821        1.0812396E-17
   2.946733        1.0827573E-17
   3.089644        1.0835240E-17
   3.232556        1.0834787E-17
   3.375468        1.0827354E-17
   3.518379        1.0815578E-17
   3.661291        1.0803007E-17
   3.804203        1.0793315E-17
   3.947115        1.0789481E-17
   4.090026        1.0793133E-17
   4.232938        1.0804186E-17
   4.375850        1.0820882E-17
   4.518762        1.0840182E-17
   4.661673        1.0858474E-17
   4.804585        1.0872396E-17
   4.947497        1.0879600E-17
   5.090408        1.0879297E-17
   5.233320        1.0872438E-17
   5.376232        1.0861501E-17
   5.519144        1.0849925E-17
   5.662055        1.0841320E-17
   5.804967        1.0838637E-17
   5.947879        1.0843471E-17
   6.090790        1.0855682E-17
   6.233702        1.0873392E-17
   6.376614        1.0893395E-17
   6.519526        1.0911863E-17
   6.662437        1.0925203E-17
   6.805349        1.0930872E-17
   6.948261        1.0927962E-17
   7.091173        1.0917427E-17
   7.234084        1.0901879E-17
   7.376996        1.0885031E-17
   7.519908        1.0870874E-17
   7.662819        1.0862794E-17
   7.805731        1.0862827E-17
   7.948643        1.0871209E-17
   8.091555        1.0886332E-17
   8.234467        1.0905114E-17
   8.377378        1.0923703E-17
   8.520289        1.0938344E-17
   8.663201        1.0946234E-17
   8.806113        1.0946151E-17
   8.949025        1.0938714E-17
   9.091937        1.0926242E-17
   9.234848        1.0912201E-17
   9.377760        1.0900404E-17
   9.520672        1.0894127E-17
   9.663584        1.0895342E-17
   9.806496        1.0904255E-17
   9.949407        1.0919250E-17
   10.09232        1.0937243E-17
   10.23523        1.0954394E-17
   10.37814        1.0966984E-17
   10.52105        1.0972278E-17
   10.66397        1.0969166E-17
   10.80688        1.0958445E-17
   10.94979        1.0942653E-17
   11.09270        1.0925525E-17
   11.23561        1.0911151E-17
   11.37852        1.0903064E-17
   11.52144        1.0903446E-17
   11.66435        1.0912624E-17
   11.80726        1.0929000E-17
   11.95017        1.0949401E-17
   12.09308        1.0969790E-17
   12.23599        1.0986173E-17
   12.37891        1.0995487E-17
   12.52182        1.0996284E-17
   12.66473        1.0989041E-17
   12.80764        1.0976034E-17
   12.95055        1.0960806E-17
   13.09346        1.0947345E-17
   13.23638        1.0939172E-17
   13.37929        1.0938535E-17
   13.52220        1.0945897E-17
   13.66511        1.0959846E-17
   13.80802        1.0977430E-17
   13.95094        1.0994848E-17
   14.09385        1.1008341E-17
   14.23676        1.1015065E-17
   14.37967        1.1013763E-17
   14.52258        1.1005061E-17
   14.66549        1.0991329E-17
   14.80841        1.0976148E-17
   14.95132        1.0963485E-17
   15.09423        1.0956773E-17
   15.23714        1.0958122E-17
   15.38005        1.0967820E-17
   15.52296        1.0984250E-17
   15.66588        1.1004253E-17
   15.80879        1.1023829E-17
   15.95170        1.1039045E-17
   16.09461        1.1046926E-17
   16.23752        1.1046119E-17
   16.38043        1.1037205E-17
   16.52335        1.1022554E-17
   16.66626        1.1005793E-17
   16.80917        1.0990972E-17
   16.95208        1.0981654E-17
   17.09499        1.0980115E-17
   17.23791        1.0986840E-17
   17.38082        1.1000440E-17
   17.52373        1.1017994E-17
   17.66664        1.1035737E-17
   17.80955        1.1049934E-17
   17.95246        1.1057756E-17
   18.09538        1.1057913E-17
   18.23829        1.1050947E-17
   18.38120        1.1039088E-17
   18.52411        1.1025723E-17
   18.66702        1.1014589E-17
   18.80993        1.1008900E-17
   18.95285        1.1010588E-17
   19.09576        1.1019842E-17
   19.23867        1.1035067E-17
   19.38158        1.1053238E-17
   19.52449        1.1070602E-17
   19.66740        1.1083541E-17
   19.81032        1.1089405E-17
   19.95323        1.1087125E-17
   20.09614        1.1077465E-17
   20.23905        1.1062847E-17
   20.38196        1.1046807E-17
   20.52488        1.1033192E-17
   20.66779        1.1025295E-17
   20.81070        1.1025112E-17
   20.95361        1.1032915E-17
   21.09652        1.1047205E-17
   21.23943        1.1065076E-17
   21.38235        1.1082893E-17
   21.52526        1.1097126E-17
   21.66817        1.1105148E-17
   21.81108        1.1105816E-17
   21.95399        1.1099706E-17
   22.09690        1.1088938E-17
   22.23981        1.1076666E-17
   22.38273        1.1066317E-17
   22.52564        1.1060792E-17
   22.66855        1.1061795E-17
   22.81146        1.1069444E-17
   22.95437        1.1082267E-17
   23.09729        1.1097557E-17
   23.24020        1.1112019E-17
   23.38311        1.1122546E-17
   23.52602        1.1126947E-17
   23.66893        1.1124459E-17
   23.81184        1.1115919E-17
   23.95476        1.1103575E-17
   24.09767        1.1090564E-17
   24.24058        1.1080193E-17
   24.38349        1.1075186E-17
   24.52640        1.1077064E-17
   24.66932        1.1085816E-17
   24.81223        1.1099902E-17
   24.95514        1.1116625E-17
   25.09805        1.1132743E-17
   25.24096        1.1145204E-17
   25.38387        1.1151824E-17
   25.52678        1.1151760E-17
   25.66970        1.1145671E-17
   25.81261        1.1135536E-17
   25.95552        1.1124175E-17
   26.09843        1.1114596E-17
   26.24134        1.1109309E-17
   26.38426        1.1109772E-17
   26.52717        1.1116084E-17
   26.67008        1.1127002E-17
   26.81299        1.1140260E-17
   26.95590        1.1153119E-17
   27.09881        1.1163010E-17
   27.24173        1.1168127E-17
   27.38464        1.1167827E-17
   27.52755        1.1162763E-17
   27.67046        1.1154699E-17
   27.81337        1.1146093E-17
   27.95629        1.1139503E-17
   28.09920        1.1136994E-17
   28.24211        1.1139660E-17
   28.38502        1.1147373E-17
   28.52793        1.1158815E-17
   28.67084        1.1171786E-17
   28.81376        1.1183701E-17
   28.95667        1.1192172E-17
   29.09958        1.1195543E-17
   29.24249        1.1193249E-17
   29.38540        1.1185932E-17
   29.52831        1.1175283E-17
   29.67122        1.1163666E-17
   29.81414        1.1153595E-17
   29.95705        1.1147188E-17
   30.09996        1.1145732E-17
   30.24287        1.1149440E-17
   30.38578        1.1157446E-17
   30.52870        1.1168043E-17
   30.67161        1.1179100E-17
   30.81452        1.1188545E-17
   30.95743        1.1194836E-17
   31.10034        1.1197275E-17
   31.24325        1.1196137E-17
   31.38617        1.1192558E-17
   31.52908        1.1188242E-17
   31.67199        1.1185040E-17
   31.81490        1.1184503E-17
   31.95781        1.1187522E-17
   32.10072        1.1194117E-17
   32.24364        1.1203435E-17
   32.38655        1.1213943E-17
   32.52946        1.1223772E-17
   32.67237        1.1231137E-17
   32.81528        1.1234732E-17
   32.95819        1.1234006E-17
   33.10111        1.1229289E-17
   33.24402        1.1221708E-17
   33.38693        1.1212939E-17
   33.52984        1.1204847E-17
   33.67275        1.1199097E-17
   33.81567        1.1196809E-17
   33.95858        1.1198350E-17
   34.10149        1.1203291E-17
   34.24440        1.1210531E-17
   34.38731        1.1218564E-17
   34.53022        1.1225829E-17
   34.67313        1.1231044E-17
   34.81605        1.1233481E-17
   34.95896        1.1233100E-17
   35.10187        1.1230533E-17
   35.24478        1.1226912E-17
   35.38770        1.1223607E-17
   35.53061        1.1221899E-17
   35.67352        1.1222701E-17
   35.81643        1.1226356E-17
   35.95934        1.1232568E-17
   36.10225        1.1240475E-17
   36.24516        1.1248847E-17
   36.38808        1.1256347E-17
   36.53099        1.1261832E-17
   36.67390        1.1264577E-17
   36.81681        1.1264422E-17
   36.95972        1.1261794E-17
   37.10263        1.1257588E-17
   37.24555        1.1252972E-17
   37.38846        1.1249121E-17
   37.53137        1.1246973E-17
   37.67428        1.1247034E-17
   37.81719        1.1249292E-17
   37.96011        1.1253236E-17
   38.10302        1.1257994E-17
   38.24593        1.1262539E-17
   38.38884        1.1265920E-17
   38.53175        1.1267481E-17
   38.67466        1.1267004E-17
   38.81758        1.1264750E-17
   38.96049        1.1261404E-17
   39.10340        1.1257919E-17
   39.24631        1.1255312E-17
   39.38922        1.1254447E-17
   39.53214        1.1255849E-17
   39.67505        1.1259602E-17
   39.81796        1.1265333E-17
   39.96087        1.1272294E-17
   40.10378        1.1279523E-17
   40.24669        1.1286043E-17
   40.38961        1.1291065E-17
   40.53252        1.1294131E-17
   40.67543        1.1295202E-17
   40.81834        1.1294644E-17
   40.96125        1.1293133E-17
   41.10416        1.1291496E-17
   41.24707        1.1290527E-17
   41.38999        1.1290818E-17
   41.53290        1.1292630E-17
   41.67581        1.1295849E-17
   41.81872        1.1300024E-17
   41.96163        1.1304468E-17
   42.10455        1.1308418E-17
   42.24746        1.1311213E-17
   42.39037        1.1312435E-17
   42.53328        1.1312009E-17
   42.67619        1.1310222E-17
   42.81910        1.1307665E-17
   42.96202        1.1305108E-17
   43.10493        1.1303341E-17
   43.24784        1.1303008E-17
   43.39075        1.1304466E-17
   43.53366        1.1307719E-17
   43.67657        1.1312410E-17
   43.81948        1.1317895E-17
   43.96240        1.1323384E-17
   44.10531        1.1328091E-17
   44.24822        1.1331405E-17
   44.39113        1.1333005E-17
   44.53405        1.1332916E-17
   44.67696        1.1331501E-17
   44.81987        1.1329368E-17
   44.96278        1.1327238E-17
   45.10569        1.1325781E-17
   45.24860        1.1325481E-17
   45.39151        1.1326529E-17
   45.53443        1.1328791E-17
   45.67734        1.1331846E-17
   45.82025        1.1335085E-17
   45.96316        1.1337859E-17
   46.10608        1.1339622E-17
   46.24899        1.1340066E-17
   46.39190        1.1339189E-17
   46.53481        1.1337299E-17
   46.67772        1.1334954E-17
   46.82063        1.1332837E-17
   46.96354        1.1331603E-17
   47.10646        1.1331748E-17
   47.24937        1.1333485E-17
   47.39228        1.1336709E-17
   47.53519        1.1341019E-17
   47.67810        1.1345809E-17
   47.82101        1.1350402E-17
   47.96392        1.1354204E-17
   48.10684        1.1356830E-17
   48.24975        1.1358188E-17
   48.39266        1.1358492E-17
   48.53557        1.1358206E-17
   48.67849        1.1357935E-17
   48.82140        1.1358278E-17
   48.96431        1.1359686E-17
   49.10722        1.1362363E-17
   49.25013        1.1366208E-17
   49.39304        1.1370842E-17
   49.53595        1.1375694E-17
   49.67887        1.1380119E-17
   49.82178        1.1383553E-17
   49.96469        1.1385626E-17
   50.10760        1.1386244E-17
   50.25051        1.1385603E-17
   50.39342        1.1384138E-17
   50.53634        1.1382419E-17
   50.67925        1.1381030E-17
   50.82216        1.1380434E-17
   50.96507        1.1380891E-17
   51.10798        1.1382404E-17
   51.25090        1.1384747E-17
   51.39381        1.1387527E-17
   51.53672        1.1390293E-17
   51.67963        1.1392639E-17
   51.82254        1.1394296E-17
   51.96545        1.1395190E-17
   52.10837        1.1395434E-17
   52.25128        1.1395286E-17
   52.39419        1.1395076E-17
   52.53710        1.1395108E-17
   52.68001        1.1395588E-17
   52.82293        1.1396572E-17
   52.96584        1.1397966E-17
   53.10875        1.1399553E-17
   53.25166        1.1401059E-17
   53.39457        1.1402227E-17
   53.53748        1.1402882E-17
   53.68040        1.1402970E-17
   53.82331        1.1402573E-17
   53.96622        1.1401875E-17
   54.10913        1.1401119E-17
   54.25204        1.1400544E-17
   54.39495        1.1400339E-17
   54.53786        1.1400608E-17
   54.68078        1.1401369E-17
   54.82369        1.1402574E-17
   54.96660        1.1404148E-17
   55.10951        1.1406021E-17
   55.25242        1.1408161E-17
   55.39534        1.1410576E-17
   55.53825        1.1413299E-17
   55.68116        1.1416354E-17
   55.82407        1.1419718E-17
   55.96698        1.1423291E-17
   56.10989        1.1426893E-17
   56.25281        1.1430279E-17
   56.39572        1.1433190E-17
   56.53863        1.1435410E-17
   56.68154        1.1436832E-17
   56.82445        1.1437483E-17
   56.96737        1.1437550E-17
   57.11028        1.1437322E-17
   57.25319        1.1437143E-17
   57.39610        1.1437309E-17
   57.53901        1.1438000E-17
   57.68192        1.1439212E-17
   57.82484        1.1440759E-17
   57.96775        1.1442303E-17
   58.11066        1.1443442E-17
   58.25357        1.1443825E-17
   58.39648        1.1443253E-17
   58.53939        1.1441754E-17
   58.68230        1.1439602E-17
   58.82522        1.1437272E-17
   58.96813        1.1435332E-17
   59.11104        1.1434311E-17
   59.25395        1.1434551E-17
   59.39687        1.1436107E-17
   59.53978        1.1438708E-17
   59.68269        1.1441799E-17
   59.82560        1.1444659E-17
   59.96851        1.1446572E-17
   60.11142        1.1447010E-17
   60.25433        1.1445775E-17
   60.39725        1.1443083E-17
   60.54016        1.1439534E-17
   60.68307        1.1436003E-17
   60.82598        1.1433439E-17
   60.96889        1.1432649E-17
   61.11180        1.1434096E-17
   61.25471        1.1437774E-17
   61.39763        1.1443184E-17
   61.54054        1.1449439E-17
   61.68345        1.1455448E-17
   61.82636        1.1460176E-17
   61.96928        1.1462886E-17
   62.11219        1.1463317E-17
   62.25510        1.1461764E-17
   62.39801        1.1459012E-17
   62.54092        1.1456160E-17
   62.68383        1.1454362E-17
   62.82674        1.1454539E-17
   62.96966        1.1457150E-17
   63.11257        1.1462067E-17
   63.25548        1.1468582E-17
   63.39839        1.1475564E-17
   63.54131        1.1481716E-17
   63.68422        1.1485887E-17
   63.82713        1.1487348E-17
   63.97004        1.1485983E-17
   64.11295        1.1482329E-17
   64.25586        1.1477467E-17
   64.39877        1.1472774E-17
   64.54169        1.1469604E-17
   64.68460        1.1468958E-17
   64.82751        1.1471246E-17
   64.97042        1.1476171E-17
   65.11333        1.1482790E-17
   65.25625        1.1489726E-17
   65.39915        1.1495495E-17
   65.54207        1.1498852E-17
   65.68498        1.1499098E-17
   65.82789        1.1496260E-17
   65.97080        1.1491095E-17
   66.11372        1.1484929E-17
   66.25663        1.1479348E-17
   66.39954        1.1475831E-17
   66.54245        1.1475394E-17
   66.68536        1.1478348E-17
   66.82828        1.1484208E-17
   66.97118        1.1491805E-17
   67.11410        1.1499542E-17
   67.25701        1.1505770E-17
   67.39992        1.1509174E-17
   67.54283        1.1509087E-17
   67.68575        1.1505645E-17
   67.82866        1.1499771E-17
   67.97157        1.1492959E-17
   68.11448        1.1486926E-17
   68.25739        1.1483208E-17
   68.40031        1.1482797E-17
   68.54321        1.1485898E-17
   68.68613        1.1491875E-17
   68.82904        1.1499392E-17
   68.97195        1.1506723E-17
   69.11486        1.1512154E-17
   69.25777        1.1514392E-17
   69.40069        1.1512876E-17
   69.54359        1.1507923E-17
   69.68651        1.1500670E-17
   69.82942        1.1492826E-17
   69.97233        1.1486282E-17
   70.11524        1.1482686E-17
   70.25816        1.1483057E-17
   70.40107        1.1487556E-17
   70.54398        1.1495437E-17
   70.68689        1.1505214E-17
   70.82980        1.1515002E-17
   70.97272        1.1522939E-17
   71.11562        1.1527612E-17
   71.25854        1.1528380E-17
   71.40145        1.1525510E-17
   71.54436        1.1520116E-17
   71.68727        1.1513896E-17
   71.83018        1.1508733E-17
   71.97310        1.1506262E-17
   72.11600        1.1507480E-17
   72.25892        1.1512519E-17
   72.40183        1.1520605E-17
   72.54475        1.1530238E-17
   72.68765        1.1539527E-17
   72.83057        1.1546630E-17
   72.97348        1.1550174E-17
   73.11639        1.1549571E-17
   73.25930        1.1545153E-17
   73.40221        1.1538107E-17
   73.54513        1.1530190E-17
   73.68803        1.1523341E-17
   73.83095        1.1519233E-17
   73.97386        1.1518889E-17
   74.11678        1.1522451E-17
   74.25968        1.1529145E-17
   74.40260        1.1537460E-17
   74.54551        1.1545493E-17
   74.68842        1.1551389E-17
   74.83133        1.1553765E-17
   74.97424        1.1552036E-17
   75.11716        1.1546547E-17
   75.26006        1.1538510E-17
   75.40298        1.1529726E-17
   75.54589        1.1522186E-17
   75.68880        1.1517615E-17
   75.83171        1.1517084E-17
   75.97462        1.1520764E-17
   76.11754        1.1527882E-17
   76.26044        1.1536892E-17
   76.40336        1.1545825E-17
   76.54627        1.1552724E-17
   76.68919        1.1556095E-17
   76.83209        1.1555245E-17
   76.97501        1.1550441E-17
   77.11792        1.1542859E-17
   77.26083        1.1534331E-17
   77.40374        1.1526939E-17
   77.54665        1.1522552E-17
   77.68957        1.1522422E-17
   77.83247        1.1526892E-17
   77.97539        1.1535332E-17
   78.11830        1.1546272E-17
   78.26122        1.1557723E-17
   78.40412        1.1567621E-17
   78.54704        1.1574272E-17
   78.68995        1.1576715E-17
   78.83286        1.1574929E-17
   78.97577        1.1569817E-17
   79.11868        1.1562984E-17
   79.26160        1.1556365E-17
   79.40450        1.1551778E-17
   79.54742        1.1550504E-17
   79.69033        1.1552996E-17
   79.83324        1.1558769E-17
   79.97615        1.1566516E-17
   80.11906        1.1574408E-17
   80.26198        1.1580513E-17
   80.40488        1.1583247E-17
   80.54780        1.1581751E-17
   80.69071        1.1576104E-17
   80.83363        1.1567328E-17
   80.97653        1.1557179E-17
   81.11945        1.1547768E-17
   81.26236        1.1541103E-17
   81.40527        1.1538640E-17
   81.54818        1.1540952E-17
   81.69109        1.1547600E-17
   81.83401        1.1557217E-17
   81.97691        1.1567801E-17
   82.11983        1.1577156E-17
   82.26274        1.1583377E-17
   82.40565        1.1585264E-17
   82.54856        1.1582603E-17
   82.69147        1.1576200E-17
   82.83439        1.1567715E-17
   82.97730        1.1559282E-17
   83.12021        1.1553036E-17
   83.26312        1.1550622E-17
   83.40604        1.1552823E-17
   83.54894        1.1559373E-17
   83.69186        1.1569008E-17
   83.83477        1.1579739E-17
   83.97768        1.1589295E-17
   84.12059        1.1595644E-17
   84.26350        1.1597448E-17
   84.40642        1.1594386E-17
   84.54933        1.1587239E-17
   84.69224        1.1577735E-17
   84.83515        1.1568171E-17
   84.97807        1.1560910E-17
   85.12097        1.1557841E-17
   85.26389        1.1559954E-17
   85.40680        1.1567097E-17
   85.54971        1.1577997E-17
   85.69262        1.1590525E-17
   85.83553        1.1602161E-17
   85.97845        1.1610552E-17
   86.12135        1.1614039E-17
   86.26427        1.1612033E-17
   86.40718        1.1605150E-17
   86.55009        1.1595084E-17
   86.69300        1.1584232E-17
   86.83591        1.1575149E-17
   86.97883        1.1569973E-17
   87.12174        1.1569937E-17
   87.26465        1.1575079E-17
   87.40756        1.1584234E-17
   87.55048        1.1595282E-17
   87.69338        1.1605642E-17
   87.83630        1.1612856E-17
   87.97921        1.1615172E-17
   88.12212        1.1611948E-17
   88.26503        1.1603829E-17
   88.40794        1.1592615E-17
   88.55086        1.1580859E-17
   88.69377        1.1571304E-17
   88.83668        1.1566242E-17
   88.97959        1.1566993E-17
   89.12251        1.1573582E-17
   89.26541        1.1584720E-17
   89.40833        1.1598085E-17
   89.55124        1.1610842E-17
   89.69415        1.1620289E-17
   89.83706        1.1624480E-17
   89.97997        1.1622676E-17
   90.12289        1.1615529E-17
   90.26580        1.1604940E-17
   90.40871        1.1593623E-17
   90.55162        1.1584487E-17
   90.69453        1.1579950E-17
   90.83744        1.1581373E-17
   90.98035        1.1588719E-17
   91.12327        1.1600545E-17
   91.26618        1.1614306E-17
   91.40909        1.1626938E-17
   91.55200        1.1635546E-17
   91.69492        1.1638086E-17
   91.83783        1.1633843E-17
   91.98074        1.1623615E-17
   92.12365        1.1609554E-17
   92.26656        1.1594696E-17
   92.40947        1.1582275E-17
   92.55238        1.1575003E-17
   92.69530        1.1574448E-17
   92.83821        1.1580689E-17
   92.98112        1.1592295E-17
   93.12403        1.1606665E-17
   93.26694        1.1620625E-17
   93.40986        1.1631163E-17
   93.55276        1.1636125E-17
   93.69568        1.1634712E-17
   93.83859        1.1627656E-17
   93.98150        1.1617044E-17
   94.12441        1.1605822E-17
   94.26733        1.1597099E-17
   94.41024        1.1593407E-17
   94.55315        1.1596093E-17
   94.69606        1.1604992E-17
   94.83897        1.1618447E-17
   94.98188        1.1633680E-17
   95.12479        1.1647434E-17
   95.26771        1.1656720E-17
   95.41062        1.1659519E-17
   95.55353        1.1655254E-17
   95.69644        1.1644936E-17
   95.83936        1.1630937E-17
   95.98227        1.1616450E-17
   96.12518        1.1604758E-17
   96.26809        1.1598477E-17
   96.41100        1.1598947E-17
   96.55391        1.1605929E-17
   96.69682        1.1617654E-17
   96.83974        1.1631237E-17
   96.98265        1.1643340E-17
   97.12556        1.1650944E-17
   97.26847        1.1652055E-17
   97.41138        1.1646160E-17
   97.55430        1.1634352E-17
   97.69720        1.1619085E-17
   97.84012        1.1603606E-17
   97.98303        1.1591217E-17
   98.12594        1.1584521E-17
   98.26885        1.1584828E-17
   98.41177        1.1591875E-17
   98.55468        1.1603891E-17
   98.69759        1.1618021E-17
   98.84050        1.1630999E-17
   98.98341        1.1639899E-17
   99.12633        1.1642814E-17
   99.26923        1.1639291E-17
   99.41215        1.1630421E-17
   99.55506        1.1618573E-17
   99.69797        1.1606835E-17
   99.84088        1.1598285E-17
   99.98380        1.1595270E-17
   100.1267        1.1598863E-17
   100.2696        1.1608608E-17
   100.4125        1.1622631E-17
   100.5554        1.1638068E-17
   100.6984        1.1651728E-17
   100.8413        1.1660824E-17
   100.9842        1.1663604E-17
   101.1271        1.1659738E-17
   101.2700        1.1650373E-17
   101.4129        1.1637845E-17
   101.5558        1.1625114E-17
   101.6987        1.1615060E-17
   101.8416        1.1609806E-17
   101.9846        1.1610215E-17
   102.1275        1.1615694E-17
   102.2704        1.1624328E-17
   102.4133        1.1633344E-17
   102.5562        1.1639757E-17
   102.6991        1.1641086E-17
   102.8420        1.1635948E-17
   102.9849        1.1624411E-17
   103.1279        1.1608015E-17
   103.2708        1.1589470E-17
   103.4137        1.1572086E-17
   103.5566        1.1559080E-17
   103.6995        1.1552906E-17
   103.8424        1.1554772E-17
   103.9853        1.1564432E-17
   104.1282        1.1580307E-17
   104.2711        1.1599889E-17
   104.4141        1.1620343E-17
   104.5570        1.1639143E-17
   104.6999        1.1654610E-17
   104.8428        1.1666215E-17
   104.9857        1.1674595E-17
   105.1286        1.1681267E-17
   105.2715        1.1688123E-17
   105.4144        1.1696824E-17
   105.5574        1.1708242E-17
   105.7003        1.1722086E-17
   105.8432        1.1736795E-17
   105.9861        1.1749748E-17
   106.1290        1.1757725E-17
   106.2719        1.1757537E-17
   106.4148        1.1746690E-17
   106.5577        1.1723924E-17
   106.7006        1.1689529E-17
   106.8436        1.1645369E-17
   106.9865        1.1594611E-17
   107.1294        1.1541235E-17
   107.2723        1.1489421E-17
   107.4152        1.1442967E-17
   107.5581        1.1404832E-17
   107.7010        1.1376918E-17
   107.8439        1.1360096E-17
   107.9869        1.1354456E-17
   108.1298        1.1359691E-17
   108.2727        1.1375504E-17
   108.4156        1.1401918E-17
   108.5585        1.1439394E-17
   108.7014        1.1488731E-17
   108.8443        1.1550733E-17
   108.9872        1.1625732E-17
   109.1301        1.1713069E-17
   109.2731        1.1810661E-17
   109.4160        1.1914750E-17
   109.5589        1.2019926E-17
   109.7018        1.2119431E-17
   109.8447        1.2205721E-17
   109.9876        1.2271177E-17
   110.1305        1.2308885E-17
   110.2734        1.2313319E-17
   110.4164        1.2280871E-17
   110.5593        1.2210137E-17
   110.7022        1.2101949E-17
   110.8451        1.1959206E-17
   110.9880        1.1786564E-17
   111.1309        1.1590077E-17
   111.2738        1.1376873E-17
   111.4167        1.1154931E-17
   111.5596        1.0932955E-17
   111.7026        1.0720348E-17
   111.8455        1.0527202E-17
   111.9884        1.0364217E-17
   112.1313        1.0242495E-17
   112.2742        1.0173119E-17
   112.4171        1.0166510E-17
   112.5600        1.0231596E-17
   112.7029        1.0374857E-17
   112.8458        1.0599363E-17
   112.9888        1.0903933E-17
   113.1317        1.1282542E-17
   113.2746        1.1724059E-17
   113.4175        1.2212392E-17
   113.5604        1.2727018E-17
   113.7033        1.3243872E-17
   113.8462        1.3736505E-17
   113.9891        1.4177409E-17
   114.1321        1.4539405E-17
   114.2750        1.4796989E-17
   114.4179        1.4927611E-17
   114.5608        1.4912793E-17
   114.7037        1.4739148E-17
   114.8466        1.4399256E-17
   114.9895        1.3892431E-17
   115.1324        1.3225381E-17
   115.2754        1.2412728E-17
   115.4183        1.1477311E-17
   115.5612        1.0450234E-17
   115.7041        9.3705104E-18
   115.8470        8.2842477E-18
   115.9899        7.2432964E-18
   116.1328        6.3033148E-18
   116.2757        5.5213214E-18
   116.4186        4.9527886E-18
   116.5616        4.6484618E-18
   116.7045        4.6510877E-18
   116.8474        4.9922712E-18
   116.9903        5.6897023E-18
   117.1332        6.7449308E-18
   117.2761        8.1418726E-18
   117.4190        9.8461294E-18
   117.5619        1.1805200E-17
   117.7048        1.3949561E-17
   117.8478        1.6194598E-17
   117.9907        1.8443314E-17
   118.1336        2.0589743E-17
   118.2765        2.2522998E-17
   118.4194        2.4131825E-17
   118.5623        2.5309612E-17
   118.7052        2.5959692E-17
   118.8481        2.6000767E-17
   118.9911        2.5372276E-17
   119.1340        2.4039414E-17
   119.2769        2.1997477E-17
   119.4198        1.9275265E-17
   119.5627        1.5937115E-17
   119.7056        1.2083353E-17
   119.8485        7.8488695E-18
   119.9914        3.3997469E-18
   120.1343       -1.0721082E-18
   120.2773       -5.3561624E-18
   120.4202       -9.2320445E-18
   120.5631       -1.2479537E-17
   120.7060       -1.4889329E-17
   120.8489       -1.6274036E-17
   120.9918       -1.6478922E-17
   121.1347       -1.5391867E-17
   121.2776       -1.2952059E-17
   121.4206       -9.1569556E-18
   121.5635       -4.0671586E-18
   121.7064        2.1911975E-18
   121.8493        9.4267992E-18
   121.9922        1.7386501E-17
   122.1351        2.5761776E-17
   122.2780        3.4198360E-17
   122.4209        4.2308882E-17
   122.5639        4.9688306E-17