  -7.200000        4.0728486E-20
  -7.057088        4.0786124E-20
  -6.914176        4.0899693E-20
  -6.771265        4.1066144E-20
  -6.628353        4.1284303E-20
  -6.485441        4.1553628E-20
  -6.342530        4.1872500E-20
  -6.199618        4.2235377E-20
  -6.056706        4.2630346E-20
  -5.913795        4.3035054E-20
  -5.770883        4.3415505E-20
  -5.627971        4.3730564E-20
  -5.485059        4.3935449E-20
  -5.342147        4.3994506E-20
  -5.199236        4.3887799E-20
  -5.056324        4.3622833E-20
  -4.913413        4.3236391E-20
  -4.770501        4.2794050E-20
  -4.627589        4.2380715E-20
  -4.484677        4.2084998E-20
  -4.341765        4.1980069E-20
  -4.198854        4.2109891E-20
  -4.055942        4.2476820E-20
  -3.913030        4.3038899E-20
  -3.770118        4.3719739E-20
  -3.627207        4.4422042E-20
  -3.484295        4.5049616E-20
  -3.341383        4.5526738E-20
  -3.198472        4.5814972E-20
  -3.055560        4.5914059E-20
  -2.912648        4.5860816E-20
  -2.769737        4.5713380E-20
  -2.626825        4.5531427E-20
  -2.483913        4.5358672E-20
  -2.341001        4.5209430E-20
  -2.198090        4.5068693E-20
  -2.055178        4.4900369E-20
  -1.912266        4.4666470E-20
  -1.769354        4.4345120E-20
  -1.626443        4.3950452E-20
  -1.483531        4.3539763E-20
  -1.340619        4.3207359E-20
  -1.197708        4.3066257E-20
  -1.054796        4.3219538E-20
 -0.9118841        4.3729591E-20
 -0.7689723        4.4593113E-20
 -0.6260606        4.5731175E-20
 -0.4831489        4.6994438E-20
 -0.3402372        4.8192160E-20
 -0.1973254        4.9128024E-20
 -5.4413714E-02    4.9642117E-20
  8.8498011E-02    4.9648453E-20
  0.2314097        4.9154239E-20
  0.3743215        4.8258037E-20
  0.5172332        4.7127859E-20
  0.6601449        4.5961771E-20
  0.8030567        4.4942477E-20
  0.9459684        4.4197646E-20
   1.088880        4.3776673E-20
   1.231792        4.3646582E-20
   1.374704        4.3714864E-20
   1.517615        4.3864541E-20
   1.660527        4.3998784E-20
   1.803439        4.4075246E-20
   1.946350        4.4124780E-20
   2.089262        4.4245410E-20
   2.232174        4.4571454E-20
   2.375086        4.5230869E-20
   2.517997        4.6294898E-20
   2.660909        4.7740677E-20
   2.803821        4.9435903E-20
   2.946733        5.1152083E-20
   3.089644        5.2604965E-20
   3.232556        5.3516001E-20
   3.375468        5.3674848E-20
   3.518379        5.2994544E-20
   3.661291        5.1533436E-20
   3.804203        4.9491609E-20
   3.947115        4.7168905E-20
   4.090026        4.4901512E-20
   4.232938        4.2994997E-20
   4.375850        4.1661659E-20
   4.518762        4.0987869E-20
   4.661673        4.0930693E-20
   4.804585        4.1349676E-20
   4.947497        4.2060250E-20
   5.090408        4.2891376E-20
   5.233320        4.3738125E-20
   5.376232        4.4583122E-20
   5.519144        4.5489525E-20
   5.662055        4.6563279E-20
   5.804967        4.7895641E-20
   5.947879        4.9506769E-20
   6.090790        5.1305361E-20
   6.233702        5.3079530E-20
   6.376614        5.4525122E-20
   6.519526        5.5306330E-20
   6.662437        5.5134703E-20
   6.805349        5.3846944E-20
   6.948261        5.1458922E-20
   7.091173        4.8183959E-20
   7.234084        4.4404723E-20
   7.376996        4.0605734E-20
   7.519908        3.7284614E-20
   7.662819        3.4859323E-20
   7.805731        3.3592018E-20
   7.948643        3.3556013E-20
   8.091555        3.4642754E-20
   8.234467        3.6607460E-20
   8.377378        3.9142093E-20
   8.520289        4.1949066E-20
   8.663201        4.4800936E-20
   8.806113        4.7563871E-20
   8.949025        5.0188644E-20
   9.091937        5.2665911E-20
   9.234848        5.4966947E-20
   9.377760        5.6994153E-20
   9.520672        5.8551960E-20
   9.663584        5.9358352E-20
   9.806496        5.9098811E-20
   9.949407        5.7503412E-20
   10.09232        5.4437868E-20
   10.23523        4.9977406E-20
   10.37814        4.4440392E-20
   10.52105        3.8371367E-20
   10.66397        3.2473279E-20
   10.80688        2.7494863E-20
   10.94979        2.4104925E-20
   11.09270        2.2774080E-20
   11.23561        2.3697188E-20
   11.37852        2.6763459E-20
   11.52144        3.1589549E-20
   11.66435        3.7597837E-20
   11.80726        4.4122644E-20
   11.95017        5.0516091E-20
   12.09308        5.6235538E-20
   12.23599        6.0888080E-20
   12.37891        6.4234290E-20
   12.52182        6.6156529E-20
   12.66473        6.6613514E-20
   12.80764        6.5594195E-20
   12.95055        6.3098016E-20
   13.09346        5.9146309E-20
   13.23638        5.3819353E-20
   13.37929        4.7313920E-20
   13.52220        3.9993330E-20
   13.66511        3.2409421E-20
   13.80802        2.5281756E-20
   13.95094        1.9426235E-20
   14.09385        1.5639601E-20
   14.23676        1.4567937E-20
   14.37967        1.6576150E-20
   14.52258        2.1658461E-20
   14.66549        2.9407731E-20
   14.80841        3.9048621E-20
   14.95132        4.9544490E-20
   15.09423        5.9739695E-20
   15.23714        6.8525613E-20
   15.38005        7.4991031E-20
   15.52296        7.8523176E-20
   15.66588        7.8860763E-20
   15.80879        7.6085152E-20
   15.95170        7.0559986E-20
   16.09461        6.2849642E-20
   16.23752        5.3630100E-20
   16.38043        4.3617114E-20
   16.52335        3.3523569E-20
   16.66626        2.4039117E-20
   16.80917        1.5828998E-20
   16.95208        9.5309002E-21
   17.09499        5.7377323E-21
   17.23791        4.9503629E-21
   17.38082        7.5076092E-21
   17.52373        1.3502875E-20
   17.66664        2.2707449E-20
   17.80955        3.4524031E-20
   17.95246        4.7994396E-20
   18.09538        6.1869601E-20
   18.23829        7.4741966E-20
   18.38120        8.5220916E-20
   18.52411        9.2122032E-20
   18.66702        9.4638322E-20
   18.80993        9.2457486E-20
   18.95285        8.5808447E-20
   19.09576        7.5423479E-20
   19.23867        6.2429673E-20
   19.38158        4.8190631E-20
   19.52449        3.4127071E-20
   19.66740        2.1552856E-20
   19.81032        1.1545695E-20
   19.95323        4.8705113E-21
   20.09614        1.9526239E-21
   20.23905        2.8955411E-21
   20.38196        7.5165595E-21
   20.52488        1.5390333E-20
   20.66779        2.5889910E-20
   20.81070        3.8208813E-20
   20.95361        5.1385742E-20
   21.09652        6.4332001E-20
   21.23943        7.5885336E-20
   21.38235        8.4889856E-20
   21.52526        9.0313111E-20
   21.66817        9.1376096E-20
   21.81108        8.7687006E-20
   21.95399        7.9340747E-20
   22.09690        6.6964878E-20
   22.23981        5.1691082E-20
   22.38273        3.5046033E-20
   22.52564        1.8773286E-20
   22.66855        4.6197399E-21
   22.81146       -5.8887448E-21
   22.95437       -1.1637779E-20
   23.09729       -1.2052256E-20
   23.24020       -7.1432983E-21
   23.38311        2.5255284E-21
   23.52602        1.5941792E-20
   23.66893        3.1789052E-20
   23.81184        4.8608383E-20
   23.95476        6.4945853E-20
   24.09767        7.9469994E-20
   24.24058        9.1056843E-20
   24.38349        9.8840464E-20
   24.52640        1.0224471E-19
   24.66932        1.0100326E-19
   24.81223        9.5183537E-20
   24.95514        8.5205445E-20
   25.09805        7.1846821E-20
   25.24096        5.6230103E-20
   25.38387        3.9761112E-20
   25.52678        2.4027915E-20
   25.66970        1.0645309E-20
   25.81261        1.0730992E-21
   25.95552       -3.5737785E-21
   26.09843       -2.6883196E-21
   26.24134        3.7252370E-21
   26.38426        1.5028348E-20
   26.52717        3.0013806E-20
   26.67008        4.7055801E-20
   26.81299        6.4314184E-20
   26.95590        7.9963110E-20
   27.09881        9.2405988E-20
   27.24173        1.0044501E-19
   27.38464        1.0338827E-19
   27.52755        1.0107811E-19
   27.67046        9.3864352E-20
   27.81337        8.2524921E-20
   27.95629        6.8160781E-20
   28.09920        5.2083563E-20
   28.24211        3.5707684E-20
   28.38502        2.0448956E-20
   28.52793        7.6330046E-21
   28.67084       -1.5973640E-21
   28.81376       -6.3742792E-21
   28.95667       -6.1899634E-21
   29.09958       -9.7084579E-22
   29.24249        8.8770212E-21
   29.38540        2.2469154E-20
   29.52831        3.8500627E-20
   29.67122        5.5364698E-20
   29.81414        7.1323771E-20
   29.95705        8.4712019E-20
   30.09996        9.4136042E-20
   30.24287        9.8649993E-20
   30.38578        9.7868165E-20
   30.52870        9.2007358E-20
   30.67161        8.1842730E-20
   30.81452        6.8599478E-20
   30.95743        5.3791041E-20
   31.10034        3.9034989E-20
   31.24325        2.5878127E-20
   31.38617        1.5639589E-20
   31.52908        9.3001823E-21
   31.67199        7.4334594E-21
   31.81490        1.0176742E-20
   31.95781        1.7241003E-20
   32.10072        2.7949903E-20
   32.24364        4.1297771E-20
   32.38655        5.6036116E-20
   32.52946        7.0777657E-20
   32.67237        8.4115648E-20
   32.81528        9.4758890E-20
   32.95819        1.0165972E-19
   33.10111        1.0413735E-19
   33.24402        1.0195890E-19
   33.38693        9.5378952E-20
   33.52984        8.5118016E-20
   33.67275        7.2285110E-20
   33.81567        5.8248611E-20
   33.95858        4.4479078E-20
   34.10149        3.2376689E-20
   34.24440        2.3121461E-20
   34.38731        1.7550328E-20
   34.53022        1.6085955E-20
   34.67313        1.8714322E-20
   34.81605        2.5010732E-20
   34.95896        3.4203056E-20
   35.10187        4.5262447E-20
   35.24478        5.7008402E-20
   35.38770        6.8221514E-20
   35.53061        7.7755398E-20
   35.67352        8.4642478E-20
   35.81643        8.8183735E-20
   35.95934        8.8024205E-20
   36.10225        8.4196763E-20
   36.24516        7.7125952E-20
   36.38808        6.7589535E-20
   36.53099        5.6637851E-20
   36.67390        4.5470577E-20
   36.81681        3.5293845E-20
   36.95972        2.7174444E-20
   37.10263        2.1911467E-20
   37.24555        1.9950519E-20
   37.38846        2.1344585E-20
   37.53137        2.5777735E-20
   37.67428        3.2627525E-20
   37.81719        4.1063236E-20
   37.96011        5.0159819E-20
   38.10302        5.9001694E-20
   38.24593        6.6768035E-20
   38.38884        7.2796146E-20
   38.53175        7.6616906E-20
   38.67466        7.7975008E-20
   38.81758        7.6834810E-20
   38.96049        7.3381228E-20
   39.10340        6.8009762E-20
   39.24631        6.1308430E-20
   39.38922        5.4014484E-20
   39.53214        4.6951395E-20
   39.67505        4.0942768E-20
   39.81796        3.6708822E-20
   39.96087        3.4761315E-20
   40.10378        3.5322383E-20
   40.24669        3.8279259E-20
   40.38961        4.3193824E-20
   40.53252        4.9368572E-20
   40.67543        5.5954167E-20
   40.81834        6.2086561E-20
   40.96125        6.7020584E-20
   41.10416        7.0233340E-20
   41.24707        7.1483365E-20
   41.38999        7.0810796E-20
   41.53290        6.8490981E-20
   41.67581        6.4952057E-20
   41.81872        6.0687463E-20
   41.96163        5.6175012E-20
   42.10455        5.1829421E-20
   42.24746        4.7979936E-20
   42.39037        4.4880477E-20
   42.53328        4.2726764E-20
   42.67619        4.1672400E-20
   42.81910        4.1824203E-20
   42.96202        4.3225380E-20
   43.10493        4.5820155E-20
   43.24784        4.9421935E-20
   43.39075        5.3697719E-20
   43.53366        5.8185577E-20
   43.67657        6.2346658E-20
   43.81948        6.5647341E-20
   43.96240        6.7654650E-20
   44.10531        6.8122556E-20
   44.24822        6.7043486E-20
   44.39113        6.4651868E-20
   44.53405        6.1378159E-20
   44.67696        5.7762487E-20
   44.81987        5.4342115E-20
   44.96278        5.1553227E-20
   45.10569        4.9655474E-20
   45.24860        4.8705836E-20
   45.39151        4.8580372E-20
   45.53443        4.9035186E-20
   45.67734        4.9782401E-20
   45.82025        5.0569871E-20
   45.96316        5.1229509E-20
   46.10608        5.1696727E-20
   46.24899        5.1992095E-20
   46.39190        5.2180143E-20
   46.53481        5.2321620E-20
   46.67772        5.2434637E-20
   46.82063        5.2481366E-20
   46.96354        5.2380362E-20
   47.10646        5.2039118E-20
   47.24937        5.1395303E-20
   47.39228        5.0453213E-20
   47.53519        4.9297845E-20
   47.67810        4.8086077E-20
   47.82101        4.7013185E-20
   47.96392        4.6266325E-20
   48.10684        4.5980082E-20
   48.24975        4.6206632E-20
   48.39266        4.6906640E-20
   48.53557        4.7967612E-20
   48.67849        4.9239739E-20
   48.82140        5.0577723E-20
   48.96431        5.1876351E-20
   49.10722        5.3089428E-20
   49.25013        5.4223951E-20
   49.39304        5.5315900E-20
   49.53595        5.6398092E-20
   49.67887        5.7461840E-20
   49.82178        5.8439024E-20
   49.96469        5.9197329E-20
   50.10760        5.9560520E-20
   50.25051        5.9345285E-20
   50.39342        5.8406913E-20
   50.53634        5.6673129E-20
   50.67925        5.4176320E-20
   50.82216        5.1056735E-20
   50.96507        4.7552281E-20
   51.10798        4.3966462E-20
   51.25090        4.0632075E-20
   51.39381        3.7869653E-20
   51.53672        3.5951127E-20
   51.67963        3.5070167E-20
   51.82254        3.5325960E-20
   51.96545        3.6711713E-20
   52.10837        3.9114373E-20
   52.25128        4.2322402E-20
   52.39419        4.6038818E-20
   52.53710        4.9906191E-20
   52.68001        5.3538832E-20
   52.82293        5.6563160E-20
   52.96584        5.8660482E-20
   53.10875        5.9610461E-20
   53.25166        5.9323571E-20
   53.39457        5.7859843E-20
   53.53748        5.5428074E-20
   53.68040        5.2364565E-20
   53.82331        4.9094103E-20
   53.96622        4.6077628E-20
   54.10913        4.3755793E-20
   54.25204        4.2495532E-20
   54.39495        4.2547912E-20
   54.53786        4.4016723E-20
   54.68078        4.6845335E-20
   54.82369        5.0819760E-20
   54.96660        5.5583170E-20
   55.10951        6.0664496E-20
   55.25242        6.5521474E-20
   55.39534        6.9591455E-20
   55.53825        7.2350832E-20
   55.68116        7.3374261E-20
   55.82407        7.2397335E-20
   55.96698        6.9363069E-20
   56.10989        6.4444679E-20
   56.25281        5.8047063E-20
   56.39572        5.0769037E-20
   56.53863        4.3339401E-20
   56.68154        3.6528215E-20
   56.82445        3.1047055E-20
   56.96737        2.7455947E-20
   57.11028        2.6088094E-20
   57.25319        2.7011531E-20
   57.39610        3.0023218E-20
   57.53901        3.4684071E-20
   57.68192        4.0381626E-20
   57.82484        4.6411146E-20
   57.96775        5.2060415E-20
   58.11066        5.6689182E-20
   58.25357        5.9789700E-20
   58.39648        6.1032300E-20
   58.53939        6.0285653E-20
   58.68230        5.7625259E-20
   58.82522        5.3324166E-20
   58.96813        4.7830530E-20
   59.11104        4.1735782E-20
   59.25395        3.5726548E-20
   59.39687        3.0524516E-20
   59.53978        2.6818932E-20
   59.68269        2.5183152E-20
   59.82560        2.6005762E-20
   59.96851        2.9421580E-20
   60.11142        3.5276604E-20
   60.25433        4.3124728E-20
   60.39725        5.2260670E-20
   60.54016        6.1792938E-20
   60.68307        7.0750005E-20
   60.82598        7.8196776E-20
   60.96889        8.3352535E-20
   61.11180        8.5690890E-20
   61.25471        8.5005151E-20
   61.39763        8.1430173E-20
   61.54054        7.5421857E-20
   61.68345        6.7692274E-20
   61.82636        5.9117810E-20
   61.96928        5.0630010E-20
   62.11219        4.3107138E-20
   62.25510        3.7275140E-20
   62.39801        3.3635817E-20
   62.54092        3.2424420E-20
   62.68383        3.3597282E-20
   62.82674        3.6856137E-20
   62.96966        4.1690190E-20
   63.11257        4.7442999E-20
   63.25548        5.3386111E-20
   63.39839        5.8795591E-20
   63.54131        6.3024526E-20
   63.68422        6.5564087E-20
   63.82713        6.6091485E-20
   63.97004        6.4499163E-20
   64.11295        6.0903745E-20
   64.25586        5.5637990E-20
   64.39877        4.9221483E-20
   64.54169        4.2312469E-20
   64.68460        3.5645400E-20
   64.82751        2.9953945E-20
   64.97042        2.5892377E-20
   65.11333        2.3960068E-20
   65.25625        2.4432986E-20
   65.39915        2.7326105E-20
   65.54207        3.2379245E-20
   65.68498        3.9080151E-20
   65.82789        4.6718279E-20
   65.97080        5.4472687E-20
   66.11372        6.1509125E-20
   66.25663        6.7084852E-20
   66.39954        7.0637082E-20
   66.54245        7.1847364E-20
   66.68536        7.0667869E-20
   66.82828        6.7314976E-20
   66.97118        6.2225011E-20
   67.11410        5.5988909E-20
   67.25701        4.9277928E-20
   67.39992        4.2766401E-20
   67.54283        3.7068823E-20
   67.68575        3.2691858E-20
   67.82866        3.0003802E-20
   67.97157        2.9220271E-20
   68.11448        3.0395504E-20
   68.25739        3.3424572E-20
   68.40031        3.8046534E-20
   68.54321        4.3858748E-20
   68.68613        5.0338545E-20
   68.82904        5.6881101E-20
   68.97195        6.2853377E-20
   69.11486        6.7662851E-20
   69.25777        7.0828658E-20
   69.40069        7.2049228E-20
   69.54359        7.1253222E-20
   69.68651        6.8615123E-20
   69.82942        6.4532760E-20
   69.97233        5.9575383E-20
   70.11524        5.4394156E-20
   70.25816        4.9627292E-20
   70.40107        4.5806154E-20
   70.54398        4.3285899E-20
   70.68689        4.2213020E-20
   70.82980        4.2529097E-20
   70.97272        4.4009027E-20
   71.11562        4.6322941E-20
   71.25854        4.9103218E-20
   71.40145        5.2003281E-20
   71.54436        5.4734567E-20
   71.68727        5.7082215E-20
   71.83018        5.8897147E-20
   71.97310        6.0079647E-20
   72.11600        6.0559909E-20
   72.25892        6.0287295E-20
   72.40183        5.9236433E-20
   72.54475        5.7421825E-20
   72.68765        5.4921730E-20
   72.83057        5.1897476E-20
   72.97348        4.8596347E-20
   73.11639        4.5336596E-20
   73.25930        4.2467973E-20
   73.40221        4.0317943E-20
   73.54513        3.9136118E-20
   73.68803        3.9049730E-20
   73.83095        4.0036844E-20
   73.97386        4.1934658E-20
   74.11678        4.4472063E-20
   74.25968        4.7322761E-20
   74.40260        5.0169632E-20
   74.54551        5.2755234E-20
   74.68842        5.4915875E-20
   74.83133        5.6588059E-20
   74.97424        5.7791322E-20
   75.11716        5.8588492E-20
   75.26006        5.9047790E-20
   75.40298        5.9205013E-20
   75.54589        5.9050543E-20
   75.68880        5.8536405E-20
   75.83171        5.7602712E-20
   75.97462        5.6215421E-20
   76.11754        5.4399662E-20
   76.26044        5.2261872E-20
   76.40336        4.9989045E-20
   76.54627        4.7823689E-20
   76.68919        4.6022572E-20
   76.83209        4.4809091E-20
   76.97501        4.4329207E-20
   77.11792        4.4627745E-20
   77.26083        4.5646059E-20
   77.40374        4.7241425E-20
   77.54665        4.9225867E-20
   77.68957        5.1404548E-20
   77.83247        5.3610991E-20
   77.97539        5.5720295E-20
   78.11830        5.7648776E-20
   78.26122        5.9333859E-20
   78.40412        6.0707263E-20
   78.54704        6.1672195E-20
   78.68995        6.2096261E-20
   78.83286        6.1823608E-20
   78.97577        6.0710120E-20
   79.11868        5.8668276E-20
   79.26160        5.5711306E-20
   79.40450        5.1987691E-20
   79.54742        4.7785200E-20
   79.69033        4.3505438E-20
   79.83324        3.9612565E-20
   79.97615        3.6559105E-20
   80.11906        3.4711604E-20
   80.26198        3.4290798E-20
   80.40488        3.5332009E-20
   80.54780        3.7687347E-20
   80.69071        4.1054696E-20
   80.83363        4.5032782E-20
   80.97653        4.9189239E-20
   81.11945        5.3123332E-20
   81.26236        5.6513548E-20
   81.40527        5.9141281E-20
   81.54818        6.0894575E-20
   81.69109        6.1752005E-20
   81.83401        6.1758927E-20
   81.97691        6.1003510E-20
   82.11983        5.9601497E-20
   82.26274        5.7691104E-20
   82.40565        5.5436927E-20
   82.54856        5.3035283E-20
   82.69147        5.0713907E-20
   82.83439        4.8723336E-20
   82.97730        4.7314395E-20
   83.12021        4.6705099E-20
   83.26312        4.7041881E-20
   83.40604        4.8365738E-20
   83.54894        5.0591846E-20
   83.69186        5.3507651E-20
   83.83477        5.6793180E-20
   83.97768        6.0058644E-20
   84.12059        6.2897877E-20
   84.26350        6.4942532E-20
   84.40642        6.5911496E-20
   84.54933        6.5645570E-20
   84.69224        6.4126440E-20
   84.83515        6.1473291E-20
   84.97807        5.7925358E-20
   85.12097        5.3809078E-20
   85.26389        4.9500992E-20
   85.40680        4.5387869E-20
   85.54971        4.1828824E-20
   85.69262        3.9121843E-20
   85.83553        3.7479046E-20
   85.97845        3.7011734E-20
   86.12135        3.7720787E-20
   86.26427        3.9498934E-20
   86.40718        4.2142607E-20
   86.55009        4.5374595E-20
   86.69300        4.8870716E-20
   86.83591        5.2295237E-20
   86.97883        5.5333284E-20
   87.12174        5.7725070E-20
   87.26465        5.9290368E-20
   87.40756        5.9940202E-20
   87.55048        5.9685165E-20
   87.69338        5.8625502E-20
   87.83630        5.6936741E-20
   87.97921        5.4847671E-20
   88.12212        5.2613708E-20
   88.26503        5.0491043E-20
   88.40794        4.8709393E-20
   88.55086        4.7449368E-20
   88.69377        4.6824026E-20
   88.83668        4.6862864E-20
   88.97959        4.7509455E-20
   89.12251        4.8626804E-20
   89.26541        5.0012661E-20
   89.40833        5.1426572E-20
   89.55124        5.2627945E-20
   89.69415        5.3408241E-20
   89.83706        5.3629767E-20
   89.97997        5.3248476E-20
   90.12289        5.2320828E-20
   90.26580        5.0992392E-20
   90.40871        4.9469753E-20
   90.55162        4.7979871E-20
   90.69453        4.6725853E-20
   90.83744        4.5848844E-20
   90.98035        4.5406002E-20
   91.12327        4.5363945E-20
   91.26618        4.5616406E-20
   91.40909        4.6012946E-20
   91.55200        4.6396438E-20
   91.69492        4.6635457E-20
   91.83783        4.6647797E-20
   91.98074        4.6407175E-20
   92.12365        4.5932325E-20
   92.26656        4.5271362E-20
   92.40947        4.4477573E-20
   92.55238        4.3597255E-20
   92.69530        4.2663947E-20
   92.83821        4.1710466E-20
   92.98112        4.0782670E-20
   93.12403        3.9962953E-20
   93.26694        3.9378489E-20
   93.40986        3.9194147E-20
   93.55276        3.9589539E-20
   93.69568        4.0713636E-20
   93.83859        4.2637154E-20
   93.98150        4.5310870E-20
   94.12441        4.8542887E-20
   94.26733        5.2003921E-20
   94.41024        5.5271847E-20
   94.55315        5.7896439E-20
   94.69606        5.9481711E-20
   94.83897        5.9765654E-20
   94.98188        5.8673672E-20
   95.12479        5.6338722E-20
   95.26771        5.3078813E-20
   95.41062        4.9338044E-20
   95.55353        4.5602625E-20
   95.69644        4.2315917E-20
   95.83936        3.9804813E-20
   95.98227        3.8236072E-20
   96.12518        3.7613298E-20
   96.26809        3.7801505E-20
   96.41100        3.8581119E-20
   96.55391        3.9706375E-20
   96.69682        4.0953696E-20
   96.83974        4.2151722E-20
   96.98265        4.3184974E-20
   97.12556        4.3979649E-20
   97.26847        4.4475110E-20
   97.41138        4.4604777E-20
   97.55430        4.4286697E-20
   97.69720        4.3436414E-20
   97.84012        4.1995013E-20
   97.98303        3.9972162E-20
   98.12594        3.7476203E-20
   98.26885        3.4732057E-20
   98.41177        3.2064231E-20
   98.55468        2.9854826E-20
   98.69759        2.8474588E-20
   98.84050        2.8207192E-20
   98.98341        2.9182512E-20
   99.12633        3.1336500E-20
   99.26923        3.4415350E-20
   99.41215        3.8010768E-20
   99.55506        4.1639270E-20
   99.69797        4.4827189E-20
   99.84088        4.7201294E-20
   99.98380        4.8550390E-20
   100.1267        4.8853720E-20
   100.2696        4.8270535E-20
   100.4125        4.7089405E-20
   100.5554        4.5662176E-20
   100.6984        4.4330124E-20
   100.8413        4.3362876E-20
   100.9842        4.2924528E-20
   101.1271        4.3062318E-20
   101.2700        4.3724977E-20
   101.4129        4.4796522E-20
   101.5558        4.6128331E-20
   101.6987        4.7572071E-20
   101.8416        4.8992454E-20
   101.9846        5.0268713E-20
   102.1275        5.1287334E-20
   102.2704        5.1932861E-20
   102.4133        5.2088397E-20
   102.5562        5.1643878E-20
   102.6991        5.0523206E-20
   102.8420        4.8712311E-20
   102.9849        4.6286303E-20
   103.1279        4.3424808E-20
   103.2708        4.0401233E-20
   103.4137        3.7551253E-20
   103.5566        3.5217056E-20
   103.6995        3.3681444E-20
   103.8424        3.3107316E-20
   103.9853        3.3495383E-20
   104.1282        3.4671356E-20
   104.2711        3.6309933E-20
   104.4141        3.7991094E-20
   104.5570        3.9276901E-20
   104.6999        3.9793003E-20
   104.8428        3.9300866E-20
   104.9857        3.7737947E-20
   105.1286        3.5227645E-20
   105.2715        3.2047772E-20
   105.4144        2.8577656E-20
   105.5574        2.5227490E-20
   105.7003        2.2369137E-20
   105.8432        2.0282734E-20
   105.9861        1.9129413E-20
   106.1290        1.8946840E-20
   106.2719        1.9671941E-20
   106.4148        2.1172017E-20
   106.5577        2.3280260E-20
   106.7006        2.5822469E-20
   106.8436        2.8628679E-20
   106.9865        3.1536506E-20
   107.1294        3.4382774E-20
   107.2723        3.6993152E-20
   107.4152        3.9184534E-20
   107.5581        4.0776886E-20
   107.7010        4.1619218E-20
   107.8439        4.1624413E-20
   107.9869        4.0805159E-20
   108.1298        3.9292940E-20
   108.2727        3.7343366E-20
   108.4156        3.5310828E-20
   108.5585        3.3599815E-20
   108.7014        3.2600228E-20
   108.8443        3.2618216E-20
   108.9872        3.3817247E-20
   109.1301        3.6184951E-20
   109.2731        3.9530622E-20
   109.4160        4.3513458E-20
   109.5589        4.7701822E-20
   109.7018        5.1640301E-20
   109.8447        5.4922686E-20
   109.9876        5.7245609E-20
   110.1305        5.8438766E-20
   110.2734        5.8468816E-20
   110.4164        5.7416332E-20
   110.5593        5.5442776E-20
   110.7022        5.2749227E-20
   110.8451        4.9547437E-20
   110.9880        4.6037813E-20
   111.1309        4.2412012E-20
   111.2738        3.8856580E-20
   111.4167        3.5566404E-20
   111.5596        3.2746620E-20
   111.7026        3.0604923E-20
   111.8455        2.9325049E-20
   111.9884        2.9034514E-20
   112.1313        2.9765732E-20
   112.2742        3.1429561E-20
   112.4171        3.3811192E-20
   112.5600        3.6590069E-20
   112.7029        3.9390803E-20
   112.8458        4.1844886E-20
   112.9888        4.3661491E-20
   113.1317        4.4682914E-20
   113.2746        4.4910663E-20
   113.4175        4.4501160E-20
   113.5604        4.3719814E-20
   113.7033        4.2871931E-20
   113.8462        4.2224094E-20
   113.9891        4.1939010E-20
   114.1321        4.2033050E-20
   114.2750        4.2374815E-20
   114.4179        4.2723051E-20
   114.5608        4.2790396E-20
   114.7037        4.2321875E-20
   114.8466        4.1165138E-20
   114.9895        3.9308854E-20
   115.1324        3.6894104E-20
   115.2754        3.4180987E-20
   115.4183        3.1487645E-20
   115.5612        2.9122793E-20
   115.7041        2.7324500E-20
   115.8470        2.6223566E-20
   115.9899        2.5840738E-20
   116.1328        2.6114163E-20
   116.2757        2.6949615E-20
   116.4186        2.8273292E-20
   116.5616        3.0071282E-20
   116.7045        3.2398820E-20
   116.8474        3.5357438E-20
   116.9903        3.9049623E-20
   117.1332        4.3516043E-20
   117.2761        4.8683531E-20
   117.4190        5.4337288E-20
   117.5619        6.0128192E-20
   117.7048        6.5617046E-20
   117.8478        7.0345145E-20
   117.9907        7.3910068E-20
   118.1336        7.6030752E-20
   118.2765        7.6575974E-20
   118.4194        7.5558264E-20
   118.5623        7.3082738E-20
   118.7052        6.9277960E-20
   118.8481        6.4225107E-20
   118.9911        5.7911593E-20
   119.1340        5.0227654E-20
   119.2769        4.1008293E-20
   119.4198        3.0122952E-20
   119.5627        1.7582065E-20
   119.7056        3.6400216E-21
   119.8485       -1.1140051E-20
   119.9914       -2.5876649E-20
   120.1343       -3.9424947E-20
   120.2773       -5.0493580E-20
   120.4202       -5.7799736E-20
   120.5631       -6.0230950E-20
   120.7060       -5.6986178E-20
   120.8489       -4.7671630E-20
   120.9918       -3.2332845E-20
   121.1347       -1.1433645E-20
   121.2776        1.4208515E-20
   121.4206        4.3511157E-20
   121.5635        7.5210279E-20
   121.7064        1.0792567E-19
   121.8493        1.4020034E-19
   121.9922        1.7052141E-19
   122.1351        1.9732965E-19
   122.2780        2.1904846E-19
   122.4209        2.3413389E-19
   122.5639        2.4116275E-19