-7.200000 -9.0292523E-19
-7.057088 -9.1454464E-19
-6.914176 -9.3672859E-19
-6.771265 -9.6768551E-19
-6.628353 -1.0050362E-18
-6.485441 -1.0460053E-18
-6.342530 -1.0876461E-18
-6.199618 -1.1270849E-18
-6.056706 -1.1617558E-18
-5.913795 -1.1896151E-18
-5.770883 -1.2093034E-18
-5.627971 -1.2202531E-18
-5.485059 -1.2227230E-18
-5.342147 -1.2177624E-18
-5.199236 -1.2071068E-18
-5.056324 -1.1930110E-18
-4.913413 -1.1780472E-18
-4.770501 -1.1648740E-18
-4.627589 -1.1560063E-18
-4.484677 -1.1535984E-18
-4.341765 -1.1592591E-18
-4.198854 -1.1739147E-18
-4.055942 -1.1977250E-18
-3.913030 -1.2300612E-18
-3.770118 -1.2695484E-18
-3.627207 -1.3141689E-18
-3.484295 -1.3614202E-18
-3.341383 -1.4085221E-18
-3.198472 -1.4526508E-18
-3.055560 -1.4911874E-18
-2.912648 -1.5219536E-18
-2.769737 -1.5434137E-18
-2.626825 -1.5548231E-18
-2.483913 -1.5563044E-18
-2.341001 -1.5488377E-18
-2.198090 -1.5341756E-18
-2.055178 -1.5146780E-18
-1.912266 -1.4930967E-18
-1.769354 -1.4723205E-18
-1.626443 -1.4551218E-18
-1.483531 -1.4439163E-18
-1.340619 -1.4405676E-18
-1.197708 -1.4462429E-18
-1.054796 -1.4613368E-18
-0.9118841 -1.4854585E-18
-0.7689723 -1.5174793E-18
-0.6260606 -1.5556372E-18
-0.4831489 -1.5976794E-18
-0.3402372 -1.6410441E-18
-0.1973254 -1.6830623E-18
-5.4413714E-02 -1.7211687E-18
8.8498011E-02 -1.7531115E-18
0.2314097 -1.7771444E-18
0.3743215 -1.7921856E-18
0.5172332 -1.7979252E-18
0.6601449 -1.7948678E-18
0.8030567 -1.7843030E-18
0.9459684 -1.7682001E-18
1.088880 -1.7490283E-18
1.231792 -1.7295329E-18
1.374704 -1.7124713E-18
1.517615 -1.7003509E-18
1.660527 -1.6951976E-18
1.803439 -1.6983717E-18
1.946350 -1.7104566E-18
2.089262 -1.7312281E-18
2.232174 -1.7596983E-18
2.375086 -1.7942321E-18
2.517997 -1.8327098E-18
2.660909 -1.8727193E-18
2.803821 -1.9117668E-18
2.946733 -1.9474714E-18
3.089644 -1.9777493E-18
3.232556 -2.0009662E-18
3.375468 -2.0160536E-18
3.518379 -2.0225900E-18
3.661291 -2.0208355E-18
3.804203 -2.0117231E-18
3.947115 -1.9967950E-18
4.090026 -1.9780910E-18
4.232938 -1.9579884E-18
4.375850 -1.9390013E-18
4.518762 -1.9235591E-18
4.661673 -1.9137816E-18
4.804585 -1.9112750E-18
4.947497 -1.9169739E-18
5.090408 -1.9310507E-18
5.233320 -1.9528996E-18
5.376232 -1.9812053E-18
5.519144 -2.0140799E-18
5.662055 -2.0492560E-18
5.804967 -2.0843096E-18
5.947879 -2.1168896E-18
6.090790 -2.1449259E-18
6.233702 -2.1667973E-18
6.376614 -2.1814542E-18
6.519526 -2.1884763E-18
6.662437 -2.1880877E-18
6.805349 -2.1811150E-18
6.948261 -2.1689129E-18
7.091173 -2.1532521E-18
7.234084 -2.1361855E-18
7.376996 -2.1198925E-18
7.519908 -2.1065124E-18
7.662819 -2.0979722E-18
7.805731 -2.0958197E-18
7.948643 -2.1010762E-18
8.091555 -2.1141279E-18
8.234467 -2.1346661E-18
8.377378 -2.1616926E-18
8.520289 -2.1935945E-18
8.663201 -2.2282875E-18
8.806113 -2.2634114E-18
8.949025 -2.2965607E-18
9.091937 -2.3255217E-18
9.234848 -2.3484886E-18
9.377760 -2.3642309E-18
9.520672 -2.3721995E-18
9.663584 -2.3725554E-18
9.806496 -2.3661282E-18
9.949407 -2.3543119E-18
10.09232 -2.3389150E-18
10.23523 -2.3219878E-18
10.37814 -2.3056375E-18
10.52105 -2.2918600E-18
10.66397 -2.2823836E-18
10.80688 -2.2785490E-18
10.94979 -2.2812117E-18
11.09270 -2.2906856E-18
11.23561 -2.3067168E-18
11.37852 -2.3284981E-18
11.52144 -2.3547249E-18
11.66435 -2.3836928E-18
11.80726 -2.4134361E-18
11.95017 -2.4418976E-18
12.09308 -2.4671164E-18
12.23599 -2.4874190E-18
12.37891 -2.5015900E-18
12.52182 -2.5089931E-18
12.66473 -2.5096407E-18
12.80764 -2.5041851E-18
12.95055 -2.4938420E-18
13.09346 -2.4802552E-18
13.23638 -2.4653146E-18
13.37929 -2.4509595E-18
13.52220 -2.4389838E-18
13.66511 -2.4308727E-18
13.80802 -2.4276802E-18
13.95094 -2.4299638E-18
14.09385 -2.4377664E-18
14.23676 -2.4506450E-18
14.37967 -2.4677354E-18
14.52258 -2.4878443E-18
14.66549 -2.5095520E-18
14.80841 -2.5313282E-18
14.95132 -2.5516504E-18
15.09423 -2.5691214E-18
15.23714 -2.5825813E-18
15.38005 -2.5912123E-18
15.52296 -2.5946191E-18
15.66588 -2.5928820E-18
15.80879 -2.5865650E-18
15.95170 -2.5766808E-18
16.09461 -2.5645992E-18
16.23752 -2.5519165E-18
16.38043 -2.5402917E-18
16.52335 -2.5312695E-18
16.66626 -2.5261178E-18
16.80917 -2.5256974E-18
16.95208 -2.5303802E-18
17.09499 -2.5400301E-18
17.23791 -2.5540388E-18
17.38082 -2.5714140E-18
17.52373 -2.5908982E-18
17.66664 -2.6111048E-18
17.80955 -2.6306476E-18
17.95246 -2.6482572E-18
18.09538 -2.6628693E-18
18.23829 -2.6736889E-18
18.38120 -2.6802312E-18
18.52411 -2.6823385E-18
18.66702 -2.6801882E-18
18.80993 -2.6742788E-18
18.95285 -2.6653999E-18
19.09576 -2.6545826E-18
19.23867 -2.6430228E-18
19.38158 -2.6319828E-18
19.52449 -2.6226721E-18
19.66740 -2.6161225E-18
19.81032 -2.6130727E-18
19.95323 -2.6138821E-18
20.09614 -2.6184872E-18
20.23905 -2.6264128E-18
20.38196 -2.6368425E-18
20.52488 -2.6487283E-18
20.66779 -2.6609329E-18
20.81070 -2.6723736E-18
20.95361 -2.6821522E-18
21.09652 -2.6896425E-18
21.23943 -2.6945361E-18
21.38235 -2.6968367E-18
21.52526 -2.6968193E-18
21.66817 -2.6949652E-18
21.81108 -2.6918879E-18
21.95399 -2.6882665E-18
22.09690 -2.6847894E-18
22.23981 -2.6821158E-18
22.38273 -2.6808388E-18
22.52564 -2.6814582E-18
22.66855 -2.6843456E-18
22.81146 -2.6897056E-18
22.95437 -2.6975383E-18
23.09729 -2.7076146E-18
23.24020 -2.7194717E-18
23.38311 -2.7324445E-18
23.52602 -2.7457309E-18
23.66893 -2.7584889E-18
23.81184 -2.7699510E-18
23.95476 -2.7795312E-18
24.09767 -2.7869088E-18
24.24058 -2.7920673E-18
24.38349 -2.7952749E-18
24.52640 -2.7970190E-18
24.66932 -2.7979026E-18
24.81223 -2.7985270E-18
24.95514 -2.7993868E-18
25.09805 -2.8007978E-18
25.24096 -2.8028734E-18
25.38387 -2.8055443E-18
25.52678 -2.8086175E-18
25.66970 -2.8118471E-18
25.81261 -2.8150067E-18
25.95552 -2.8179359E-18
26.09843 -2.8205568E-18
26.24134 -2.8228639E-18
26.38426 -2.8248913E-18
26.52717 -2.8266819E-18
26.67008 -2.8282629E-18
26.81299 -2.8296447E-18
26.95590 -2.8308404E-18
27.09881 -2.8318987E-18
27.24173 -2.8329321E-18
27.38464 -2.8341296E-18
27.52755 -2.8357408E-18
27.67046 -2.8380259E-18
27.81337 -2.8411907E-18
27.95629 -2.8453140E-18
28.09920 -2.8502936E-18
28.24211 -2.8558289E-18
28.38502 -2.8614551E-18
28.52793 -2.8666196E-18
28.67084 -2.8707967E-18
28.81376 -2.8736039E-18
28.95667 -2.8749024E-18
29.09958 -2.8748499E-18
29.24249 -2.8738935E-18
29.38540 -2.8727025E-18
29.52831 -2.8720567E-18
29.67122 -2.8727098E-18
29.81414 -2.8752614E-18
29.95705 -2.8800634E-18
30.09996 -2.8871728E-18
30.24287 -2.8963603E-18
30.38578 -2.9071633E-18
30.52870 -2.9189659E-18
30.67161 -2.9310882E-18
30.81452 -2.9428605E-18
30.95743 -2.9536825E-18
31.10034 -2.9630536E-18
31.24325 -2.9705940E-18
31.38617 -2.9760527E-18
31.52908 -2.9793249E-18
31.67199 -2.9804699E-18
31.81490 -2.9797389E-18
31.95781 -2.9775876E-18
32.10072 -2.9746761E-18
32.24364 -2.9718279E-18
32.38655 -2.9699537E-18
32.52946 -2.9699403E-18
32.67237 -2.9725145E-18
32.81528 -2.9781132E-18
32.95819 -2.9867835E-18
33.10111 -2.9981323E-18
33.24402 -3.0113452E-18
33.38693 -3.0252745E-18
33.52984 -3.0385830E-18
33.67275 -3.0499270E-18
33.81567 -3.0581403E-18
33.95858 -3.0623957E-18
34.10149 -3.0623200E-18
34.24440 -3.0580433E-18
34.38731 -3.0501822E-18
34.53022 -3.0397622E-18
34.67313 -3.0280981E-18
34.81605 -3.0166444E-18
34.95896 -3.0068406E-18
35.10187 -2.9999638E-18
35.24478 -2.9970065E-18
35.38770 -2.9985829E-18
35.53061 -3.0048713E-18
35.67352 -3.0155967E-18
35.81643 -3.0300509E-18
35.95934 -3.0471526E-18
36.10225 -3.0655421E-18
36.24516 -3.0837091E-18
36.38808 -3.1001396E-18
36.53099 -3.1134706E-18
36.67390 -3.1226407E-18
36.81681 -3.1270173E-18
36.95972 -3.1264846E-18
37.10263 -3.1214775E-18
37.24555 -3.1129580E-18
37.38846 -3.1023281E-18
37.53137 -3.0912871E-18
37.67428 -3.0816446E-18
37.81719 -3.0751126E-18
37.96011 -3.0730970E-18
38.10302 -3.0765144E-18
38.24593 -3.0856662E-18
38.38884 -3.1001778E-18
38.53175 -3.1190241E-18
38.67466 -3.1406410E-18
38.81758 -3.1631054E-18
38.96049 -3.1843699E-18
39.10340 -3.2025151E-18
39.24631 -3.2159858E-18
39.38922 -3.2237791E-18
39.53214 -3.2255598E-18
39.67505 -3.2216857E-18
39.81796 -3.2131442E-18
39.96087 -3.2014173E-18
40.10378 -3.1882949E-18
40.24669 -3.1756649E-18
40.38961 -3.1653139E-18
40.53252 -3.1587501E-18
40.67543 -3.1570723E-18
40.81834 -3.1608862E-18
40.96125 -3.1702621E-18
41.10416 -3.1847343E-18
41.24707 -3.2033392E-18
41.38999 -3.2246857E-18
41.53290 -3.2470652E-18
41.67581 -3.2685920E-18
41.81872 -3.2873880E-18
41.96163 -3.3017822E-18
42.10455 -3.3105199E-18
42.24746 -3.3129433E-18
42.39037 -3.3091160E-18
42.53328 -3.2998613E-18
42.67619 -3.2866905E-18
42.81910 -3.2716306E-18
42.96202 -3.2569612E-18
43.10493 -3.2449084E-18
43.24784 -3.2373345E-18
43.39075 -3.2354917E-18
43.53366 -3.2398638E-18
43.67657 -3.2501357E-18
43.81948 -3.2652771E-18
43.96240 -3.2837240E-18
44.10531 -3.3036218E-18
44.24822 -3.3230709E-18
44.39113 -3.3403491E-18
44.53405 -3.3540751E-18
44.67696 -3.3633023E-18
44.81987 -3.3675559E-18
44.96278 -3.3668218E-18
45.10569 -3.3615142E-18
45.24860 -3.3524315E-18
45.39151 -3.3407052E-18
45.53443 -3.3277373E-18
45.67734 -3.3151126E-18
45.82025 -3.3044730E-18
45.96316 -3.2973553E-18
46.10608 -3.2950055E-18
46.24899 -3.2981929E-18
46.39190 -3.3070635E-18
46.53481 -3.3210704E-18
46.67772 -3.3390043E-18
46.82063 -3.3591379E-18
46.96354 -3.3794582E-18
47.10646 -3.3979589E-18
47.24937 -3.4129282E-18
47.39228 -3.4231873E-18
47.53519 -3.4282329E-18
47.67810 -3.4282563E-18
47.82101 -3.4240560E-18
47.96392 -3.4168585E-18
48.10684 -3.4081005E-18
48.24975 -3.3992166E-18
48.39266 -3.3914690E-18
48.53557 -3.3858430E-18
48.67849 -3.3830070E-18
48.82140 -3.3833242E-18
48.96431 -3.3868858E-18
49.10722 -3.3935465E-18
49.25013 -3.4029431E-18
49.39304 -3.4145019E-18
49.53595 -3.4274458E-18
49.67887 -3.4408189E-18
49.82178 -3.4535465E-18
49.96469 -3.4645465E-18
50.10760 -3.4728702E-18
50.25051 -3.4778573E-18
50.39342 -3.4792681E-18
50.53634 -3.4773540E-18
50.67925 -3.4728479E-18
50.82216 -3.4668612E-18
50.96507 -3.4607101E-18
51.10798 -3.4556951E-18
51.25090 -3.4528936E-18
51.39381 -3.4529958E-18
51.53672 -3.4562241E-18
51.67963 -3.4623477E-18
51.82254 -3.4707762E-18
51.96545 -3.4807069E-18
52.10837 -3.4912858E-18
52.25128 -3.5017438E-18
52.39419 -3.5114847E-18
52.53710 -3.5201130E-18
52.68001 -3.5274125E-18
52.82293 -3.5332962E-18
52.96584 -3.5377555E-18
53.10875 -3.5408248E-18
53.25166 -3.5425776E-18
53.39457 -3.5431467E-18
53.53748 -3.5427538E-18
53.68040 -3.5417293E-18
53.82331 -3.5405018E-18
53.96622 -3.5395567E-18
54.10913 -3.5393640E-18
54.25204 -3.5402871E-18
54.39495 -3.5425131E-18
54.53786 -3.5460071E-18
54.68078 -3.5505169E-18
54.82369 -3.5556264E-18
54.96660 -3.5608446E-18
55.10951 -3.5657068E-18
55.25242 -3.5698638E-18
55.39534 -3.5731345E-18
55.53825 -3.5755130E-18
55.68116 -3.5771318E-18
55.82407 -3.5781956E-18
55.96698 -3.5789082E-18
56.10989 -3.5794140E-18
56.25281 -3.5797701E-18
56.39572 -3.5799554E-18
56.53863 -3.5799111E-18
56.68154 -3.5795894E-18
56.82445 -3.5790025E-18
56.96737 -3.5782502E-18
57.11028 -3.5775123E-18
57.25319 -3.5770218E-18
57.39610 -3.5770119E-18
57.53901 -3.5776691E-18
57.68192 -3.5790951E-18
57.82484 -3.5812958E-18
57.96775 -3.5841922E-18
58.11066 -3.5876535E-18
58.25357 -3.5915347E-18
58.39648 -3.5957074E-18
58.53939 -3.6000770E-18
58.68230 -3.6045760E-18
58.82522 -3.6091495E-18
58.96813 -3.6137271E-18
59.11104 -3.6182129E-18
59.25395 -3.6224845E-18
59.39687 -3.6264165E-18
59.53978 -3.6299171E-18
59.68269 -3.6329706E-18
59.82560 -3.6356706E-18
59.96851 -3.6382278E-18
60.11142 -3.6409533E-18
60.25433 -3.6442116E-18
60.39725 -3.6483533E-18
60.54016 -3.6536468E-18
60.68307 -3.6602196E-18
60.82598 -3.6680245E-18
60.96889 -3.6768414E-18
61.11180 -3.6863023E-18
61.25471 -3.6959489E-18
61.39763 -3.7052935E-18
61.54054 -3.7138805E-18
61.68345 -3.7213375E-18
61.82636 -3.7274036E-18
61.96928 -3.7319469E-18
62.11219 -3.7349637E-18
62.25510 -3.7365709E-18
62.39801 -3.7369948E-18
62.54092 -3.7365560E-18
62.68383 -3.7356486E-18
62.82674 -3.7347138E-18
62.96966 -3.7342014E-18
63.11257 -3.7345199E-18
63.25548 -3.7359798E-18
63.39839 -3.7387418E-18
63.54131 -3.7427731E-18
63.68422 -3.7478305E-18
63.82713 -3.7534755E-18
63.97004 -3.7591190E-18
64.11295 -3.7640978E-18
64.25586 -3.7677705E-18
64.39877 -3.7696097E-18
64.54169 -3.7692859E-18
64.68460 -3.7667191E-18
64.82751 -3.7621006E-18
64.97042 -3.7558686E-18
65.11333 -3.7486552E-18
65.25625 -3.7412118E-18
65.39915 -3.7343185E-18
65.54207 -3.7286974E-18
65.68498 -3.7249370E-18
65.82789 -3.7234369E-18
65.97080 -3.7243733E-18
66.11372 -3.7276890E-18
66.25663 -3.7331087E-18
66.39954 -3.7401666E-18
66.54245 -3.7482564E-18
66.68536 -3.7566912E-18
66.82828 -3.7647661E-18
66.97118 -3.7718340E-18
67.11410 -3.7773641E-18
67.25701 -3.7810029E-18
67.39992 -3.7826146E-18
67.54283 -3.7822995E-18
67.68575 -3.7803908E-18
67.82866 -3.7774266E-18
67.97157 -3.7740951E-18
68.11448 -3.7711619E-18
68.25739 -3.7693843E-18
68.40031 -3.7694232E-18
68.54321 -3.7717595E-18
68.68613 -3.7766341E-18
68.82904 -3.7840076E-18
68.97195 -3.7935624E-18
69.11486 -3.8047322E-18
69.25777 -3.8167710E-18
69.40069 -3.8288437E-18
69.54359 -3.8401310E-18
69.68651 -3.8499322E-18
69.82942 -3.8577487E-18
69.97233 -3.8633400E-18
70.11524 -3.8667401E-18
70.25816 -3.8682332E-18
70.40107 -3.8682981E-18
70.54398 -3.8675309E-18
70.68689 -3.8665557E-18
70.82980 -3.8659456E-18
70.97272 -3.8661603E-18
71.11562 -3.8675065E-18
71.25854 -3.8701250E-18
71.40145 -3.8739945E-18
71.54436 -3.8789531E-18
71.68727 -3.8847247E-18
71.83018 -3.8909430E-18
71.97310 -3.8971866E-18
72.11600 -3.9030025E-18
72.25892 -3.9079466E-18
72.40183 -3.9116250E-18
72.54475 -3.9137422E-18
72.68765 -3.9141508E-18
72.83057 -3.9128910E-18
72.97348 -3.9102093E-18
73.11639 -3.9065457E-18
73.25930 -3.9024905E-18
73.40221 -3.8987045E-18
73.54513 -3.8958226E-18
73.68803 -3.8943535E-18
73.83095 -3.8945983E-18
73.97386 -3.8966005E-18
74.11678 -3.9001483E-18
74.25968 -3.9048190E-18
74.40260 -3.9100588E-18
74.54551 -3.9152874E-18
74.68842 -3.9199940E-18
74.83133 -3.9238160E-18
74.97424 -3.9265776E-18
75.11716 -3.9282923E-18
75.26006 -3.9291269E-18
75.40298 -3.9293511E-18
75.54589 -3.9292750E-18
75.68880 -3.9291993E-18
75.83171 -3.9293883E-18
75.97462 -3.9300542E-18
76.11754 -3.9313616E-18
76.26044 -3.9334370E-18
76.40336 -3.9363706E-18
76.54627 -3.9402099E-18
76.68919 -3.9449393E-18
76.83209 -3.9504620E-18
76.97501 -3.9565790E-18
77.11792 -3.9629925E-18
77.26083 -3.9693304E-18
77.40374 -3.9751951E-18
77.54665 -3.9802289E-18
77.68957 -3.9841820E-18
77.83247 -3.9869671E-18
77.97539 -3.9886831E-18
78.11830 -3.9896017E-18
78.26122 -3.9901183E-18
78.40412 -3.9906679E-18
78.54704 -3.9916411E-18
78.68995 -3.9933062E-18
78.83286 -3.9957539E-18
78.97577 -3.9988930E-18
79.11868 -4.0024797E-18
79.26160 -4.0061817E-18
79.40450 -4.0096612E-18
79.54742 -4.0126519E-18
79.69033 -4.0150201E-18
79.83324 -4.0167882E-18
79.97615 -4.0181254E-18
80.11906 -4.0193066E-18
80.26198 -4.0206528E-18
80.40488 -4.0224664E-18
80.54780 -4.0249815E-18
80.69071 -4.0283262E-18
80.83363 -4.0325187E-18
80.97653 -4.0374731E-18
81.11945 -4.0430305E-18
81.26236 -4.0489825E-18
81.40527 -4.0550983E-18
81.54818 -4.0611404E-18
81.69109 -4.0668736E-18
81.83401 -4.0720679E-18
81.97691 -4.0765065E-18
82.11983 -4.0799976E-18
82.26274 -4.0823994E-18
82.40565 -4.0836505E-18
82.54856 -4.0838019E-18
82.69147 -4.0830408E-18
82.83439 -4.0816963E-18
82.97730 -4.0802173E-18
83.12021 -4.0791266E-18
83.26312 -4.0789488E-18
83.40604 -4.0801259E-18
83.54894 -4.0829412E-18
83.69186 -4.0874559E-18
83.83477 -4.0934865E-18
83.97768 -4.1006139E-18
84.12059 -4.1082450E-18
84.26350 -4.1156934E-18
84.40642 -4.1222864E-18
84.54933 -4.1274638E-18
84.69224 -4.1308631E-18
84.83515 -4.1323631E-18
84.97807 -4.1320993E-18
85.12097 -4.1304325E-18
85.26389 -4.1278918E-18
85.40680 -4.1250993E-18
85.54971 -4.1226917E-18
85.69262 -4.1212520E-18
85.83553 -4.1212508E-18
85.97845 -4.1230123E-18
86.12135 -4.1266903E-18
86.26427 -4.1322606E-18
86.40718 -4.1395203E-18
86.55009 -4.1480965E-18
86.69300 -4.1574644E-18
86.83591 -4.1669761E-18
86.97883 -4.1759138E-18
87.12174 -4.1835487E-18
87.26465 -4.1892268E-18
87.40756 -4.1924553E-18
87.55048 -4.1929781E-18
87.69338 -4.1908374E-18
87.83630 -4.1863909E-18
87.97921 -4.1802887E-18
88.12212 -4.1733987E-18
88.26503 -4.1667019E-18
88.40794 -4.1611627E-18
88.55086 -4.1576000E-18
88.69377 -4.1565846E-18
88.83668 -4.1583722E-18
88.97959 -4.1628878E-18
89.12251 -4.1697554E-18
89.26541 -4.1783676E-18
89.40833 -4.1879799E-18
89.55124 -4.1978051E-18
89.69415 -4.2071022E-18
89.83706 -4.2152462E-18
89.97997 -4.2217698E-18
90.12289 -4.2263846E-18
90.26580 -4.2289857E-18
90.40871 -4.2296445E-18
90.55162 -4.2285990E-18
90.69453 -4.2262316E-18
90.83744 -4.2230498E-18
90.98035 -4.2196510E-18
91.12327 -4.2166731E-18
91.26618 -4.2147400E-18
91.40909 -4.2143913E-18
91.55200 -4.2160167E-18
91.69492 -4.2198007E-18
91.83783 -4.2256861E-18
91.98074 -4.2333722E-18
92.12365 -4.2423447E-18
92.26656 -4.2519354E-18
92.40947 -4.2614087E-18
92.55238 -4.2700478E-18
92.69530 -4.2772488E-18
92.83821 -4.2825833E-18
92.98112 -4.2858440E-18
93.12403 -4.2870538E-18
93.26694 -4.2864437E-18
93.40986 -4.2844105E-18
93.55276 -4.2814575E-18
93.69568 -4.2781273E-18
93.83859 -4.2749467E-18
93.98150 -4.2723767E-18
94.12441 -4.2707794E-18
94.26733 -4.2704047E-18
94.41024 -4.2713870E-18
94.55315 -4.2737573E-18
94.69606 -4.2774535E-18
94.83897 -4.2823422E-18
94.98188 -4.2882275E-18
95.12479 -4.2948661E-18
95.26771 -4.3019683E-18
95.41062 -4.3092127E-18
95.55353 -4.3162524E-18
95.69644 -4.3227363E-18
95.83936 -4.3283330E-18
95.98227 -4.3327663E-18
96.12518 -4.3358479E-18
96.26809 -4.3375101E-18
96.41100 -4.3378199E-18
96.55391 -4.3369807E-18
96.69682 -4.3353078E-18
96.83974 -4.3331856E-18
96.98265 -4.3310159E-18
97.12556 -4.3291664E-18
97.26847 -4.3279244E-18
97.41138 -4.3274789E-18
97.55430 -4.3279227E-18
97.69720 -4.3292756E-18
97.84012 -4.3315193E-18
97.98303 -4.3346299E-18
98.12594 -4.3385946E-18
98.26885 -4.3434079E-18
98.41177 -4.3490402E-18
98.55468 -4.3553950E-18
98.69759 -4.3622664E-18
98.84050 -4.3693115E-18
98.98341 -4.3760597E-18
99.12633 -4.3819599E-18
99.26923 -4.3864631E-18
99.41215 -4.3891262E-18
99.55506 -4.3897119E-18
99.69797 -4.3882556E-18
99.84088 -4.3850916E-18
99.98380 -4.3808122E-18
100.1267 -4.3761808E-18
100.2696 -4.3720089E-18
100.4125 -4.3690228E-18
100.5554 -4.3677568E-18
100.6984 -4.3684864E-18
100.8413 -4.3712136E-18
100.9842 -4.3757069E-18
101.1271 -4.3815703E-18
101.2700 -4.3883267E-18
101.4129 -4.3954897E-18
101.5558 -4.4026047E-18
101.6987 -4.4092656E-18
101.8416 -4.4151026E-18
101.9846 -4.4197679E-18
102.1275 -4.4229314E-18
102.2704 -4.4243017E-18
102.4133 -4.4236751E-18
102.5562 -4.4210008E-18
102.6991 -4.4164476E-18
102.8420 -4.4104443E-18
102.9849 -4.4036709E-18
103.1279 -4.3970006E-18
103.2708 -4.3913823E-18
103.4137 -4.3876977E-18
103.5566 -4.3866132E-18
103.6995 -4.3884612E-18
103.8424 -4.3931802E-18
103.9853 -4.4003254E-18
104.1282 -4.4091469E-18
104.2711 -4.4187203E-18
104.4141 -4.4280926E-18
104.5570 -4.4364252E-18
104.6999 -4.4430952E-18
104.8428 -4.4477485E-18
104.9857 -4.4502983E-18
105.1286 -4.4508885E-18
105.2715 -4.4498334E-18
105.4144 -4.4475566E-18
105.5574 -4.4445423E-18
105.7003 -4.4413114E-18
105.8432 -4.4384026E-18
105.9861 -4.4363595E-18
106.1290 -4.4357105E-18
106.2719 -4.4369244E-18
106.4148 -4.4403514E-18
106.5577 -4.4461520E-18
106.7006 -4.4542336E-18
106.8436 -4.4642177E-18
106.9865 -4.4754458E-18
107.1294 -4.4870416E-18
107.2723 -4.4980146E-18
107.4152 -4.5074006E-18
107.5581 -4.5144015E-18
107.7010 -4.5185093E-18
107.8439 -4.5195829E-18
107.9869 -4.5178649E-18
108.1298 -4.5139378E-18
108.2727 -4.5086298E-18
108.4156 -4.5028904E-18
108.5585 -4.4976573E-18
108.7014 -4.4937418E-18
108.8443 -4.4917433E-18
108.9872 -4.4920076E-18
109.1301 -4.4946199E-18
109.2731 -4.4994312E-18
109.4160 -4.5061032E-18
109.5589 -4.5141566E-18
109.7018 -4.5230240E-18
109.8447 -4.5320895E-18
109.9876 -4.5407319E-18
110.1305 -4.5483597E-18
110.2734 -4.5544540E-18
110.4164 -4.5586072E-18
110.5593 -4.5605701E-18
110.7022 -4.5602852E-18
110.8451 -4.5579095E-18
110.9880 -4.5538133E-18
111.1309 -4.5485504E-18
111.2738 -4.5427986E-18
111.4167 -4.5372784E-18
111.5596 -4.5326590E-18
111.7026 -4.5294706E-18
111.8455 -4.5280330E-18
111.9884 -4.5284180E-18
112.1313 -4.5304513E-18
112.2742 -4.5337501E-18
112.4171 -4.5377950E-18
112.5600 -4.5420169E-18
112.7029 -4.5458811E-18
112.8458 -4.5489652E-18
112.9888 -4.5510034E-18
113.1317 -4.5519083E-18
113.2746 -4.5517557E-18
113.4175 -4.5507540E-18
113.5604 -4.5491977E-18
113.7033 -4.5474213E-18
113.8462 -4.5457582E-18
113.9891 -4.5445133E-18
114.1321 -4.5439384E-18
114.2750 -4.5442263E-18
114.4179 -4.5454997E-18
114.5608 -4.5478063E-18
114.7037 -4.5511138E-18
114.8466 -4.5553084E-18
114.9895 -4.5602033E-18
115.1324 -4.5655531E-18
115.2754 -4.5710886E-18
115.4183 -4.5765550E-18
115.5612 -4.5817571E-18
115.7041 -4.5865961E-18
115.8470 -4.5910906E-18
115.9899 -4.5953729E-18
116.1328 -4.5996594E-18
116.2757 -4.6042031E-18
116.4186 -4.6092303E-18
116.5616 -4.6148845E-18
116.7045 -4.6211892E-18
116.8474 -4.6280362E-18
116.9903 -4.6352021E-18
117.1332 -4.6423957E-18
117.2761 -4.6493101E-18
117.4190 -4.6556802E-18
117.5619 -4.6613207E-18
117.7048 -4.6661387E-18
117.8478 -4.6701277E-18
117.9907 -4.6733393E-18
118.1336 -4.6758460E-18
118.2765 -4.6777179E-18
118.4194 -4.6790059E-18
118.5623 -4.6797474E-18
118.7052 -4.6799857E-18
118.8481 -4.6797884E-18
118.9911 -4.6792656E-18
119.1340 -4.6785625E-18
119.2769 -4.6778412E-18
119.4198 -4.6772394E-18
119.5627 -4.6768320E-18
119.7056 -4.6766050E-18
119.8485 -4.6764482E-18
119.9914 -4.6761868E-18
120.1343 -4.6756380E-18
120.2773 -4.6746793E-18
120.4202 -4.6733219E-18
120.5631 -4.6717482E-18
120.7060 -4.6703234E-18
120.8489 -4.6695549E-18
120.9918 -4.6700177E-18
121.1347 -4.6722565E-18
121.2776 -4.6766914E-18
121.4206 -4.6835442E-18
121.5635 -4.6927974E-18
121.7064 -4.7042005E-18
121.8493 -4.7173006E-18
121.9922 -4.7314987E-18
122.1351 -4.7461022E-18
122.2780 -4.7603686E-18
122.4209 -4.7735257E-18
122.5639 -4.7847837E-18
122.7068 -4.7933355E-18
122.8497 -4.7983746E-18
122.9926 -4.7991340E-18
123.1355 -4.7949497E-18
123.2784 -4.7853474E-18
123.4213 -4.7701351E-18
123.5642 -4.7494767E-18
123.7071 -4.7239329E-18
123.8501 -4.6944526E-18
123.9930 -4.6623142E-18
124.1359 -4.6290317E-18
124.2788 -4.5962415E-18
124.4217 -4.5655866E-18
124.5646 -4.5386354E-18
124.7075 -4.5168235E-18
124.8504 -4.5014329E-18
124.9933 -4.4935851E-18
125.1363 -4.4942365E-18
125.2792 -4.5041564E-18
125.4221 -4.5238777E-18
125.5650 -4.5536218E-18
125.7079 -4.5932082E-18
125.8508 -4.6419738E-18
125.9937 -4.6987180E-18
126.1366 -4.7616937E-18
126.2795 -4.8286515E-18
126.4225 -4.8969299E-18
126.5654 -4.9635792E-18
126.7083 -5.0254969E-18
126.8512 -5.0795590E-18
126.9941 -5.1227366E-18
127.1370 -5.1521995E-18
127.2799 -5.1654079E-18
127.4228 -5.1602227E-18
127.5658 -5.1350243E-18
127.7087 -5.0888672E-18
127.8516 -5.0216419E-18
127.9945 -4.9342395E-18
128.1374 -4.8286768E-18
128.2803 -4.7081644E-18
128.4232 -4.5770798E-18
128.5661 -4.4408440E-18
128.7090 -4.3057042E-18
128.8520 -4.1784367E-18
128.9949 -4.0660034E-18
129.1378 -3.9751914E-18
129.2807 -3.9122644E-18
129.4236 -3.8826439E-18
129.5665 -3.8906217E-18
129.7094 -3.9391135E-18
129.8523 -4.0294371E-18
129.9953 -4.1611213E-18
130.1382 -4.3317554E-18
130.2811 -4.5368851E-18
130.4240 -4.7699891E-18
130.5669 -5.0225617E-18
130.7098 -5.2843093E-18
130.8527 -5.5434907E-18
130.9956 -5.7873820E-18
131.1385 -6.0028468E-18
131.2815 -6.1769824E-18
131.4244 -6.2977996E-18
131.5673 -6.3548941E-18
131.7102 -6.3400751E-18
131.8531 -6.2479293E-18
131.9960 -6.0762835E-18
132.1389 -5.8265701E-18
132.2818 -5.5040594E-18
132.4248 -5.1179513E-18
132.5677 -4.6812996E-18
132.7106 -4.2107472E-18
132.8535 -3.7260500E-18
132.9964 -3.2493859E-18
133.1393 -2.8044605E-18
133.2822 -2.4154276E-18
133.4251 -2.1056885E-18
133.5681 -1.8966308E-18
133.7110 -1.8063755E-18
133.8539 -1.8486149E-18
133.9968 -2.0316102E-18
134.1397 -2.3574013E-18
134.2826 -2.8212790E-18
134.4255 -3.4115365E-18
134.5684 -4.1095359E-18
134.7113 -4.8900875E-18
134.8542 -5.7221526E-18
134.9972 -6.5698589E-18
135.1401 -7.3938267E-18
135.2830 -8.1527649E-18
135.4259 -8.8053045E-18
135.5688 -9.3119882E-18
135.7117 -9.6373448E-18
135.8546 -9.7519366E-18
135.9975 -9.6342801E-18
136.1405 -9.2725069E-18
136.2834 -8.6656897E-18
136.4263 -7.8247125E-18
136.5692 -6.7726372E-18
136.7121 -5.5444994E-18
136.8550 -4.1865158E-18
136.9979 -2.7546957E-18
137.1408 -1.3128773E-18
137.2838 6.9768827E-20
137.4267 1.3216945E-18
137.5696 2.3722955E-18
137.7125 3.1554517E-18
137.8554 3.6131456E-18
137.9983 3.6989714E-18
138.1412 3.3813452E-18
138.2841 2.6462112E-18
138.4270 1.4990746E-18
138.5700 -3.3804371E-20
138.7129 -1.9051787E-18
138.8558 -4.0476189E-18
138.9987 -6.3753771E-18
139.1416 -8.7872976E-18
139.2845 -1.1170688E-17
139.4274 -1.3406037E-17
139.5703 -1.5372409E-17
139.7133 -1.6953298E-17
139.8562 -1.8042720E-17
139.9991 -1.8551219E-17
140.1420 -1.8411532E-17
140.2849 -1.7583569E-17
140.4278 -1.6058420E-17
140.5707 -1.3861093E-17
140.7136 -1.1051750E-17
140.8566 -7.7252573E-18
140.9995 -4.0089701E-18
141.1424 -5.8719206E-20
141.2853 3.9468939E-18
141.4282 7.8137350E-18
141.5711 1.1340622E-17
141.7140 1.4328758E-17
141.8569 1.6591681E-17
141.9998 1.7965314E-17
142.1427 1.8317627E-17
142.2857 1.7557438E-17
142.4286 1.5641866E-17
142.5715 1.2581968E-17
142.7144 8.4461609E-18
142.8573 3.3610784E-18
143.0002 -2.4903912E-18
143.1431 -8.8739911E-18
143.2860 -1.5511905E-17
143.4290 -2.2093308E-17
143.5719 -2.8287350E-17
143.7148 -3.3758065E-17
143.8577 -3.8180626E-17
144.0006 -4.1258214E-17
144.1435 -4.2738755E-17
144.2864 -4.2430584E-17
144.4293 -4.0216380E-17
144.5723 -3.6064377E-17
144.7152 -3.0036288E-17
144.8581 -2.2291209E-17
145.0010 -1.3085019E-17
145.1439 -2.7650404E-18
145.2868 8.2402748E-18
145.4297 1.9436408E-17
145.5726 3.0282291E-17
145.7155 4.0213587E-17
145.8585 4.8668958E-17
146.0014 5.5118052E-17
146.1443 5.9090150E-17
146.2872 6.0201867E-17
146.4301 5.8182607E-17
146.5730 5.2896228E-17
146.7159 4.4357706E-17
146.8588 3.2743521E-17
147.0018 1.8394881E-17
147.1447 1.8131478E-18
147.2876 -1.6352912E-17
147.4305 -3.5327967E-17
147.5734 -5.4238673E-17
147.7163 -7.2149108E-17
147.8592 -8.8101902E-17
148.0021 -1.0116350E-16
148.1451 -1.1047165E-16
148.2880 -1.1528301E-16
148.4309 -1.1501841E-16
148.5738 -1.0930359E-16
148.7167 -9.8002850E-17
148.8596 -8.1243522E-17
149.0025 -5.9429393E-17
149.1454 -3.3241606E-17
149.2883 -3.6260901E-18
149.4312 2.8232879E-17
149.5742 6.0952584E-17
149.7171 9.3004390E-17
149.8600 1.2277721E-16
150.0029 1.4864961E-16
150.1458 1.6906774E-16
150.2887 1.8262585E-16
150.4316 1.8814539E-16
150.5745 1.8474923E-16
150.7175 1.7192639E-16
150.8604 1.4958411E-16
151.0033 1.1808324E-16
151.1462 7.8254297E-17
151.2891 3.1392034E-17
151.4320 -2.0773152E-17
151.5749 -7.6126735E-17
151.7178 -1.3224393E-16
151.8607 -1.8648390E-16
152.0037 -2.3610104E-16
152.1466 -2.7836944E-16
152.2895 -3.1071527E-16
152.4324 -3.3085139E-16
152.5753 -3.3690788E-16
152.7182 -3.2755219E-16
152.8611 -3.0209179E-16
153.0040 -2.6055390E-16
153.1470 -2.0373646E-16
153.2899 -1.3322556E-16
153.4328 -5.1376525E-17
153.5757 3.8743340E-17
153.7186 1.3345031E-16
153.8615 2.2857618E-16
154.0044 3.1963299E-16
154.1473 4.0200464E-16
154.2903 4.7115842E-16
154.4332 5.2286703E-16
154.5761 5.5343248E-16
154.7190 5.5989921E-16
154.8619 5.4024767E-16
155.0048 4.9355599E-16
155.1477 4.2012056E-16
155.2906 3.2152733E-16
155.4335 2.0066553E-16
155.5765 6.1681323E-17
155.7194 -9.0132505E-17
155.8623 -2.4850853E-16
156.0052 -4.0643515E-16
156.1481 -5.5643812E-16
156.2910 -6.9090333E-16
156.4339 -8.0242814E-16
156.5768 -8.8418688E-16
156.7197 -9.3029332E-16
156.8627 -9.3614399E-16
157.0056 -8.9872313E-16
157.1485 -8.1685412E-16
157.2914 -6.9137958E-16
157.4343 -5.2525974E-16
157.5772 -3.2357561E-16
157.7201 -9.3433061E-17
157.8630 1.5623598E-16
158.0060 4.1497240E-16
158.1489 6.7118123E-16
158.2918 9.1260367E-16
158.4347 1.1268525E-15
158.5776 1.3019902E-15
158.7205 1.4271254E-15
158.8634 1.4929987E-15
159.0063 1.4925335E-15
159.1492 1.4213177E-15
159.2922 1.2779941E-15
159.4351 1.0645309E-15
159.5780 7.8635352E-16
159.7209 4.5232163E-16
159.8638 7.4541910E-17
160.0067 -3.3198548E-16
160.1496 -7.4988076E-16
160.2925 -1.1600453E-15
160.4355 -1.5424481E-15
160.5784 -1.8770096E-15
160.7213 -2.1445470E-15
160.8642 -2.3277416E-15
161.0071 -2.4120851E-15
161.1500 -2.3867550E-15
161.2929 -2.2453819E-15
161.4358 -1.9866556E-15
161.5788 -1.6147387E-15
161.7217 -1.1394508E-15
161.8646 -5.7620115E-16
162.0075 5.4345806E-17
162.1504 7.2687301E-16
162.2933 1.4122746E-15
162.4362 2.0787563E-15
162.5791 2.6931398E-15
162.7220 3.2223236E-15
162.8650 3.6348441E-15
163.0079 3.9024688E-15
163.1508 4.0017542E-15
163.2937 3.9154881E-15
163.4366 3.6339463E-15
163.5795 3.1558872E-15
163.7224 2.4892236E-15
163.8653 1.6513156E-15
164.0083 6.6884612E-16
164.1512 -4.2274464E-16
164.2941 -1.5802710E-15
164.4370 -2.7542426E-15
164.5799 -3.8906993E-15
164.7228 -4.9333787E-15
164.8657 -5.8261476E-15
165.0086 -6.5155934E-15
165.1515 -6.9536827E-15
165.2944 -7.1003532E-15
165.4374 -6.9259330E-15
165.5803 -6.4132583E-15
165.7232 -5.5593678E-15
165.8661 -4.3766857E-15
166.0090 -2.8935817E-15
166.1519 -1.1542625E-15
166.2948 7.8206457E-16
166.4377 2.8427578E-15
166.5807 4.9440216E-15
166.7236 6.9938481E-15
166.8665 8.8955375E-15
167.0094 1.0551677E-14
167.1523 1.1868426E-14
167.2952 1.2759964E-14
167.4381 1.3152877E-14
167.5810 1.2990314E-14
167.7240 1.2235703E-14
167.8669 1.0875830E-14
168.0098 8.9231033E-15
168.1527 6.4168586E-15
168.2956 3.4235670E-15
168.4385 3.5885454E-17
168.5814 -3.6295070E-15
168.7243 -7.4352476E-15
168.8672 -1.1227754E-14
169.0102 -1.4842677E-14
169.1531 -1.8111175E-14
169.2960 -2.0866816E-14
169.4389 -2.2952797E-14
169.5818 -2.4229266E-14
169.7247 -2.4580381E-14
169.8676 -2.3920844E-14
170.0105 -2.2201567E-14
170.1535 -1.9414212E-14
170.2964 -1.5594339E-14
170.4393 -1.0822919E-14
170.5822 -5.2261306E-15
170.7251 1.0267529E-15
170.8680 7.7273477E-15
171.0109 1.4633978E-14
171.1538 2.1479221E-14
171.2968 2.7978972E-14
171.4397 3.3842737E-14