  -7.200000        1.0997818E-17
  -7.057088        1.1009671E-17
  -6.914176        1.1030471E-17
  -6.771265        1.1055411E-17
  -6.628353        1.1079035E-17
  -6.485441        1.1096657E-17
  -6.342530        1.1105570E-17
  -6.199618        1.1105701E-17
  -6.056706        1.1099576E-17
  -5.913795        1.1091563E-17
  -5.770883        1.1086641E-17
  -5.627971        1.1088995E-17
  -5.485059        1.1100844E-17
  -5.342147        1.1121801E-17
  -5.199236        1.1148942E-17
  -5.056324        1.1177584E-17
  -4.913413        1.1202527E-17
  -4.770501        1.1219463E-17
  -4.627589        1.1226151E-17
  -4.484677        1.1223029E-17
  -4.341765        1.1213122E-17
  -4.198854        1.1201254E-17
  -4.055942        1.1192755E-17
  -3.913030        1.1192050E-17
  -3.770118        1.1201475E-17
  -3.627207        1.1220650E-17
  -3.484295        1.1246588E-17
  -3.341383        1.1274498E-17
  -3.198472        1.1299072E-17
  -3.055560        1.1315910E-17
  -2.912648        1.1322702E-17
  -2.769737        1.1319834E-17
  -2.626825        1.1310279E-17
  -2.483913        1.1298773E-17
  -2.341001        1.1290530E-17
  -2.198090        1.1289815E-17
  -2.055178        1.1298789E-17
  -1.912266        1.1316918E-17
  -1.769354        1.1341123E-17
  -1.626443        1.1366621E-17
  -1.483531        1.1388235E-17
  -1.340619        1.1401806E-17
  -1.197708        1.1405343E-17
  -1.054796        1.1399575E-17
 -0.9118841        1.1387757E-17
 -0.7689723        1.1374805E-17
 -0.6260606        1.1365955E-17
 -0.4831489        1.1365347E-17
 -0.3402372        1.1374890E-17
 -0.1973254        1.1393740E-17
 -5.4413714E-02    1.1418523E-17
  8.8498011E-02    1.1444238E-17
  0.2314097        1.1465617E-17
  0.3743215        1.1478541E-17
  0.5172332        1.1481156E-17
  0.6601449        1.1474367E-17
  0.8030567        1.1461582E-17
  0.9459684        1.1447784E-17
   1.088880        1.1438169E-17
   1.231792        1.1436736E-17
   1.374704        1.1445208E-17
   1.517615        1.1462582E-17
   1.660527        1.1485426E-17
   1.803439        1.1508832E-17
   1.946350        1.1527783E-17
   2.089262        1.1538533E-17
   2.232174        1.1539644E-17
   2.375086        1.1532369E-17
   2.517997        1.1520310E-17
   2.660909        1.1508407E-17
   2.803821        1.1501572E-17
   2.946733        1.1503327E-17
   3.089644        1.1514814E-17
   3.232556        1.1534472E-17
   3.375468        1.1558440E-17
   3.518379        1.1581609E-17
   3.661291        1.1599006E-17
   3.804203        1.1607142E-17
   3.947115        1.1604960E-17
   4.090026        1.1594113E-17
   4.232938        1.1578505E-17
   4.375850        1.1563231E-17
   4.518762        1.1553181E-17
   4.661673        1.1551731E-17
   4.804585        1.1559843E-17
   4.947497        1.1575848E-17
   5.090408        1.1595936E-17
   5.233320        1.1615244E-17
   5.376232        1.1629215E-17
   5.519144        1.1634863E-17
   5.662055        1.1631587E-17
   5.804967        1.1621319E-17
   5.947879        1.1607961E-17
   6.090790        1.1596276E-17
   6.233702        1.1590543E-17
   6.376614        1.1593350E-17
   6.519526        1.1604854E-17
   6.662437        1.1622726E-17
   6.805349        1.1642783E-17
   6.948261        1.1660140E-17
   7.091173        1.1670555E-17
   7.234084        1.1671597E-17
   7.376996        1.1663323E-17
   7.519908        1.1648258E-17
   7.662819        1.1630719E-17
   7.805731        1.1615632E-17
   7.948643        1.1607210E-17
   8.091555        1.1607819E-17
   8.234467        1.1617379E-17
   8.377378        1.1633429E-17
   8.520289        1.1651850E-17
   8.663201        1.1668034E-17
   8.806113        1.1678172E-17
   8.949025        1.1680301E-17
   9.091937        1.1674812E-17
   9.234848        1.1664313E-17
   9.377760        1.1652842E-17
   9.520672        1.1644705E-17
   9.663584        1.1643235E-17
   9.806496        1.1649838E-17
   9.949407        1.1663584E-17
   10.09232        1.1681464E-17
   10.23523        1.1699230E-17
   10.37814        1.1712590E-17
   10.52105        1.1718416E-17
   10.66397        1.1715628E-17
   10.80688        1.1705500E-17
   10.94979        1.1691320E-17
   11.09270        1.1677487E-17
   11.23561        1.1668292E-17
   11.37852        1.1666749E-17
   11.52144        1.1673769E-17
   11.66435        1.1687940E-17
   11.80726        1.1705932E-17
   11.95017        1.1723450E-17
   12.09308        1.1736428E-17
   12.23599        1.1742152E-17
   12.37891        1.1739992E-17
   12.52182        1.1731539E-17
   12.66473        1.1720109E-17
   12.80764        1.1709780E-17
   12.95055        1.1704214E-17
   13.09346        1.1705612E-17
   13.23638        1.1714102E-17
   13.37929        1.1727723E-17
   13.52220        1.1743009E-17
   13.66511        1.1756003E-17
   13.80802        1.1763411E-17
   13.95094        1.1763564E-17
   14.09385        1.1756917E-17
   14.23676        1.1745927E-17
   14.37967        1.1734369E-17
   14.52258        1.1726262E-17
   14.66549        1.1724721E-17
   14.80841        1.1731065E-17
   14.95132        1.1744432E-17
   15.09423        1.1762005E-17
   15.23714        1.1779799E-17
   15.38005        1.1793772E-17
   15.52296        1.1800953E-17
   15.66588        1.1800265E-17
   15.80879        1.1792802E-17
   15.95170        1.1781505E-17
   16.09461        1.1770297E-17
   16.23752        1.1762973E-17
   16.38043        1.1762112E-17
   16.52335        1.1768365E-17
   16.66626        1.1780297E-17
   16.80917        1.1794843E-17
   16.95208        1.1808218E-17
   17.09499        1.1817052E-17
   17.23791        1.1819384E-17
   17.38082        1.1815250E-17
   17.52373        1.1806681E-17
   17.66664        1.1797113E-17
   17.80955        1.1790377E-17
   17.95246        1.1789570E-17
   18.09538        1.1796122E-17
   18.23829        1.1809346E-17
   18.38120        1.1826600E-17
   18.52411        1.1844017E-17
   18.66702        1.1857599E-17
   18.80993        1.1864362E-17
   18.95285        1.1863199E-17
   19.09576        1.1855201E-17
   19.23867        1.1843357E-17
   19.38158        1.1831708E-17
   19.52449        1.1824186E-17
   19.66740        1.1823500E-17
   19.81032        1.1830362E-17
   19.95323        1.1843298E-17
   20.09614        1.1859097E-17
   20.23905        1.1873757E-17
   20.38196        1.1883665E-17
   20.52488        1.1886656E-17
   20.66779        1.1882651E-17
   20.81070        1.1873674E-17
   20.95361        1.1863244E-17
   21.09652        1.1855324E-17
   21.23943        1.1853129E-17
   21.38235        1.1858149E-17
   21.52526        1.1869677E-17
   21.66817        1.1884982E-17
   21.81108        1.1900101E-17
   21.95399        1.1910996E-17
   22.09690        1.1914767E-17
   22.23981        1.1910531E-17
   22.38273        1.1899745E-17
   22.52564        1.1885821E-17
   22.66855        1.1873183E-17
   22.81146        1.1865999E-17
   22.95437        1.1866985E-17
   23.09729        1.1876604E-17
   23.24020        1.1892918E-17
   23.38311        1.1912134E-17
   23.52602        1.1929682E-17
   23.66893        1.1941526E-17
   23.81184        1.1945320E-17
   23.95476        1.1941068E-17
   24.09767        1.1931095E-17
   24.24058        1.1919352E-17
   24.38349        1.1910223E-17
   24.52640        1.1907227E-17
   24.66932        1.1911971E-17
   24.81223        1.1923675E-17
   24.95514        1.1939414E-17
   25.09805        1.1955002E-17
   25.24096        1.1966255E-17
   25.38387        1.1970283E-17
   25.52678        1.1966376E-17
   25.66970        1.1956270E-17
   25.81261        1.1943664E-17
   25.95552        1.1933152E-17
   26.09843        1.1928858E-17
   26.24134        1.1933192E-17
   26.38426        1.1946101E-17
   26.52717        1.1965015E-17
   26.67008        1.1985547E-17
   26.81299        1.2002724E-17
   26.95590        1.2012402E-17
   27.09881        1.2012457E-17
   27.24173        1.2003390E-17
   27.38464        1.1988190E-17
   27.52755        1.1971468E-17
   27.67046        1.1958144E-17
   27.81337        1.1952039E-17
   27.95629        1.1954813E-17
   28.09920        1.1965532E-17
   28.24211        1.1981002E-17
   28.38502        1.1996761E-17
   28.52793        1.2008414E-17
   28.67084        1.2012951E-17
   28.81376        1.2009616E-17
   28.95667        1.2000097E-17
   29.09958        1.1987985E-17
   29.24249        1.1977659E-17
   29.38540        1.1972938E-17
   29.52831        1.1975919E-17
   29.67122        1.1986322E-17
   29.81414        1.2001566E-17
   29.95705        1.2017540E-17
   30.09996        1.2029832E-17
   30.24287        1.2035071E-17
   30.38578        1.2031961E-17
   30.52870        1.2021707E-17
   30.67161        1.2007711E-17
   30.81452        1.1994612E-17
   30.95743        1.1986968E-17
   31.10034        1.1987948E-17
   31.24325        1.1998428E-17
   31.38617        1.2016741E-17
   31.52908        1.2039149E-17
   31.67199        1.2060896E-17
   31.81490        1.2077521E-17
   31.95781        1.2086067E-17
   32.10072        1.2085814E-17
   32.24364        1.2078368E-17
   32.38655        1.2067080E-17
   32.52946        1.2055992E-17
   32.67237        1.2048625E-17
   32.81528        1.2046994E-17
   32.95819        1.2051094E-17
   33.10111        1.2059038E-17
   33.24402        1.2067746E-17
   33.38693        1.2073985E-17
   33.52984        1.2075427E-17
   33.67275        1.2071404E-17
   33.81567        1.2063129E-17
   33.95858        1.2053341E-17
   34.10149        1.2045469E-17
   34.24440        1.2042587E-17
   34.38731        1.2046471E-17
   34.53022        1.2057038E-17
   34.67313        1.2072330E-17
   34.81605        1.2089046E-17
   34.95896        1.2103453E-17
   35.10187        1.2112421E-17
   35.24478        1.2114264E-17
   35.38770        1.2109167E-17
   35.53061        1.2099086E-17
   35.67352        1.2087159E-17
   35.81643        1.2076822E-17
   35.95934        1.2070885E-17
   36.10225        1.2070832E-17
   36.24516        1.2076524E-17
   36.38808        1.2086375E-17
   36.53099        1.2097912E-17
   36.67390        1.2108531E-17
   36.81681        1.2116243E-17
   36.95972        1.2120151E-17
   37.10263        1.2120583E-17
   37.24555        1.2118844E-17
   37.38846        1.2116690E-17
   37.53137        1.2115709E-17
   37.67428        1.2116810E-17
   37.81719        1.2119965E-17
   37.96011        1.2124259E-17
   38.10302        1.2128245E-17
   38.24593        1.2130458E-17
   38.38884        1.2129917E-17
   38.53175        1.2126488E-17
   38.67466        1.2120965E-17
   38.81758        1.2114883E-17
   38.96049        1.2110100E-17
   39.10340        1.2108294E-17
   39.24631        1.2110514E-17
   39.38922        1.2116910E-17
   39.53214        1.2126712E-17
   39.67505        1.2138439E-17
   39.81796        1.2150282E-17
   39.96087        1.2160535E-17
   40.10378        1.2167953E-17
   40.24669        1.2171974E-17
   40.38961        1.2172729E-17
   40.53252        1.2170905E-17
   40.67543        1.2167495E-17
   40.81834        1.2163529E-17
   40.96125        1.2159859E-17
   41.10416        1.2157052E-17
   41.24707        1.2155381E-17
   41.38999        1.2154904E-17
   41.53290        1.2155567E-17
   41.67581        1.2157294E-17
   41.81872        1.2160027E-17
   41.96163        1.2163708E-17
   42.10455        1.2168234E-17
   42.24746        1.2173395E-17
   42.39037        1.2178856E-17
   42.53328        1.2184182E-17
   42.67619        1.2188907E-17
   42.81910        1.2192626E-17
   42.96202        1.2195087E-17
   43.10493        1.2196237E-17
   43.24784        1.2196217E-17
   43.39075        1.2195310E-17
   43.53366        1.2193856E-17
   43.67657        1.2192179E-17
   43.81948        1.2190544E-17
   43.96240        1.2189156E-17
   44.10531        1.2188200E-17
   44.24822        1.2187893E-17
   44.39113        1.2188513E-17
   44.53405        1.2190382E-17
   44.67696        1.2193788E-17
   44.81987        1.2198867E-17
   44.96278        1.2205484E-17
   45.10569        1.2213155E-17
   45.24860        1.2221058E-17
   45.39151        1.2228151E-17
   45.53443        1.2233376E-17
   45.67734        1.2235920E-17
   45.82025        1.2235436E-17
   45.96316        1.2232182E-17
   46.10608        1.2227007E-17
   46.24899        1.2221186E-17
   46.39190        1.2216137E-17
   46.53481        1.2213087E-17
   46.67772        1.2212779E-17
   46.82063        1.2215309E-17
   46.96354        1.2220124E-17
   47.10646        1.2226209E-17
   47.24937        1.2232375E-17
   47.39228        1.2237602E-17
   47.53519        1.2241299E-17
   47.67810        1.2243444E-17
   47.82101        1.2244514E-17
   47.96392        1.2245293E-17
   48.10684        1.2246560E-17
   48.24975        1.2248800E-17
   48.39266        1.2252006E-17
   48.53557        1.2255663E-17
   48.67849        1.2258894E-17
   48.82140        1.2260756E-17
   48.96431        1.2260575E-17
   49.10722        1.2258209E-17
   49.25013        1.2254177E-17
   49.39304        1.2249575E-17
   49.53595        1.2245806E-17
   49.67887        1.2244204E-17
   49.82178        1.2245641E-17
   49.96469        1.2250258E-17
   50.10760        1.2257381E-17
   50.25051        1.2265667E-17
   50.39342        1.2273454E-17
   50.53634        1.2279191E-17
   50.67925        1.2281857E-17
   50.82216        1.2281237E-17
   50.96507        1.2277982E-17
   51.10798        1.2273425E-17
   51.25090        1.2269218E-17
   51.39381        1.2266888E-17
   51.53672        1.2267440E-17
   51.67963        1.2271104E-17
   51.82254        1.2277307E-17
   51.96545        1.2284871E-17
   52.10837        1.2292359E-17
   52.25128        1.2298476E-17
   52.39419        1.2302414E-17
   52.53710        1.2304025E-17
   52.68001        1.2303806E-17
   52.82293        1.2302679E-17
   52.96584        1.2301674E-17
   53.10875        1.2301585E-17
   53.25166        1.2302729E-17
   53.39457        1.2304858E-17
   53.53748        1.2307260E-17
   53.68040        1.2309015E-17
   53.82331        1.2309308E-17
   53.96622        1.2307725E-17
   54.10913        1.2304418E-17
   54.25204        1.2300109E-17
   54.39495        1.2295907E-17
   54.53786        1.2293022E-17
   54.68078        1.2292431E-17
   54.82369        1.2294601E-17
   54.96660        1.2299364E-17
   55.10951        1.2305945E-17
   55.25242        1.2313167E-17
   55.39534        1.2319747E-17
   55.53825        1.2324617E-17
   55.68116        1.2327182E-17
   55.82407        1.2327439E-17
   55.96698        1.2325947E-17
   56.10989        1.2323656E-17
   56.25281        1.2321645E-17
   56.39572        1.2320855E-17
   56.53863        1.2321873E-17
   56.68154        1.2324822E-17
   56.82445        1.2329370E-17
   56.96737        1.2334855E-17
   57.11028        1.2340464E-17
   57.25319        1.2345429E-17
   57.39610        1.2349183E-17
   57.53901        1.2351442E-17
   57.68192        1.2352217E-17
   57.82484        1.2351746E-17
   57.96775        1.2350400E-17
   58.11066        1.2348570E-17
   58.25357        1.2346583E-17
   58.39648        1.2344661E-17
   58.53939        1.2342910E-17
   58.68230        1.2341351E-17
   58.82522        1.2339971E-17
   58.96813        1.2338764E-17
   59.11104        1.2337774E-17
   59.25395        1.2337115E-17
   59.39687        1.2336961E-17
   59.53978        1.2337529E-17
   59.68269        1.2339025E-17
   59.82560        1.2341601E-17
   59.96851        1.2345287E-17
   60.11142        1.2349949E-17
   60.25433        1.2355254E-17
   60.39725        1.2360683E-17
   60.54016        1.2365582E-17
   60.68307        1.2369255E-17
   60.82598        1.2371105E-17
   60.96889        1.2370767E-17
   61.11180        1.2368232E-17
   61.25471        1.2363902E-17
   61.39763        1.2358563E-17
   61.54054        1.2353263E-17
   61.68345        1.2349116E-17
   61.82636        1.2347057E-17
   61.96928        1.2347636E-17
   62.11219        1.2350869E-17
   62.25510        1.2356227E-17
   62.39801        1.2362748E-17
   62.54092        1.2369265E-17
   62.68383        1.2374687E-17
   62.82674        1.2378272E-17
   62.96966        1.2379793E-17
   63.11257        1.2379582E-17
   63.25548        1.2378401E-17
   63.39839        1.2377202E-17
   63.54131        1.2376837E-17
   63.68422        1.2377791E-17
   63.82713        1.2380035E-17
   63.97004        1.2383039E-17
   64.11295        1.2385945E-17
   64.25586        1.2387846E-17
   64.39877        1.2388103E-17
   64.54169        1.2386574E-17
   64.68460        1.2383718E-17
   64.82751        1.2380492E-17
   64.97042        1.2378094E-17
   65.11333        1.2377610E-17
   65.25625        1.2379669E-17
   65.39915        1.2384218E-17
   65.54207        1.2390477E-17
   65.68498        1.2397117E-17
   65.82789        1.2402596E-17
   65.97080        1.2405591E-17
   66.11372        1.2405371E-17
   66.25663        1.2402038E-17
   66.39954        1.2396533E-17
   66.54245        1.2390412E-17
   66.68536        1.2385452E-17
   66.82828        1.2383187E-17
   66.97118        1.2384503E-17
   67.11410        1.2389407E-17
   67.25701        1.2397024E-17
   67.39992        1.2405845E-17
   67.54283        1.2414121E-17
   67.68575        1.2420329E-17
   67.82866        1.2423555E-17
   67.97157        1.2423707E-17
   68.11448        1.2421491E-17
   68.25739        1.2418172E-17
   68.40031        1.2415193E-17
   68.54321        1.2413749E-17
   68.68613        1.2414455E-17
   68.82904        1.2417186E-17
   68.97195        1.2421138E-17
   69.11486        1.2425077E-17
   69.25777        1.2427719E-17
   69.40069        1.2428106E-17
   69.54359        1.2425903E-17
   69.68651        1.2421503E-17
   69.82942        1.2415931E-17
   69.97233        1.2410571E-17
   70.11524        1.2406791E-17
   70.25816        1.2405570E-17
   70.40107        1.2407232E-17
   70.54398        1.2411354E-17
   70.68689        1.2416874E-17
   70.82980        1.2422375E-17
   70.97272        1.2426460E-17
   71.11562        1.2428122E-17
   71.25854        1.2427021E-17
   71.40145        1.2423577E-17
   71.54436        1.2418874E-17
   71.68727        1.2414387E-17
   71.83018        1.2411608E-17
   71.97310        1.2411660E-17
   72.11600        1.2415004E-17
   72.25892        1.2421308E-17
   72.40183        1.2429515E-17
   72.54475        1.2438094E-17
   72.68765        1.2445410E-17
   72.83057        1.2450122E-17
   72.97348        1.2451514E-17
   73.11639        1.2449664E-17
   73.25930        1.2445413E-17
   73.40221        1.2440155E-17
   73.54513        1.2435470E-17
   73.68803        1.2432719E-17
   73.83095        1.2432696E-17
   73.97386        1.2435425E-17
   74.11678        1.2440167E-17
   74.25968        1.2445621E-17
   74.40260        1.2450289E-17
   74.54551        1.2452886E-17
   74.68842        1.2452710E-17
   74.83133        1.2449844E-17
   74.97424        1.2445153E-17
   75.11716        1.2440054E-17
   75.26006        1.2436131E-17
   75.40298        1.2434687E-17
   75.54589        1.2436362E-17
   75.68880        1.2440926E-17
   75.83171        1.2447310E-17
   75.97462        1.2453879E-17
   76.11754        1.2458876E-17
   76.26044        1.2460915E-17
   76.40336        1.2459402E-17
   76.54627        1.2454736E-17
   76.68919        1.2448256E-17
   76.83209        1.2441907E-17
   76.97501        1.2437740E-17
   77.11792        1.2437341E-17
   77.26083        1.2441388E-17
   77.40374        1.2449423E-17
   77.54665        1.2459935E-17
   77.68957        1.2470729E-17
   77.83247        1.2479490E-17
   77.97539        1.2484387E-17
   78.11830        1.2484561E-17
   78.26122        1.2480349E-17
   78.40412        1.2473192E-17
   78.54704        1.2465236E-17
   78.68995        1.2458748E-17
   78.83286        1.2455493E-17
   78.97577        1.2456258E-17
   79.11868        1.2460648E-17
   79.26160        1.2467222E-17
   79.40450        1.2473921E-17
   79.54742        1.2478675E-17
   79.69033        1.2480017E-17
   79.83324        1.2477525E-17
   79.97615        1.2471960E-17
   80.11906        1.2465059E-17
   80.26198        1.2459051E-17
   80.40488        1.2455998E-17
   80.54780        1.2457196E-17
   80.69071        1.2462762E-17
   80.83363        1.2471570E-17
   80.97653        1.2481535E-17
   81.11945        1.2490187E-17
   81.26236        1.2495364E-17
   81.40527        1.2495834E-17
   81.54818        1.2491672E-17
   81.69109        1.2484270E-17
   81.83401        1.2475969E-17
   81.97691        1.2469429E-17
   82.11983        1.2466882E-17
   82.26274        1.2469507E-17
   82.40565        1.2477082E-17
   82.54856        1.2488027E-17
   82.69147        1.2499831E-17
   82.83439        1.2509730E-17
   82.97730        1.2515468E-17
   83.12021        1.2515917E-17
   83.26312        1.2511370E-17
   83.40604        1.2503453E-17
   83.54894        1.2494651E-17
   83.69186        1.2487597E-17
   83.83477        1.2484335E-17
   83.97768        1.2485749E-17
   84.12059        1.2491334E-17
   84.26350        1.2499372E-17
   84.40642        1.2507454E-17
   84.54933        1.2513203E-17
   84.69224        1.2514980E-17
   84.83515        1.2512373E-17
   84.97807        1.2506324E-17
   85.12097        1.2498854E-17
   85.26389        1.2492469E-17
   85.40680        1.2489416E-17
   85.54971        1.2491015E-17
   85.69262        1.2497243E-17
   85.83553        1.2506720E-17
   85.97845        1.2517081E-17
   86.12135        1.2525644E-17
   86.26427        1.2530168E-17
   86.40718        1.2529508E-17
   86.55009        1.2523945E-17
   86.69300        1.2515128E-17
   86.83591        1.2505617E-17
   86.97883        1.2498178E-17
   87.12174        1.2495018E-17
   87.26465        1.2497178E-17
   87.40756        1.2504254E-17
   87.55048        1.2514532E-17
   87.69338        1.2525481E-17
   87.83630        1.2534466E-17
   87.97921        1.2539485E-17
   88.12212        1.2539702E-17
   88.26503        1.2535657E-17
   88.40794        1.2529077E-17
   88.55086        1.2522348E-17
   88.69377        1.2517824E-17
   88.83668        1.2517154E-17
   88.97959        1.2520820E-17
   89.12251        1.2528015E-17
   89.26541        1.2536902E-17
   89.40833        1.2545148E-17
   89.55124        1.2550605E-17
   89.69415        1.2551924E-17
   89.83706        1.2548939E-17
   89.97997        1.2542707E-17
   90.12289        1.2535208E-17
   90.26580        1.2528787E-17
   90.40871        1.2525489E-17
   90.55162        1.2526496E-17
   90.69453        1.2531798E-17
   90.83744        1.2540201E-17
   90.98035        1.2549665E-17
   91.12327        1.2557866E-17
   91.26618        1.2562839E-17
   91.40909        1.2563511E-17
   91.55200        1.2559986E-17
   91.69492        1.2553509E-17
   91.83783        1.2546116E-17
   91.98074        1.2540070E-17
   92.12365        1.2537241E-17
   92.26656        1.2538597E-17
   92.40947        1.2543943E-17
   92.55238        1.2551975E-17
   92.69530        1.2560638E-17
   92.83821        1.2567683E-17
   92.98112        1.2571278E-17
   93.12403        1.2570507E-17
   93.26694        1.2565614E-17
   93.40986        1.2557943E-17
   93.55276        1.2549581E-17
   93.69568        1.2542799E-17
   93.83859        1.2539438E-17
   93.98150        1.2540421E-17
   94.12441        1.2545509E-17
   94.26733        1.2553362E-17
   94.41024        1.2561910E-17
   94.55315        1.2568910E-17
   94.69606        1.2572567E-17
   94.83897        1.2572020E-17
   94.98188        1.2567583E-17
   95.12479        1.2560662E-17
   95.26771        1.2553365E-17
   95.41062        1.2547920E-17
   95.55353        1.2546047E-17
   95.69644        1.2548456E-17
   95.83936        1.2554631E-17
   95.98227        1.2562942E-17
   96.12518        1.2571072E-17
   96.26809        1.2576657E-17
   96.41100        1.2577944E-17
   96.55391        1.2574307E-17
   96.69682        1.2566466E-17
   96.83974        1.2556325E-17
   96.98265        1.2546499E-17
   97.12556        1.2539617E-17
   97.26847        1.2537612E-17
   97.41138        1.2541178E-17
   97.55430        1.2549562E-17
   97.69720        1.2560745E-17
   97.84012        1.2571972E-17
   97.98303        1.2580496E-17
   98.12594        1.2584335E-17
   98.26885        1.2582814E-17
   98.41177        1.2576773E-17
   98.55468        1.2568342E-17
   98.69759        1.2560351E-17
   98.84050        1.2555550E-17
   98.98341        1.2555815E-17
   99.12633        1.2561610E-17
   99.26923        1.2571815E-17
   99.41215        1.2584009E-17
   99.55506        1.2595115E-17
   99.69797        1.2602256E-17
   99.84088        1.2603554E-17
   99.98380        1.2598672E-17
   100.1267        1.2588942E-17
   100.2696        1.2577010E-17
   100.4125        1.2566115E-17
   100.5554        1.2559189E-17
   100.6984        1.2558024E-17
   100.8413        1.2562744E-17
   100.9842        1.2571746E-17
   101.1271        1.2582129E-17
   101.2700        1.2590499E-17
   101.4129        1.2593934E-17
   101.5558        1.2590844E-17
   101.6987        1.2581468E-17
   101.8416        1.2567875E-17
   101.9846        1.2553438E-17
   102.1275        1.2541924E-17
   102.2704        1.2536463E-17
   102.4133        1.2538646E-17
   102.5562        1.2548045E-17
   102.6991        1.2562277E-17
   102.8420        1.2577620E-17
   102.9849        1.2590010E-17
   103.1279        1.2596154E-17
   103.2708        1.2594458E-17
   103.4137        1.2585490E-17
   103.5566        1.2571854E-17
   103.6995        1.2557496E-17
   103.8424        1.2546625E-17
   103.9853        1.2542542E-17
   104.1282        1.2546712E-17
   104.2711        1.2558335E-17
   104.4141        1.2574548E-17
   104.5570        1.2591212E-17
   104.6999        1.2604064E-17
   104.8428        1.2609918E-17
   104.9857        1.2607580E-17
   105.1286        1.2598201E-17
   105.2715        1.2584972E-17
   105.4144        1.2572220E-17
   105.5574        1.2564185E-17
   105.7003        1.2563781E-17
   105.8432        1.2571723E-17
   105.9861        1.2586278E-17
   106.1290        1.2603695E-17
   106.2719        1.2619241E-17
   106.4148        1.2628533E-17
   106.5577        1.2628802E-17
   106.7006        1.2619723E-17
   106.8436        1.2603569E-17
   106.9865        1.2584633E-17
   107.1294        1.2568061E-17
   107.2723        1.2558421E-17
   107.4152        1.2558412E-17
   107.5581        1.2568076E-17
   107.7010        1.2584742E-17
   107.8439        1.2603739E-17
   107.9869        1.2619681E-17
   108.1298        1.2627959E-17
   108.2727        1.2626045E-17
   108.4156        1.2614211E-17
   108.5585        1.2595470E-17
   108.7014        1.2574748E-17
   108.8443        1.2557499E-17
   108.9872        1.2548183E-17
   109.1301        1.2549003E-17
   109.2731        1.2559285E-17
   109.4160        1.2575679E-17
   109.5589        1.2593121E-17
   109.7018        1.2606294E-17
   109.8447        1.2611169E-17
   109.9876        1.2606196E-17
   110.1305        1.2592774E-17
   110.2734        1.2574898E-17
   110.4164        1.2558039E-17
   110.5593        1.2547595E-17
   110.7022        1.2547338E-17
   110.8451        1.2558310E-17
   110.9880        1.2578470E-17
   111.1309        1.2603226E-17
   111.2738        1.2626676E-17
   111.4167        1.2643242E-17
   111.5596        1.2649212E-17
   111.7026        1.2643765E-17
   111.8455        1.2629192E-17
   111.9884        1.2610238E-17
   112.1313        1.2592754E-17
   112.2742        1.2582044E-17
   112.4171        1.2581372E-17
   112.5600        1.2591045E-17
   112.7029        1.2608344E-17
   112.8458        1.2628312E-17
   112.9888        1.2645179E-17
   113.1317        1.2654017E-17
   113.2746        1.2652151E-17
   113.4175        1.2639931E-17
   113.5604        1.2620649E-17
   113.7033        1.2599606E-17
   113.8462        1.2582630E-17
   113.9891        1.2574422E-17
   114.1321        1.2577245E-17
   114.2750        1.2590289E-17
   114.4179        1.2609913E-17
   114.5608        1.2630684E-17
   114.7037        1.2646923E-17
   114.8466        1.2654310E-17
   114.9895        1.2651099E-17
   115.1324        1.2638605E-17
   115.2754        1.2620820E-17
   115.4183        1.2603270E-17
   115.5612        1.2591443E-17
   115.7041        1.2589236E-17
   115.8470        1.2597848E-17
   115.9899        1.2615440E-17
   116.1328        1.2637647E-17
   116.2757        1.2658806E-17
   116.4186        1.2673532E-17
   116.5616        1.2678212E-17
   116.7045        1.2671993E-17
   116.8474        1.2656984E-17
   116.9903        1.2637631E-17
   117.1332        1.2619429E-17
   117.2761        1.2607358E-17
   117.4190        1.2604470E-17
   117.5619        1.2611039E-17
   117.7048        1.2624494E-17
   117.8478        1.2640172E-17
   117.9907        1.2652662E-17
   118.1336        1.2657368E-17
   118.2765        1.2651840E-17
   118.4194        1.2636516E-17
   118.5623        1.2614641E-17
   118.7052        1.2591417E-17
   118.8481        1.2572592E-17
   118.9911        1.2562904E-17
   119.1340        1.2564805E-17
   119.2769        1.2577826E-17
   119.4198        1.2598750E-17
   119.5627        1.2622545E-17
   119.7056        1.2643792E-17
   119.8485        1.2658203E-17
   119.9914        1.2663794E-17
   120.1343        1.2661380E-17
   120.2773        1.2654278E-17
   120.4202        1.2647262E-17
   120.5631        1.2645098E-17
   120.7060        1.2651070E-17
   120.8489        1.2665908E-17
   120.9918        1.2687444E-17
   121.1347        1.2711095E-17
   121.2776        1.2731036E-17
   121.4206        1.2741758E-17
   121.5635        1.2739557E-17
   121.7064        1.2723550E-17
   121.8493        1.2695916E-17
   121.9922        1.2661309E-17
   122.1351        1.2625591E-17
   122.2780        1.2594270E-17
   122.4209        1.2571052E-17
   122.5639        1.2556962E-17