-7.200000 1.0997818E-17
-7.057088 1.1009671E-17
-6.914176 1.1030471E-17
-6.771265 1.1055411E-17
-6.628353 1.1079035E-17
-6.485441 1.1096657E-17
-6.342530 1.1105570E-17
-6.199618 1.1105701E-17
-6.056706 1.1099576E-17
-5.913795 1.1091563E-17
-5.770883 1.1086641E-17
-5.627971 1.1088995E-17
-5.485059 1.1100844E-17
-5.342147 1.1121801E-17
-5.199236 1.1148942E-17
-5.056324 1.1177584E-17
-4.913413 1.1202527E-17
-4.770501 1.1219463E-17
-4.627589 1.1226151E-17
-4.484677 1.1223029E-17
-4.341765 1.1213122E-17
-4.198854 1.1201254E-17
-4.055942 1.1192755E-17
-3.913030 1.1192050E-17
-3.770118 1.1201475E-17
-3.627207 1.1220650E-17
-3.484295 1.1246588E-17
-3.341383 1.1274498E-17
-3.198472 1.1299072E-17
-3.055560 1.1315910E-17
-2.912648 1.1322702E-17
-2.769737 1.1319834E-17
-2.626825 1.1310279E-17
-2.483913 1.1298773E-17
-2.341001 1.1290530E-17
-2.198090 1.1289815E-17
-2.055178 1.1298789E-17
-1.912266 1.1316918E-17
-1.769354 1.1341123E-17
-1.626443 1.1366621E-17
-1.483531 1.1388235E-17
-1.340619 1.1401806E-17
-1.197708 1.1405344E-17
-1.054796 1.1399575E-17
-0.9118841 1.1387757E-17
-0.7689723 1.1374805E-17
-0.6260606 1.1365957E-17
-0.4831489 1.1365348E-17
-0.3402372 1.1374891E-17
-0.1973254 1.1393740E-17
-5.4413714E-02 1.1418522E-17
8.8498011E-02 1.1444237E-17
0.2314097 1.1465614E-17
0.3743215 1.1478538E-17
0.5172332 1.1481153E-17
0.6601449 1.1474364E-17
0.8030567 1.1461581E-17
0.9459684 1.1447784E-17
1.088880 1.1438170E-17
1.231792 1.1436737E-17
1.374704 1.1445209E-17
1.517615 1.1462584E-17
1.660527 1.1485428E-17
1.803439 1.1508833E-17
1.946350 1.1527782E-17
2.089262 1.1538532E-17
2.232174 1.1539642E-17
2.375086 1.1532368E-17
2.517997 1.1520308E-17
2.660909 1.1508405E-17
2.803821 1.1501572E-17
2.946733 1.1503328E-17
3.089644 1.1514816E-17
3.232556 1.1534473E-17
3.375468 1.1558441E-17
3.518379 1.1581611E-17
3.661291 1.1599007E-17
3.804203 1.1607143E-17
3.947115 1.1604960E-17
4.090026 1.1594113E-17
4.232938 1.1578505E-17
4.375850 1.1563231E-17
4.518762 1.1553182E-17
4.661673 1.1551732E-17
4.804585 1.1559846E-17
4.947497 1.1575850E-17
5.090408 1.1595937E-17
5.233320 1.1615245E-17
5.376232 1.1629215E-17
5.519144 1.1634862E-17
5.662055 1.1631585E-17
5.804967 1.1621316E-17
5.947879 1.1607957E-17
6.090790 1.1596272E-17
6.233702 1.1590541E-17
6.376614 1.1593347E-17
6.519526 1.1604851E-17
6.662437 1.1622722E-17
6.805349 1.1642779E-17
6.948261 1.1660136E-17
7.091173 1.1670551E-17
7.234084 1.1671595E-17
7.376996 1.1663321E-17
7.519908 1.1648258E-17
7.662819 1.1630721E-17
7.805731 1.1615636E-17
7.948643 1.1607214E-17
8.091555 1.1607823E-17
8.234467 1.1617383E-17
8.377378 1.1633432E-17
8.520289 1.1651852E-17
8.663201 1.1668035E-17
8.806113 1.1678173E-17
8.949025 1.1680300E-17
9.091937 1.1674812E-17
9.234848 1.1664313E-17
9.377760 1.1652843E-17
9.520672 1.1644707E-17
9.663584 1.1643238E-17
9.806496 1.1649842E-17
9.949407 1.1663588E-17
10.09232 1.1681467E-17
10.23523 1.1699231E-17
10.37814 1.1712590E-17
10.52105 1.1718415E-17
10.66397 1.1715625E-17
10.80688 1.1705497E-17
10.94979 1.1691319E-17
11.09270 1.1677488E-17
11.23561 1.1668297E-17
11.37852 1.1666754E-17
11.52144 1.1673775E-17
11.66435 1.1687945E-17
11.80726 1.1705936E-17
11.95017 1.1723452E-17
12.09308 1.1736428E-17
12.23599 1.1742151E-17
12.37891 1.1739991E-17
12.52182 1.1731537E-17
12.66473 1.1720109E-17
12.80764 1.1709782E-17
12.95055 1.1704217E-17
13.09346 1.1705616E-17
13.23638 1.1714106E-17
13.37929 1.1727725E-17
13.52220 1.1743009E-17
13.66511 1.1756000E-17
13.80802 1.1763405E-17
13.95094 1.1763557E-17
14.09385 1.1756910E-17
14.23676 1.1745922E-17
14.37967 1.1734366E-17
14.52258 1.1726261E-17
14.66549 1.1724721E-17
14.80841 1.1731066E-17
14.95132 1.1744432E-17
15.09423 1.1762003E-17
15.23714 1.1779796E-17
15.38005 1.1793767E-17
15.52296 1.1800948E-17
15.66588 1.1800260E-17
15.80879 1.1792799E-17
15.95170 1.1781502E-17
16.09461 1.1770298E-17
16.23752 1.1762976E-17
16.38043 1.1762117E-17
16.52335 1.1768371E-17
16.66626 1.1780303E-17
16.80917 1.1794846E-17
16.95208 1.1808220E-17
17.09499 1.1817053E-17
17.23791 1.1819384E-17
17.38082 1.1815250E-17
17.52373 1.1806681E-17
17.66664 1.1797113E-17
17.80955 1.1790379E-17
17.95246 1.1789571E-17
18.09538 1.1796123E-17
18.23829 1.1809347E-17
18.38120 1.1826601E-17
18.52411 1.1844017E-17
18.66702 1.1857599E-17
18.80993 1.1864362E-17
18.95285 1.1863199E-17
19.09576 1.1855200E-17
19.23867 1.1843357E-17
19.38158 1.1831708E-17
19.52449 1.1824187E-17
19.66740 1.1823500E-17
19.81032 1.1830362E-17
19.95323 1.1843298E-17
20.09614 1.1859097E-17
20.23905 1.1873757E-17
20.38196 1.1883664E-17
20.52488 1.1886653E-17
20.66779 1.1882648E-17
20.81070 1.1873671E-17
20.95361 1.1863240E-17
21.09652 1.1855320E-17
21.23943 1.1853127E-17
21.38235 1.1858148E-17
21.52526 1.1869676E-17
21.66817 1.1884981E-17
21.81108 1.1900100E-17
21.95399 1.1910996E-17
22.09690 1.1914766E-17
22.23981 1.1910532E-17
22.38273 1.1899747E-17
22.52564 1.1885824E-17
22.66855 1.1873186E-17
22.81146 1.1866004E-17
22.95437 1.1866991E-17
23.09729 1.1876610E-17
23.24020 1.1892925E-17
23.38311 1.1912140E-17
23.52602 1.1929686E-17
23.66893 1.1941529E-17
23.81184 1.1945322E-17
23.95476 1.1941067E-17
24.09767 1.1931093E-17
24.24058 1.1919348E-17
24.38349 1.1910217E-17
24.52640 1.1907219E-17
24.66932 1.1911962E-17
24.81223 1.1923666E-17
24.95514 1.1939406E-17
25.09805 1.1954992E-17
25.24096 1.1966247E-17
25.38387 1.1970275E-17
25.52678 1.1966369E-17
25.66970 1.1956265E-17
25.81261 1.1943663E-17
25.95552 1.1933153E-17
26.09843 1.1928861E-17
26.24134 1.1933198E-17
26.38426 1.1946108E-17
26.52717 1.1965021E-17
26.67008 1.1985552E-17
26.81299 1.2002727E-17
26.95590 1.2012403E-17
27.09881 1.2012457E-17
27.24173 1.2003389E-17
27.38464 1.1988189E-17
27.52755 1.1971468E-17
27.67046 1.1958146E-17
27.81337 1.1952042E-17
27.95629 1.1954816E-17
28.09920 1.1965535E-17
28.24211 1.1981005E-17
28.38502 1.1996761E-17
28.52793 1.2008413E-17
28.67084 1.2012949E-17
28.81376 1.2009614E-17
28.95667 1.2000095E-17
29.09958 1.1987985E-17
29.24249 1.1977659E-17
29.38540 1.1972940E-17
29.52831 1.1975923E-17
29.67122 1.1986326E-17
29.81414 1.2001570E-17
29.95705 1.2017542E-17
30.09996 1.2029834E-17
30.24287 1.2035073E-17
30.38578 1.2031962E-17
30.52870 1.2021709E-17
30.67161 1.2007713E-17
30.81452 1.1994614E-17
30.95743 1.1986970E-17
31.10034 1.1987951E-17
31.24325 1.1998430E-17
31.38617 1.2016742E-17
31.52908 1.2039148E-17
31.67199 1.2060894E-17
31.81490 1.2077519E-17
31.95781 1.2086062E-17
32.10072 1.2085808E-17
32.24364 1.2078361E-17
32.38655 1.2067073E-17
32.52946 1.2055983E-17
32.67237 1.2048617E-17
32.81528 1.2046986E-17
32.95819 1.2051088E-17
33.10111 1.2059035E-17
33.24402 1.2067745E-17
33.38693 1.2073986E-17
33.52984 1.2075430E-17
33.67275 1.2071407E-17
33.81567 1.2063131E-17
33.95858 1.2053341E-17
34.10149 1.2045469E-17
34.24440 1.2042587E-17
34.38731 1.2046471E-17
34.53022 1.2057040E-17
34.67313 1.2072334E-17
34.81605 1.2089050E-17
34.95896 1.2103459E-17
35.10187 1.2112426E-17
35.24478 1.2114269E-17
35.38770 1.2109171E-17
35.53061 1.2099088E-17
35.67352 1.2087159E-17
35.81643 1.2076821E-17
35.95934 1.2070885E-17
36.10225 1.2070831E-17
36.24516 1.2076525E-17
36.38808 1.2086378E-17
36.53099 1.2097914E-17
36.67390 1.2108535E-17
36.81681 1.2116245E-17
36.95972 1.2120151E-17
37.10263 1.2120580E-17
37.24555 1.2118839E-17
37.38846 1.2116681E-17
37.53137 1.2115700E-17
37.67428 1.2116805E-17
37.81719 1.2119962E-17
37.96011 1.2124259E-17
38.10302 1.2128250E-17
38.24593 1.2130463E-17
38.38884 1.2129922E-17
38.53175 1.2126491E-17
38.67466 1.2120966E-17
38.81758 1.2114881E-17
38.96049 1.2110097E-17
39.10340 1.2108290E-17
39.24631 1.2110511E-17
39.38922 1.2116911E-17
39.53214 1.2126717E-17
39.67505 1.2138447E-17
39.81796 1.2150292E-17
39.96087 1.2160544E-17
40.10378 1.2167961E-17
40.24669 1.2171978E-17
40.38961 1.2172730E-17
40.53252 1.2170904E-17
40.67543 1.2167493E-17
40.81834 1.2163528E-17
40.96125 1.2159861E-17
41.10416 1.2157058E-17
41.24707 1.2155389E-17
41.38999 1.2154914E-17
41.53290 1.2155577E-17
41.67581 1.2157303E-17
41.81872 1.2160032E-17
41.96163 1.2163711E-17
42.10455 1.2168232E-17
42.24746 1.2173390E-17
42.39037 1.2178851E-17
42.53328 1.2184179E-17
42.67619 1.2188906E-17
42.81910 1.2192627E-17
42.96202 1.2195091E-17
43.10493 1.2196241E-17
43.24784 1.2196221E-17
43.39075 1.2195312E-17
43.53366 1.2193857E-17
43.67657 1.2192178E-17
43.81948 1.2190543E-17
43.96240 1.2189156E-17
44.10531 1.2188201E-17
44.24822 1.2187896E-17
44.39113 1.2188517E-17
44.53405 1.2190387E-17
44.67696 1.2193792E-17
44.81987 1.2198870E-17
44.96278 1.2205484E-17
45.10569 1.2213153E-17
45.24860 1.2221053E-17
45.39151 1.2228143E-17
45.53443 1.2233367E-17
45.67734 1.2235910E-17
45.82025 1.2235427E-17
45.96316 1.2232173E-17
46.10608 1.2226998E-17
46.24899 1.2221177E-17
46.39190 1.2216127E-17
46.53481 1.2213075E-17
46.67772 1.2212767E-17
46.82063 1.2215296E-17
46.96354 1.2220112E-17
47.10646 1.2226198E-17
47.24937 1.2232368E-17
47.39228 1.2237597E-17
47.53519 1.2241299E-17
47.67810 1.2243445E-17
47.82101 1.2244518E-17
47.96392 1.2245298E-17
48.10684 1.2246564E-17
48.24975 1.2248804E-17
48.39266 1.2252009E-17
48.53557 1.2255666E-17
48.67849 1.2258899E-17
48.82140 1.2260764E-17
48.96431 1.2260583E-17
49.10722 1.2258216E-17
49.25013 1.2254183E-17
49.39304 1.2249579E-17
49.53595 1.2245809E-17
49.67887 1.2244207E-17
49.82178 1.2245645E-17
49.96469 1.2250262E-17
50.10760 1.2257385E-17
50.25051 1.2265672E-17
50.39342 1.2273459E-17
50.53634 1.2279193E-17
50.67925 1.2281857E-17
50.82216 1.2281233E-17
50.96507 1.2277976E-17
51.10798 1.2273415E-17
51.25090 1.2269206E-17
51.39381 1.2266878E-17
51.53672 1.2267432E-17
51.67963 1.2271099E-17
51.82254 1.2277307E-17
51.96545 1.2284875E-17
52.10837 1.2292365E-17
52.25128 1.2298484E-17
52.39419 1.2302422E-17
52.53710 1.2304031E-17
52.68001 1.2303809E-17
52.82293 1.2302679E-17
52.96584 1.2301672E-17
53.10875 1.2301583E-17
53.25166 1.2302727E-17
53.39457 1.2304857E-17
53.53748 1.2307259E-17
53.68040 1.2309014E-17
53.82331 1.2309306E-17
53.96622 1.2307721E-17
54.10913 1.2304413E-17
54.25204 1.2300101E-17
54.39495 1.2295898E-17
54.53786 1.2293015E-17
54.68078 1.2292424E-17
54.82369 1.2294598E-17
54.96660 1.2299363E-17
55.10951 1.2305946E-17
55.25242 1.2313167E-17
55.39534 1.2319745E-17
55.53825 1.2324611E-17
55.68116 1.2327172E-17
55.82407 1.2327426E-17
55.96698 1.2325932E-17
56.10989 1.2323640E-17
56.25281 1.2321630E-17
56.39572 1.2320845E-17
56.53863 1.2321869E-17
56.68154 1.2324821E-17
56.82445 1.2329372E-17
56.96737 1.2334858E-17
57.11028 1.2340465E-17
57.25319 1.2345427E-17
57.39610 1.2349175E-17
57.53901 1.2351430E-17
57.68192 1.2352203E-17
57.82484 1.2351732E-17
57.96775 1.2350388E-17
58.11066 1.2348562E-17
58.25357 1.2346581E-17
58.39648 1.2344666E-17
58.53939 1.2342920E-17
58.68230 1.2341367E-17
58.82522 1.2339990E-17
58.96813 1.2338784E-17
59.11104 1.2337796E-17
59.25395 1.2337137E-17
59.39687 1.2336984E-17
59.53978 1.2337553E-17
59.68269 1.2339052E-17
59.82560 1.2341629E-17
59.96851 1.2345317E-17
60.11142 1.2349978E-17
60.25433 1.2355281E-17
60.39725 1.2360706E-17
60.54016 1.2365600E-17
60.68307 1.2369268E-17
60.82598 1.2371114E-17
60.96889 1.2370772E-17
61.11180 1.2368235E-17
61.25471 1.2363905E-17
61.39763 1.2358567E-17
61.54054 1.2353269E-17
61.68345 1.2349122E-17
61.82636 1.2347064E-17
61.96928 1.2347641E-17
62.11219 1.2350873E-17
62.25510 1.2356230E-17
62.39801 1.2362752E-17
62.54092 1.2369269E-17
62.68383 1.2374694E-17
62.82674 1.2378281E-17
62.96966 1.2379807E-17
63.11257 1.2379599E-17
63.25548 1.2378421E-17
63.39839 1.2377226E-17
63.54131 1.2376864E-17
63.68422 1.2377818E-17
63.82713 1.2380064E-17
63.97004 1.2383068E-17
64.11295 1.2385973E-17
64.25586 1.2387875E-17
64.39877 1.2388131E-17
64.54169 1.2386606E-17
64.68460 1.2383753E-17
64.82751 1.2380531E-17
64.97042 1.2378135E-17
65.11333 1.2377653E-17
65.25625 1.2379714E-17
65.39915 1.2384264E-17
65.54207 1.2390525E-17
65.68498 1.2397166E-17
65.82789 1.2402647E-17
65.97080 1.2405642E-17
66.11372 1.2405423E-17
66.25663 1.2402092E-17
66.39954 1.2396588E-17
66.54245 1.2390467E-17
66.68536 1.2385509E-17
66.82828 1.2383246E-17
66.97118 1.2384564E-17
67.11410 1.2389469E-17
67.25701 1.2397088E-17
67.39992 1.2405910E-17
67.54283 1.2414188E-17
67.68575 1.2420397E-17
67.82866 1.2423625E-17
67.97157 1.2423776E-17
68.11448 1.2421559E-17
68.25739 1.2418239E-17
68.40031 1.2415259E-17
68.54321 1.2413814E-17
68.68613 1.2414520E-17
68.82904 1.2417252E-17
68.97195 1.2421206E-17
69.11486 1.2425148E-17
69.25777 1.2427791E-17
69.40069 1.2428182E-17
69.54359 1.2425982E-17
69.68651 1.2421585E-17
69.82942 1.2416016E-17
69.97233 1.2410659E-17
70.11524 1.2406882E-17
70.25816 1.2405665E-17
70.40107 1.2407330E-17
70.54398 1.2411455E-17
70.68689 1.2416979E-17
70.82980 1.2422483E-17
70.97272 1.2426569E-17
71.11562 1.2428233E-17
71.25854 1.2427133E-17
71.40145 1.2423689E-17
71.54436 1.2418986E-17
71.68727 1.2414500E-17
71.83018 1.2411723E-17
71.97310 1.2411777E-17
72.11600 1.2415124E-17
72.25892 1.2421430E-17
72.40183 1.2429640E-17
72.54475 1.2438221E-17
72.68765 1.2445538E-17
72.83057 1.2450251E-17
72.97348 1.2451643E-17
73.11639 1.2449792E-17
73.25930 1.2445542E-17
73.40221 1.2440284E-17
73.54513 1.2435601E-17
73.68803 1.2432851E-17
73.83095 1.2432831E-17
73.97386 1.2435564E-17
74.11678 1.2440311E-17
74.25968 1.2445769E-17
74.40260 1.2450441E-17
74.54551 1.2453041E-17
74.68842 1.2452867E-17
74.83133 1.2450003E-17
74.97424 1.2445314E-17
75.11716 1.2440217E-17
75.26006 1.2436297E-17
75.40298 1.2434856E-17
75.54589 1.2436535E-17
75.68880 1.2441102E-17
75.83171 1.2447490E-17
75.97462 1.2454063E-17
76.11754 1.2459061E-17
76.26044 1.2461102E-17
76.40336 1.2459590E-17
76.54627 1.2454925E-17
76.68919 1.2448445E-17
76.83209 1.2442098E-17
76.97501 1.2437932E-17
77.11792 1.2437536E-17
77.26083 1.2441588E-17
77.40374 1.2449627E-17
77.54665 1.2460145E-17
77.68957 1.2470945E-17
77.83247 1.2479710E-17
77.97539 1.2484611E-17
78.11830 1.2484785E-17
78.26122 1.2480573E-17
78.40412 1.2473415E-17
78.54704 1.2465459E-17
78.68995 1.2458972E-17
78.83286 1.2455720E-17
78.97577 1.2456488E-17
79.11868 1.2460883E-17
79.26160 1.2467461E-17
79.40450 1.2474161E-17
79.54742 1.2478915E-17
79.69033 1.2480255E-17
79.83324 1.2477760E-17
79.97615 1.2472190E-17
80.11906 1.2465288E-17
80.26198 1.2459280E-17
80.40488 1.2456231E-17
80.54780 1.2457433E-17
80.69071 1.2463007E-17
80.83363 1.2471822E-17
80.97653 1.2481794E-17
81.11945 1.2490450E-17
81.26236 1.2495625E-17
81.40527 1.2496093E-17
81.54818 1.2491928E-17
81.69109 1.2484522E-17
81.83401 1.2476221E-17
81.97691 1.2469682E-17
82.11983 1.2467140E-17
82.26274 1.2469770E-17
82.40565 1.2477352E-17
82.54856 1.2488305E-17
82.69147 1.2500113E-17
82.83439 1.2510014E-17
82.97730 1.2515751E-17
83.12021 1.2516196E-17
83.26312 1.2511646E-17
83.40604 1.2503727E-17
83.54894 1.2494923E-17
83.69186 1.2487871E-17
83.83477 1.2484612E-17
83.97768 1.2486032E-17
84.12059 1.2491623E-17
84.26350 1.2499666E-17
84.40642 1.2507753E-17
84.54933 1.2513506E-17
84.69224 1.2515284E-17
84.83515 1.2512678E-17
84.97807 1.2506628E-17
85.12097 1.2499157E-17
85.26389 1.2492772E-17
85.40680 1.2489722E-17
85.54971 1.2491321E-17
85.69262 1.2497551E-17
85.83553 1.2507030E-17
85.97845 1.2517391E-17
86.12135 1.2525951E-17
86.26427 1.2530474E-17
86.40718 1.2529812E-17
86.55009 1.2524247E-17
86.69300 1.2515428E-17
86.83591 1.2505916E-17
86.97883 1.2498479E-17
87.12174 1.2495321E-17
87.26465 1.2497481E-17
87.40756 1.2504557E-17
87.55048 1.2514834E-17
87.69338 1.2525781E-17
87.83630 1.2534764E-17
87.97921 1.2539780E-17
88.12212 1.2539997E-17
88.26503 1.2535954E-17
88.40794 1.2529376E-17
88.55086 1.2522651E-17
88.69377 1.2518134E-17
88.83668 1.2517469E-17
88.97959 1.2521140E-17
89.12251 1.2528340E-17
89.26541 1.2537230E-17
89.40833 1.2545478E-17
89.55124 1.2550936E-17
89.69415 1.2552254E-17
89.83706 1.2549266E-17
89.97997 1.2543031E-17
90.12289 1.2535528E-17
90.26580 1.2529103E-17
90.40871 1.2525800E-17
90.55162 1.2526802E-17
90.69453 1.2532099E-17
90.83744 1.2540498E-17
90.98035 1.2549959E-17
91.12327 1.2558158E-17
91.26618 1.2563131E-17
91.40909 1.2563805E-17
91.55200 1.2560283E-17
91.69492 1.2553809E-17
91.83783 1.2546419E-17
91.98074 1.2540374E-17
92.12365 1.2537545E-17
92.26656 1.2538901E-17
92.40947 1.2544247E-17
92.55238 1.2552280E-17
92.69530 1.2560944E-17
92.83821 1.2567993E-17
92.98112 1.2571593E-17
93.12403 1.2570825E-17
93.26694 1.2565936E-17
93.40986 1.2558268E-17
93.55276 1.2549910E-17
93.69568 1.2543127E-17
93.83859 1.2539765E-17
93.98150 1.2540748E-17
94.12441 1.2545835E-17
94.26733 1.2553688E-17
94.41024 1.2562235E-17
94.55315 1.2569234E-17
94.69606 1.2572890E-17
94.83897 1.2572341E-17
94.98188 1.2567901E-17
95.12479 1.2560974E-17
95.26771 1.2553671E-17
95.41062 1.2548221E-17
95.55353 1.2546341E-17
95.69644 1.2548747E-17
95.83936 1.2554921E-17
95.98227 1.2563233E-17
96.12518 1.2571367E-17
96.26809 1.2576958E-17
96.41100 1.2578250E-17
96.55391 1.2574618E-17
96.69682 1.2566779E-17
96.83974 1.2556640E-17
96.98265 1.2546813E-17
97.12556 1.2539930E-17
97.26847 1.2537924E-17
97.41138 1.2541490E-17
97.55430 1.2549875E-17
97.69720 1.2561059E-17
97.84012 1.2572289E-17
97.98303 1.2580817E-17
98.12594 1.2584659E-17
98.26885 1.2583141E-17
98.41177 1.2577103E-17
98.55468 1.2568671E-17
98.69759 1.2560681E-17
98.84050 1.2555878E-17
98.98341 1.2556143E-17
99.12633 1.2561936E-17
99.26923 1.2572140E-17
99.41215 1.2584332E-17
99.55506 1.2595438E-17
99.69797 1.2602576E-17
99.84088 1.2603869E-17
99.98380 1.2598983E-17
100.1267 1.2589247E-17
100.2696 1.2577310E-17
100.4125 1.2566411E-17
100.5554 1.2559484E-17
100.6984 1.2558318E-17
100.8413 1.2563039E-17
100.9842 1.2572044E-17
101.1271 1.2582430E-17
101.2700 1.2590801E-17
101.4129 1.2594238E-17
101.5558 1.2591148E-17
101.6987 1.2581772E-17
101.8416 1.2568179E-17
101.9846 1.2553740E-17
102.1275 1.2542228E-17
102.2704 1.2536768E-17
102.4133 1.2538952E-17
102.5562 1.2548351E-17
102.6991 1.2562584E-17
102.8420 1.2577926E-17
102.9849 1.2590313E-17
103.1279 1.2596453E-17
103.2708 1.2594752E-17
103.4137 1.2585779E-17
103.5566 1.2572139E-17
103.6995 1.2557780E-17
103.8424 1.2546910E-17
103.9853 1.2542827E-17
104.1282 1.2546996E-17
104.2711 1.2558618E-17
104.4141 1.2574829E-17
104.5570 1.2591490E-17
104.6999 1.2604337E-17
104.8428 1.2610188E-17
104.9857 1.2607848E-17
105.1286 1.2598469E-17
105.2715 1.2585240E-17
105.4144 1.2572491E-17
105.5574 1.2564459E-17
105.7003 1.2564059E-17
105.8432 1.2572005E-17
105.9861 1.2586563E-17
106.1290 1.2603982E-17
106.2719 1.2619529E-17
106.4148 1.2628824E-17
106.5577 1.2629094E-17
106.7006 1.2620018E-17
106.8436 1.2603868E-17
106.9865 1.2584938E-17
107.1294 1.2568372E-17
107.2723 1.2558740E-17
107.4152 1.2558738E-17
107.5581 1.2568408E-17
107.7010 1.2585077E-17
107.8439 1.2604076E-17
107.9869 1.2620018E-17
108.1298 1.2628297E-17
108.2727 1.2626384E-17
108.4156 1.2614553E-17
108.5585 1.2595817E-17
108.7014 1.2575098E-17
108.8443 1.2557855E-17
108.9872 1.2548542E-17
109.1301 1.2549361E-17
109.2731 1.2559639E-17
109.4160 1.2576026E-17
109.5589 1.2593457E-17
109.7018 1.2606618E-17
109.8447 1.2611481E-17
109.9876 1.2606495E-17
110.1305 1.2593061E-17
110.2734 1.2575174E-17
110.4164 1.2558302E-17
110.5593 1.2547846E-17
110.7022 1.2547577E-17
110.8451 1.2558534E-17
110.9880 1.2578677E-17
111.1309 1.2603415E-17
111.2738 1.2626846E-17
111.4167 1.2643392E-17
111.5596 1.2649340E-17
111.7026 1.2643873E-17
111.8455 1.2629279E-17
111.9884 1.2610305E-17
112.1313 1.2592802E-17
112.2742 1.2582076E-17
112.4171 1.2581389E-17
112.5600 1.2591050E-17
112.7029 1.2608339E-17
112.8458 1.2628299E-17
112.9888 1.2645162E-17
113.1317 1.2653996E-17
113.2746 1.2652128E-17
113.4175 1.2639906E-17
113.5604 1.2620622E-17
113.7033 1.2599580E-17
113.8462 1.2582603E-17
113.9891 1.2574398E-17
114.1321 1.2577225E-17
114.2750 1.2590274E-17
114.4179 1.2609903E-17
114.5608 1.2630680E-17
114.7037 1.2646925E-17
114.8466 1.2654316E-17
114.9895 1.2651109E-17
115.1324 1.2638619E-17
115.2754 1.2620838E-17
115.4183 1.2603292E-17
115.5612 1.2591474E-17
115.7041 1.2589279E-17
115.8470 1.2597908E-17
115.9899 1.2615520E-17
116.1328 1.2637752E-17
116.2757 1.2658940E-17
116.4186 1.2673696E-17
116.5616 1.2678407E-17
116.7045 1.2672220E-17
116.8474 1.2657245E-17
116.9903 1.2637924E-17
117.1332 1.2619755E-17
117.2761 1.2607718E-17
117.4190 1.2604865E-17
117.5619 1.2611469E-17
117.7048 1.2624956E-17
117.8478 1.2640662E-17
117.9907 1.2653175E-17
118.1336 1.2657895E-17
118.2765 1.2652374E-17
118.4194 1.2637047E-17
118.5623 1.2615161E-17
118.7052 1.2591920E-17
118.8481 1.2573070E-17
118.9911 1.2563352E-17
119.1340 1.2565221E-17
119.2769 1.2578208E-17
119.4198 1.2599095E-17
119.5627 1.2622854E-17
119.7056 1.2644069E-17
119.8485 1.2658451E-17
119.9914 1.2664014E-17
120.1343 1.2661582E-17
120.2773 1.2654474E-17
120.4202 1.2647464E-17
120.5631 1.2645325E-17
120.7060 1.2651341E-17
120.8489 1.2666244E-17
120.9918 1.2687867E-17
121.1347 1.2711622E-17
121.2776 1.2731682E-17
121.4206 1.2742533E-17
121.5635 1.2740466E-17
121.7064 1.2724591E-17
121.8493 1.2697081E-17
121.9922 1.2662583E-17
122.1351 1.2626957E-17
122.2780 1.2595701E-17
122.4209 1.2572517E-17
122.5639 1.2558425E-17
122.7068 1.2551673E-17
122.8497 1.2548479E-17
122.9926 1.2544373E-17
123.1355 1.2535772E-17
123.2784 1.2521282E-17
123.4213 1.2502382E-17
123.5642 1.2483227E-17
123.7071 1.2469644E-17
123.8501 1.2467561E-17
123.9930 1.2481338E-17
124.1359 1.2512449E-17
124.2788 1.2558925E-17
124.4217 1.2615699E-17
124.5646 1.2675778E-17
124.7075 1.2731915E-17
124.8504 1.2778295E-17
124.9933 1.2811760E-17
125.1363 1.2832232E-17
125.2792 1.2842224E-17
125.4221 1.2845591E-17
125.5650 1.2845928E-17
125.7079 1.2845082E-17
125.8508 1.2842275E-17
125.9937 1.2834111E-17
126.1366 1.2815480E-17
126.2795 1.2781145E-17
126.4225 1.2727516E-17
126.5654 1.2654125E-17
126.7083 1.2564329E-17
126.8512 1.2465028E-17
126.9941 1.2365449E-17
127.1370 1.2275328E-17
127.2799 1.2202982E-17
127.4228 1.2153818E-17
127.5658 1.2129671E-17
127.7087 1.2129124E-17
127.8516 1.2148673E-17
127.9945 1.2184346E-17
128.1374 1.2233247E-17
128.2803 1.2294530E-17
128.4232 1.2369477E-17
128.5661 1.2460646E-17
128.7090 1.2570334E-17
128.8520 1.2698830E-17
128.9949 1.2843012E-17
129.1378 1.2995738E-17
129.2807 1.3146295E-17
129.4236 1.3281826E-17
129.5665 1.3389381E-17
129.7094 1.3458084E-17
129.8523 1.3480833E-17
129.9953 1.3455120E-17
130.1382 1.3382817E-17
130.2811 1.3269052E-17
130.4240 1.3120586E-17
130.5669 1.2944228E-17
130.7098 1.2745774E-17
130.8527 1.2529777E-17
130.9956 1.2300218E-17
131.1385 1.2061771E-17
131.2815 1.1821225E-17
131.4244 1.1588522E-17
131.5673 1.1376951E-17
131.7102 1.1202319E-17
131.8531 1.1081194E-17
131.9960 1.1028565E-17
132.1389 1.1055512E-17
132.2818 1.1167398E-17
132.4248 1.1363023E-17
132.5677 1.1634883E-17
132.7106 1.1970381E-17
132.8535 1.2353606E-17
132.9964 1.2767165E-17
133.1393 1.3193605E-17
133.2822 1.3616098E-17
133.4251 1.4018395E-17
133.5681 1.4384257E-17
133.7110 1.4696771E-17
133.8539 1.4938055E-17
133.9968 1.5089659E-17
134.1397 1.5133853E-17
134.2826 1.5055630E-17
134.4255 1.4845061E-17
134.5684 1.4499492E-17
134.7113 1.4025044E-17
134.8542 1.3437102E-17
134.9972 1.2759601E-17
135.1401 1.2023334E-17
135.2830 1.1263593E-17
135.4259 1.0517656E-17
135.5688 9.8225332E-18
135.7117 9.2132750E-18
135.8546 8.7219156E-18
135.9975 8.3768754E-18
136.1405 8.2025471E-18
136.2834 8.2187119E-18
136.4263 8.4395509E-18
136.5692 8.8721879E-18
136.7121 9.5149204E-18
136.8550 1.0355479E-17
136.9979 1.1369758E-17
137.1408 1.2521426E-17
137.2838 1.3762697E-17
137.4267 1.5036314E-17
137.5696 1.6278585E-17
137.7125 1.7423110E-17
137.8554 1.8404742E-17
137.9983 1.9163373E-17
138.1412 1.9647196E-17
138.2841 1.9815305E-17
138.4270 1.9639638E-17
138.5700 1.9106373E-17
138.7129 1.8216961E-17
138.8558 1.6988897E-17
138.9987 1.5456220E-17
139.1416 1.3669627E-17
139.2845 1.1695971E-17
139.4274 9.6168663E-18
139.5703 7.5262252E-18
139.7133 5.5265930E-18
139.8562 3.7244274E-18
139.9991 2.2245451E-18
140.1420 1.1241559E-18
140.2849 5.0694937E-19
140.4278 4.3770888E-19
140.5707 9.5778840E-19
140.7136 2.0817475E-18
140.8566 3.7952374E-18
140.9995 6.0541953E-18
141.1424 8.7853050E-18
141.2853 1.1887684E-17
141.4282 1.5235785E-17
141.5711 1.8683500E-17
141.7140 2.2069480E-17
141.8569 2.5223609E-17
141.9998 2.7974527E-17
142.1427 3.0157946E-17
142.2857 3.1625391E-17
142.4286 3.2252930E-17
142.5715 3.1949315E-17
142.7144 3.0663023E-17
142.8573 2.8387724E-17
143.0002 2.5165728E-17
143.1431 2.1089185E-17
143.2860 1.6298861E-17
143.4290 1.0980468E-17
143.5719 5.3585897E-18
143.7148 -3.1162024E-19
143.8577 -5.7547394E-18
144.0006 -1.0687064E-17
144.1435 -1.4829845E-17
144.2864 -1.7923298E-17
144.4293 -1.9740700E-17
144.5723 -2.0101946E-17
144.7152 -1.8885758E-17
144.8581 -1.6039871E-17
145.0010 -1.1588479E-17
145.1439 -5.6364025E-18
145.2868 1.6304442E-18
145.4297 9.9485227E-18
145.5726 1.8984138E-17
145.7155 2.8344757E-17
145.8585 3.7593992E-17
146.0014 4.6269684E-17
146.1443 5.3904581E-17
146.2872 6.0048786E-17
146.4301 6.4293083E-17
146.5730 6.6292028E-17
146.7159 6.5785667E-17
146.8588 6.2618631E-17
147.0018 5.6755343E-17
147.1447 4.8290324E-17
147.2876 3.7452630E-17
147.4305 2.4603847E-17
147.5734 1.0229371E-17
147.7163 -5.0769364E-18
147.8592 -2.0634412E-17
148.0021 -3.5702650E-17
148.1451 -4.9513278E-17
148.2880 -6.1305002E-17
148.4309 -7.0360717E-17
148.5738 -7.6045096E-17
148.7167 -7.7841004E-17
148.8596 -7.5382988E-17
149.0025 -6.8485929E-17
149.1454 -5.7167167E-17
149.2883 -4.1660313E-17
149.4312 -2.2419429E-17
149.5742 -1.1243102E-19
149.7171 2.4396542E-17
149.8600 5.0075923E-17
150.0029 7.5765688E-17
150.1458 1.0022533E-16
150.2887 1.2218868E-16
150.4316 1.4042356E-16
150.5745 1.5379331E-16
150.7175 1.6131778E-16
150.8604 1.6223050E-16
151.0033 1.5602961E-16
151.1462 1.4251959E-16
151.2891 1.2184151E-16
151.4320 9.4489212E-17
151.5749 6.1310012E-17
151.7178 2.3488394E-17
151.8607 -1.7487751E-17
152.0037 -5.9877970E-17
152.1466 -1.0175611E-16
152.2895 -1.4109086E-16
152.4324 -1.7583680E-16
152.5753 -2.0403213E-16
152.7182 -2.2389839E-16
152.8611 -2.3393782E-16
153.0040 -2.3302281E-16
153.1470 -2.2047312E-16
153.2899 -1.9611669E-16
153.4328 -1.6033001E-16
153.5757 -1.1405532E-16
153.7186 -5.8792213E-17
153.8615 3.4371865E-18
154.0044 7.0150071E-17
154.1473 1.3849038E-16
154.2903 2.0533986E-16
154.4332 2.6744904E-16
154.5761 3.2158336E-16
154.7190 3.6467847E-16
154.8619 3.9399690E-16
155.0048 4.0728055E-16
155.1477 4.0288839E-16
155.2906 3.7991421E-16
155.4335 3.3827566E-16
155.5765 2.7876955E-16
155.7194 2.0308884E-16
155.8623 1.1379758E-16
156.0052 1.4263620E-17
156.1481 -9.1450792E-17
156.2910 -1.9873800E-16
156.4339 -3.0262828E-16
156.5768 -3.9800223E-16
156.7197 -4.7982341E-16
156.8627 -5.4338249E-16
157.0056 -5.8454135E-16
157.1485 -5.9996651E-16
157.2914 -5.8733953E-16
157.4343 -5.4553279E-16
157.5772 -4.7474026E-16
157.7201 -3.7655374E-16
157.8630 -2.5397695E-16
158.0060 -1.1137377E-16
158.1489 4.5652191E-17
158.2918 2.1044491E-16
158.4347 3.7554479E-16
158.5776 5.3299305E-16
158.7205 6.7467969E-16
158.8634 7.9272125E-16
159.0063 8.7985484E-16
159.1492 9.2982936E-16
159.2922 9.3777612E-16
159.4351 9.0053896E-16
159.5780 8.1694814E-16
159.7209 6.8801760E-16
159.8638 5.1705263E-16
160.0067 3.0965523E-16
160.1496 7.3619710E-17
160.2925 -1.8128534E-16
160.4355 -4.4364600E-16
160.5784 -7.0083596E-16
160.7213 -9.3954080E-16
160.8642 -1.1463545E-15
161.0071 -1.3084255E-15
161.1500 -1.4141279E-15
161.2929 -1.4537236E-15
161.4358 -1.4199884E-15
161.5788 -1.3087656E-15
161.7217 -1.1194197E-15
161.8646 -8.5515578E-16
162.0075 -5.2318525E-16
162.1504 -1.3471060E-16
162.2933 2.9528098E-16
162.4362 7.4842285E-16
162.5791 1.2035720E-15
162.7220 1.6375969E-15
162.8650 2.0263321E-15
163.0079 2.3456659E-15
163.1508 2.5727207E-15
163.2937 2.6870839E-15
163.4366 2.6720296E-15
163.5795 2.5156730E-15
163.7224 2.2120030E-15
163.8653 1.7617232E-15
164.0083 1.1728552E-15
164.1512 4.6104411E-16
164.2941 -3.5046827E-16
164.4370 -1.2312359E-15
164.5799 -2.1443780E-15
164.7228 -3.0477308E-15
164.8657 -3.8953550E-15
165.0086 -4.6393689E-15
165.1515 -5.2320459E-15
165.2944 -5.6281100E-15
165.4374 -5.7871294E-15
165.5803 -5.6759216E-15
165.7232 -5.2708425E-15
165.8661 -4.5598562E-15
166.0090 -3.5442558E-15
166.1519 -2.2399369E-15
166.2948 -6.7810917E-16
166.4377 1.0946295E-15
166.5807 3.0169251E-15
166.7236 5.0140429E-15
166.8665 6.9999921E-15
167.0094 8.8803747E-15
167.1523 1.0555900E-14
167.2952 1.1926459E-14
167.4381 1.2895640E-14
167.5810 1.3375516E-14
167.7240 1.3291494E-14
167.8669 1.2587060E-14
168.0098 1.1228133E-14
168.1527 9.2068543E-15
168.2956 6.5445365E-15
168.4385 3.2936023E-15
168.5814 -4.6169791E-16
168.7243 -4.6059149E-15
168.8672 -8.9944870E-15
169.0102 -1.3457313E-14
169.1531 -1.7803797E-14
169.2960 -2.1829289E-14
169.4389 -2.5322717E-14
169.5818 -2.8075258E-14
169.7247 -2.9889702E-14
169.8676 -3.0590178E-14
170.0105 -3.0031868E-14
170.1535 -2.8110289E-14
170.2964 -2.4769674E-14
170.4393 -2.0010042E-14
170.5822 -1.3892529E-14
170.7251 -6.5425871E-15
170.8680 1.8492500E-15
171.0109 1.1029308E-14
171.1538 2.0685564E-14
171.2968 3.0455341E-14
171.4397 3.9935838E-14
171.5826 4.8697286E-14
171.7255 5.6298492E-14
171.8684 6.2304173E-14
172.0113 6.6303706E-14
172.1542 6.7930497E-14
172.2971 6.6881356E-14
172.4400 6.2934900E-14
172.5829 5.5968342E-14
172.7259 4.5971761E-14
172.8688 3.3059001E-14
173.0117 1.7474579E-14
173.1546 -4.0412694E-16
173.2975 -2.0069817E-14
173.4404 -4.0893724E-14
173.5833 -6.2139672E-14
173.7262 -8.2983689E-14
173.8692 -1.0253887E-13
174.0121 -1.1988494E-13
174.1550 -1.3410182E-13
174.2979 -1.4430614E-13
174.4408 -1.4968963E-13
174.5837 -1.4955805E-13
174.7266 -1.4336900E-13
174.8695 -1.3076749E-13
175.0125 -1.1161729E-13
175.1554 -8.6026631E-14
175.2983 -5.4366996E-14
175.4412 -1.7283324E-14
175.5841 2.4305150E-14
175.7270 6.9214572E-14
175.8699 1.1601703E-13
176.0128 1.6307221E-13
176.1557 2.0856998E-13
176.2987 2.5058338E-13
176.4416 2.8713062E-13
176.5845 3.1624497E-13
176.7274 3.3605041E-13
176.8703 3.4484088E-13
177.0132 3.4116034E-13
177.1561 3.2388098E-13
177.2990 2.9227648E-13
177.4420 2.4608711E-13
177.5849 1.8557371E-13
177.7278 1.1155738E-13
177.8707 2.5442551E-14