  -7.200000        1.0908415E-17
  -7.057088        1.0919953E-17
  -6.914176        1.0941161E-17
  -6.771265        1.0968843E-17
  -6.628353        1.0998983E-17
  -6.485441        1.1027383E-17
  -6.342530        1.1050322E-17
  -6.199618        1.1065134E-17
  -6.056706        1.1070601E-17
  -5.913795        1.1067104E-17
  -5.770883        1.1056524E-17
  -5.627971        1.1041893E-17
  -5.485059        1.1026873E-17
  -5.342147        1.1015155E-17
  -5.199236        1.1009843E-17
  -5.056324        1.1012969E-17
  -4.913413        1.1025179E-17
  -4.770501        1.1045639E-17
  -4.627589        1.1072182E-17
  -4.484677        1.1101669E-17
  -4.341765        1.1130484E-17
  -4.198854        1.1155112E-17
  -4.055942        1.1172695E-17
  -3.913030        1.1181479E-17
  -3.770118        1.1181094E-17
  -3.627207        1.1172615E-17
  -3.484295        1.1158403E-17
  -3.341383        1.1141737E-17
  -3.198472        1.1126310E-17
  -3.055560        1.1115641E-17
  -2.912648        1.1112521E-17
  -2.769737        1.1118557E-17
  -2.626825        1.1133908E-17
  -2.483913        1.1157236E-17
  -2.341001        1.1185910E-17
  -2.198090        1.1216405E-17
  -2.055178        1.1244876E-17
  -1.912266        1.1267765E-17
  -1.769354        1.1282387E-17
  -1.626443        1.1287377E-17
  -1.483531        1.1282914E-17
  -1.340619        1.1270707E-17
  -1.197708        1.1253714E-17
  -1.054796        1.1235660E-17
 -0.9118841        1.1220419E-17
 -0.7689723        1.1211374E-17
 -0.6260606        1.1210856E-17
 -0.4831489        1.1219761E-17
 -0.3402372        1.1237404E-17
 -0.1973254        1.1261638E-17
 -5.4413714E-02    1.1289220E-17
  8.8498011E-02    1.1316349E-17
  0.2314097        1.1339302E-17
  0.3743215        1.1355047E-17
  0.5172332        1.1361736E-17
  0.6601449        1.1359006E-17
  0.8030567        1.1348030E-17
  0.9459684        1.1331321E-17
   1.088880        1.1312328E-17
   1.231792        1.1294875E-17
   1.374704        1.1282557E-17
   1.517615        1.1278171E-17
   1.660527        1.1283277E-17
   1.803439        1.1297961E-17
   1.946350        1.1320815E-17
   2.089262        1.1349160E-17
   2.232174        1.1379461E-17
   2.375086        1.1407860E-17
   2.517997        1.1430777E-17
   2.660909        1.1445455E-17
   2.803821        1.1450382E-17
   2.946733        1.1445528E-17
   3.089644        1.1432351E-17
   3.232556        1.1413575E-17
   3.375468        1.1392773E-17
   3.518379        1.1373805E-17
   3.661291        1.1360219E-17
   3.804203        1.1354688E-17
   3.947115        1.1358586E-17
   4.090026        1.1371757E-17
   4.232938        1.1392550E-17
   4.375850        1.1418071E-17
   4.518762        1.1444660E-17
   4.661673        1.1468483E-17
   4.804585        1.1486167E-17
   4.947497        1.1495356E-17
   5.090408        1.1495104E-17
   5.233320        1.1486028E-17
   5.376232        1.1470216E-17
   5.519144        1.1450864E-17
   5.662055        1.1431753E-17
   5.804967        1.1416607E-17
   5.947879        1.1408479E-17
   6.090790        1.1409232E-17
   6.233702        1.1419240E-17
   6.376614        1.1437320E-17
   6.519526        1.1460940E-17
   6.662437        1.1486630E-17
   6.805349        1.1510559E-17
   6.948261        1.1529162E-17
   7.091173        1.1539711E-17
   7.234084        1.1540749E-17
   7.376996        1.1532325E-17
   7.519908        1.1515963E-17
   7.662819        1.1494429E-17
   7.805731        1.1471272E-17
   7.948643        1.1450274E-17
   8.091555        1.1434855E-17
   8.234467        1.1427543E-17
   8.377378        1.1429593E-17
   8.520289        1.1440800E-17
   8.663201        1.1459545E-17
   8.806113        1.1483051E-17
   8.949025        1.1507827E-17
   9.091937        1.1530212E-17
   9.234848        1.1546958E-17
   9.377760        1.1555733E-17
   9.520672        1.1555497E-17
   9.663584        1.1546669E-17
   9.806496        1.1531064E-17
   9.949407        1.1511612E-17
   10.09232        1.1491889E-17
   10.23523        1.1475541E-17
   10.37814        1.1465695E-17
   10.52105        1.1464435E-17
   10.66397        1.1472447E-17
   10.80688        1.1488894E-17
   10.94979        1.1511529E-17
   11.09270        1.1537052E-17
   11.23561        1.1561637E-17
   11.37852        1.1581555E-17
   11.52144        1.1593794E-17
   11.66435        1.1596554E-17
   11.80726        1.1589556E-17
   11.95017        1.1574087E-17
   12.09308        1.1552809E-17
   12.23599        1.1529316E-17
   12.37891        1.1507560E-17
   12.52182        1.1491205E-17
   12.66473        1.1483047E-17
   12.80764        1.1484564E-17
   12.95055        1.1495698E-17
   13.09346        1.1514881E-17
   13.23638        1.1539309E-17
   13.37929        1.1565403E-17
   13.52220        1.1589393E-17
   13.66511        1.1607925E-17
   13.80802        1.1618576E-17
   13.95094        1.1620227E-17
   14.09385        1.1613220E-17
   14.23676        1.1599265E-17
   14.37967        1.1581157E-17
   14.52258        1.1562309E-17
   14.66549        1.1546198E-17
   14.80841        1.1535813E-17
   14.95132        1.1533179E-17
   15.09423        1.1539041E-17
   15.23714        1.1552749E-17
   15.38005        1.1572363E-17
   15.52296        1.1594965E-17
   15.66588        1.1617118E-17
   15.80879        1.1635427E-17
   15.95170        1.1647077E-17
   16.09461        1.1650300E-17
   16.23752        1.1644671E-17
   16.38043        1.1631197E-17
   16.52335        1.1612171E-17
   16.66626        1.1590826E-17
   16.80917        1.1570822E-17
   16.95208        1.1555660E-17
   17.09499        1.1548116E-17
   17.23791        1.1549779E-17
   17.38082        1.1560786E-17
   17.52373        1.1579785E-17
   17.66664        1.1604140E-17
   17.80955        1.1630355E-17
   17.95246        1.1654636E-17
   18.09538        1.1673507E-17
   18.23829        1.1684374E-17
   18.38120        1.1685941E-17
   18.52411        1.1678415E-17
   18.66702        1.1663460E-17
   18.80993        1.1643912E-17
   18.95285        1.1623307E-17
   19.09576        1.1605294E-17
   19.23867        1.1593039E-17
   19.38158        1.1588717E-17
   19.52449        1.1593170E-17
   19.66740        1.1605789E-17
   19.81032        1.1624637E-17
   19.95323        1.1646781E-17
   20.09614        1.1668783E-17
   20.23905        1.1687268E-17
   20.38196        1.1699469E-17
   20.52488        1.1703669E-17
   20.66779        1.1699477E-17
   20.81070        1.1687874E-17
   20.95361        1.1671059E-17
   21.09652        1.1652089E-17
   21.23943        1.1634390E-17
   21.38235        1.1621217E-17
   21.52526        1.1615134E-17
   21.66817        1.1617604E-17
   21.81108        1.1628754E-17
   21.95399        1.1647343E-17
   22.09690        1.1670951E-17
   22.23981        1.1696345E-17
   22.38273        1.1719978E-17
   22.52564        1.1738550E-17
   22.66855        1.1749516E-17
   22.81146        1.1751497E-17
   22.95437        1.1744500E-17
   23.09729        1.1729918E-17
   23.24020        1.1710315E-17
   23.38311        1.1689017E-17
   23.52602        1.1669576E-17
   23.66893        1.1655207E-17
   23.81184        1.1648260E-17
   23.95476        1.1649851E-17
   24.09767        1.1659686E-17
   24.24058        1.1676123E-17
   24.38349        1.1696449E-17
   24.52640        1.1717353E-17
   24.66932        1.1735482E-17
   24.81223        1.1748009E-17
   24.95514        1.1753108E-17
   25.09805        1.1750272E-17
   25.24096        1.1740383E-17
   25.38387        1.1725574E-17
   25.52678        1.1708865E-17
   25.66970        1.1693657E-17
   25.81261        1.1683164E-17
   25.95552        1.1679872E-17
   26.09843        1.1685129E-17
   26.24134        1.1698909E-17
   26.38426        1.1719814E-17
   26.52717        1.1745284E-17
   26.67008        1.1772000E-17
   26.81299        1.1796405E-17
   26.95590        1.1815249E-17
   27.09881        1.1826103E-17
   27.24173        1.1827720E-17
   27.38464        1.1820226E-17
   27.52755        1.1805092E-17
   27.67046        1.1784902E-17
   27.81337        1.1762955E-17
   27.95629        1.1742754E-17
   28.09920        1.1727479E-17
   28.24211        1.1719503E-17
   28.38502        1.1720039E-17
   28.52793        1.1728969E-17
   28.67084        1.1744873E-17
   28.81376        1.1765263E-17
   28.95667        1.1786983E-17
   29.09958        1.1806714E-17
   29.24249        1.1821497E-17
   29.38540        1.1829211E-17
   29.52831        1.1828907E-17
   29.67122        1.1820957E-17
   29.81414        1.1806993E-17
   29.95705        1.1789638E-17
   30.09996        1.1772071E-17
   30.24287        1.1757500E-17
   30.38578        1.1748632E-17
   30.52870        1.1747219E-17
   30.67161        1.1753758E-17
   30.81452        1.1767409E-17
   30.95743        1.1786128E-17
   31.10034        1.1807003E-17
   31.24325        1.1826739E-17
   31.38617        1.1842197E-17
   31.52908        1.1850921E-17
   31.67199        1.1851534E-17
   31.81490        1.1843972E-17
   31.95781        1.1829477E-17
   32.10072        1.1810405E-17
   32.24364        1.1789826E-17
   32.38655        1.1771041E-17
   32.52946        1.1757039E-17
   32.67237        1.1750040E-17
   32.81528        1.1751155E-17
   32.95819        1.1760222E-17
   33.10111        1.1775863E-17
   33.24402        1.1795714E-17
   33.38693        1.1816815E-17
   33.52984        1.1836080E-17
   33.67275        1.1850779E-17
   33.81567        1.1858953E-17
   33.95858        1.1859707E-17
   34.10149        1.1853336E-17
   34.24440        1.1841259E-17
   34.38731        1.1825788E-17
   34.53022        1.1809759E-17
   34.67313        1.1796074E-17
   34.81605        1.1787254E-17
   34.95896        1.1785029E-17
   35.10187        1.1790062E-17
   35.24478        1.1801837E-17
   35.38770        1.1818736E-17
   35.53061        1.1838286E-17
   35.67352        1.1857558E-17
   35.81643        1.1873637E-17
   35.95934        1.1884106E-17
   36.10225        1.1887446E-17
   36.24516        1.1883315E-17
   36.38808        1.1872613E-17
   36.53099        1.1857362E-17
   36.67390        1.1840390E-17
   36.81681        1.1824876E-17
   36.95972        1.1813832E-17
   37.10263        1.1809601E-17
   37.24555        1.1813474E-17
   37.38846        1.1825458E-17
   37.53137        1.1844268E-17
   37.67428        1.1867526E-17
   37.81719        1.1892139E-17
   37.96011        1.1914782E-17
   38.10302        1.1932423E-17
   38.24593        1.1942797E-17
   38.38884        1.1944741E-17
   38.53175        1.1938355E-17
   38.67466        1.1924962E-17
   38.81758        1.1906880E-17
   38.96049        1.1887041E-17
   39.10340        1.1868524E-17
   39.24631        1.1854087E-17
   39.38922        1.1845752E-17
   39.53214        1.1844517E-17
   39.67505        1.1850227E-17
   39.81796        1.1861633E-17
   39.96087        1.1876611E-17
   40.10378        1.1892510E-17
   40.24669        1.1906583E-17
   40.38961        1.1916429E-17
   40.53252        1.1920377E-17
   40.67543        1.1917762E-17
   40.81834        1.1909047E-17
   40.96125        1.1895755E-17
   41.10416        1.1880248E-17
   41.24707        1.1865355E-17
   41.38999        1.1853910E-17
   41.53290        1.1848294E-17
   41.67581        1.1850020E-17
   41.81872        1.1859457E-17
   41.96163        1.1875734E-17
   42.10455        1.1896839E-17
   42.24746        1.1919924E-17
   42.39037        1.1941738E-17
   42.53328        1.1959154E-17
   42.67619        1.1969676E-17
   42.81910        1.1971853E-17
   42.96202        1.1965531E-17
   43.10493        1.1951883E-17
   43.24784        1.1933231E-17
   43.39075        1.1912671E-17
   43.53366        1.1893568E-17
   43.67657        1.1879023E-17
   43.81948        1.1871363E-17
   43.96240        1.1871782E-17
   44.10531        1.1880164E-17
   44.24822        1.1895114E-17
   44.39113        1.1914210E-17
   44.53405        1.1934401E-17
   44.67696        1.1952517E-17
   44.81987        1.1965781E-17
   44.96278        1.1972256E-17
   45.10569        1.1971152E-17
   45.24860        1.1962952E-17
   45.39151        1.1949326E-17
   45.53443        1.1932871E-17
   45.67734        1.1916691E-17
   45.82025        1.1903907E-17
   45.96316        1.1897149E-17
   46.10608        1.1898129E-17
   46.24899        1.1907343E-17
   46.39190        1.1923970E-17
   46.53481        1.1945965E-17
   46.67772        1.1970360E-17
   46.82063        1.1993711E-17
   46.96354        1.2012636E-17
   47.10646        1.2024354E-17
   47.24937        1.2027148E-17
   47.39228        1.2020658E-17
   47.53519        1.2005970E-17
   47.67810        1.1985463E-17
   47.82101        1.1962450E-17
   47.96392        1.1940651E-17
   48.10684        1.1923590E-17
   48.24975        1.1914030E-17
   48.39266        1.1913508E-17
   48.53557        1.1922086E-17
   48.67849        1.1938344E-17
   48.82140        1.1959615E-17
   48.96431        1.1982442E-17
   49.10722        1.2003156E-17
   49.25013        1.2018501E-17
   49.39304        1.2026173E-17
   49.53595        1.2025208E-17
   49.67887        1.2016133E-17
   49.82178        1.2000865E-17
   49.96469        1.1982378E-17
   50.10760        1.1964193E-17
   50.25051        1.1949773E-17
   50.39342        1.1941937E-17
   50.53634        1.1942378E-17
   50.67925        1.1951372E-17
   50.82216        1.1967723E-17
   50.96507        1.1988950E-17
   51.10798        1.2011692E-17
   51.25090        1.2032252E-17
   51.39381        1.2047212E-17
   51.53672        1.2054001E-17
   51.67963        1.2051331E-17
   51.82254        1.2039434E-17
   51.96545        1.2020058E-17
   52.10837        1.1996203E-17
   52.25128        1.1971668E-17
   52.39419        1.1950441E-17
   52.53710        1.1936067E-17
   52.68001        1.1931055E-17
   52.82293        1.1936464E-17
   52.96584        1.1951709E-17
   53.10875        1.1974631E-17
   53.25166        1.2001836E-17
   53.39457        1.2029232E-17
   53.53748        1.2052697E-17
   53.68040        1.2068753E-17
   53.82331        1.2075138E-17
   53.96622        1.2071185E-17
   54.10913        1.2057925E-17
   54.25204        1.2037914E-17
   54.39495        1.2014795E-17
   54.53786        1.1992685E-17
   54.68078        1.1975470E-17
   54.82369        1.1966150E-17
   54.96660        1.1966335E-17
   55.10951        1.1975981E-17
   55.25242        1.1993410E-17
   55.39534        1.2015605E-17
   55.53825        1.2038743E-17
   55.68116        1.2058857E-17
   55.82407        1.2072523E-17
   55.96698        1.2077450E-17
   56.10989        1.2072878E-17
   56.25281        1.2059714E-17
   56.39572        1.2040383E-17
   56.53863        1.2018423E-17
   56.68154        1.1997895E-17
   56.82445        1.1982694E-17
   56.96737        1.1975899E-17
   57.11028        1.1979242E-17
   57.25319        1.1992814E-17
   57.39610        1.2015029E-17
   57.53901        1.2042871E-17
   57.68192        1.2072382E-17
   57.82484        1.2099298E-17
   57.96775        1.2119749E-17
   58.11066        1.2130886E-17
   58.25357        1.2131346E-17
   58.39648        1.2121475E-17
   58.53939        1.2103258E-17
   58.68230        1.2079986E-17
   58.82522        1.2055701E-17
   58.96813        1.2034508E-17
   59.11104        1.2019895E-17
   59.25395        1.2014136E-17
   59.39687        1.2017919E-17
   59.53978        1.2030239E-17
   59.68269        1.2048590E-17
   59.82560        1.2069403E-17
   59.96851        1.2088688E-17
   60.11142        1.2102733E-17
   60.25433        1.2108772E-17
   60.39725        1.2105477E-17
   60.54016        1.2093215E-17
   60.68307        1.2073998E-17
   60.82598        1.2051161E-17
   60.96889        1.2028793E-17
   61.11180        1.2011050E-17
   61.25471        1.2001439E-17
   61.39763        1.2002220E-17
   61.54054        1.2014001E-17
   61.68345        1.2035622E-17
   61.82636        1.2064329E-17
   61.96928        1.2096211E-17
   62.11219        1.2126831E-17
   62.25510        1.2151942E-17
   62.39801        1.2168168E-17
   62.54092        1.2173537E-17
   62.68383        1.2167787E-17
   62.82674        1.2152384E-17
   62.96966        1.2130262E-17
   63.11257        1.2105323E-17
   63.25548        1.2081788E-17
   63.39839        1.2063501E-17
   63.54131        1.2053305E-17
   63.68422        1.2052593E-17
   63.82713        1.2061097E-17
   63.97004        1.2076973E-17
   64.11295        1.2097130E-17
   64.25586        1.2117786E-17
   64.39877        1.2135119E-17
   64.54169        1.2145934E-17
   64.68460        1.2148208E-17
   64.82751        1.2141447E-17
   64.97042        1.2126765E-17
   65.11333        1.2106694E-17
   65.25625        1.2084753E-17
   65.39915        1.2064840E-17
   65.54207        1.2050566E-17
   65.68498        1.2044628E-17
   65.82789        1.2048350E-17
   65.97080        1.2061446E-17
   66.11372        1.2082070E-17
   66.25663        1.2107117E-17
   66.39954        1.2132752E-17
   66.54245        1.2155046E-17
   66.68536        1.2170633E-17
   66.82828        1.2177267E-17
   66.97118        1.2174180E-17
   67.11410        1.2162196E-17
   67.25701        1.2143571E-17
   67.39992        1.2121598E-17
   67.54283        1.2100049E-17
   67.68575        1.2082536E-17
   67.82866        1.2071919E-17
   67.97157        1.2069844E-17
   68.11448        1.2076493E-17
   68.25739        1.2090582E-17
   68.40031        1.2109607E-17
   68.54321        1.2130279E-17
   68.68613        1.2149100E-17
   68.82904        1.2162945E-17
   68.97195        1.2169585E-17
   69.11486        1.2168048E-17
   69.25777        1.2158770E-17
   69.40069        1.2143491E-17
   69.54359        1.2124960E-17
   69.68651        1.2106449E-17
   69.82942        1.2091199E-17
   69.97233        1.2081867E-17
   70.11524        1.2080080E-17
   70.25816        1.2086166E-17
   70.40107        1.2099100E-17
   70.54398        1.2116688E-17
   70.68689        1.2135942E-17
   70.82980        1.2153594E-17
   70.97272        1.2166645E-17
   71.11562        1.2172879E-17
   71.25854        1.2171232E-17
   71.40145        1.2161969E-17
   71.54436        1.2146621E-17
   71.68727        1.2127724E-17
   71.83018        1.2108377E-17
   71.97310        1.2091703E-17
   72.11600        1.2080325E-17
   72.25892        1.2075926E-17
   72.40183        1.2078978E-17
   72.54475        1.2088676E-17
   72.68765        1.2103108E-17
   72.83057        1.2119602E-17
   72.97348        1.2135195E-17
   73.11639        1.2147153E-17
   73.25930        1.2153433E-17
   73.40221        1.2153018E-17
   73.54513        1.2146072E-17
   73.68803        1.2133882E-17
   73.83095        1.2118611E-17
   73.97386        1.2102908E-17
   74.11678        1.2089437E-17
   74.25968        1.2080415E-17
   74.40260        1.2077246E-17
   74.54551        1.2080283E-17
   74.68842        1.2088794E-17
   74.83133        1.2101099E-17
   74.97424        1.2114877E-17
   75.11716        1.2127569E-17
   75.26006        1.2136813E-17
   75.40298        1.2140858E-17
   75.54589        1.2138847E-17
   75.68880        1.2130953E-17
   75.83171        1.2118353E-17
   75.97462        1.2103016E-17
   76.11754        1.2087361E-17
   76.26044        1.2073857E-17
   76.40336        1.2064599E-17
   76.54627        1.2060960E-17
   76.68919        1.2063370E-17
   76.83209        1.2071244E-17
   76.97501        1.2083100E-17
   77.11792        1.2096817E-17
   77.26083        1.2110009E-17
   77.40374        1.2120435E-17
   77.54665        1.2126383E-17
   77.68957        1.2126961E-17
   77.83247        1.2122236E-17
   77.97539        1.2113208E-17
   78.11830        1.2101613E-17
   78.26122        1.2089598E-17
   78.40412        1.2079333E-17
   78.54704        1.2072613E-17
   78.68995        1.2070537E-17
   78.83286        1.2073317E-17
   78.97577        1.2080246E-17
   79.11868        1.2089833E-17
   79.26160        1.2100082E-17
   79.40450        1.2108852E-17
   79.54742        1.2114245E-17
   79.69033        1.2114942E-17
   79.83324        1.2110428E-17
   79.97615        1.2101082E-17
   80.11906        1.2088096E-17
   80.26198        1.2073261E-17
   80.40488        1.2058655E-17
   80.54780        1.2046280E-17
   80.69071        1.2037734E-17
   80.83363        1.2033952E-17
   80.97653        1.2035069E-17
   81.11945        1.2040434E-17
   81.26236        1.2048738E-17
   81.40527        1.2058271E-17
   81.54818        1.2067217E-17
   81.69109        1.2073975E-17
   81.83401        1.2077416E-17
   81.97691        1.2077064E-17
   82.11983        1.2073147E-17
   82.26274        1.2066537E-17
   82.40565        1.2058569E-17
   82.54856        1.2050791E-17
   82.69147        1.2044680E-17
   82.83439        1.2041378E-17
   82.97730        1.2041484E-17
   83.12021        1.2044949E-17
   83.26312        1.2051091E-17
   83.40604        1.2058709E-17
   83.54894        1.2066307E-17
   83.69186        1.2072354E-17
   83.83477        1.2075561E-17
   83.97768        1.2075117E-17
   84.12059        1.2070827E-17
   84.26350        1.2063157E-17
   84.40642        1.2053151E-17
   84.54933        1.2042245E-17
   84.69224        1.2032015E-17
   84.83515        1.2023902E-17
   84.97807        1.2018960E-17
   85.12097        1.2017686E-17
   85.26389        1.2019948E-17
   85.40680        1.2025031E-17
   85.54971        1.2031794E-17
   85.69262        1.2038895E-17
   85.83553        1.2045051E-17
   85.97845        1.2049274E-17
   86.12135        1.2051045E-17
   86.26427        1.2050389E-17
   86.40718        1.2047834E-17
   86.55009        1.2044292E-17
   86.69300        1.2040838E-17
   86.83591        1.2038488E-17
   86.97883        1.2037987E-17
   87.12174        1.2039651E-17
   87.26465        1.2043308E-17
   87.40756        1.2048333E-17
   87.55048        1.2053773E-17
   87.69338        1.2058540E-17
   87.83630        1.2061621E-17
   87.97921        1.2062277E-17
   88.12212        1.2060189E-17
   88.26503        1.2055523E-17
   88.40794        1.2048896E-17
   88.55086        1.2041271E-17
   88.69377        1.2033785E-17
   88.83668        1.2027543E-17
   88.97959        1.2023423E-17
   89.12251        1.2021927E-17
   89.26541        1.2023088E-17
   89.40833        1.2026481E-17
   89.55124        1.2031292E-17
   89.69415        1.2036483E-17
   89.83706        1.2040974E-17
   89.97997        1.2043847E-17
   90.12289        1.2044528E-17
   90.26580        1.2042894E-17
   90.40871        1.2039311E-17
   90.55162        1.2034581E-17
   90.69453        1.2029804E-17
   90.83744        1.2026177E-17
   90.98035        1.2024767E-17
   91.12327        1.2026296E-17
   91.26618        1.2030978E-17
   91.40909        1.2038438E-17
   91.55200        1.2047732E-17
   91.69492        1.2057480E-17
   91.83783        1.2066077E-17
   91.98074        1.2071957E-17
   92.12365        1.2073867E-17
   92.26656        1.2071096E-17
   92.40947        1.2063621E-17
   92.55238        1.2052137E-17
   92.69530        1.2037969E-17
   92.83821        1.2022870E-17
   92.98112        1.2008754E-17
   93.12403        1.1997390E-17
   93.26694        1.1990129E-17
   93.40986        1.1987707E-17
   93.55276        1.1990148E-17
   93.69568        1.1996790E-17
   93.83859        1.2006431E-17
   93.98150        1.2017556E-17
   94.12441        1.2028597E-17
   94.26733        1.2038202E-17
   94.41024        1.2045433E-17
   94.55315        1.2049890E-17
   94.69606        1.2051725E-17
   94.83897        1.2051553E-17
   94.98188        1.2050292E-17
   95.12479        1.2048952E-17
   95.26771        1.2048421E-17
   95.41062        1.2049289E-17
   95.55353        1.2051732E-17
   95.69644        1.2055489E-17
   95.83936        1.2059916E-17
   95.98227        1.2064111E-17
   96.12518        1.2067094E-17
   96.26809        1.2067996E-17
   96.41100        1.2066236E-17
   96.55391        1.2061635E-17
   96.69682        1.2054481E-17
   96.83974        1.2045500E-17
   96.98265        1.2035753E-17
   97.12556        1.2026480E-17
   97.26847        1.2018903E-17
   97.41138        1.2014026E-17
   97.55430        1.2012468E-17
   97.69720        1.2014357E-17
   97.84012        1.2019298E-17
   97.98303        1.2026435E-17
   98.12594        1.2034586E-17
   98.26885        1.2042444E-17
   98.41177        1.2048798E-17
   98.55468        1.2052746E-17
   98.69759        1.2053851E-17
   98.84050        1.2052226E-17
   98.98341        1.2048510E-17
   99.12633        1.2043755E-17
   99.26923        1.2039228E-17
   99.41215        1.2036172E-17
   99.55506        1.2035568E-17
   99.69797        1.2037936E-17
   99.84088        1.2043220E-17
   99.98380        1.2050777E-17
   100.1267        1.2059475E-17
   100.2696        1.2067887E-17
   100.4125        1.2074535E-17
   100.5554        1.2078155E-17
   100.6984        1.2077927E-17
   100.8413        1.2073628E-17
   100.9842        1.2065685E-17
   101.1271        1.2055118E-17
   101.2700        1.2043380E-17
   101.4129        1.2032132E-17
   101.5558        1.2022975E-17
   101.6987        1.2017205E-17
   101.8416        1.2015619E-17
   101.9846        1.2018393E-17
   102.1275        1.2025078E-17
   102.2704        1.2034676E-17
   102.4133        1.2045811E-17
   102.5562        1.2056943E-17
   102.6991        1.2066614E-17
   102.8420        1.2073660E-17
   102.9849        1.2077387E-17
   103.1279        1.2077662E-17
   103.2708        1.2074924E-17
   103.4137        1.2070098E-17
   103.5566        1.2064445E-17
   103.6995        1.2059354E-17
   103.8424        1.2056113E-17
   103.9853        1.2055702E-17
   104.1282        1.2058622E-17
   104.2711        1.2064811E-17
   104.4141        1.2073632E-17
   104.5570        1.2083980E-17
   104.6999        1.2094434E-17
   104.8428        1.2103500E-17
   104.9857        1.2109841E-17
   105.1286        1.2112505E-17
   105.2715        1.2111090E-17
   105.4144        1.2105817E-17
   105.5574        1.2097510E-17
   105.7003        1.2087465E-17
   105.8432        1.2077250E-17
   105.9861        1.2068454E-17
   106.1290        1.2062433E-17
   106.2719        1.2060098E-17
   106.4148        1.2061771E-17
   106.5577        1.2067147E-17
   106.7006        1.2075348E-17
   106.8436        1.2085085E-17
   106.9865        1.2094862E-17
   107.1294        1.2103223E-17
   107.2723        1.2108978E-17
   107.4152        1.2111378E-17
   107.5581        1.2110217E-17
   107.7010        1.2105840E-17
   107.8439        1.2099065E-17
   107.9869        1.2091041E-17
   108.1298        1.2083056E-17
   108.2727        1.2076331E-17
   108.4156        1.2071839E-17
   108.5585        1.2070172E-17
   108.7014        1.2071466E-17
   108.8443        1.2075399E-17
   108.9872        1.2081266E-17
   109.1301        1.2088098E-17
   109.2731        1.2094830E-17
   109.4160        1.2100463E-17
   109.5589        1.2104230E-17
   109.7018        1.2105706E-17
   109.8447        1.2104873E-17
   109.9876        1.2102114E-17
   110.1305        1.2098148E-17
   110.2734        1.2093903E-17
   110.4164        1.2090361E-17
   110.5593        1.2088382E-17
   110.7022        1.2088556E-17
   110.8451        1.2091097E-17
   110.9880        1.2095784E-17
   111.1309        1.2102002E-17
   111.2738        1.2108829E-17
   111.4167        1.2115193E-17
   111.5596        1.2120055E-17
   111.7026        1.2122590E-17
   111.8455        1.2122339E-17
   111.9884        1.2119297E-17
   112.1313        1.2113923E-17
   112.2742        1.2107070E-17
   112.4171        1.2099843E-17
   112.5600        1.2093407E-17
   112.7029        1.2088779E-17
   112.8458        1.2086650E-17
   112.9888        1.2087247E-17
   113.1317        1.2090286E-17
   113.2746        1.2095004E-17
   113.4175        1.2100277E-17
   113.5604        1.2104801E-17
   113.7033        1.2107310E-17
   113.8462        1.2106789E-17
   113.9891        1.2102649E-17
   114.1321        1.2094840E-17
   114.2750        1.2083874E-17
   114.4179        1.2070760E-17
   114.5608        1.2056865E-17
   114.7037        1.2043707E-17
   114.8466        1.2032731E-17
   114.9895        1.2025088E-17
   115.1324        1.2021458E-17
   115.2754        1.2021944E-17
   115.4183        1.2026050E-17
   115.5612        1.2032751E-17
   115.7041        1.2040647E-17
   115.8470        1.2048173E-17
   115.9899        1.2053834E-17
   116.1328        1.2056443E-17
   116.2757        1.2055305E-17
   116.4186        1.2050324E-17
   116.5616        1.2042033E-17
   116.7045        1.2031502E-17
   116.8474        1.2020175E-17
   116.9903        1.2009632E-17
   117.1332        1.2001329E-17
   117.2761        1.1996350E-17
   117.4190        1.1995213E-17
   117.5619        1.1997773E-17
   117.7048        1.2003223E-17
   117.8478        1.2010224E-17
   117.9907        1.2017115E-17
   118.1336        1.2022199E-17
   118.2765        1.2024029E-17
   118.4194        1.2021676E-17
   118.5623        1.2014907E-17
   118.7052        1.2004252E-17
   118.8481        1.1990941E-17
   118.9911        1.1976718E-17
   119.1340        1.1963573E-17
   119.2769        1.1953403E-17
   119.4198        1.1947704E-17
   119.5627        1.1947310E-17
   119.7056        1.1952237E-17
   119.8485        1.1961659E-17
   119.9914        1.1974032E-17
   120.1343        1.1987323E-17
   120.2773        1.1999329E-17
   120.4202        1.2008030E-17
   120.5631        1.2011897E-17
   120.7060        1.2010142E-17
   120.8489        1.2002834E-17
   120.9918        1.1990883E-17
   121.1347        1.1975884E-17
   121.2776        1.1959855E-17
   121.4206        1.1944917E-17
   121.5635        1.1932934E-17
   121.7064        1.1925234E-17
   121.8493        1.1922385E-17
   121.9922        1.1924119E-17
   122.1351        1.1929384E-17
   122.2780        1.1936524E-17
   122.4209        1.1943567E-17
   122.5639        1.1948556E-17