  -7.200000        3.6334544E-19
  -7.057088        3.6415339E-19
  -6.914176        3.6570066E-19
  -6.771265        3.6787348E-19
  -6.628353        3.7052273E-19
  -6.485441        3.7347853E-19
  -6.342530        3.7656782E-19
  -6.199618        3.7962578E-19
  -6.056706        3.8250938E-19
  -5.913795        3.8510427E-19
  -5.770883        3.8733027E-19
  -5.627971        3.8913911E-19
  -5.485059        3.9051086E-19
  -5.342147        3.9144800E-19
  -5.199236        3.9196669E-19
  -5.056324        3.9209230E-19
  -4.913413        3.9185337E-19
  -4.770501        3.9128220E-19
  -4.627589        3.9041115E-19
  -4.484677        3.8928123E-19
  -4.341765        3.8794148E-19
  -4.198854        3.8645643E-19
  -4.055942        3.8490715E-19
  -3.913030        3.8339209E-19
  -3.770118        3.8202621E-19
  -3.627207        3.8093293E-19
  -3.484295        3.8023637E-19
  -3.341383        3.8004950E-19
  -3.198472        3.8046273E-19
  -3.055560        3.8153380E-19
  -2.912648        3.8327739E-19
  -2.769737        3.8566048E-19
  -2.626825        3.8860214E-19
  -2.483913        3.9197765E-19
  -2.341001        3.9562927E-19
  -2.198090        3.9937658E-19
  -2.055178        4.0303243E-19
  -1.912266        4.0642098E-19
  -1.769354        4.0938965E-19
  -1.626443        4.1181988E-19
  -1.483531        4.1363694E-19
  -1.340619        4.1480960E-19
  -1.197708        4.1534985E-19
  -1.054796        4.1530562E-19
 -0.9118841        4.1475076E-19
 -0.7689723        4.1377479E-19
 -0.6260606        4.1247447E-19
 -0.4831489        4.1094638E-19
 -0.3402372        4.0928000E-19
 -0.1973254        4.0755931E-19
 -5.4413714E-02    4.0586023E-19
  8.8498011E-02    4.0425684E-19
  0.2314097        4.0282409E-19
  0.3743215        4.0164049E-19
  0.5172332        4.0078695E-19
  0.6601449        4.0034611E-19
  0.8030567        4.0039564E-19
  0.9459684        4.0099904E-19
   1.088880        4.0219700E-19
   1.231792        4.0399630E-19
   1.374704        4.0636491E-19
   1.517615        4.0922610E-19
   1.660527        4.1245986E-19
   1.803439        4.1591099E-19
   1.946350        4.1939763E-19
   2.089262        4.2272794E-19
   2.232174        4.2571584E-19
   2.375086        4.2819868E-19
   2.517997        4.3005138E-19
   2.660909        4.3119814E-19
   2.803821        4.3161571E-19
   2.946733        4.3133592E-19
   3.089644        4.3043749E-19
   3.232556        4.2903951E-19
   3.375468        4.2728464E-19
   3.518379        4.2532645E-19
   3.661291        4.2331443E-19
   3.804203        4.2138305E-19
   3.947115        4.1964346E-19
   4.090026        4.1817767E-19
   4.232938        4.1704027E-19
   4.375850        4.1626094E-19
   4.518762        4.1585073E-19
   4.661673        4.1580958E-19
   4.804585        4.1613262E-19
   4.947497        4.1681610E-19
   5.090408        4.1785729E-19
   5.233320        4.1925577E-19
   5.376232        4.2100691E-19
   5.519144        4.2309559E-19
   5.662055        4.2548858E-19
   5.804967        4.2812754E-19
   5.947879        4.3092398E-19
   6.090790        4.3376147E-19
   6.233702        4.3649675E-19
   6.376614        4.3897250E-19
   6.519526        4.4102897E-19
   6.662437        4.4252162E-19
   6.805349        4.4333629E-19
   6.948261        4.4340308E-19
   7.091173        4.4270727E-19
   7.234084        4.4129388E-19
   7.376996        4.3926480E-19
   7.519908        4.3676889E-19
   7.662819        4.3399044E-19
   7.805731        4.3112822E-19
   7.948643        4.2838074E-19
   8.091555        4.2592760E-19
   8.234467        4.2391887E-19
   8.377378        4.2246192E-19
   8.520289        4.2162432E-19
   8.663201        4.2143169E-19
   8.806113        4.2187457E-19
   8.949025        4.2291806E-19
   9.091937        4.2450824E-19
   9.234848        4.2658200E-19
   9.377760        4.2907148E-19
   9.520672        4.3190571E-19
   9.663584        4.3501242E-19
   9.806496        4.3831287E-19
   9.949407        4.4172024E-19
   10.09232        4.4513536E-19
   10.23523        4.4844439E-19
   10.37814        4.5152145E-19
   10.52105        4.5423129E-19
   10.66397        4.5643743E-19
   10.80688        4.5801425E-19
   10.94979        4.5885740E-19
   11.09270        4.5889907E-19
   11.23561        4.5811578E-19
   11.37852        4.5653820E-19
   11.52144        4.5425337E-19
   11.66435        4.5140130E-19
   11.80726        4.4816584E-19
   11.95017        4.4475935E-19
   12.09308        4.4140601E-19
   12.23599        4.3832078E-19
   12.37891        4.3569175E-19
   12.52182        4.3366254E-19
   12.66473        4.3232365E-19
   12.80764        4.3170869E-19
   12.95055        4.3179629E-19
   13.09346        4.3252044E-19
   13.23638        4.3378706E-19
   13.37929        4.3548407E-19
   13.52220        4.3750265E-19
   13.66511        4.3974689E-19
   13.80802        4.4214184E-19
   13.95094        4.4463450E-19
   14.09385        4.4719090E-19
   14.23676        4.4978721E-19
   14.37967        4.5239702E-19
   14.52258        4.5498186E-19
   14.66549        4.5748278E-19
   14.80841        4.5981667E-19
   14.95132        4.6187625E-19
   15.09423        4.6354090E-19
   15.23714        4.6468603E-19
   15.38005        4.6520188E-19
   15.52296        4.6500754E-19
   15.66588        4.6406828E-19
   15.80879        4.6240379E-19
   15.95170        4.6009404E-19
   16.09461        4.5727671E-19
   16.23752        4.5413668E-19
   16.38043        4.5089445E-19
   16.52335        4.4778161E-19
   16.66626        4.4502601E-19
   16.80917        4.4282659E-19
   16.95208        4.4133963E-19
   17.09499        4.4066501E-19
   17.23791        4.4083945E-19
   17.38082        4.4183640E-19
   17.52373        4.4357343E-19
   17.66664        4.4592020E-19
   17.80955        4.4871576E-19
   17.95246        4.5177855E-19
   18.09538        4.5492437E-19
   18.23829        4.5797765E-19
   18.38120        4.6078055E-19
   18.52411        4.6319953E-19
   18.66702        4.6512459E-19
   18.80993        4.6647052E-19
   18.95285        4.6717760E-19
   19.09576        4.6720712E-19
   19.23867        4.6654248E-19
   19.38158        4.6519087E-19
   19.52449        4.6318888E-19
   19.66740        4.6060482E-19
   19.81032        4.5754674E-19
   19.95323        4.5416295E-19
   20.09614        4.5064350E-19
   20.23905        4.4721540E-19
   20.38196        4.4413075E-19
   20.52488        4.4164832E-19
   20.66779        4.4001449E-19
   20.81070        4.3944017E-19
   20.95361        4.4007544E-19
   21.09652        4.4199336E-19
   21.23943        4.4517578E-19
   21.38235        4.4950980E-19
   21.52526        4.5479414E-19
   21.66817        4.6075552E-19
   21.81108        4.6706924E-19
   21.95399        4.7338967E-19
   22.09690        4.7938032E-19
   22.23981        4.8473906E-19
   22.38273        4.8922253E-19
   22.52564        4.9265967E-19
   22.66855        4.9495722E-19
   22.81146        4.9609656E-19
   22.95437        4.9612241E-19
   23.09729        4.9512669E-19
   23.24020        4.9322857E-19
   23.38311        4.9055590E-19
   23.52602        4.8723130E-19
   23.66893        4.8336160E-19
   23.81184        4.7903575E-19
   23.95476        4.7432951E-19
   24.09767        4.6931385E-19
   24.24058        4.6406968E-19
   24.38349        4.5870107E-19
   24.52640        4.5334792E-19
   24.66932        4.4819349E-19
   24.81223        4.4346424E-19
   24.95514        4.3942047E-19
   25.09805        4.3634160E-19
   25.24096        4.3449895E-19
   25.38387        4.3413127E-19
   25.52678        4.3541143E-19
   25.66970        4.3842180E-19
   25.81261        4.4313306E-19
   25.95552        4.4939544E-19
   26.09843        4.5693896E-19
   26.24134        4.6539017E-19
   26.38426        4.7429776E-19
   26.52717        4.8316897E-19
   26.67008        4.9150715E-19
   26.81299        4.9885552E-19
   26.95590        5.0482895E-19
   27.09881        5.0914264E-19
   27.24173        5.1162956E-19
   27.38464        5.1224240E-19
   27.52755        5.1104909E-19
   27.67046        5.0821455E-19
   27.81337        5.0398042E-19
   27.95629        4.9863967E-19
   28.09920        4.9251306E-19
   28.24211        4.8592922E-19
   28.38502        4.7920879E-19
   28.52793        4.7265550E-19
   28.67084        4.6654848E-19
   28.81376        4.6113985E-19
   28.95667        4.5665638E-19
   29.09958        4.5329208E-19
   29.24249        4.5120872E-19
   29.38540        4.5052826E-19
   29.52831        4.5132282E-19
   29.67122        4.5360765E-19
   29.81414        4.5733007E-19
   29.95705        4.6236299E-19
   30.09996        4.6850321E-19
   30.24287        4.7547463E-19
   30.38578        4.8293710E-19
   30.52870        4.9050347E-19
   30.67161        4.9776302E-19
   30.81452        5.0431056E-19
   30.95743        5.0977688E-19
   31.10034        5.1385602E-19
   31.24325        5.1633488E-19
   31.38617        5.1711036E-19
   31.52908        5.1619922E-19
   31.67199        5.1373531E-19
   31.81490        5.0995840E-19
   31.95781        5.0518867E-19
   32.10072        4.9979871E-19
   32.24364        4.9417553E-19
   32.38655        4.8868647E-19
   32.52946        4.8365302E-19
   32.67237        4.7932506E-19
   32.81528        4.7586998E-19
   32.95819        4.7337277E-19
   33.10111        4.7184569E-19
   33.24402        4.7124169E-19
   33.38693        4.7147501E-19
   33.52984        4.7244193E-19
   33.67275        4.7403307E-19
   33.81567        4.7614651E-19
   33.95858        4.7868833E-19
   34.10149        4.8156909E-19
   34.24440        4.8469780E-19
   34.38731        4.8796956E-19
   34.53022        4.9125957E-19
   34.67313        4.9441650E-19
   34.81605        4.9726542E-19
   34.95896        4.9961332E-19
   35.10187        5.0126364E-19
   35.24478        5.0203473E-19
   35.38770        5.0178043E-19
   35.53061        5.0040917E-19
   35.67352        4.9790214E-19
   35.81643        4.9432329E-19
   35.95934        4.8982482E-19
   36.10225        4.8464285E-19
   36.24516        4.7908393E-19
   36.38808        4.7350372E-19
   36.53099        4.6828240E-19
   36.67390        4.6379304E-19
   36.81681        4.6036840E-19
   36.95972        4.5827610E-19
   37.10263        4.5769351E-19
   37.24555        4.5869197E-19
   37.38846        4.6123477E-19
   37.53137        4.6518079E-19
   37.67428        4.7029979E-19
   37.81719        4.7629587E-19
   37.96011        4.8283318E-19
   38.10302        4.8956421E-19
   38.24593        4.9615653E-19
   38.38884        5.0231034E-19
   38.53175        5.0777412E-19
   38.67466        5.1234942E-19
   38.81758        5.1589063E-19
   38.96049        5.1829995E-19
   39.10340        5.1952174E-19
   39.24631        5.1953762E-19
   39.38922        5.1836059E-19
   39.53214        5.1603461E-19
   39.67505        5.1263727E-19
   39.81796        5.0828005E-19
   39.96087        5.0311519E-19
   40.10378        4.9733169E-19
   40.24669        4.9115751E-19
   40.38961        4.8484928E-19
   40.53252        4.7868296E-19
   40.67543        4.7293938E-19
   40.81834        4.6788758E-19
   40.96125        4.6376894E-19
   41.10416        4.6078251E-19
   41.24707        4.5907118E-19
   41.38999        4.5871378E-19
   41.53290        4.5972005E-19
   41.67581        4.6202902E-19
   41.81872        4.6551435E-19
   41.96163        4.6999125E-19
   42.10455        4.7522602E-19
   42.24746        4.8095042E-19
   42.39037        4.8687587E-19
   42.53328        4.9271024E-19
   42.67619        4.9817356E-19
   42.81910        5.0301179E-19
   42.96202        5.0700960E-19
   43.10493        5.0999976E-19
   43.24784        5.1186929E-19
   43.39075        5.1256236E-19
   43.53366        5.1208053E-19
   43.67657        5.1048076E-19
   43.81948        5.0787101E-19
   43.96240        5.0440600E-19
   44.10531        5.0028163E-19
   44.24822        4.9572810E-19
   44.39113        4.9099844E-19
   44.53405        4.8636007E-19
   44.67696        4.8207812E-19
   44.81987        4.7840177E-19
   44.96278        4.7554779E-19
   45.10569        4.7368239E-19
   45.24860        4.7290851E-19
   45.39151        4.7325924E-19
   45.53443        4.7469192E-19
   45.67734        4.7709477E-19
   45.82025        4.8029699E-19
   45.96316        4.8408398E-19
   46.10608        4.8821808E-19
   46.24899        4.9245763E-19
   46.39190        4.9657276E-19
   46.53481        5.0036166E-19
   46.67772        5.0365782E-19
   46.82063        5.0633230E-19
   46.96354        5.0829334E-19
   47.10646        5.0948220E-19
   47.24937        5.0986782E-19
   47.39228        5.0944317E-19
   47.53519        5.0821998E-19
   47.67810        5.0623179E-19
   47.82101        5.0353353E-19
   47.96392        5.0020532E-19
   48.10684        4.9635919E-19
   48.24975        4.9213948E-19
   48.39266        4.8772627E-19
   48.53557        4.8333192E-19
   48.67849        4.7919509E-19
   48.82140        4.7557002E-19
   48.96431        4.7271102E-19
   49.10722        4.7085612E-19
   49.25013        4.7020648E-19
   49.39304        4.7090756E-19
   49.53595        4.7303042E-19
   49.67887        4.7655928E-19
   49.82178        4.8138567E-19
   49.96469        4.8730813E-19
   50.10760        4.9404189E-19
   50.25051        5.0123671E-19
   50.39342        5.0850199E-19
   50.53634        5.1543366E-19
   50.67925        5.2164651E-19
   50.82216        5.2679959E-19
   50.96507        5.3061920E-19
   51.10798        5.3291618E-19
   51.25090        5.3359276E-19
   51.39381        5.3264010E-19
   51.53672        5.3013142E-19
   51.67963        5.2621017E-19
   51.82254        5.2107178E-19
   51.96545        5.1495136E-19
   52.10837        5.0810862E-19
   52.25128        5.0081955E-19
   52.39419        4.9336981E-19
   52.53710        4.8604761E-19
   52.68001        4.7914494E-19
   52.82293        4.7295080E-19
   52.96584        4.6774484E-19
   53.10875        4.6378911E-19
   53.25166        4.6131397E-19
   53.39457        4.6050334E-19
   53.53748        4.6147703E-19
   53.68040        4.6427223E-19
   53.82331        4.6883217E-19
   53.96622        4.7499864E-19
   54.10913        4.8251213E-19
   54.25204        4.9101974E-19
   54.39495        5.0009613E-19
   54.53786        5.0927106E-19
   54.68078        5.1806198E-19
   54.82369        5.2601170E-19
   54.96660        5.3272412E-19
   55.10951        5.3789446E-19
   55.25242        5.4133191E-19
   55.39534        5.4297149E-19
   55.53825        5.4286928E-19
   55.68116        5.4119170E-19
   55.82407        5.3818635E-19
   55.96698        5.3415478E-19
   56.10989        5.2941581E-19
   56.25281        5.2427669E-19
   56.39572        5.1900672E-19
   56.53863        5.1382304E-19
   56.68154        5.0888555E-19
   56.82445        5.0430333E-19
   56.96737        5.0014824E-19
   57.11028        4.9647168E-19
   57.25319        4.9332504E-19
   57.39610        4.9076920E-19
   57.53901        4.8888427E-19
   57.68192        4.8776457E-19
   57.82484        4.8750686E-19
   57.96775        4.8819161E-19
   58.11066        4.8985972E-19
   58.25357        4.9249372E-19
   58.39648        4.9599905E-19
   58.53939        5.0019901E-19
   58.68230        5.0483794E-19
   58.82522        5.0960069E-19
   58.96813        5.1413742E-19
   59.11104        5.1810303E-19
   59.25395        5.2119363E-19
   59.39687        5.2318269E-19
   59.53978        5.2394954E-19
   59.68269        5.2349609E-19
   59.82560        5.2194812E-19
   59.96851        5.1953963E-19
   60.11142        5.1658722E-19
   60.25433        5.1345019E-19
   60.39725        5.1048945E-19
   60.54016        5.0802538E-19
   60.68307        5.0630298E-19
   60.82598        5.0546805E-19
   60.96889        5.0555997E-19
   61.11180        5.0651697E-19
   61.25471        5.0819402E-19
   61.39763        5.1039070E-19
   61.54054        5.1288439E-19
   61.68345        5.1546029E-19
   61.82636        5.1793614E-19
   61.96928        5.2017780E-19
   62.11219        5.2210611E-19
   62.25510        5.2368805E-19
   62.39801        5.2492447E-19
   62.54092        5.2583013E-19
   62.68383        5.2641774E-19
   62.82674        5.2667887E-19
   62.96966        5.2657904E-19
   63.11257        5.2605900E-19
   63.25548        5.2504354E-19
   63.39839        5.2345912E-19
   63.54131        5.2125748E-19
   63.68422        5.1843710E-19
   63.82713        5.1506004E-19
   63.97004        5.1126426E-19
   64.11295        5.0726143E-19
   64.25586        5.0332720E-19
   64.39877        4.9977875E-19
   64.54169        4.9694561E-19
   64.68460        4.9513269E-19
   64.82751        4.9458861E-19
   64.97042        4.9547266E-19
   65.11333        4.9783586E-19
   65.25625        5.0160966E-19
   65.39915        5.0660909E-19
   65.54207        5.1254970E-19
   65.68498        5.1907129E-19
   65.82789        5.2577228E-19
   65.97080        5.3224337E-19
   66.11372        5.3809976E-19
   66.25663        5.4300938E-19
   66.39954        5.4670993E-19
   66.54245        5.4902097E-19
   66.68536        5.4984071E-19
   66.82828        5.4914360E-19
   66.97118        5.4696698E-19
   67.11410        5.4340193E-19
   67.25701        5.3858438E-19
   67.39992        5.3268513E-19
   67.54283        5.2591337E-19
   67.68575        5.1851398E-19
   67.82866        5.1077033E-19
   67.97157        5.0300486E-19
   68.11448        4.9557580E-19
   68.25739        4.8886633E-19
   68.40031        4.8326585E-19
   68.54321        4.7914644E-19
   68.68613        4.7683188E-19
   68.82904        4.7656662E-19
   68.97195        4.7848288E-19
   69.11486        4.8258053E-19
   69.25777        4.8871123E-19
   69.40069        4.9658139E-19
   69.54359        5.0576521E-19
   69.68651        5.1573398E-19
   69.82942        5.2589558E-19
   69.97233        5.3564044E-19
   70.11524        5.4439253E-19
   70.25816        5.5165280E-19
   70.40107        5.5703821E-19
   70.54398        5.6030335E-19
   70.68689        5.6135118E-19
   70.82980        5.6022890E-19
   70.97272        5.5710501E-19
   71.11562        5.5224108E-19
   71.25854        5.4595885E-19
   71.40145        5.3860242E-19
   71.54436        5.3051073E-19
   71.68727        5.2199594E-19
   71.83018        5.1333324E-19
   71.97310        5.0476215E-19
   72.11600        4.9649686E-19
   72.25892        4.8874132E-19
   72.40183        4.8170465E-19
   72.54475        4.7561438E-19
   72.68765        4.7071985E-19
   72.83057        4.6728451E-19
   72.97348        4.6556641E-19
   73.11639        4.6578990E-19
   73.25930        4.6811009E-19
   73.40221        4.7257728E-19
   73.54513        4.7910772E-19
   73.68803        4.8746601E-19
   73.83095        4.9726112E-19
   73.97386        5.0796412E-19
   74.11678        5.1893858E-19
   74.25968        5.2949460E-19
   74.40260        5.3894307E-19
   74.54551        5.4665859E-19
   74.68842        5.5213763E-19
   74.83133        5.5504434E-19
   74.97424        5.5523770E-19
   75.11716        5.5278180E-19
   75.26006        5.4793421E-19
   75.40298        5.4111266E-19
   75.54589        5.3285114E-19
   75.68880        5.2374486E-19
   75.83171        5.1439591E-19
   75.97462        5.0535995E-19
   76.11754        4.9710613E-19
   76.26044        4.8999124E-19
   76.40336        4.8424678E-19
   76.54627        4.7998261E-19
   76.68919        4.7720530E-19
   76.83209        4.7583911E-19
   76.97501        4.7575598E-19
   77.11792        4.7680019E-19
   77.26083        4.7880817E-19
   77.40374        4.8162110E-19
   77.54665        4.8508653E-19
   77.68957        4.8905244E-19
   77.83247        4.9335600E-19
   77.97539        4.9781125E-19
   78.11830        5.0219727E-19
   78.26122        5.0625708E-19
   78.40412        5.0970089E-19
   78.54704        5.1222317E-19
   78.68995        5.1352877E-19
   78.83286        5.1336328E-19
   78.97577        5.1155145E-19
   79.11868        5.0802367E-19
   79.26160        5.0284087E-19
   79.40450        4.9620347E-19
   79.54742        4.8844571E-19
   79.69033        4.8001379E-19
   79.83324        4.7143179E-19
   79.97615        4.6325408E-19
   80.11906        4.5601774E-19
   80.26198        4.5019372E-19
   80.40488        4.4614767E-19
   80.54780        4.4411146E-19
   80.69071        4.4416885E-19
   80.83363        4.4625877E-19
   80.97653        4.5019036E-19
   81.11945        4.5566945E-19
   81.26236        4.6233084E-19
   81.40527        4.6977050E-19
   81.54818        4.7757707E-19
   81.69109        4.8535448E-19
   81.83401        4.9273712E-19
   81.97691        4.9940001E-19
   82.11983        5.0505797E-19
   82.26274        5.0946194E-19
   82.40565        5.1239491E-19
   82.54856        5.1367311E-19
   82.69147        5.1314599E-19
   82.83439        5.1070782E-19
   82.97730        5.0631100E-19
   83.12021        4.9998684E-19
   83.26312        4.9186455E-19
   83.40604        4.8218617E-19
   83.54894        4.7131583E-19
   83.69186        4.5973680E-19
   83.83477        4.4803038E-19
   83.97768        4.3684525E-19
   84.12059        4.2685048E-19
   84.26350        4.1868137E-19
   84.40642        4.1288415E-19
   84.54933        4.0986016E-19
   84.69224        4.0982539E-19
   84.83515        4.1278722E-19
   84.97807        4.1853953E-19
   85.12097        4.2668507E-19
   85.26389        4.3666994E-19
   85.40680        4.4784029E-19
   85.54971        4.5950400E-19
   85.69262        4.7098883E-19
   85.83553        4.8169803E-19
   85.97845        4.9114810E-19
   86.12135        4.9898580E-19
   86.26427        5.0499154E-19
   86.40718        5.0905936E-19
   86.55009        5.1117099E-19
   86.69300        5.1136000E-19
   86.83591        5.0968191E-19
   86.97883        5.0618873E-19
   87.12174        5.0092290E-19
   87.26465        4.9391999E-19
   87.40756        4.8522973E-19
   87.55048        4.7494591E-19
   87.69338        4.6323991E-19
   87.83630        4.5039266E-19
   87.97921        4.3681469E-19
   88.12212        4.2304974E-19
   88.26503        4.0975720E-19
   88.40794        3.9767527E-19
   88.55086        3.8756229E-19
   88.69377        3.8012702E-19
   88.83668        3.7595408E-19
   88.97959        3.7543407E-19
   89.12251        3.7870647E-19
   89.26541        3.8562783E-19
   89.40833        3.9576619E-19
   89.55124        4.0842875E-19
   89.69415        4.2271569E-19
   89.83706        4.3759907E-19
   89.97997        4.5201662E-19
   90.12289        4.6496572E-19
   90.26580        4.7559504E-19
   90.40871        4.8327324E-19
   90.55162        4.8763486E-19
   90.69453        4.8859496E-19
   90.83744        4.8633479E-19
   90.98035        4.8126050E-19
   91.12327        4.7394409E-19
   91.26618        4.6505030E-19
   91.40909        4.5526816E-19
   91.55200        4.4524770E-19
   91.69492        4.3555273E-19
   91.83783        4.2663040E-19
   91.98074        4.1880439E-19
   92.12365        4.1228088E-19
   92.26656        4.0716919E-19
   92.40947        4.0350997E-19
   92.55238        4.0129897E-19
   92.69530        4.0051235E-19
   92.83821        4.0111782E-19
   92.98112        4.0307635E-19
   93.12403        4.0633598E-19
   93.26694        4.1081943E-19
   93.40986        4.1640151E-19
   93.55276        4.2289779E-19
   93.69568        4.3005319E-19
   93.83859        4.3753848E-19
   93.98150        4.4496087E-19
   94.12441        4.5188499E-19
   94.26733        4.5786236E-19
   94.41024        4.6246458E-19
   94.55315        4.6532053E-19
   94.69606        4.6614952E-19
   94.83897        4.6478850E-19
   94.98188        4.6120618E-19
   95.12479        4.5550975E-19
   95.26771        4.4793547E-19
   95.41062        4.3883131E-19
   95.55353        4.2863150E-19
   95.69644        4.1782782E-19
   95.83936        4.0693494E-19
   95.98227        3.9646485E-19
   96.12518        3.8690104E-19
   96.26809        3.7867964E-19
   96.41100        3.7217428E-19
   96.55391        3.6768806E-19
   96.69682        3.6544483E-19
   96.83974        3.6558397E-19
   96.98265        3.6815519E-19
   97.12556        3.7310974E-19
   97.26847        3.8029391E-19
   97.41138        3.8944266E-19
   97.55430        4.0017863E-19
   97.69720        4.1201378E-19
   97.84012        4.2436309E-19
   97.98303        4.3656613E-19
   98.12594        4.4792016E-19
   98.26885        4.5772277E-19
   98.41177        4.6531846E-19
   98.55468        4.7015018E-19
   98.69759        4.7180619E-19
   98.84050        4.7006110E-19
   98.98341        4.6489944E-19
   99.12633        4.5652884E-19
   99.26923        4.4536743E-19
   99.41215        4.3201767E-19
   99.55506        4.1722675E-19
   99.69797        4.0182850E-19
   99.84088        3.8668621E-19
   99.98380        3.7262897E-19
   100.1267        3.6039988E-19
   100.2696        3.5060890E-19
   100.4125        3.4370197E-19
   100.5554        3.3994613E-19
   100.6984        3.3942728E-19
   100.8413        3.4206356E-19
   100.9842        3.4762506E-19
   101.1271        3.5576115E-19
   101.2700        3.6603262E-19
   101.4129        3.7793603E-19
   101.5558        3.9093039E-19
   101.6987        4.0445485E-19
   101.8416        4.1794347E-19
   101.9846        4.3083097E-19
   102.1275        4.4256613E-19
   102.2704        4.5261581E-19
   102.4133        4.6047770E-19
   102.5562        4.6569757E-19
   102.6991        4.6788872E-19
   102.8420        4.6676365E-19
   102.9849        4.6215868E-19
   103.1279        4.5406896E-19
   103.2708        4.4267072E-19
   103.4137        4.2833377E-19
   103.5566        4.1162500E-19
   103.6995        3.9329057E-19
   103.8424        3.7422116E-19
   103.9853        3.5540130E-19
   104.1282        3.3784352E-19
   104.2711        3.2251751E-19
   104.4141        3.1027571E-19
   104.5570        3.0178775E-19
   104.6999        2.9748948E-19
   104.8428        2.9754935E-19
   104.9857        3.0186046E-19
   105.1286        3.1005604E-19
   105.2715        3.2154338E-19
   105.4144        3.3556156E-19
   105.5574        3.5124237E-19
   105.7003        3.6767951E-19
   105.8432        3.8399151E-19
   105.9861        3.9937849E-19
   106.1290        4.1315991E-19
   106.2719        4.2479811E-19
   106.4148        4.3390379E-19
   106.5577        4.4023049E-19
   106.7006        4.4365641E-19
   106.8436        4.4415980E-19
   106.9865        4.4180006E-19
   107.1294        4.3669786E-19
   107.2723        4.2902578E-19
   107.4152        4.1901028E-19
   107.5581        4.0693670E-19
   107.7010        3.9316171E-19
   107.8439        3.7812840E-19
   107.9869        3.6237291E-19
   108.1298        3.4652377E-19
   108.2727        3.3128366E-19
   108.4156        3.1740073E-19
   108.5585        3.0562018E-19
   108.7014        2.9662790E-19
   108.8443        2.9098761E-19
   108.9872        2.8908104E-19
   109.1301        2.9105816E-19
   109.2731        2.9680833E-19
   109.4160        3.0595154E-19
   109.5589        3.1786160E-19
   109.7018        3.3170868E-19
   109.8447        3.4652723E-19
   109.9876        3.6129683E-19
   110.1305        3.7502567E-19
   110.2734        3.8683355E-19
   110.4164        3.9601458E-19
   110.5593        4.0208640E-19
   110.7022        4.0480766E-19
   110.8451        4.0417658E-19
   110.9880        4.0040357E-19
   111.1309        3.9386882E-19
   111.2738        3.8506899E-19
   111.4167        3.7456193E-19
   111.5596        3.6291913E-19
   111.7026        3.5068394E-19
   111.8455        3.3834476E-19
   111.9884        3.2632474E-19
   112.1313        3.1497900E-19
   112.2742        3.0460525E-19
   112.4171        2.9545625E-19
   112.5600        2.8775052E-19
   112.7029        2.8168031E-19
   112.8458        2.7741190E-19
   112.9888        2.7507778E-19
   113.1317        2.7476011E-19
   113.2746        2.7647486E-19
   113.4175        2.8014888E-19
   113.5604        2.8560861E-19
   113.7033        2.9257089E-19
   113.8462        3.0064740E-19
   113.9891        3.0936022E-19
   114.1321        3.1816965E-19
   114.2750        3.2650820E-19
   114.4179        3.3382257E-19
   114.5608        3.3961035E-19
   114.7037        3.4345873E-19
   114.8466        3.4507072E-19
   114.9895        3.4428201E-19
   115.1324        3.4106652E-19
   115.2754        3.3553289E-19
   115.4183        3.2790828E-19
   115.5612        3.1852329E-19
   115.7041        3.0778845E-19
   115.8470        2.9617308E-19
   115.9899        2.8418511E-19
   116.1328        2.7235216E-19
   116.2757        2.6120389E-19
   116.4186        2.5125539E-19
   116.5616        2.4298704E-19
   116.7045        2.3682641E-19
   116.8474        2.3311976E-19
   116.9903        2.3210985E-19
   117.1332        2.3391073E-19
   117.2761        2.3848540E-19
   117.4190        2.4563229E-19
   117.5619        2.5498028E-19
   117.7048        2.6599714E-19
   117.8478        2.7801427E-19
   117.9907        2.9026445E-19
   118.1336        3.0192886E-19
   118.2765        3.1219619E-19
   118.4194        3.2032197E-19
   118.5623        3.2568549E-19
   118.7052        3.2783742E-19
   118.8481        3.2653567E-19
   118.9911        3.2176411E-19
   119.1340        3.1372911E-19
   119.2769        3.0284519E-19
   119.4198        2.8969618E-19
   119.5627        2.7499208E-19
   119.7056        2.5951463E-19
   119.8485        2.4406109E-19
   119.9914        2.2939373E-19
   120.1343        2.1619414E-19
   120.2773        2.0502844E-19
   120.4202        1.9632544E-19
   120.5631        1.9036349E-19
   120.7060        1.8727253E-19
   120.8489        1.8704068E-19
   120.9918        1.8953157E-19
   121.1347        1.9449885E-19
   121.2776        2.0161009E-19
   121.4206        2.1046548E-19
   121.5635        2.2061470E-19
   121.7064        2.3157599E-19
   121.8493        2.4285035E-19
   121.9922        2.5393602E-19
   122.1351        2.6434128E-19
   122.2780        2.7359883E-19
   122.4209        2.8127866E-19
   122.5639        2.8700280E-19