-7.200000 9.3761408E-19
-7.057088 9.3092157E-19
-6.914176 9.1791871E-19
-6.771265 8.9921460E-19
-6.628353 8.7562103E-19
-6.485441 8.4811878E-19
-6.342530 8.1781620E-19
-6.199618 7.8590280E-19
-6.056706 7.5360021E-19
-5.913795 7.2211074E-19
-5.770883 6.9256788E-19
-5.627971 6.6599284E-19
-5.485059 6.4325044E-19
-5.342147 6.2501746E-19
-5.199236 6.1175626E-19
-5.056324 6.0369916E-19
-4.913413 6.0084068E-19
-4.770501 6.0294239E-19
-4.627589 6.0954397E-19
-4.484677 6.1998836E-19
-4.341765 6.3344819E-19
-4.198854 6.4896439E-19
-4.055942 6.6548697E-19
-3.913030 6.8192041E-19
-3.770118 6.9716871E-19
-3.627207 7.1018470E-19
-3.484295 7.2001171E-19
-3.341383 7.2582436E-19
-3.198472 7.2696499E-19
-3.055560 7.2296987E-19
-2.912648 7.1359248E-19
-2.769737 6.9881221E-19
-2.626825 6.7883911E-19
-2.483913 6.5410470E-19
-2.341001 6.2524623E-19
-2.198090 5.9308064E-19
-2.055178 5.5857020E-19
-1.912266 5.2278435E-19
-1.769354 4.8685323E-19
-1.626443 4.5192005E-19
-1.483531 4.1909126E-19
-1.340619 3.8939047E-19
-1.197708 3.6371390E-19
-1.054796 3.4279078E-19
-0.9118841 3.2715381E-19
-0.7689723 3.1711458E-19
-0.6260606 3.1275182E-19
-0.4831489 3.1390948E-19
-0.3402372 3.2020340E-19
-0.1973254 3.3103895E-19
-5.4413714E-02 3.4563739E-19
8.8498011E-02 3.6306937E-19
0.2314097 3.8229483E-19
0.3743215 4.0220657E-19
0.5172332 4.2167685E-19
0.6601449 4.3960415E-19
0.8030567 4.5495632E-19
0.9459684 4.6681359E-19
1.088880 4.7440354E-19
1.231792 4.7713344E-19
1.374704 4.7461199E-19
1.517615 4.6666614E-19
1.660527 4.5334647E-19
1.803439 4.3492567E-19
1.946350 4.1188722E-19
2.089262 3.8490640E-19
2.232174 3.5482279E-19
2.375086 3.2260507E-19
2.517997 2.8931218E-19
2.660909 2.5604885E-19
2.803821 2.2392012E-19
2.946733 1.9398297E-19
3.089644 1.6720301E-19
3.232556 1.4441386E-19
3.375468 1.2627981E-19
3.518379 1.1326836E-19
3.661291 1.0563156E-19
3.804203 1.0339548E-19
3.947115 1.0635884E-19
4.090026 1.1410487E-19
4.232938 1.2601861E-19
4.375850 1.4131604E-19
4.518762 1.5907659E-19
4.661673 1.7828375E-19
4.804585 1.9786768E-19
4.947497 2.1674975E-19
5.090408 2.3388651E-19
5.233320 2.4831355E-19
5.376232 2.5918293E-19
5.519144 2.6579735E-19
5.662055 2.6763739E-19
5.804967 2.6438212E-19
5.947879 2.5592278E-19
6.090790 2.4236627E-19
6.233702 2.2403132E-19
6.376614 2.0143721E-19
6.519526 1.7528297E-19
6.662437 1.4642055E-19
6.805349 1.1581981E-19
6.948261 8.4530220E-20
7.091173 5.3638575E-20
7.234084 2.4220152E-20
7.376996 -2.7037208E-21
7.519908 -2.6212932E-20
7.662819 -4.5528489E-20
7.805731 -6.0047949E-20
7.948643 -6.9374165E-20
8.091555 -7.3334718E-20
8.234467 -7.1991810E-20
8.377378 -6.5639935E-20
8.520289 -5.4794279E-20
8.663201 -4.0167260E-20
8.806113 -2.2638138E-20
8.949025 -3.2100410E-21
9.091937 1.7032846E-20
9.234848 3.6976789E-20
9.377760 5.5528059E-20
9.520672 7.1661429E-20
9.663584 8.4464996E-20
9.806496 9.3178238E-20
9.949407 9.7223429E-20
10.09232 9.6226205E-20
10.23523 9.0029175E-20
10.37814 7.8693039E-20
10.52105 6.2490141E-20
10.66397 4.1890278E-20
10.80688 1.7538142E-20
10.94979 -9.7758943E-21
11.09270 -3.9147945E-20
11.23561 -6.9596502E-20
11.37852 -1.0010157E-19
11.52144 -1.2964422E-19
11.66435 -1.5724410E-19
11.80726 -1.8199919E-19
11.95017 -2.0311916E-19
12.09308 -2.1995906E-19
12.23599 -2.3204445E-19
12.37891 -2.3909451E-19
12.52182 -2.4103368E-19
12.66473 -2.3800070E-19
12.80764 -2.3034258E-19
12.95055 -2.1860471E-19
13.09346 -2.0350860E-19
13.23638 -1.8592178E-19
13.37929 -1.6681886E-19
13.52220 -1.4724029E-19
13.66511 -1.2824368E-19
13.80802 -1.1085425E-19
13.95094 -9.6019190E-20
14.09385 -8.4563960E-20
14.23676 -7.7155129E-20
14.37967 -7.4271474E-20
14.52258 -7.6185099E-20
14.66549 -8.2953685E-20
14.80841 -9.4422156E-20
14.95132 -1.1023306E-19
15.09423 -1.2985129E-19
15.23714 -1.5258722E-19
15.38005 -1.7763355E-19
15.52296 -2.0410237E-19
15.66588 -2.3106197E-19
15.80879 -2.5757748E-19
15.95170 -2.8274478E-19
16.09461 -3.0572639E-19
16.23752 -3.2578069E-19
16.38043 -3.4228651E-19
16.52335 -3.5476388E-19
16.66626 -3.6288866E-19
16.80917 -3.6650305E-19
16.95208 -3.6561983E-19
17.09499 -3.6042278E-19
17.23791 -3.5125969E-19
17.38082 -3.3863291E-19
17.52373 -3.2318099E-19
17.66664 -3.0565996E-19
17.80955 -2.8691393E-19
17.95246 -2.6784607E-19
18.09538 -2.4938154E-19
18.23829 -2.3243057E-19
18.38120 -2.1784717E-19
18.52411 -2.0639208E-19
18.66702 -1.9869439E-19
18.80993 -1.9521875E-19
18.95285 -1.9624343E-19
19.09576 -2.0183906E-19
19.23867 -2.1186691E-19
19.38158 -2.2598003E-19
19.52449 -2.4364049E-19
19.66740 -2.6414648E-19
19.81032 -2.8666676E-19
19.95323 -3.1028437E-19
20.09614 -3.3404161E-19
20.23905 -3.5698918E-19
20.38196 -3.7823058E-19
20.52488 -3.9696423E-19
20.66779 -4.1251779E-19
20.81070 -4.2437452E-19
20.95361 -4.3218928E-19
21.09652 -4.3579607E-19
21.23943 -4.3520712E-19
21.38235 -4.3060321E-19
21.52526 -4.2231843E-19
21.66817 -4.1082158E-19
21.81108 -3.9668925E-19
21.95399 -3.8058608E-19
22.09690 -3.6323483E-19
22.23981 -3.4539206E-19
22.38273 -3.2782168E-19
22.52564 -3.1126920E-19
22.66855 -2.9643692E-19
22.81146 -2.8395859E-19
22.95437 -2.7437511E-19
23.09729 -2.6811529E-19
23.24020 -2.6547434E-19
23.38311 -2.6659855E-19
23.52602 -2.7147535E-19
23.66893 -2.7992963E-19
23.81184 -2.9162638E-19
23.95476 -3.0608149E-19
24.09767 -3.2268295E-19
24.24058 -3.4071619E-19
24.38349 -3.5939889E-19
24.52640 -3.7791799E-19
24.66932 -3.9547340E-19
24.81223 -4.1131644E-19
24.95514 -4.2478940E-19
25.09805 -4.3535963E-19
25.24096 -4.4264275E-19
25.38387 -4.4642250E-19
25.52678 -4.4665401E-19
25.66970 -4.4346202E-19
25.81261 -4.3712499E-19
25.95552 -4.2805552E-19
26.09843 -4.1677105E-19
26.24134 -4.0386207E-19
26.38426 -3.8995910E-19
26.52717 -3.7570076E-19
26.67008 -3.6170532E-19
26.81299 -3.4854685E-19
26.95590 -3.3673504E-19
27.09881 -3.2670537E-19
27.24173 -3.1880999E-19
27.38464 -3.1331433E-19
27.52755 -3.1039782E-19
27.67046 -3.1015602E-19
27.81337 -3.1260029E-19
27.95629 -3.1766165E-19
28.09920 -3.2519114E-19
28.24211 -3.3496162E-19
28.38502 -3.4666778E-19
28.52793 -3.5993177E-19
28.67084 -3.7430858E-19
28.81376 -3.8929834E-19
28.95667 -4.0436055E-19
29.09958 -4.1893547E-19
29.24249 -4.3247151E-19
29.38540 -4.4444931E-19
29.52831 -4.5441643E-19
29.67122 -4.6201056E-19
29.81414 -4.6698404E-19
29.95705 -4.6922265E-19
30.09996 -4.6875085E-19
30.24287 -4.6573262E-19
30.38578 -4.6045908E-19
30.52870 -4.5332837E-19
30.67161 -4.4481932E-19
30.81452 -4.3545900E-19
30.95743 -4.2578827E-19
31.10034 -4.1633050E-19
31.24325 -4.0756349E-19
31.38617 -3.9989592E-19
31.52908 -3.9365414E-19
31.67199 -3.8907420E-19
31.81490 -3.8630211E-19
31.95781 -3.8540048E-19
32.10072 -3.8635807E-19
32.24364 -3.8910292E-19
32.38655 -3.9351425E-19
32.52946 -3.9943391E-19
32.67237 -4.0667510E-19
32.81528 -4.1502802E-19
32.95819 -4.2426383E-19
33.10111 -4.3413535E-19
33.24402 -4.4437735E-19
33.38693 -4.5471049E-19
33.52984 -4.6484133E-19
33.67275 -4.7446997E-19
33.81567 -4.8329940E-19
33.95858 -4.9104858E-19
34.10149 -4.9746678E-19
34.24440 -5.0234922E-19
34.38731 -5.0555371E-19
34.53022 -5.0701333E-19
34.67313 -5.0674485E-19
34.81605 -5.0485257E-19
34.95896 -5.0152467E-19
35.10187 -4.9702264E-19
35.24478 -4.9166545E-19
35.38770 -4.8580845E-19
35.53061 -4.7981707E-19
35.67352 -4.7404330E-19
35.81643 -4.6880104E-19
35.95934 -4.6434590E-19
36.10225 -4.6086404E-19
36.24516 -4.5846382E-19
36.38808 -4.5718035E-19
36.53099 -4.5698291E-19
36.67390 -4.5779215E-19
36.81681 -4.5949702E-19
36.95972 -4.6197758E-19
37.10263 -4.6512133E-19
37.24555 -4.6883796E-19
37.38846 -4.7306697E-19
37.53137 -4.7777932E-19
37.67428 -4.8296998E-19
37.81719 -4.8864599E-19
37.96011 -4.9480905E-19
38.10302 -5.0143968E-19
38.24593 -5.0847919E-19
38.38884 -5.1581804E-19
38.53175 -5.2329028E-19
38.67466 -5.3067777E-19
38.81758 -5.3772168E-19
38.96049 -5.4413797E-19
39.10340 -5.4964482E-19
39.24631 -5.5398664E-19
39.38922 -5.5695756E-19
39.53214 -5.5842762E-19
39.67505 -5.5835327E-19
39.81796 -5.5678525E-19
39.96087 -5.5386639E-19
40.10378 -5.4981837E-19
40.24669 -5.4492456E-19
40.38961 -5.3950389E-19
40.53252 -5.3388754E-19
40.67543 -5.2839243E-19
40.81834 -5.2330361E-19
40.96125 -5.1885700E-19
41.10416 -5.1523152E-19
41.24707 -5.1255270E-19
41.38999 -5.1089621E-19
41.53290 -5.1030059E-19
41.67581 -5.1077948E-19
41.81872 -5.1233618E-19
41.96163 -5.1497328E-19
42.10455 -5.1869839E-19
42.24746 -5.2352463E-19
42.39037 -5.2946301E-19
42.53328 -5.3651110E-19
42.67619 -5.4463815E-19
42.81910 -5.5376687E-19
42.96202 -5.6375983E-19
43.10493 -5.7440538E-19
43.24784 -5.8541800E-19
43.39075 -5.9643837E-19
43.53366 -6.0704934E-19
43.67657 -6.1679886E-19
43.81948 -6.2523103E-19
43.96240 -6.3191951E-19
44.10531 -6.3650783E-19
44.24822 -6.3873982E-19
44.39113 -6.3849136E-19
44.53405 -6.3578549E-19
44.67696 -6.3080075E-19
44.81987 -6.2386179E-19
44.96278 -6.1541984E-19
45.10569 -6.0602085E-19
45.24860 -5.9626472E-19
45.39151 -5.8676264E-19
45.53443 -5.7809223E-19
45.67734 -5.7075912E-19
45.82025 -5.6516681E-19
45.96316 -5.6159892E-19
46.10608 -5.6021246E-19
46.24899 -5.6104202E-19
46.39190 -5.6401739E-19
46.53481 -5.6898435E-19
46.67772 -5.7573182E-19
46.82063 -5.8401412E-19
46.96354 -5.9357168E-19
47.10646 -6.0414413E-19
47.24937 -6.1547516E-19
47.39228 -6.2730958E-19
47.53519 -6.3938606E-19
47.67810 -6.5142583E-19
47.82101 -6.6312392E-19
47.96392 -6.7414450E-19
48.10684 -6.8412241E-19
48.24975 -6.9267763E-19
48.39266 -6.9943441E-19
48.53557 -7.0405240E-19
48.67849 -7.0626128E-19
48.82140 -7.0589562E-19
48.96431 -7.0292552E-19
49.10722 -6.9747730E-19
49.25013 -6.8984650E-19
49.39304 -6.8048675E-19
49.53595 -6.6998915E-19
49.67887 -6.5904385E-19
49.82178 -6.4839002E-19
49.96469 -6.3876019E-19
50.10760 -6.3082153E-19
50.25051 -6.2512613E-19
50.39342 -6.2206572E-19
50.53634 -6.2184941E-19
50.67925 -6.2449407E-19
50.82216 -6.2983341E-19
50.96507 -6.3754620E-19
51.10798 -6.4719464E-19
51.25090 -6.5827049E-19
51.39381 -6.7024574E-19
51.53672 -6.8261446E-19
51.67963 -6.9493118E-19
51.82254 -7.0682894E-19
51.96545 -7.1803242E-19
52.10837 -7.2834669E-19
52.25128 -7.3764384E-19
52.39419 -7.4583619E-19
52.53710 -7.5285058E-19
52.68001 -7.5860439E-19
52.82293 -7.6299057E-19
52.96584 -7.6587329E-19
53.10875 -7.6709571E-19
53.25166 -7.6650355E-19
53.39457 -7.6397171E-19
53.53748 -7.5944476E-19
53.68040 -7.5296742E-19
53.82331 -7.4471748E-19
53.96622 -7.3501816E-19
54.10913 -7.2434226E-19
54.25204 -7.1329237E-19
54.39495 -7.0256611E-19
54.53786 -6.9290754E-19
54.68078 -6.8504658E-19
54.82369 -6.7963501E-19
54.96660 -6.7718723E-19
55.10951 -6.7803312E-19
55.25242 -6.8228649E-19
55.39534 -6.8983404E-19
55.53825 -7.0034710E-19
55.68116 -7.1331372E-19
55.82407 -7.2808567E-19
55.96698 -7.4393760E-19
56.10989 -7.6012956E-19
56.25281 -7.7596345E-19
56.39572 -7.9082964E-19
56.53863 -8.0424026E-19
56.68154 -8.1584162E-19
56.82445 -8.2541169E-19
56.96737 -8.3284168E-19
57.11028 -8.3810679E-19
57.25319 -8.4123663E-19
57.39610 -8.4228571E-19
57.53901 -8.4131201E-19
57.68192 -8.3836916E-19
57.82484 -8.3350963E-19
57.96775 -8.2680456E-19
58.11066 -8.1836861E-19
58.25357 -8.0839239E-19
58.39648 -7.9716921E-19
58.53939 -7.8511501E-19
58.68230 -7.7277146E-19
58.82522 -7.6079399E-19
58.96813 -7.4991869E-19
59.11104 -7.4091110E-19
59.25395 -7.3450500E-19
59.39687 -7.3133266E-19
59.53978 -7.3186133E-19
59.68269 -7.3633545E-19
59.82560 -7.4474203E-19
59.96851 -7.5679581E-19
60.11142 -7.7195245E-19
60.25433 -7.8944701E-19
60.39725 -8.0835388E-19
60.54016 -8.2766203E-19
60.68307 -8.4635967E-19
60.82598 -8.6351245E-19
60.96889 -8.7833677E-19
61.11180 -8.9025148E-19
61.25471 -8.9890834E-19
61.39763 -9.0420116E-19
61.54054 -9.0624574E-19
61.68345 -9.0534680E-19
61.82636 -9.0194802E-19
61.96928 -8.9657590E-19
62.11219 -8.8978423E-19
62.25510 -8.8210830E-19
62.39801 -8.7402778E-19
62.54092 -8.6594752E-19
62.68383 -8.5818799E-19
62.82674 -8.5099447E-19
62.96966 -8.4455353E-19
63.11257 -8.3901162E-19
63.25548 -8.3449578E-19
63.39839 -8.3112926E-19
63.54131 -8.2903748E-19
63.68422 -8.2834802E-19
63.82713 -8.2917877E-19
63.97004 -8.3162081E-19
64.11295 -8.3571882E-19
64.25586 -8.4145134E-19
64.39877 -8.4871631E-19
64.54169 -8.5732271E-19
64.68460 -8.6699757E-19
64.82751 -8.7739637E-19
64.97042 -8.8812955E-19
65.11333 -8.9878860E-19
65.25625 -9.0898133E-19
65.39915 -9.1835804E-19
65.54207 -9.2663895E-19
65.68498 -9.3362821E-19
65.82789 -9.3921737E-19
65.97080 -9.4337902E-19
66.11372 -9.4614862E-19
66.25663 -9.4760260E-19
66.39954 -9.4783276E-19
66.54245 -9.4692431E-19
66.68536 -9.4493629E-19
66.82828 -9.4189826E-19
66.97118 -9.3781137E-19
67.11410 -9.3266641E-19
67.25701 -9.2646658E-19
67.39992 -9.1925884E-19
67.54283 -9.1116178E-19
67.68575 -9.0239201E-19
67.82866 -8.9327751E-19
67.97157 -8.8425845E-19
68.11448 -8.7587084E-19
68.25739 -8.6871470E-19
68.40031 -8.6340652E-19
68.54321 -8.6052571E-19
68.68613 -8.6055559E-19
68.82904 -8.6382720E-19
68.97195 -8.7047669E-19
69.11486 -8.8041816E-19
69.25777 -8.9333366E-19
69.40069 -9.0869306E-19
69.54359 -9.2578654E-19
69.68651 -9.4377927E-19
69.82942 -9.6177665E-19
69.97233 -9.7889588E-19
70.11524 -9.9433169E-19
70.25816 -1.0074158E-18
70.40107 -1.0176591E-18
70.54398 -1.0247732E-18
70.68689 -1.0286752E-18
70.82980 -1.0294715E-18
70.97272 -1.0274263E-18
71.11562 -1.0229230E-18
71.25854 -1.0164168E-18
71.40145 -1.0083942E-18
71.54436 -9.9933623E-19
71.68727 -9.8969348E-19
71.83018 -9.7987247E-19
71.97310 -9.7023509E-19
72.11600 -9.6110539E-19
72.25892 -9.5278230E-19
72.40183 -9.4555068E-19
72.54475 -9.3969279E-19
72.68765 -9.3548926E-19
72.83057 -9.3320966E-19
72.97348 -9.3309675E-19
73.11639 -9.3534223E-19
73.25930 -9.4005520E-19
73.40221 -9.4723575E-19
73.54513 -9.5674905E-19
73.68803 -9.6831355E-19
73.83095 -9.8150170E-19
73.97386 -9.9575620E-19
74.11678 -1.0104215E-18
74.25968 -1.0247903E-18
74.40260 -1.0381581E-18
74.54551 -1.0498779E-18
74.68842 -1.0594153E-18
74.83133 -1.0663895E-18
74.97424 -1.0706012E-18
75.11716 -1.0720395E-18
75.26006 -1.0708735E-18
75.40298 -1.0674203E-18
75.54589 -1.0621052E-18
75.68880 -1.0554098E-18
75.83171 -1.0478221E-18
75.97462 -1.0397918E-18
76.11754 -1.0316963E-18
76.26044 -1.0238265E-18
76.40336 -1.0163842E-18
76.54627 -1.0094994E-18
76.68919 -1.0032574E-18
76.83209 -9.9773181E-19
76.97501 -9.9301812E-19
77.11792 -9.8925807E-19
77.26083 -9.8665173E-19
77.40374 -9.8545252E-19
77.54665 -9.8594625E-19
77.68957 -9.8841611E-19
77.83247 -9.9309681E-19
77.97539 -1.0001278E-18
78.11830 -1.0095099E-18
78.26122 -1.0210740E-18
78.40412 -1.0344718E-18
78.54704 -1.0491817E-18
78.68995 -1.0645418E-18
78.83286 -1.0798002E-18
78.97577 -1.0941763E-18
79.11868 -1.1069293E-18
79.26160 -1.1174252E-18
79.40450 -1.1251906E-18
79.54742 -1.1299505E-18
79.69033 -1.1316433E-18
79.83324 -1.1304139E-18
79.97615 -1.1265875E-18
80.11906 -1.1206255E-18
80.26198 -1.1130733E-18
80.40488 -1.1045049E-18
80.54780 -1.0954776E-18
80.69071 -1.0864903E-18
80.83363 -1.0779624E-18
80.97653 -1.0702271E-18
81.11945 -1.0635378E-18
81.26236 -1.0580843E-18
81.40527 -1.0540159E-18
81.54818 -1.0514618E-18
81.69109 -1.0505463E-18
81.83401 -1.0513923E-18
81.97691 -1.0541170E-18
82.11983 -1.0588117E-18
82.26274 -1.0655146E-18
82.40565 -1.0741840E-18
82.54856 -1.0846684E-18
82.69147 -1.0966878E-18
82.83439 -1.1098271E-18
82.97730 -1.1235474E-18
83.12021 -1.1372128E-18
83.26312 -1.1501333E-18
83.40604 -1.1616201E-18
83.54894 -1.1710452E-18
83.69186 -1.1778974E-18
83.83477 -1.1818369E-18
83.97768 -1.1827230E-18
84.12059 -1.1806328E-18
84.26350 -1.1758508E-18
84.40642 -1.1688413E-18
84.54933 -1.1602038E-18
84.69224 -1.1506148E-18
84.83515 -1.1407673E-18
84.97807 -1.1313098E-18
85.12097 -1.1227997E-18
85.26389 -1.1156672E-18
85.40680 -1.1101991E-18
85.54971 -1.1065403E-18
85.69262 -1.1047099E-18
85.83553 -1.1046276E-18
85.97845 -1.1061480E-18
86.12135 -1.1090907E-18
86.26427 -1.1132682E-18
86.40718 -1.1185033E-18
86.55009 -1.1246342E-18
86.69300 -1.1315105E-18
86.83591 -1.1389830E-18
86.97883 -1.1468871E-18
87.12174 -1.1550311E-18
87.26465 -1.1631894E-18
87.40756 -1.1711047E-18
87.55048 -1.1785005E-18
87.69338 -1.1851058E-18
87.83630 -1.1906838E-18
87.97921 -1.1950647E-18
88.12212 -1.1981746E-18
88.26503 -1.2000547E-18
88.40794 -1.2008655E-18
88.55086 -1.2008775E-18
88.69377 -1.2004445E-18
88.83668 -1.1999621E-18
88.97959 -1.1998180E-18
89.12251 -1.2003411E-18
89.26541 -1.2017546E-18
89.40833 -1.2041405E-18
89.55124 -1.2074240E-18
89.69415 -1.2113748E-18
89.83706 -1.2156300E-18
89.97997 -1.2197364E-18
90.12289 -1.2232031E-18
90.26580 -1.2255599E-18
90.40871 -1.2264164E-18
90.55162 -1.2255094E-18
90.69453 -1.2227335E-18
90.83744 -1.2181602E-18
90.98035 -1.2120310E-18
91.12327 -1.2047366E-18
91.26618 -1.1967819E-18
91.40909 -1.1887422E-18
91.55200 -1.1812206E-18
91.69492 -1.1748056E-18
91.83783 -1.1700380E-18
91.98074 -1.1673897E-18
92.12365 -1.1672532E-18
92.26656 -1.1699394E-18
92.40947 -1.1756812E-18
92.55238 -1.1846364E-18
92.69530 -1.1968914E-18
92.83821 -1.2124510E-18
92.98112 -1.2312237E-18
93.12403 -1.2529928E-18
93.26694 -1.2773823E-18
93.40986 -1.3038215E-18
93.55276 -1.3315125E-18
93.69568 -1.3594090E-18
93.83859 -1.3862161E-18
93.98150 -1.4104156E-18
94.12441 -1.4303228E-18
94.26733 -1.4441695E-18
94.41024 -1.4502225E-18
94.55315 -1.4469163E-18
94.69606 -1.4330028E-18
94.83897 -1.4076992E-18
94.98188 -1.3708205E-18
95.12479 -1.3228878E-18
95.26771 -1.2651938E-18
95.41062 -1.1998215E-18
95.55353 -1.1296067E-18
95.69644 -1.0580469E-18
95.83936 -9.8915467E-19
95.98227 -9.2726719E-19
96.12518 -8.7681786E-19
96.26809 -8.4208734E-19
96.41100 -8.2694404E-19
96.55391 -8.3458900E-19
96.69682 -8.6731940E-19
96.83974 -9.2632328E-19
96.98265 -1.0115145E-18
97.12556 -1.1214169E-18
97.26847 -1.2531062E-18
97.41138 -1.4022141E-18
97.55430 -1.5630021E-18
97.69720 -1.7285055E-18
97.84012 -1.8907529E-18
97.98303 -2.0410560E-18
98.12594 -2.1703706E-18
98.26885 -2.2697174E-18
98.41177 -2.3306546E-18
98.55468 -2.3457738E-18
98.69759 -2.3092091E-18
98.84050 -2.2171209E-18
98.98341 -2.0681294E-18
99.12633 -1.8636592E-18
99.26923 -1.6081722E-18
99.41215 -1.3092525E-18
99.55506 -9.7753351E-19
99.69797 -6.2644430E-19
99.84088 -2.7178542E-19
99.98380 6.8865222E-20
100.1267 3.7688717E-19
100.2696 6.3346779E-19
100.4125 8.2052579E-19
100.5554 9.2166387E-19
100.6984 9.2310833E-19
100.8413 8.1458296E-19
100.9842 5.9008072E-19
101.1271 2.4848875E-19
101.2700 -2.0595624E-19
101.4129 -7.6341362E-19
101.5558 -1.4083978E-18
101.6987 -2.1199646E-18
101.8416 -2.8721229E-18
101.9846 -3.6344778E-18
102.1275 -4.3730954E-18
102.2704 -5.0515804E-18
102.4133 -5.6323543E-18
102.5562 -6.0781128E-18
102.6991 -6.3534357E-18
102.8420 -6.4265122E-18
102.9849 -6.2709427E-18
103.1279 -5.8675445E-18
103.2708 -5.2061093E-18
103.4137 -4.2870062E-18
103.5566 -3.1225522E-18
103.6995 -1.7380361E-18
103.8424 -1.7228789E-19
103.9853 1.5223141E-18
104.1282 3.2804879E-18
104.2711 5.0254407E-18
104.4141 6.6710425E-18
104.5570 8.1248070E-18
104.6999 9.2916561E-18
104.8428 1.0078378E-17
104.9857 1.0398652E-17
105.1286 1.0178453E-17
105.2715 9.3615827E-18
105.4144 7.9150423E-18
105.5574 5.8339163E-18
105.7003 3.1454140E-18
105.8432 -8.8288237E-20
105.9861 -3.7687395E-18
106.1290 -7.7617484E-18
106.2719 -1.1899987E-17
106.4148 -1.5987792E-17
106.5577 -1.9808206E-17
106.7006 -2.3132157E-17
106.8436 -2.5729499E-17
106.9865 -2.7381533E-17
107.1294 -2.7894469E-17
107.2723 -2.7113131E-17
107.4152 -2.4934129E-17
107.5581 -2.1317688E-17
107.7010 -1.6297197E-17
107.8439 -9.9857045E-18
107.9869 -2.5785532E-18
108.1298 5.6483879E-18
108.2727 1.4345355E-17
108.4156 2.3100286E-17
108.5585 3.1455247E-17
108.7014 3.8927259E-17
108.8443 4.5032705E-17
108.9872 4.9314271E-17
109.1301 5.1369107E-17
109.2731 5.0876558E-17
109.4160 4.7623974E-17
109.5589 4.1528699E-17
109.7018 3.2654728E-17
109.8447 2.1222584E-17
109.9876 7.6110898E-18
110.1305 -7.6496075E-18
110.2734 -2.3894146E-17
110.4164 -4.0347098E-17
110.5593 -5.6156326E-17
110.7022 -7.0433410E-17
110.8451 -8.2299230E-17
110.9880 -9.0932666E-17
111.1309 -9.5619776E-17
111.2738 -9.5800756E-17
111.4167 -9.1111820E-17
111.5596 -8.1419467E-17
111.7026 -6.6844498E-17
111.8455 -4.7773962E-17
111.9884 -2.4859540E-17
112.1313 9.9845560E-19
112.2742 2.8681310E-17
112.4171 5.6895759E-17
112.5600 8.4229684E-17
112.7029 1.0921751E-16
112.8458 1.3041229E-16
112.9888 1.4646098E-16
113.1317 1.5617930E-16
113.2746 1.5862207E-16
113.4175 1.5314546E-16
113.5604 1.3945754E-16
113.7033 1.1765382E-16
113.8462 8.8235779E-17
113.9891 5.2110685E-17
114.1321 1.0571701E-17
114.2750 -3.4741347E-17
114.4179 -8.1899225E-17
114.5608 -1.2875708E-16
114.7037 -1.7304129E-16
114.8466 -2.1244673E-16
114.9895 -2.4473979E-16
115.1324 -2.6786337E-16
115.2754 -2.8003920E-16
115.4183 -2.7986355E-16
115.5612 -2.6639170E-16
115.7041 -2.3920766E-16
115.8470 -1.9847612E-16
115.9899 -1.4497353E-16
116.1328 -8.0096574E-17
116.2757 -5.8466031E-18
116.4186 7.5210563E-17
116.5616 1.6000941E-16
116.7045 2.4507334E-16
116.8474 3.2662538E-16
116.9903 4.0071898E-16
117.1332 4.6338594E-16
117.2761 5.1079771E-16
117.4190 5.3943521E-16
117.5619 5.4626314E-16
117.7048 5.2890140E-16
117.8478 4.8578817E-16
117.9907 4.1632633E-16
118.1336 3.2100728E-16
118.2765 2.0150191E-16
118.4194 6.0713250E-17
118.5623 -9.7218531E-17
118.7052 -2.6696358E-16
118.8481 -4.4210895E-16
118.9911 -6.1532566E-16
119.1340 -7.7859830E-16
119.2769 -9.2351473E-16
119.4198 -1.0416084E-15
119.5627 -1.1247465E-15
119.7056 -1.1655481E-15
119.8485 -1.1578188E-15
119.9914 -1.0969761E-15
120.1343 -9.8044953E-16
120.2773 -8.0802560E-16
120.4202 -5.8211593E-16
120.5631 -3.0792215E-16
120.7060 6.5224176E-18
120.8489 3.5045199E-16
120.9918 7.1062051E-16
121.1347 1.0717108E-15
121.2776 1.4168966E-15
121.4206 1.7285437E-15
121.5635 1.9890267E-15
121.7064 2.1816291E-15
121.8493 2.2914846E-15
121.9922 2.3065109E-15
122.1351 2.2182842E-15
122.2780 2.0227956E-15
122.4209 1.7210374E-15
122.5639 1.3193693E-15
122.7068 8.2962150E-16
122.8497 2.6890464E-16
122.9926 -3.4088706E-16
123.1355 -9.7387793E-16
123.2784 -1.6012988E-15
123.4213 -2.1928194E-15
123.5642 -2.7180682E-15
123.7071 -3.1482620E-15
123.8501 -3.4578638E-15
123.9930 -3.6261620E-15
124.1359 -3.6386841E-15
124.2788 -3.4883398E-15
124.4217 -3.1762050E-15
124.5646 -2.7118857E-15
124.7075 -2.1134014E-15
124.8504 -1.4065708E-15
124.9933 -6.2390266E-16
125.1363 1.9696695E-16
125.2792 1.0152202E-15
125.4221 1.7890954E-15
125.5650 2.4782831E-15
125.7079 3.0463519E-15
125.8508 3.4630447E-15
125.9937 3.7062990E-15
126.1366 3.7638481E-15
126.2795 3.6342817E-15
126.4225 3.3274764E-15
126.5654 2.8643279E-15
126.7083 2.2757797E-15
126.8512 1.6011724E-15
126.9941 8.8598767E-16
127.1370 1.7910972E-16
127.2799 -4.7025316E-16
127.4228 -1.0157901E-15
127.5658 -1.4172634E-15
127.7087 -1.6434310E-15
127.8516 -1.6745101E-15
127.9945 -1.5040203E-15
128.1374 -1.1398483E-15
128.2803 -6.0445674E-16
128.4232 6.5834061E-17
128.5661 8.2246010E-16
128.7090 1.6070698E-15
128.8520 2.3546951E-15
128.9949 2.9974753E-15
129.1378 3.4687164E-15
129.2807 3.7070812E-15
129.4236 3.6606354E-15
129.5665 3.2905504E-15
129.7094 2.5742180E-15
129.8523 1.5076121E-15
129.9953 1.0675432E-16
130.1382 -1.5918318E-15
130.2811 -3.5316675E-15
130.4240 -5.6378911E-15
130.5669 -7.8197565E-15
130.7098 -9.9739544E-15
130.8527 -1.1988617E-14
130.9956 -1.3747813E-14
131.1385 -1.5136357E-14
131.2815 -1.6044727E-14
131.4244 -1.6373975E-14
131.5673 -1.6040395E-14
131.7102 -1.4979806E-14
131.8531 -1.3151420E-14
131.9960 -1.0541087E-14
132.1389 -7.1639023E-15
132.2818 -3.0660784E-15
132.4248 1.6739848E-15
132.5677 6.9454847E-15
132.7106 1.2605964E-14
132.8535 1.8483053E-14
132.9964 2.4377330E-14
133.1393 3.0066400E-14
133.2822 3.5310174E-14
133.4251 3.9857532E-14
133.5681 4.3454200E-14
133.7110 4.5851970E-14
133.8539 4.6818964E-14
133.9968 4.6150787E-14
134.1397 4.3682214E-14
134.2826 3.9299008E-14
134.4255 3.2949236E-14
134.5684 2.4653580E-14
134.7113 1.4513843E-14
134.8542 2.7189895E-15
134.9972 -1.0451955E-14
135.1401 -2.4630829E-14
135.2830 -3.9365558E-14
135.4259 -5.4130027E-14
135.5688 -6.8338788E-14
135.7117 -8.1366317E-14
135.8546 -9.2570611E-14
135.9975 -1.0132027E-13
136.1405 -1.0702411E-13
136.2834 -1.0916217E-13
136.4263 -1.0731641E-13
136.5692 -1.0119975E-13
136.7121 -9.0681579E-14
136.8550 -7.5808182E-14
136.9979 -5.6816527E-14
137.1408 -3.4140097E-14
137.2838 -8.4057779E-15
137.4267 1.9578782E-14
137.5696 4.8847441E-14
137.7125 7.8307078E-14
137.8554 1.0677754E-13
137.9983 1.3303846E-13
138.1412 1.5588129E-13
138.2841 1.7416411E-13
138.4270 1.8686678E-13
138.5700 1.9314399E-13
138.7129 1.9237297E-13
138.8558 1.8419401E-13
138.9987 1.6854077E-13
139.1416 1.4565898E-13
139.2845 1.1611179E-13
139.4274 8.0771076E-14
139.5703 4.0794489E-14
139.7133 -2.4113518E-15
139.8562 -4.7240301E-14
139.9991 -9.1947087E-14
140.1420 -1.3471623E-13
140.2849 -1.7373678E-13
140.4278 -2.0727984E-13
140.5707 -2.3377546E-13
140.7136 -2.5188553E-13
140.8566 -2.6056967E-13
140.9995 -2.5914064E-13
141.1424 -2.4730714E-13
141.2853 -2.2520140E-13
141.4282 -1.9339004E-13
141.5711 -1.5286752E-13
141.7140 -1.0503155E-13
141.8569 -5.1640942E-14
141.9998 5.2427193E-15
142.1427 6.3328134E-14
142.2857 1.2017939E-13
142.4286 1.7331022E-13
142.5715 2.2028439E-13
142.7144 2.5881795E-13
142.8573 2.8687973E-13
143.0002 3.0278641E-13
143.1431 3.0528753E-13
143.2860 2.9363743E-13
143.4290 2.6765035E-13
143.5719 2.2773629E-13
143.7148 1.7491480E-13
143.8577 1.1080564E-13
144.0006 3.7595466E-14
144.1435 -4.2019516E-14
144.2864 -1.2491332E-13
144.4293 -2.0763117E-13
144.5723 -2.8650815E-13
144.7152 -3.5780271E-13
144.8581 -4.1783929E-13
145.0010 -4.6315697E-13
145.1439 -4.9065710E-13
145.2868 -4.9774583E-13
145.4297 -4.8246449E-13
145.5726 -4.4360400E-13
145.7155 -3.8079712E-13
145.8585 -2.9458486E-13
146.0014 -1.8645334E-13
146.1443 -5.8838588E-14
146.2872 8.4902497E-14
146.4301 2.4055513E-13
146.5730 4.0314299E-13
146.7159 5.6705579E-13
146.8588 7.2620555E-13
147.0018 8.7420674E-13
147.1447 1.0045768E-12
147.2876 1.1109499E-12
147.4305 1.1872983E-12
147.5734 1.2281564E-12
147.7163 1.2288383E-12
147.8592 1.1856438E-12
148.0021 1.0960461E-12
148.1451 9.5885355E-13
148.2880 7.7434212E-13
148.4309 5.4435021E-13
148.5738 2.7233318E-13
148.7167 -3.6627690E-14
148.8596 -3.7586403E-13
149.0025 -7.3720977E-13
149.1454 -1.1111420E-12
149.2883 -1.4869722E-12
149.4312 -1.8530865E-12
149.5742 -2.1972315E-12
149.7171 -2.5068409E-12
149.8600 -2.7693947E-12
150.0029 -2.9728039E-12
150.1458 -3.1058092E-12
150.2887 -3.1583850E-12
150.4316 -3.1221310E-12
150.5745 -2.9906433E-12
150.7175 -2.7598479E-12
150.8604 -2.4282846E-12
151.0033 -1.9973290E-12
151.1462 -1.4713389E-12
151.2891 -8.5772199E-13
151.4320 -1.6691086E-13
151.5749 5.8775326E-13
151.7178 1.3902302E-12
151.8607 2.2220819E-12
152.0037 3.0628549E-12
152.1466 3.8905398E-12
152.2895 4.6820928E-12
152.4324 5.4140017E-12
152.5753 6.0628889E-12
152.7182 6.6061236E-12
152.8611 7.0224338E-12
153.0040 7.2924982E-12
153.1470 7.3995003E-12
153.2899 7.3296412E-12
153.4328 7.0725804E-12
153.5757 6.6218198E-12
153.7186 5.9750056E-12
153.8615 5.1341518E-12
154.0044 4.1057865E-12
154.1473 2.9010164E-12
154.2903 1.5355117E-12
154.4332 2.9414493E-14
154.5761 -1.5928255E-12
154.7190 -3.3026938E-12
154.8619 -5.0679252E-12
155.0048 -6.8528941E-12
155.1477 -8.6190794E-12
155.2906 -1.0325619E-11
155.4335 -1.1929938E-11
155.5765 -1.3388467E-11
155.7194 -1.4657456E-11
155.8623 -1.5693859E-11
156.0052 -1.6456324E-11
156.1481 -1.6906233E-11
156.2910 -1.7008811E-11
156.4339 -1.6734275E-11
156.5768 -1.6058967E-11
156.7197 -1.4966504E-11
156.8627 -1.3448825E-11
157.0056 -1.1507149E-11
157.1485 -9.1527888E-12
157.2914 -6.4077450E-12
157.4343 -3.3050884E-12
157.5772 1.1095984E-13
157.7201 3.7852443E-12
157.8630 7.6522313E-12
158.0060 1.1636909E-11
158.1489 1.5656039E-11
158.2918 1.9619723E-11
158.4347 2.3433300E-11
158.5776 2.6999474E-11
158.7205 3.0220677E-11
158.8634 3.3001584E-11
159.0063 3.5251652E-11
159.1492 3.6887694E-11
159.2922 3.7836363E-11
159.4351 3.8036432E-11
159.5780 3.7440853E-11
159.7209 3.6018490E-11
159.8638 3.3755443E-11
160.0067 3.0655985E-11
160.1496 2.6742986E-11
160.2925 2.2057901E-11
160.4355 1.6660211E-11
160.5784 1.0626473E-11
160.7213 4.0488593E-12
160.8642 -2.9666486E-12
161.0071 -1.0302403E-11
161.1500 -1.7831505E-11
161.2929 -2.5420391E-11
161.4358 -3.2931508E-11
161.5788 -4.0226010E-11
161.7217 -4.7166420E-11
161.8646 -5.3619113E-11
162.0075 -5.9456613E-11
162.1504 -6.4559642E-11
162.2933 -6.8818909E-11
162.4362 -7.2136540E-11
162.5791 -7.4427221E-11
162.7220 -7.5619032E-11
162.8650 -7.5654011E-11
163.0079 -7.4488422E-11
163.1508 -7.2092908E-11
163.2937 -6.8452362E-11
163.4366 -6.3565847E-11
163.5795 -5.7446412E-11
163.7224 -5.0120932E-11
163.8653 -4.1629963E-11
164.0083 -3.2027807E-11
164.1512 -2.1382571E-11
164.2941 -9.7764097E-12
164.4370 2.6941123E-12
164.5799 1.5917670E-11
164.7228 2.9767636E-11
164.8657 4.4101753E-11
165.0086 5.8761815E-11
165.1515 7.3573571E-11
165.2944 8.8346927E-11
165.4374 1.0287653E-10
165.5803 1.1694283E-10
165.7232 1.3031369E-10
165.8661 1.4274652E-10
166.0090 1.5399118E-10
166.1519 1.6379331E-10
166.2948 1.7189848E-10
166.4377 1.7805669E-10
166.5807 1.8202745E-10
166.7236 1.8358506E-10
166.8665 1.8252412E-10
167.0094 1.7866497E-10
167.1523 1.7185905E-10
167.2952 1.6199385E-10
167.4381 1.4899708E-10
167.5810 1.3284050E-10
167.7240 1.1354261E-10
167.8669 9.1170453E-11
168.0098 6.5840458E-11
168.1527 3.7718072E-11
168.2956 7.0165995E-12
168.4385 -2.6005162E-11
168.5814 -6.1045898E-11
168.7243 -9.7765414E-11
168.8672 -1.3578894E-10
169.0102 -1.7471120E-10
169.1531 -2.1410136E-10
169.2960 -2.5350660E-10
169.4389 -2.9245650E-10
169.5818 -3.3046577E-10
169.7247 -3.6703707E-10
169.8676 -4.0166256E-10
170.0105 -4.3382514E-10
170.1535 -4.6299836E-10
170.2964 -4.8864635E-10
170.4393 -5.1022314E-10
170.5822 -5.2717197E-10
170.7251 -5.3892457E-10
170.8680 -5.4490201E-10
171.0109 -5.4451532E-10
171.1538 -5.3716886E-10
171.2968 -5.2226451E-10
171.4397 -4.9920912E-10
171.5826 -4.6742299E-10
171.7255 -4.2635301E-10
171.8684 -3.7548656E-10
172.0113 -3.1436959E-10
172.1542 -2.4262611E-10
172.2971 -1.5998100E-10
172.4400 -6.6283506E-11
172.5829 3.8467184E-11
172.7259 1.5409721E-10
172.8688 2.8023259E-10
173.0117 4.1627493E-10