  -7.200000       -7.9128879E-20
  -7.057088       -7.9265642E-20
  -6.914176       -7.9542689E-20
  -6.771265       -7.9958406E-20
  -6.628353       -8.0493288E-20
  -6.485441       -8.1099211E-20
  -6.342530       -8.1697223E-20
  -6.199618       -8.2193176E-20
  -6.056706       -8.2501443E-20
  -5.913795       -8.2569640E-20
  -5.770883       -8.2398841E-20
  -5.627971       -8.2048181E-20
  -5.485059       -8.1619191E-20
  -5.342147       -8.1228942E-20
  -5.199236       -8.0977505E-20
  -5.056324       -8.0923125E-20
  -4.913413       -8.1072379E-20
  -4.770501       -8.1388511E-20
  -4.627589       -8.1814366E-20
  -4.484677       -8.2296600E-20
  -4.341765       -8.2807423E-20
  -4.198854       -8.3346731E-20
  -4.055942       -8.3931031E-20
  -3.913030       -8.4569964E-20
  -3.770118       -8.5243935E-20
  -3.627207       -8.5891294E-20
  -3.484295       -8.6417375E-20
  -3.341383       -8.6717195E-20
  -3.198472       -8.6714074E-20
  -3.055560       -8.6392061E-20
  -2.912648       -8.5813798E-20
  -2.769737       -8.5112096E-20
  -2.626825       -8.4459903E-20
  -2.483913       -8.4022641E-20
  -2.341001       -8.3911676E-20
  -2.198090       -8.4152399E-20
  -2.055178       -8.4683494E-20
  -1.912266       -8.5377512E-20
  -1.769354       -8.6088816E-20
  -1.626443       -8.6699443E-20
  -1.483531       -8.7152551E-20
  -1.340619       -8.7464372E-20
  -1.197708       -8.7701624E-20
  -1.054796       -8.7943555E-20
 -0.9118841       -8.8237818E-20
 -0.7689723       -8.8572219E-20
 -0.6260606       -8.8871678E-20
 -0.4831489       -8.9026347E-20
 -0.3402372       -8.8936637E-20
 -0.1973254       -8.8563107E-20
 -5.4413714E-02   -8.7957604E-20
  8.8498011E-02   -8.7263787E-20
  0.2314097       -8.6681594E-20
  0.3743215       -8.6406964E-20
  0.5172332       -8.6569026E-20
  0.6601449       -8.7181890E-20
  0.8030567       -8.8136191E-20
  0.9459684       -8.9227281E-20
   1.088880       -9.0219446E-20
   1.231792       -9.0917496E-20
   1.374704       -9.1225653E-20
   1.517615       -9.1173127E-20
   1.660527       -9.0893494E-20
   1.803439       -9.0567702E-20
   1.946350       -9.0357708E-20
   2.089262       -9.0345009E-20
   2.232174       -9.0503944E-20
   2.375086       -9.0721008E-20
   2.517997       -9.0846196E-20
   2.660909       -9.0762470E-20
   2.803821       -9.0444749E-20
   2.946733       -8.9982374E-20
   3.089644       -8.9552822E-20
   3.232556       -8.9363792E-20
   3.375468       -8.9572901E-20
   3.518379       -9.0221365E-20
   3.661291       -9.1208741E-20
   3.804203       -9.2312704E-20
   3.947115       -9.3259528E-20
   4.090026       -9.3811910E-20
   4.232938       -9.3847440E-20
   4.375850       -9.3400595E-20
   4.518762       -9.2648242E-20
   4.661673       -9.1848235E-20
   4.804585       -9.1250416E-20
   4.947497       -9.1013668E-20
   5.090408       -9.1158612E-20
   5.233320       -9.1570477E-20
   5.376232       -9.2056226E-20
   5.519144       -9.2422144E-20
   5.662055       -9.2556515E-20
   5.804967       -9.2472382E-20
   5.947879       -9.2302661E-20
   6.090790       -9.2246297E-20
   6.233702       -9.2486754E-20
   6.376614       -9.3111857E-20
   6.519526       -9.4071619E-20
   6.662437       -9.5182432E-20
   6.805349       -9.6183586E-20
   6.948261       -9.6823882E-20
   7.091173       -9.6945594E-20
   7.234084       -9.6536785E-20
   7.376996       -9.5733955E-20
   7.519908       -9.4773702E-20
   7.662819       -9.3914765E-20
   7.805731       -9.3354434E-20
   7.948643       -9.3172959E-20
   8.091555       -9.3323958E-20
   8.234467       -9.3667470E-20
   8.377378       -9.4035301E-20
   8.520289       -9.4301181E-20
   8.663201       -9.4423604E-20
   8.806113       -9.4456879E-20
   8.949025       -9.4514904E-20
   9.091937       -9.4715625E-20
   9.234848       -9.5121777E-20
   9.377760       -9.5704396E-20
   9.520672       -9.6342682E-20
   9.663584       -9.6861305E-20
   9.806496       -9.7089187E-20
   9.949407       -9.6919298E-20
   10.09232       -9.6347981E-20
   10.23523       -9.5479500E-20
   10.37814       -9.4494922E-20
   10.52105       -9.3600055E-20
   10.66397       -9.2969731E-20
   10.80688       -9.2706732E-20
   10.94979       -9.2825155E-20
   11.09270       -9.3267354E-20
   11.23561       -9.3932485E-20
   11.37852       -9.4716154E-20
   11.52144       -9.5537041E-20
   11.66435       -9.6344944E-20
   11.80726       -9.7117033E-20
   11.95017       -9.7837902E-20
   12.09308       -9.8482999E-20
   12.23599       -9.9011329E-20
   12.37891       -9.9366881E-20
   12.52182       -9.9492373E-20
   12.66473       -9.9348424E-20
   12.80764       -9.8925211E-20
   12.95055       -9.8244758E-20
   13.09346       -9.7361530E-20
   13.23638       -9.6348809E-20
   13.37929       -9.5291394E-20
   13.52220       -9.4277684E-20
   13.66511       -9.3397829E-20
   13.80802       -9.2740098E-20
   13.95094       -9.2388055E-20
   14.09385       -9.2408211E-20
   14.23676       -9.2833821E-20
   14.37967       -9.3649873E-20
   14.52258       -9.4784998E-20
   14.66549       -9.6120455E-20
   14.80841       -9.7508820E-20
   14.95132       -9.8810711E-20
   15.09423       -9.9923386E-20
   15.23714       -1.0080536E-19
   15.38005       -1.0147322E-19
   15.52296       -1.0198077E-19
   15.66588       -1.0238320E-19
   15.80879       -1.0270178E-19
   15.95170       -1.0290613E-19
   16.09461       -1.0292217E-19
   16.23752       -1.0266411E-19
   16.38043       -1.0207943E-19
   16.52335       -1.0118833E-19
   16.66626       -1.0009804E-19
   16.80917       -9.8981421E-20
   16.95208       -9.8025820E-20
   17.09499       -9.7367469E-20
   17.23791       -9.7036299E-20
   17.38082       -9.6938672E-20
   17.52373       -9.6881170E-20
   17.66664       -9.6638613E-20
   17.80955       -9.6037343E-20
   17.95246       -9.5029494E-20
   18.09538       -9.3724533E-20
   18.23829       -9.2365779E-20
   18.38120       -9.1261570E-20
   18.52411       -9.0687778E-20
   18.66702       -9.0803261E-20
   18.80993       -9.1603952E-20
   18.95285       -9.2934543E-20
   19.09576       -9.4553620E-20
   19.23867       -9.6222134E-20
   19.38158       -9.7784613E-20
   19.52449       -9.9207978E-20
   19.66740       -1.0056453E-19
   19.81032       -1.0196624E-19
   19.95323       -1.0347764E-19
   20.09614       -1.0504635E-19
   20.23905       -1.0648284E-19
   20.38196       -1.0749873E-19
   20.52488       -1.0779716E-19
   20.66779       -1.0718351E-19
   20.81070       -1.0565006E-19
   20.95361       -1.0340225E-19
   21.09652       -1.0081874E-19
   21.23943       -9.8348447E-20
   21.38235       -9.6387098E-20
   21.52526       -9.5170632E-20
   21.66817       -9.4725809E-20
   21.81108       -9.4888602E-20
   21.95399       -9.5387315E-20
   22.09690       -9.5948240E-20
   22.23981       -9.6391240E-20
   22.38273       -9.6675254E-20
   22.52564       -9.6880253E-20
   22.66855       -9.7141396E-20
   22.81146       -9.7561533E-20
   22.95437       -9.8140314E-20
   23.09729       -9.8754418E-20
   23.24020       -9.9190743E-20
   23.38311       -9.9229084E-20
   23.52602       -9.8733868E-20
   23.66893       -9.7724339E-20
   23.81184       -9.6392442E-20
   23.95476       -9.5060811E-20
   24.09767       -9.4092855E-20
   24.24058       -9.3792749E-20
   24.38349       -9.4319470E-20
   24.52640       -9.5652510E-20
   24.66932       -9.7608954E-20
   24.81223       -9.9909039E-20
   24.95514       -1.0225651E-19
   25.09805       -1.0440973E-19
   25.24096       -1.0621895E-19
   25.38387       -1.0762682E-19
   25.52678       -1.0863614E-19
   25.66970       -1.0926856E-19
   25.81261       -1.0953197E-19
   25.95552       -1.0941433E-19
   26.09843       -1.0890078E-19
   26.24134       -1.0800489E-19
   26.38426       -1.0679883E-19
   26.52717       -1.0542335E-19
   26.67008       -1.0407239E-19
   26.81299       -1.0295701E-19
   26.95590       -1.0225757E-19
   27.09881       -1.0208203E-19
   27.24173       -1.0244613E-19
   27.38464       -1.0327670E-19
   27.52755       -1.0443393E-19
   27.67046       -1.0574517E-19
   27.81337       -1.0703452E-19
   27.95629       -1.0814519E-19
   28.09920       -1.0894780E-19
   28.24211       -1.0934230E-19
   28.38502       -1.0926022E-19
   28.52793       -1.0867270E-19
   28.67084       -1.0760111E-19
   28.81376       -1.0612837E-19
   28.95667       -1.0440142E-19
   29.09958       -1.0261612E-19
   29.24249       -1.0098498E-19
   29.38540       -9.9694205E-20
   29.52831       -9.8863483E-20
   29.67122       -9.8520093E-20
   29.81414       -9.8596769E-20
   29.95705       -9.8957258E-20
   30.09996       -9.9441669E-20
   30.24287       -9.9909912E-20
   30.38578       -1.0027627E-19
   30.52870       -1.0052097E-19
   30.67161       -1.0067251E-19
   30.81452       -1.0077961E-19
   30.95743       -1.0087650E-19
   31.10034       -1.0096375E-19
   31.24325       -1.0101082E-19
   31.38617       -1.0098256E-19
   31.52908       -1.0086932E-19
   31.67199       -1.0071917E-19
   31.81490       -1.0064567E-19
   31.95781       -1.0080926E-19
   32.10072       -1.0137350E-19
   32.24364       -1.0245116E-19
   32.38655       -1.0405688E-19
   32.52946       -1.0608878E-19
   32.67237       -1.0834007E-19
   32.81528       -1.1054652E-19
   32.95819       -1.1245000E-19
   33.10111       -1.1386024E-19
   33.24402       -1.1469483E-19
   33.38693       -1.1498580E-19
   33.52984       -1.1485153E-19
   33.67275       -1.1444969E-19
   33.81567       -1.1392017E-19
   33.95858       -1.1334972E-19
   34.10149       -1.1276149E-19
   34.24440       -1.1213225E-19
   34.38731       -1.1143100E-19
   34.53022       -1.1065916E-19
   34.67313       -1.0987723E-19
   34.81605       -1.0920190E-19
   34.95896       -1.0877768E-19
   35.10187       -1.0872476E-19
   35.24478       -1.0908855E-19
   35.38770       -1.0980613E-19
   35.53061       -1.1070286E-19
   35.67352       -1.1152772E-19
   35.81643       -1.1201312E-19
   35.95934       -1.1194880E-19
   36.10225       -1.1124040E-19
   36.24516       -1.0993878E-19
   36.38808       -1.0822987E-19
   36.53099       -1.0638590E-19
   36.67390       -1.0469567E-19
   36.81681       -1.0339166E-19
   36.95972       -1.0260134E-19
   37.10263       -1.0233144E-19
   37.24555       -1.0248524E-19
   37.38846       -1.0291395E-19
   37.53137       -1.0346913E-19
   37.67428       -1.0404989E-19
   37.81719       -1.0461932E-19
   37.96011       -1.0519196E-19
   38.10302       -1.0579773E-19
   38.24593       -1.0643924E-19
   38.38884       -1.0706234E-19
   38.53175       -1.0755360E-19
   38.67466       -1.0776800E-19
   38.81758       -1.0758005E-19
   38.96049       -1.0694085E-19
   39.10340       -1.0591504E-19
   39.24631       -1.0468580E-19
   39.38922       -1.0352239E-19
   39.53214       -1.0271006E-19
   39.67505       -1.0247503E-19
   39.81796       -1.0291682E-19
   39.96087       -1.0398004E-19
   40.10378       -1.0546792E-19
   40.24669       -1.0709908E-19
   40.38961       -1.0858653E-19
   40.53252       -1.0971539E-19
   40.67543       -1.1038995E-19
   40.81834       -1.1064148E-19
   40.96125       -1.1059286E-19
   41.10416       -1.1039576E-19
   41.24707       -1.1016645E-19
   41.38999       -1.0994038E-19
   41.53290       -1.0966607E-19
   41.67581       -1.0924192E-19
   41.81872       -1.0857513E-19
   41.96163       -1.0764542E-19
   42.10455       -1.0654731E-19
   42.24746       -1.0549019E-19
   42.39037       -1.0474783E-19
   42.53328       -1.0458415E-19
   42.67619       -1.0516440E-19
   42.81910       -1.0648942E-19
   42.96202       -1.0837564E-19
   43.10493       -1.1048856E-19
   43.24784       -1.1242089E-19
   43.39075       -1.1379370E-19
   43.53366       -1.1435029E-19
   43.67657       -1.1401042E-19
   43.81948       -1.1287701E-19
   43.96240       -1.1118771E-19
   44.10531       -1.0923809E-19
   44.24822       -1.0729676E-19
   44.39113       -1.0554420E-19
   44.53405       -1.0405413E-19
   44.67696       -1.0281500E-19
   44.81987       -1.0178477E-19
   44.96278       -1.0094773E-19
   45.10569       -1.0035500E-19
   45.24860       -1.0012533E-19
   45.39151       -1.0040548E-19
   45.53443       -1.0130644E-19
   45.67734       -1.0283655E-19
   45.82025       -1.0486362E-19
   45.96316       -1.0711908E-19
   46.10608       -1.0925219E-19
   46.24899       -1.1092200E-19
   46.39190       -1.1188736E-19
   46.53481       -1.1208171E-19
   46.67772       -1.1163124E-19
   46.82063       -1.1081962E-19
   46.96354       -1.1000517E-19
   47.10646       -1.0951906E-19
   47.24937       -1.0957391E-19
   47.39228       -1.1021626E-19
   47.53519       -1.1133175E-19
   47.67810       -1.1270072E-19
   47.82101       -1.1407719E-19
   47.96392       -1.1526784E-19
   48.10684       -1.1617661E-19
   48.24975       -1.1680948E-19
   48.39266       -1.1723396E-19
   48.53557       -1.1751658E-19
   48.67849       -1.1767324E-19
   48.82140       -1.1763977E-19
   48.96431       -1.1729032E-19
   49.10722       -1.1649110E-19
   49.25013       -1.1516739E-19
   49.39304       -1.1336296E-19
   49.53595       -1.1126083E-19
   49.67887       -1.0916017E-19
   49.82178       -1.0740812E-19
   49.96469       -1.0631542E-19
   50.10760       -1.0607577E-19
   50.25051       -1.0672209E-19
   50.39342       -1.0812753E-19
   50.53634       -1.1004718E-19
   50.67925       -1.1219117E-19
   50.82216       -1.1429444E-19
   50.96507       -1.1616441E-19
   51.10798       -1.1769851E-19
   51.25090       -1.1886252E-19
   51.39381       -1.1965582E-19
   51.53672       -1.2007285E-19
   51.67963       -1.2008392E-19
   51.82254       -1.1964309E-19
   51.96545       -1.1871324E-19
   52.10837       -1.1730517E-19
   52.25128       -1.1550305E-19
   52.39419       -1.1347032E-19
   52.53710       -1.1142911E-19
   52.68001       -1.0961998E-19
   52.82293       -1.0825270E-19
   52.96584       -1.0746509E-19
   53.10875       -1.0730422E-19
   53.25166       -1.0772564E-19
   53.39457       -1.0861299E-19
   53.53748       -1.0980547E-19
   53.68040       -1.1112472E-19
   53.82331       -1.1239649E-19
   53.96622       -1.1346484E-19
   54.10913       -1.1420556E-19
   54.25204       -1.1453969E-19
   54.39495       -1.1444959E-19
   54.53786       -1.1399486E-19
   54.68078       -1.1331264E-19
   54.82369       -1.1260679E-19
   54.96660       -1.1211145E-19
   55.10951       -1.1204194E-19
   55.25242       -1.1254485E-19
   55.39534       -1.1366059E-19
   55.53825       -1.1531369E-19
   55.68116       -1.1733717E-19
   55.82407       -1.1951882E-19
   55.96698       -1.2165733E-19
   56.10989       -1.2360259E-19
   56.25281       -1.2527102E-19
   56.39572       -1.2662801E-19
   56.53863       -1.2764781E-19
   56.68154       -1.2827365E-19
   56.82445       -1.2839925E-19
   56.96737       -1.2788641E-19
   57.11028       -1.2661435E-19
   57.25319       -1.2454949E-19
   57.39610       -1.2180183E-19
   57.53901       -1.1864590E-19
   57.68192       -1.1548642E-19
   57.82484       -1.1277819E-19
   57.96775       -1.1091813E-19
   58.11066       -1.1014764E-19
   58.25357       -1.1050219E-19
   58.39648       -1.1181622E-19
   58.53939       -1.1379268E-19
   58.68230       -1.1609931E-19
   58.82522       -1.1846475E-19
   58.96813       -1.2073168E-19
   59.11104       -1.2285240E-19
   59.25395       -1.2483348E-19
   59.39687       -1.2665469E-19
   59.53978       -1.2820750E-19
   59.68269       -1.2927600E-19
   59.82560       -1.2958800E-19
   59.96851       -1.2891042E-19
   60.11142       -1.2716271E-19
   60.25433       -1.2449535E-19
   60.39725       -1.2129961E-19
   60.54016       -1.1813889E-19
   60.68307       -1.1561025E-19
   60.82598       -1.1418763E-19
   60.96889       -1.1409241E-19
   61.11180       -1.1524114E-19
   61.25471       -1.1728435E-19
   61.39763       -1.1972142E-19
   61.54054       -1.2205261E-19
   61.68345       -1.2391525E-19
   61.82636       -1.2515717E-19
   61.96928       -1.2582975E-19
   62.11219       -1.2611061E-19
   62.25510       -1.2619577E-19
   62.39801       -1.2620459E-19
   62.54092       -1.2613584E-19
   62.68383       -1.2589354E-19
   62.82674       -1.2536327E-19
   62.96966       -1.2450525E-19
   63.11257       -1.2342118E-19
   63.25548       -1.2235950E-19
   63.39839       -1.2165667E-19
   63.54131       -1.2162733E-19
   63.68422       -1.2244870E-19
   63.82713       -1.2408000E-19
   63.97004       -1.2625282E-19
   64.11295       -1.2853199E-19
   64.25586       -1.3043713E-19
   64.39877       -1.3157294E-19
   64.54169       -1.3173315E-19
   64.68460       -1.3094295E-19
   64.82751       -1.2943176E-19
   64.97042       -1.2754899E-19
   65.11333       -1.2566123E-19
   65.25625       -1.2406219E-19
   65.39915       -1.2292414E-19
   65.54207       -1.2230062E-19
   65.68498       -1.2216385E-19
   65.82789       -1.2246074E-19
   65.97080       -1.2315052E-19
   66.11372       -1.2421664E-19
   66.25663       -1.2564593E-19
   66.39954       -1.2738888E-19
   66.54245       -1.2932316E-19
   66.68536       -1.3124208E-19
   66.82828       -1.3287391E-19
   66.97118       -1.3393318E-19
   67.11410       -1.3418780E-19
   67.25701       -1.3351642E-19
   67.39992       -1.3194680E-19
   67.54283       -1.2965765E-19
   67.68575       -1.2694685E-19
   67.82866       -1.2417900E-19
   67.97157       -1.2172374E-19
   68.11448       -1.1989989E-19
   68.25739       -1.1893398E-19
   68.40031       -1.1893633E-19
   68.54321       -1.1989316E-19
   68.68613       -1.2167315E-19
   68.82904       -1.2404671E-19
   68.97195       -1.2671666E-19
   69.11486       -1.2935962E-19
   69.25777       -1.3167171E-19
   69.40069       -1.3341687E-19
   69.54359       -1.3446025E-19
   69.68651       -1.3478254E-19
   69.82942       -1.3447129E-19
   69.97233       -1.3368611E-19
   70.11524       -1.3261327E-19
   70.25816       -1.3142437E-19
   70.40107       -1.3024511E-19
   70.54398       -1.2915285E-19
   70.68689       -1.2819252E-19
   70.82980       -1.2740287E-19
   70.97272       -1.2683694E-19
   71.11562       -1.2656361E-19
   71.25854       -1.2664800E-19
   71.40145       -1.2711251E-19
   71.54436       -1.2790174E-19
   71.68727       -1.2886483E-19
   71.83018       -1.2977038E-19
   71.97310       -1.3035902E-19
   72.11600       -1.3041403E-19
   72.25892       -1.2983380E-19
   72.40183       -1.2867757E-19
   72.54475       -1.2716385E-19
   72.68765       -1.2562331E-19
   72.83057       -1.2441329E-19
   72.97348       -1.2382833E-19
   73.11639       -1.2402688E-19
   73.25930       -1.2500246E-19
   73.40221       -1.2660287E-19
   73.54513       -1.2858936E-19
   73.68803       -1.3070887E-19
   73.83095       -1.3275520E-19
   73.97386       -1.3459665E-19
   74.11678       -1.3616450E-19
   74.25968       -1.3741701E-19
   74.40260       -1.3829536E-19
   74.54551       -1.3869688E-19
   74.68842       -1.3848301E-19
   74.83133       -1.3752237E-19
   74.97424       -1.3575459E-19
   75.11716       -1.3324965E-19
   75.26006       -1.3023727E-19
   75.40298       -1.2709373E-19
   75.54589       -1.2428359E-19
   75.68880       -1.2226731E-19
   75.83171       -1.2140946E-19
   75.97462       -1.2190725E-19
   76.11754       -1.2376231E-19
   76.26044       -1.2679525E-19
   76.40336       -1.3070321E-19
   76.54627       -1.3512885E-19
   76.68919       -1.3972454E-19
   76.83209       -1.4419256E-19
   76.97501       -1.4829690E-19
   77.11792       -1.5184632E-19
   77.26083       -1.5466707E-19
   77.40374       -1.5658131E-19
   77.54665       -1.5739889E-19
   77.68957       -1.5692972E-19
   77.83247       -1.5501341E-19
   77.97539       -1.5155449E-19
   78.11830       -1.4655310E-19
   78.26122       -1.4012259E-19
   78.40412       -1.3249144E-19
   78.54704       -1.2399453E-19
   78.68995       -1.1505153E-19
   78.83286       -1.0614413E-19
   78.97577       -9.7793874E-20
   79.11868       -9.0539035E-20
   79.26160       -8.4914504E-20
   79.40450       -8.1426225E-20
   79.54742       -8.0524753E-20
   79.69033       -8.2573486E-20
   79.83324       -8.7817856E-20
   79.97615       -9.6354941E-20
   80.11906       -1.0810626E-19
   80.26198       -1.2279168E-19
   80.40488       -1.3991281E-19
   80.54780       -1.5874082E-19
   80.69071       -1.7832064E-19
   80.83363       -1.9749440E-19
   80.97653       -2.1495163E-19
   81.11945       -2.2931217E-19
   81.26236       -2.3923343E-19
   81.40527       -2.4353477E-19
   81.54818       -2.4132216E-19
   81.69109       -2.3208941E-19
   81.83401       -2.1578954E-19
   81.97691       -1.9285685E-19
   82.11983       -1.6418898E-19
   82.26274       -1.3109687E-19
   82.40565       -9.5238099E-20
   82.54856       -5.8545776E-20
   82.69147       -2.3160860E-20
   82.83439        8.6405938E-21
   82.97730        3.4531821E-20
   83.12021        5.2248537E-20
   83.26312        5.9735397E-20
   83.40604        5.5325400E-20
   83.54894        3.7929937E-20
   83.69186        7.2139544E-21
   83.83477       -3.6277670E-20
   83.97768       -9.1063532E-20
   84.12059       -1.5475424E-19
   84.26350       -2.2415543E-19
   84.40642       -2.9542650E-19
   84.54933       -3.6426726E-19
   84.69224       -4.2611162E-19
   84.83515       -4.7631614E-19
   84.97807       -5.1036051E-19
   85.12097       -5.2406090E-19
   85.26389       -5.1383110E-19
   85.40680       -4.7699163E-19
   85.54971       -4.1211201E-19
   85.69262       -3.1935843E-19
   85.83553       -2.0078735E-19
   85.97845       -6.0532160E-20
   86.12135        9.5168183E-20
   86.26427        2.5811897E-19
   86.40718        4.1850117E-19
   86.55009        5.6535494E-19
   86.69300        6.8717109E-19
   86.83591        7.7255055E-19
   86.97883        8.1089291E-19
   87.12174        7.9309907E-19
   87.26465        7.1226749E-19
   87.40756        5.6438233E-19
   87.55048        3.4896214E-19
   87.69338        6.9630687E-20
   87.83630       -2.6545265E-19
   87.97921       -6.4338977E-19
   88.12212       -1.0466293E-18
   88.26503       -1.4534096E-18
   88.40794       -1.8385770E-18
   88.55086       -2.1747590E-18
   88.69377       -2.4338452E-18
   88.83668       -2.5886936E-18
   88.97959       -2.6149603E-18
   89.12251       -2.4929617E-18
   89.26541       -2.2094664E-18
   89.40833       -1.7593240E-18
   89.55124       -1.1468354E-18
   89.69415       -3.8674721E-19
   89.83706        4.9523040E-19
   89.97997        1.4625058E-18
   90.12289        2.4683810E-18
   90.26580        3.4575904E-18
   90.40871        4.3686018E-18
   90.55162        5.1366411E-18
   90.69453        5.6972970E-18
   90.83744        5.9905479E-18
   90.98035        5.9649607E-18
   91.12327        5.5818239E-18
   91.26618        4.8189541E-18
   91.40909        3.6739144E-18
   91.55200        2.1664168E-18
   91.69492        3.3967719E-19
   91.83783       -1.7394465E-18
   91.98074       -3.9816881E-18
   92.12365       -6.2780668E-18
   92.26656       -8.5040412E-18
   92.40947       -1.0525054E-17
   92.55238       -1.2203267E-17
   92.69530       -1.3405221E-17
   92.83821       -1.4010011E-17
   92.98112       -1.3917562E-17
   93.12403       -1.3056473E-17
   93.26694       -1.1390974E-17
   93.40986       -8.9264716E-18
   93.55276       -5.7132674E-18
   93.69568       -1.8480931E-18
   93.83859        2.5268186E-18
   93.98150        7.2272673E-18
   94.12441        1.2033233E-17
   94.26733        1.6697508E-17
   94.41024        2.0956520E-17
   94.55315        2.4542952E-17
   94.69606        2.7199498E-17
   94.83897        2.8693268E-17
   94.98188        2.8829964E-17
   95.12479        2.7467232E-17
   95.26771        2.4526413E-17
   95.41062        2.0002074E-17
   95.55353        1.3968741E-17
   95.69644        6.5843391E-18
   95.83936       -1.9100295E-18
   95.98227       -1.1194207E-17
   96.12518       -2.0877149E-17
   96.26809       -3.0509078E-17
   96.41100       -3.9597444E-17
   96.55391       -4.7626353E-17
   96.69682       -5.4078865E-17
   96.83974       -5.8461625E-17
   96.98265       -6.0330888E-17
   97.12556       -5.9319034E-17
   97.26847       -5.5160582E-17
   97.41138       -4.7716426E-17
   97.55430       -3.6995153E-17
   97.69720       -2.3170014E-17
   97.84012       -6.5902522E-18
   97.98303        1.2214588E-17
   98.12594        3.2538615E-17
   98.26885        5.3512855E-17
   98.41177        7.4128585E-17
   98.55468        9.3270960E-17
   98.69759        1.0976292E-16
   98.84050        1.2241843E-16
   98.98341        1.3010347E-16
   99.12633        1.3180306E-16
   99.26923        1.2669090E-16
   99.41215        1.1419873E-16
   99.55506        9.4081021E-17
   99.69797        6.6470983E-17
   99.84088        3.1923170E-17
   99.98380       -8.5615286E-18
   100.1267       -5.3532687E-17
   100.2696       -1.0111208E-16
   100.4125       -1.4904259E-16
   100.5554       -1.9476509E-16
   100.6984       -2.3552254E-16
   100.8413       -2.6848872E-16
   100.9842       -2.9091715E-16
   101.1271       -3.0030375E-16
   101.2700       -2.9455618E-16
   101.4129       -2.7215952E-16
   101.5558       -2.3232962E-16
   101.6987       -1.7514301E-16
   101.8416       -1.0163341E-16
   101.9846       -1.3845641E-17
   102.1275        8.5160706E-17
   102.2704        1.9136379E-16
   102.4133        2.9989090E-16
   102.5562        4.0518917E-16
   102.6991        5.0125149E-16
   102.8420        5.8189115E-16
   102.9849        6.4105518E-16
   103.1279        6.7316228E-16
   103.2708        6.7345059E-16
   103.4137        6.3831662E-16
   103.5566        5.6562706E-16
   103.6995        4.5498438E-16
   103.8424        3.0792827E-16
   103.9853        1.2805649E-16
   104.1282       -7.8948778E-17
   104.2711       -3.0539855E-16
   104.4141       -5.4178472E-16
   104.5570       -7.7707840E-16
   104.6999       -9.9913423E-16
   104.8428       -1.1951904E-15
   104.9857       -1.3524491E-15
   105.1286       -1.4587162E-15
   105.2715       -1.5030743E-15
   105.4144       -1.4765604E-15
   105.5574       -1.3728153E-15
   105.7003       -1.1886695E-15
   105.8432       -9.2463419E-16
   105.9861       -5.8525948E-16
   106.1290       -1.7933272E-16
   106.2719        2.8011104E-16
   106.4148        7.7598695E-16
   106.5577        1.2875783E-15
   106.7006        1.7911786E-15
   106.8436        2.2609510E-15
   106.9865        2.6699834E-15
   107.1294        2.9915152E-15
   107.2723        3.2002874E-15
   107.4152        3.2739638E-15
   107.5581        3.1945621E-15
   107.7010        2.9498221E-15
   107.8439        2.5344318E-15
   107.9869        1.9510366E-15
   108.1298        1.2109522E-15
   108.2727        3.3451046E-16
   108.4156       -6.4901893E-16
   108.5585       -1.7019757E-15
   108.7014       -2.7793497E-15
   108.8443       -3.8303139E-15
   108.9872       -4.8002204E-15
   109.1301       -5.6330084E-15
   109.2731       -6.2739332E-15
   109.4160       -6.6725092E-15
   109.5589       -6.7855259E-15
   109.7018       -6.5799861E-15
   109.8447       -6.0357925E-15
   109.9876       -5.1480185E-15
   110.1305       -3.9285905E-15
   110.2734       -2.4072380E-15
   110.4164       -6.3158249E-16
   110.5593        1.3337112E-15
   110.7022        3.4087687E-15
   110.8451        5.5013126E-15
   110.9880        7.5103642E-15
   111.1309        9.3307252E-15
   111.2738        1.0858048E-14
   111.4167        1.1994267E-14
   111.5596        1.2653120E-14
   111.7026        1.2765465E-14
   111.8455        1.2284082E-14
   111.9884        1.1187655E-14
   112.1313        9.4836740E-15
   112.2742        7.2100071E-15
   112.4171        4.4349921E-15
   112.5600        1.2559360E-15
   112.7029       -2.2039706E-15
   112.8458       -5.8002686E-15
   112.9888       -9.3731726E-15
   113.1317       -1.2754620E-14
   113.2746       -1.5776070E-14
   113.4175       -1.8276698E-14
   113.5604       -2.0111535E-14
   113.7033       -2.1159168E-14
   113.8462       -2.1328540E-14
   113.9891       -2.0564506E-14
   114.1321       -1.8851823E-14
   114.2750       -1.6217335E-14
   114.4179       -1.2730239E-14
   114.5608       -8.5003568E-15
   114.7037       -3.6745437E-15
   114.8466        1.5686688E-15
   114.9895        7.0258719E-15
   115.1324        1.2476756E-14
   115.2754        1.7692856E-14
   115.4183        2.2446697E-14
   115.5612        2.6520951E-14
   115.7041        2.9717229E-14
   115.8470        3.1864217E-14
   115.9899        3.2824810E-14
   116.1328        3.2502186E-14
   116.2757        3.0844488E-14
   116.4186        2.7848199E-14
   116.5616        2.3560062E-14
   116.7045        1.8077558E-14
   116.8474        1.1547977E-14
   116.9903        4.1660502E-15
   117.1332       -3.8298485E-15
   117.2761       -1.2162958E-14
   117.4190       -2.0524857E-14
   117.5619       -2.8583737E-14
   117.7048       -3.5994198E-14
   117.8478       -4.2408598E-14
   117.9907       -4.7489844E-14
   118.1336       -5.0925454E-14
   118.2765       -5.2442558E-14
   118.4194       -5.1823448E-14
   118.5623       -4.8920964E-14
   118.7052       -4.3673046E-14
   118.8481       -3.6115466E-14
   118.9911       -2.6391749E-14
   119.1340       -1.4759265E-14
   119.2769       -1.5904381E-15
   119.4198        1.2631810E-14
   119.5627        2.7325097E-14
   119.7056        4.1825450E-14
   119.8485        5.5412048E-14
   119.9914        6.7338401E-14
   120.1343        7.6868958E-14
   120.2773        8.3319751E-14
   120.4202        8.6101102E-14
   120.5631        8.4760120E-14
   120.7060        7.9020239E-14
   120.8489        6.8815017E-14
   120.9918        5.4313531E-14
   121.1347        3.5934604E-14
   121.2776        1.4347856E-14
   121.4206       -9.5400220E-15
   121.5635       -3.4614472E-14
   121.7064       -5.9597611E-14
   121.8493       -8.3106821E-14
   121.9922       -1.0372525E-13
   122.1351       -1.2008091E-13
   122.2780       -1.3093023E-13
   122.4209       -1.3524147E-13
   122.5639       -1.3227253E-13