  -7.200000        1.0798116E-17
  -7.057088        1.0814332E-17
  -6.914176        1.0841604E-17
  -6.771265        1.0871772E-17
  -6.628353        1.0896564E-17
  -6.485441        1.0910495E-17
  -6.342530        1.0912719E-17
  -6.199618        1.0907185E-17
  -6.056706        1.0901031E-17
  -5.913795        1.0901821E-17
  -5.770883        1.0914648E-17
  -5.627971        1.0940162E-17
  -5.485059        1.0974250E-17
  -5.342147        1.1009486E-17
  -5.199236        1.1037817E-17
  -5.056324        1.1053501E-17
  -4.913413        1.1055215E-17
  -4.770501        1.1046562E-17
  -4.627589        1.1034784E-17
  -4.484677        1.1028151E-17
  -4.341765        1.1032975E-17
  -4.198854        1.1051337E-17
  -4.055942        1.1080365E-17
  -3.913030        1.1113296E-17
  -3.770118        1.1141981E-17
  -3.627207        1.1159853E-17
  -3.484295        1.1164328E-17
  -3.341383        1.1157736E-17
  -3.198472        1.1146450E-17
  -3.055560        1.1138534E-17
  -2.912648        1.1140787E-17
  -2.769737        1.1156244E-17
  -2.626825        1.1183068E-17
  -2.483913        1.1215217E-17
  -2.341001        1.1244652E-17
  -2.198090        1.1264275E-17
  -2.055178        1.1270507E-17
  -1.912266        1.1264579E-17
  -1.769354        1.1252058E-17
  -1.626443        1.1240799E-17
  -1.483531        1.1238051E-17
  -1.340619        1.1247808E-17
  -1.197708        1.1269363E-17
  -1.054796        1.1297577E-17
 -0.9118841        1.1324793E-17
 -0.7689723        1.1343663E-17
 -0.6260606        1.1349863E-17
 -0.4831489        1.1343700E-17
 -0.3402372        1.1330024E-17
 -0.1973254        1.1316466E-17
 -5.4413714E-02    1.1310672E-17
  8.8498011E-02    1.1317517E-17
  0.2314097        1.1337334E-17
  0.3743215        1.1365804E-17
  0.5172332        1.1395532E-17
  0.6601449        1.1418737E-17
  0.8030567        1.1430078E-17
  0.9459684        1.1428565E-17
   1.088880        1.1417883E-17
   1.231792        1.1405003E-17
   1.374704        1.1397594E-17
   1.517615        1.1401200E-17
   1.660527        1.1417203E-17
   1.803439        1.1442327E-17
   1.946350        1.1469853E-17
   2.089262        1.1492108E-17
   2.232174        1.1503294E-17
   2.375086        1.1501635E-17
   2.517997        1.1490048E-17
   2.660909        1.1475084E-17
   2.803821        1.1464535E-17
   2.946733        1.1464588E-17
   3.089644        1.1477557E-17
   3.232556        1.1501022E-17
   3.375468        1.1528704E-17
   3.518379        1.1552749E-17
   3.661291        1.1566577E-17
   3.804203        1.1567272E-17
   3.947115        1.1556631E-17
   4.090026        1.1540488E-17
   4.232938        1.1526574E-17
   4.375850        1.1521689E-17
   4.518762        1.1529221E-17
   4.661673        1.1547921E-17
   4.804585        1.1572385E-17
   4.947497        1.1595049E-17
   5.090408        1.1608979E-17
   5.233320        1.1610427E-17
   5.376232        1.1600209E-17
   5.519144        1.1583413E-17
   5.662055        1.1567529E-17
   5.804967        1.1559702E-17
   5.947879        1.1564097E-17
   6.090790        1.1580368E-17
   6.233702        1.1603762E-17
   6.376614        1.1626852E-17
   6.519526        1.1642263E-17
   6.662437        1.1645368E-17
   6.805349        1.1636007E-17
   6.948261        1.1618562E-17
   7.091173        1.1600381E-17
   7.234084        1.1589112E-17
   7.376996        1.1589917E-17
   7.519908        1.1603595E-17
   7.662819        1.1626284E-17
   7.805731        1.1650874E-17
   7.948643        1.1669594E-17
   8.091555        1.1676841E-17
   8.234467        1.1671220E-17
   8.377378        1.1656043E-17
   8.520289        1.1638109E-17
   8.663201        1.1625208E-17
   8.806113        1.1623262E-17
   8.949025        1.1634155E-17
   9.091937        1.1655034E-17
   9.234848        1.1679365E-17
   9.377760        1.1699322E-17
   9.520672        1.1708678E-17
   9.663584        1.1705099E-17
   9.806496        1.1691040E-17
   9.949407        1.1672872E-17
   10.09232        1.1658576E-17
   10.23523        1.1654842E-17
   10.37814        1.1664611E-17
   10.52105        1.1685987E-17
   10.66397        1.1712895E-17
   10.80688        1.1737258E-17
   10.94979        1.1751909E-17
   11.09270        1.1753171E-17
   11.23561        1.1742175E-17
   11.37852        1.1724423E-17
   11.52144        1.1707783E-17
   11.66435        1.1699605E-17
   11.80726        1.1704061E-17
   11.95017        1.1720625E-17
   12.09308        1.1744295E-17
   12.23599        1.1767440E-17
   12.37891        1.1782605E-17
   12.52182        1.1785270E-17
   12.66473        1.1775516E-17
   12.80764        1.1758025E-17
   12.95055        1.1740389E-17
   13.09346        1.1730346E-17
   13.23638        1.1732954E-17
   13.37929        1.1748732E-17
   13.52220        1.1773445E-17
   13.66511        1.1799618E-17
   13.80802        1.1819234E-17
   13.95094        1.1826627E-17
   14.09385        1.1820536E-17
   14.23676        1.1804551E-17
   14.37967        1.1785817E-17
   14.52258        1.1772425E-17
   14.66549        1.1770485E-17
   14.80841        1.1781897E-17
   14.95132        1.1803672E-17
   15.09423        1.1829017E-17
   15.23714        1.1849811E-17
   15.38005        1.1859566E-17
   15.52296        1.1855800E-17
   15.66588        1.1840947E-17
   15.80879        1.1821485E-17
   15.95170        1.1805594E-17
   16.09461        1.1800185E-17
   16.23752        1.1808379E-17
   16.38043        1.1828374E-17
   16.52335        1.1854090E-17
   16.66626        1.1877378E-17
   16.80917        1.1890992E-17
   16.95208        1.1891242E-17
   17.09499        1.1879367E-17
   17.23791        1.1861116E-17
   17.38082        1.1844682E-17
   17.52373        1.1837743E-17
   17.66664        1.1844654E-17
   17.80955        1.1864844E-17
   17.95246        1.1892970E-17
   18.09538        1.1920814E-17
   18.23829        1.1940219E-17
   18.38120        1.1946022E-17
   18.52411        1.1937914E-17
   18.66702        1.1920549E-17
   18.80993        1.1901866E-17
   18.95285        1.1890199E-17
   19.09576        1.1891251E-17
   19.23867        1.1906008E-17
   19.38158        1.1930361E-17
   19.52449        1.1956587E-17
   19.66740        1.1976153E-17
   19.81032        1.1982836E-17
   19.95323        1.1975025E-17
   20.09614        1.1956358E-17
   20.23905        1.1934453E-17
   20.38196        1.1918175E-17
   20.52488        1.1914433E-17
   20.66779        1.1925663E-17
   20.81070        1.1948906E-17
   20.95361        1.1976856E-17
   21.09652        1.2000490E-17
   21.23943        1.2012333E-17
   21.38235        1.2009199E-17
   21.52526        1.1993379E-17
   21.66817        1.1971841E-17
   21.81108        1.1953733E-17
   21.95399        1.1947057E-17
   22.09690        1.1955755E-17
   22.23981        1.1978238E-17
   22.38273        1.2007934E-17
   22.52564        1.2035643E-17
   22.66855        1.2052874E-17
   22.81146        1.2054927E-17
   22.95437        1.2042612E-17
   23.09729        1.2021962E-17
   23.24020        1.2002017E-17
   23.38311        1.1991512E-17
   23.52602        1.1995647E-17
   23.66893        1.2014141E-17
   23.81184        1.2041305E-17
   23.95476        1.2068098E-17
   24.09767        1.2085451E-17
   24.24058        1.2087626E-17
   24.38349        1.2074384E-17
   24.52640        1.2051156E-17
   24.66932        1.2027116E-17
   24.81223        1.2011875E-17
   24.95514        1.2011980E-17
   25.09805        1.2028505E-17
   25.24096        1.2056640E-17
   25.38387        1.2087424E-17
   25.52678        1.2111012E-17
   25.66970        1.2120272E-17
   25.81261        1.2113396E-17
   25.95552        1.2094549E-17
   26.09843        1.2072318E-17
   26.24134        1.2056521E-17
   26.38426        1.2054544E-17
   26.52717        1.2068567E-17
   26.67008        1.2094716E-17
   26.81299        1.2124459E-17
   26.95590        1.2147742E-17
   27.09881        1.2156724E-17
   27.24173        1.2148711E-17
   27.38464        1.2127210E-17
   27.52755        1.2100686E-17
   27.67046        1.2079481E-17
   27.81337        1.2072014E-17
   27.95629        1.2081675E-17
   28.09920        1.2105560E-17
   28.24211        1.2135543E-17
   28.38502        1.2161273E-17
   28.52793        1.2174026E-17
   28.67084        1.2169950E-17
   28.81376        1.2151532E-17
   28.95667        1.2126705E-17
   29.09958        1.2105929E-17
   29.24249        1.2098319E-17
   29.38540        1.2108252E-17
   29.52831        1.2133719E-17
   29.67122        1.2167038E-17
   29.81414        1.2197673E-17
   29.95705        1.2216120E-17
   30.09996        1.2217420E-17
   30.24287        1.2202989E-17
   30.38578        1.2180077E-17
   30.52870        1.2159053E-17
   30.67161        1.2149515E-17
   30.81452        1.2156667E-17
   30.95743        1.2179334E-17
   31.10034        1.2210332E-17
   31.24325        1.2239108E-17
   31.38617        1.2255641E-17
   31.52908        1.2254190E-17
   31.67199        1.2235482E-17
   31.81490        1.2206507E-17
   31.95781        1.2178009E-17
   32.10072        1.2160568E-17
   32.24364        1.2160729E-17
   32.38655        1.2178613E-17
   32.52946        1.2207895E-17
   32.67237        1.2238164E-17
   32.81528        1.2258791E-17
   32.95819        1.2262885E-17
   33.10111        1.2249851E-17
   33.24402        1.2225610E-17
   33.38693        1.2200397E-17
   33.52984        1.2184936E-17
   33.67275        1.2186429E-17
   33.81567        1.2205836E-17
   33.95858        1.2237468E-17
   34.10149        1.2271060E-17
   34.24440        1.2295543E-17
   34.38731        1.2303147E-17
   34.53022        1.2292279E-17
   34.67313        1.2268139E-17
   34.81605        1.2240811E-17
   34.95896        1.2221539E-17
   35.10187        1.2218567E-17
   35.24478        1.2234076E-17
   35.38770        1.2263363E-17
   35.53061        1.2296569E-17
   35.67352        1.2322322E-17
   35.81643        1.2331944E-17
   35.95934        1.2322682E-17
   36.10225        1.2298736E-17
   36.24516        1.2269722E-17
   36.38808        1.2247134E-17
   36.53099        1.2240100E-17
   36.67390        1.2252015E-17
   36.81681        1.2279298E-17
   36.95972        1.2312741E-17
   37.10263        1.2340925E-17
   37.24555        1.2354476E-17
   37.38846        1.2349546E-17
   37.53137        1.2329243E-17
   37.67428        1.2302472E-17
   37.81719        1.2280604E-17
   37.96011        1.2273225E-17
   38.10302        1.2284535E-17
   38.24593        1.2311733E-17
   38.38884        1.2346010E-17
   38.53175        1.2375774E-17
   38.67466        1.2390932E-17
   38.81758        1.2386619E-17
   38.96049        1.2365023E-17
   39.10340        1.2334591E-17
   39.24631        1.2306939E-17
   39.38922        1.2292569E-17
   39.53214        1.2297023E-17
   39.67505        1.2318863E-17
   39.81796        1.2350242E-17
   39.96087        1.2379858E-17
   40.10378        1.2397174E-17
   40.24669        1.2396358E-17
   40.38961        1.2378461E-17
   40.53252        1.2351036E-17
   40.67543        1.2325322E-17
   40.81834        1.2312058E-17
   40.96125        1.2317462E-17
   41.10416        1.2340892E-17
   41.24707        1.2375049E-17
   41.38999        1.2408651E-17
   41.53290        1.2430598E-17
   41.67581        1.2434066E-17
   41.81872        1.2419031E-17
   41.96163        1.2392262E-17
   42.10455        1.2364806E-17
   42.24746        1.2347883E-17
   42.39037        1.2348725E-17
   42.53328        1.2367893E-17
   42.67619        1.2399087E-17
   42.81910        1.2431488E-17
   42.96202        1.2453794E-17
   43.10493        1.2458424E-17
   43.24784        1.2444341E-17
   43.39075        1.2417443E-17
   43.53366        1.2388381E-17
   43.67657        1.2368608E-17
   43.81948        1.2366144E-17
   43.96240        1.2382609E-17
   44.10531        1.2412647E-17
   44.24822        1.2445925E-17
   44.39113        1.2470990E-17
   44.53405        1.2479515E-17
   44.67696        1.2469389E-17
   44.81987        1.2445476E-17
   44.96278        1.2417786E-17
   45.10569        1.2397727E-17
   45.24860        1.2393841E-17
   45.39151        1.2408608E-17
   45.53443        1.2437505E-17
   45.67734        1.2470663E-17
   45.82025        1.2496517E-17
   45.96316        1.2506082E-17
   46.10608        1.2496280E-17
   46.24899        1.2471078E-17
   46.39190        1.2440035E-17
   46.53481        1.2414791E-17
   46.67772        1.2404788E-17
   46.82063        1.2413845E-17
   46.96354        1.2438800E-17
   47.10646        1.2470746E-17
   47.24937        1.2498376E-17
   47.39228        1.2512194E-17
   47.53519        1.2508029E-17
   47.67810        1.2488553E-17
   47.82101        1.2462251E-17
   47.96392        1.2440236E-17
   48.10684        1.2432099E-17
   48.24975        1.2442324E-17
   48.39266        1.2468610E-17
   48.53557        1.2502702E-17
   48.67849        1.2533421E-17
   48.82140        1.2550768E-17
   48.96431        1.2549591E-17
   49.10722        1.2531441E-17
   49.25013        1.2503982E-17
   49.39304        1.2478141E-17
   49.53595        1.2464082E-17
   49.67887        1.2467488E-17
   49.82178        1.2487506E-17
   49.96469        1.2517125E-17
   50.10760        1.2545791E-17
   50.25051        1.2563340E-17
   50.39342        1.2563734E-17
   50.53634        1.2547274E-17
   50.67925        1.2520461E-17
   50.82216        1.2493575E-17
   50.96507        1.2476878E-17
   51.10798        1.2476851E-17
   51.25090        1.2493834E-17
   51.39381        1.2521953E-17
   51.53672        1.2551311E-17
   51.67963        1.2571666E-17
   51.82254        1.2576202E-17
   51.96545        1.2564016E-17
   52.10837        1.2540428E-17
   52.25128        1.2514990E-17
   52.39419        1.2497954E-17
   52.53710        1.2496495E-17
   52.68001        1.2512081E-17
   52.82293        1.2539942E-17
   52.96584        1.2570828E-17
   53.10875        1.2594400E-17
   53.25166        1.2603000E-17
   53.39457        1.2594429E-17
   53.53748        1.2572700E-17
   53.68040        1.2546546E-17
   53.82331        1.2526188E-17
   53.96622        1.2519599E-17
   54.10913        1.2529617E-17
   54.25204        1.2552945E-17
   54.39495        1.2581416E-17
   54.53786        1.2605024E-17
   54.68078        1.2615616E-17
   54.82369        1.2609887E-17
   54.96660        1.2590584E-17
   55.10951        1.2565491E-17
   55.25242        1.2544565E-17
   55.39534        1.2536296E-17
   55.53825        1.2544605E-17
   55.68116        1.2567415E-17
   55.82407        1.2597418E-17
   55.96698        1.2624735E-17
   56.10989        1.2640514E-17
   56.25281        1.2640131E-17
   56.39572        1.2624842E-17
   56.53863        1.2601292E-17
   56.68154        1.2579061E-17
   56.82445        1.2567163E-17
   56.96737        1.2570755E-17
   57.11028        1.2589275E-17
   57.25319        1.2616666E-17
   57.39610        1.2643605E-17
   57.53901        1.2660911E-17
   57.68192        1.2662894E-17
   57.82484        1.2649418E-17
   57.96775        1.2625936E-17
   58.11066        1.2601482E-17
   58.25357        1.2585370E-17
   58.39648        1.2583793E-17
   58.53939        1.2597565E-17
   58.68230        1.2621836E-17
   58.82522        1.2647869E-17
   58.96813        1.2666240E-17
   59.11104        1.2670287E-17
   59.25395        1.2658554E-17
   59.39687        1.2635339E-17
   59.53978        1.2609147E-17
   59.68269        1.2589609E-17
   59.82560        1.2583998E-17
   59.96851        1.2594596E-17
   60.11142        1.2617878E-17
   60.25433        1.2645818E-17
   60.39725        1.2668814E-17
   60.54016        1.2679193E-17
   60.68307        1.2674004E-17
   60.82598        1.2656079E-17
   60.96889        1.2632987E-17
   61.11180        1.2614245E-17
   61.25471        1.2607832E-17
   61.39763        1.2617250E-17
   61.54054        1.2640231E-17
   61.68345        1.2669553E-17
   61.82636        1.2695671E-17
   61.96928        1.2710202E-17
   62.11219        1.2708984E-17
   62.25510        1.2693606E-17
   62.39801        1.2670820E-17
   62.54092        1.2650062E-17
   62.68383        1.2639996E-17
   62.82674        1.2645317E-17
   62.96966        1.2665019E-17
   63.11257        1.2692739E-17
   63.25548        1.2719067E-17
   63.39839        1.2734976E-17
   63.54131        1.2735125E-17
   63.68422        1.2719801E-17
   63.82713        1.2694823E-17
   63.97004        1.2669403E-17
   64.11295        1.2652787E-17
   64.25586        1.2650880E-17
   64.39877        1.2664112E-17
   64.54169        1.2687315E-17
   64.68460        1.2711677E-17
   64.82751        1.2728023E-17
   64.97042        1.2730231E-17
   65.11333        1.2717513E-17
   65.25625        1.2694728E-17
   65.39915        1.2670586E-17
   65.54207        1.2654436E-17
   65.68498        1.2652807E-17
   65.82789        1.2666969E-17
   65.97080        1.2692452E-17
   66.11372        1.2720669E-17
   66.25663        1.2742062E-17
   66.39954        1.2749617E-17
   66.54245        1.2741421E-17
   66.68536        1.2721360E-17
   66.82828        1.2697658E-17
   66.97118        1.2679831E-17
   67.11410        1.2675162E-17
   67.25701        1.2686020E-17
   67.39992        1.2708991E-17
   67.54283        1.2736164E-17
   67.68575        1.2758066E-17
   67.82866        1.2767175E-17
   67.97157        1.2760699E-17
   68.11448        1.2741586E-17
   68.25739        1.2717425E-17
   68.40031        1.2697610E-17
   68.54321        1.2689859E-17
   68.68613        1.2697366E-17
   68.82904        1.2717643E-17
   68.97195        1.2743475E-17
   69.11486        1.2765626E-17
   69.25777        1.2776285E-17
   69.40069        1.2771971E-17
   69.54359        1.2754815E-17
   69.68651        1.2731755E-17
   69.82942        1.2711948E-17
   69.97233        1.2703372E-17
   70.11524        1.2709876E-17
   70.25816        1.2729777E-17
   70.40107        1.2756515E-17
   70.54398        1.2781101E-17
   70.68689        1.2795454E-17
   70.82980        1.2795372E-17
   70.97272        1.2782035E-17
   71.11562        1.2761500E-17
   71.25854        1.2742387E-17
   71.40145        1.2732632E-17
   71.54436        1.2736519E-17
   71.68727        1.2753106E-17
   71.83018        1.2776604E-17
   71.97310        1.2798569E-17
   72.11600        1.2811079E-17
   72.25892        1.2809684E-17
   72.40183        1.2795064E-17
   72.54475        1.2772748E-17
   72.68765        1.2751051E-17
   72.83057        1.2737971E-17
   72.97348        1.2738234E-17
   73.11639        1.2751579E-17
   73.25930        1.2772907E-17
   73.40221        1.2794237E-17
   73.54513        1.2807720E-17
   73.68803        1.2808580E-17
   73.83095        1.2796898E-17
   73.97386        1.2777562E-17
   74.11678        1.2758437E-17
   74.25968        1.2747418E-17
   74.40260        1.2749492E-17
   74.54551        1.2764890E-17
   74.68842        1.2789006E-17
   74.83133        1.2814107E-17
   74.97424        1.2832189E-17
   75.11716        1.2837895E-17
   75.26006        1.2830441E-17
   75.40298        1.2813807E-17
   75.54589        1.2795168E-17
   75.68880        1.2782149E-17
   75.83171        1.2779937E-17
   75.97462        1.2789329E-17
   76.11754        1.2806452E-17
   76.26044        1.2824229E-17
   76.40336        1.2835072E-17
   76.54627        1.2833767E-17
   76.68919        1.2819494E-17
   76.83209        1.2796228E-17
   76.97501        1.2771374E-17
   77.11792        1.2753151E-17
   77.26083        1.2747672E-17
   77.40374        1.2756827E-17
   77.54665        1.2777697E-17
   77.68957        1.2803738E-17
   77.83247        1.2827253E-17
   77.97539        1.2842243E-17
   78.11830        1.2846558E-17
   78.26122        1.2842580E-17
   78.40412        1.2836175E-17
   78.54704        1.2834323E-17
   78.68995        1.2842326E-17
   78.83286        1.2861624E-17
   78.97577        1.2889036E-17
   79.11868        1.2917724E-17
   79.26160        1.2939504E-17
   79.40450        1.2947680E-17
   79.54742        1.2939334E-17
   79.69033        1.2916274E-17
   79.83324        1.2884286E-17
   79.97615        1.2850995E-17
   80.11906        1.2823147E-17
   80.26198        1.2804313E-17
   80.40488        1.2793875E-17
   80.54780        1.2787649E-17
   80.69071        1.2779896E-17
   80.83363        1.2765956E-17
   80.97653        1.2744497E-17
   81.11945        1.2718532E-17
   81.26236        1.2694786E-17
   81.40527        1.2681637E-17
   81.54818        1.2686347E-17
   81.69109        1.2712591E-17
   81.83401        1.2759139E-17
   81.97691        1.2820188E-17
   82.11983        1.2887155E-17
   82.26274        1.2951288E-17
   82.40565        1.3006123E-17
   82.54856        1.3048914E-17
   82.69147        1.3080548E-17
   82.83439        1.3104046E-17
   82.97730        1.3122271E-17
   83.12021        1.3135773E-17
   83.26312        1.3141649E-17
   83.40604        1.3133896E-17
   83.54894        1.3105211E-17
   83.69186        1.3049620E-17
   83.83477        1.2965006E-17
   83.97768        1.2854646E-17
   84.12059        1.2727196E-17
   84.26350        1.2595125E-17
   84.40642        1.2472121E-17
   84.54933        1.2370366E-17
   84.69224        1.2298567E-17
   84.83515        1.2261300E-17
   84.97807        1.2259767E-17
   85.12097        1.2293473E-17
   85.26389        1.2362030E-17
   85.40680        1.2466260E-17
   85.54971        1.2608032E-17
   85.69262        1.2788824E-17
   85.83553        1.3007447E-17
   85.97845        1.3257801E-17
   86.12135        1.3527512E-17
   86.26427        1.3798066E-17
   86.40718        1.4046557E-17
   86.55009        1.4248631E-17
   86.69300        1.4381819E-17
   86.83591        1.4428391E-17
   86.97883        1.4377036E-17
   87.12174        1.4223162E-17
   87.26465        1.3968076E-17
   87.40756        1.3617678E-17
   87.55048        1.3181439E-17
   87.69338        1.2672180E-17
   87.83630        1.2106796E-17
   87.97921        1.1507584E-17
   88.12212        1.0903477E-17
   88.26503        1.0330382E-17
   88.40794        9.8300382E-18
   88.55086        9.4472248E-18
   88.69377        9.2256719E-18
   88.83668        9.2034117E-18
   88.97959        9.4084805E-18
   89.12251        9.8557701E-18
   89.26541        1.0545421E-17
   89.40833        1.1462747E-17
   89.55124        1.2579225E-17
   89.69415        1.3853963E-17
   89.83706        1.5235084E-17
   89.97997        1.6660804E-17
   90.12289        1.8060337E-17
   90.26580        1.9355136E-17
   90.40871        2.0461039E-17
   90.55162        2.1291836E-17
   90.69453        2.1764349E-17
   90.83744        2.1804729E-17
   90.98035        2.1355218E-17
   91.12327        2.0380448E-17
   91.26618        1.8872394E-17
   91.40909        1.6853322E-17
   91.55200        1.4376589E-17
   91.69492        1.1525447E-17
   91.83783        8.4103440E-18
   91.98074        5.1652400E-18
   92.12365        1.9432828E-18
   92.26656       -1.0880701E-18
   92.40947       -3.7526678E-18
   92.55238       -5.8723661E-18
   92.69530       -7.2750675E-18
   92.83821       -7.8041124E-18
   92.98112       -7.3286639E-18
   93.12403       -5.7543220E-18
   93.26694       -3.0330095E-18
   93.40986        8.2892648E-19
   93.55276        5.7652065E-18
   93.69568        1.1647224E-17
   93.83859        1.8284877E-17
   93.98150        2.5430439E-17
   94.12441        3.2785115E-17
   94.26733        4.0007954E-17
   94.41024        4.6726953E-17
   94.55315        5.2552326E-17
   94.69606        5.7092039E-17
   94.83897        5.9969675E-17
   94.98188        6.0844302E-17
   95.12479        5.9431948E-17
   95.26771        5.5527384E-17
   95.41062        4.9025109E-17
   95.55353        3.9937772E-17
   95.69644        2.8410534E-17
   95.83936        1.4730047E-17
   95.98227       -6.7300955E-19
   96.12518       -1.7228505E-17
   96.26809       -3.4238839E-17
   96.41100       -5.0898478E-17
   96.55391       -6.6320959E-17
   96.69682       -7.9573180E-17
   96.83974       -8.9716532E-17
   96.98265       -9.5854093E-17
   97.12556       -9.7182499E-17
   97.26847       -9.3046569E-17
   97.41138       -8.2993949E-17
   97.55430       -6.6826426E-17
   97.69720       -4.4644251E-17
   97.84012       -1.6879553E-17
   97.98303        1.5684694E-17
   98.12594        5.1913184E-17
   98.26885        9.0336514E-17
   98.41177        1.2919033E-16
   98.55468        1.6647560E-16
   98.69759        2.0003915E-16
   98.84050        2.2767219E-16
   98.98341        2.4722404E-16
   99.12633        2.5672632E-16
   99.26923        2.5452244E-16
   99.41215        2.3939557E-16
   99.55506        2.1068747E-16
   99.69797        1.6840034E-16
   99.84088        1.1327313E-16
   99.98380        4.6824967E-17
   100.1267       -2.8641182E-17
   100.2696       -1.1007897E-16
   100.4125       -1.9378576E-16
   100.5554       -2.7553614E-16
   100.6984       -3.5075865E-16
   100.8413       -4.1474992E-16
   100.9842       -4.6291785E-16
   101.1271       -4.9104305E-16
   101.2700       -4.9554577E-16
   101.4129       -4.7374468E-16
   101.5558       -4.2409198E-16
   101.6987       -3.4637051E-16
   101.8416       -2.4183712E-16
   101.9846       -1.1330062E-16
   102.1275        3.4877194E-17
   102.2704        1.9686426E-16
   102.4133        3.6552780E-16
   102.5562        5.3268939E-16
   102.6991        6.8945856E-16
   102.8420        8.2663417E-16
   102.9849        9.3515720E-16
   103.1279        1.0065960E-15
   103.2708        1.0336404E-15
   103.4137        1.0105829E-15
   103.5566        9.3375631E-16
   103.6995        8.0190833E-16
   103.8424        6.1648461E-16
   103.9853        3.8180103E-16
   104.1282        1.0508570E-16
   104.2711       -2.0362112E-16
   104.4141       -5.3171678E-16
   104.5570       -8.6443619E-16
   104.6999       -1.1853939E-15
   104.8428       -1.4772546E-15
   104.9857       -1.7225084E-15
   105.1286       -1.9043245E-15
   105.2715       -2.0074452E-15
   105.4144       -2.0190834E-15
   105.5574       -1.9297803E-15
   105.7003       -1.7341775E-15
   105.8432       -1.4316617E-15
   105.9861       -1.0268389E-15
   106.1290       -5.2979857E-16
   106.2719        4.3861719E-17
   106.4148        6.7327647E-16
   106.5577        1.3328308E-15
   106.7006        1.9929582E-15
   106.8436        2.6212063E-15
   106.9865        3.1835450E-15
   107.1294        3.6458759E-15
   107.2723        3.9756919E-15
   107.4152        4.1438173E-15
   107.5581        4.1261546E-15
   107.7010        3.9053509E-15
   107.8439        3.4722989E-15
   107.9869        2.8273752E-15
   108.1298        1.9813371E-15
   108.2727        9.5579367E-16
   108.4156       -2.1680999E-16
   108.5585       -1.4937474E-15
   108.7014       -2.8231250E-15
   108.8443       -4.1455597E-15
   108.9872       -5.3963842E-15
   109.1301       -6.5083280E-15
   109.2731       -7.4145774E-15
   109.4160       -8.0520968E-15
   109.5589       -8.3650729E-15
   109.7018       -8.3083116E-15
   109.8447       -7.8504157E-15
   109.9876       -6.9765610E-15
   110.1305       -5.6906918E-15
   110.2734       -4.0169771E-15
   110.4164       -2.0003801E-15
   110.5593        2.9375195E-16
   110.7022        2.7811509E-15
   110.8451        5.3611536E-15
   110.9880        7.9202426E-15
   111.1309        1.0336516E-14
   111.2738        1.2484915E-14
   111.4167        1.4243017E-14
   111.5596        1.5497137E-14
   111.7026        1.6148446E-14
   111.8455        1.6118810E-14
   111.9884        1.5356026E-14
   112.1313        1.3838155E-14
   112.2742        1.1576681E-14
   112.4171        8.6182587E-15
   112.5600        5.0448783E-15
   112.7029        9.7235105E-16
   112.8458       -3.4529103E-15
   112.9888       -8.0587452E-15
   113.1317       -1.2653589E-14
   113.2746       -1.7034054E-14
   113.4175       -2.0993478E-14
   113.5604       -2.4331026E-14
   113.7033       -2.6860994E-14
   113.8462       -2.8421835E-14
   113.9891       -2.8884521E-14
   114.1321       -2.8159832E-14
   114.2750       -2.6204160E-14
   114.4179       -2.3023624E-14
   114.5608       -1.8676157E-14
   114.7037       -1.3271532E-14
   114.8466       -6.9691978E-15
   114.9895        2.5984552E-17
   115.1324        7.4699903E-15
   115.2754        1.5087646E-14
   115.4183        2.2582147E-14
   115.5612        2.9645730E-14
   115.7041        3.5971145E-14
   115.8470        4.1263525E-14
   115.9899        4.5252251E-14
   116.1328        4.7702456E-14
   116.2757        4.8425697E-14
   116.4186        4.7289524E-14
   116.5616        4.4225562E-14
   116.7045        3.9235749E-14
   116.8474        3.2396530E-14
   116.9903        2.3860672E-14
   117.1332        1.3856534E-14
   117.2761        2.6845557E-15
   117.4190       -9.2891190E-15
   117.5619       -2.1641963E-14
   117.7048       -3.3907295E-14
   117.8478       -4.5589319E-14
   117.9907       -5.6180697E-14
   118.1336       -6.5182275E-14
   118.2765       -7.2124374E-14
   118.4194       -7.6589010E-14
   118.5623       -7.8232105E-14
   118.7052       -7.6804685E-14
   118.8481       -7.2171930E-14
   118.9911       -6.4328927E-14
   119.1340       -5.3411844E-14
   119.2769       -3.9703487E-14
   119.4198       -2.3632211E-14
   119.5627       -5.7634832E-15
   119.7056        1.3216307E-14
   119.8485        3.2523785E-14
   119.9914        5.1309817E-14
   120.1343        6.8697062E-14
   120.2773        8.3822360E-14
   120.4202        9.5882029E-14
   120.5631        1.0417778E-13
   120.7060        1.0816056E-13
   120.8489        1.0746959E-13
   120.9918        1.0196381E-13
   121.1347        9.1743223E-14
   121.2776        7.7157864E-14
   121.4206        5.8803013E-14
   121.5635        3.7499599E-14
   121.7064        1.4260062E-14
   121.8493       -9.7594797E-15
   121.9922       -3.3318688E-14
   122.1351       -5.5161249E-14
   122.2780       -7.4088169E-14
   122.4209       -8.9031789E-14
   122.5639       -9.9125887E-14