-7.200000 1.0798116E-17
-7.057088 1.0814332E-17
-6.914176 1.0841604E-17
-6.771265 1.0871772E-17
-6.628353 1.0896564E-17
-6.485441 1.0910495E-17
-6.342530 1.0912719E-17
-6.199618 1.0907185E-17
-6.056706 1.0901031E-17
-5.913795 1.0901821E-17
-5.770883 1.0914648E-17
-5.627971 1.0940162E-17
-5.485059 1.0974250E-17
-5.342147 1.1009486E-17
-5.199236 1.1037817E-17
-5.056324 1.1053501E-17
-4.913413 1.1055215E-17
-4.770501 1.1046562E-17
-4.627589 1.1034784E-17
-4.484677 1.1028151E-17
-4.341765 1.1032975E-17
-4.198854 1.1051337E-17
-4.055942 1.1080365E-17
-3.913030 1.1113296E-17
-3.770118 1.1141981E-17
-3.627207 1.1159853E-17
-3.484295 1.1164328E-17
-3.341383 1.1157736E-17
-3.198472 1.1146449E-17
-3.055560 1.1138534E-17
-2.912648 1.1140787E-17
-2.769737 1.1156244E-17
-2.626825 1.1183068E-17
-2.483913 1.1215217E-17
-2.341001 1.1244652E-17
-2.198090 1.1264275E-17
-2.055178 1.1270506E-17
-1.912266 1.1264578E-17
-1.769354 1.1252058E-17
-1.626443 1.1240799E-17
-1.483531 1.1238051E-17
-1.340619 1.1247809E-17
-1.197708 1.1269364E-17
-1.054796 1.1297577E-17
-0.9118841 1.1324793E-17
-0.7689723 1.1343662E-17
-0.6260606 1.1349862E-17
-0.4831489 1.1343700E-17
-0.3402372 1.1330024E-17
-0.1973254 1.1316467E-17
-5.4413714E-02 1.1310672E-17
8.8498011E-02 1.1317517E-17
0.2314097 1.1337333E-17
0.3743215 1.1365803E-17
0.5172332 1.1395530E-17
0.6601449 1.1418736E-17
0.8030567 1.1430077E-17
0.9459684 1.1428564E-17
1.088880 1.1417883E-17
1.231792 1.1405003E-17
1.374704 1.1397594E-17
1.517615 1.1401202E-17
1.660527 1.1417204E-17
1.803439 1.1442327E-17
1.946350 1.1469853E-17
2.089262 1.1492108E-17
2.232174 1.1503294E-17
2.375086 1.1501635E-17
2.517997 1.1490049E-17
2.660909 1.1475085E-17
2.803821 1.1464536E-17
2.946733 1.1464591E-17
3.089644 1.1477559E-17
3.232556 1.1501022E-17
3.375468 1.1528704E-17
3.518379 1.1552749E-17
3.661291 1.1566577E-17
3.804203 1.1567272E-17
3.947115 1.1556632E-17
4.090026 1.1540490E-17
4.232938 1.1526577E-17
4.375850 1.1521690E-17
4.518762 1.1529219E-17
4.661673 1.1547919E-17
4.804585 1.1572381E-17
4.947497 1.1595045E-17
5.090408 1.1608977E-17
5.233320 1.1610427E-17
5.376232 1.1600211E-17
5.519144 1.1583415E-17
5.662055 1.1567531E-17
5.804967 1.1559702E-17
5.947879 1.1564096E-17
6.090790 1.1580365E-17
6.233702 1.1603757E-17
6.376614 1.1626848E-17
6.519526 1.1642261E-17
6.662437 1.1645369E-17
6.805349 1.1636008E-17
6.948261 1.1618563E-17
7.091173 1.1600382E-17
7.234084 1.1589111E-17
7.376996 1.1589915E-17
7.519908 1.1603592E-17
7.662819 1.1626283E-17
7.805731 1.1650877E-17
7.948643 1.1669599E-17
8.091555 1.1676847E-17
8.234467 1.1671225E-17
8.377378 1.1656046E-17
8.520289 1.1638108E-17
8.663201 1.1625204E-17
8.806113 1.1623256E-17
8.949025 1.1634148E-17
9.091937 1.1655031E-17
9.234848 1.1679365E-17
9.377760 1.1699327E-17
9.520672 1.1708684E-17
9.663584 1.1705107E-17
9.806496 1.1691047E-17
9.949407 1.1672875E-17
10.09232 1.1658576E-17
10.23523 1.1654838E-17
10.37814 1.1664606E-17
10.52105 1.1685983E-17
10.66397 1.1712894E-17
10.80688 1.1737260E-17
10.94979 1.1751913E-17
11.09270 1.1753177E-17
11.23561 1.1742180E-17
11.37852 1.1724428E-17
11.52144 1.1707785E-17
11.66435 1.1699607E-17
11.80726 1.1704061E-17
11.95017 1.1720626E-17
12.09308 1.1744298E-17
12.23599 1.1767444E-17
12.37891 1.1782610E-17
12.52182 1.1785272E-17
12.66473 1.1775514E-17
12.80764 1.1758018E-17
12.95055 1.1740379E-17
13.09346 1.1730333E-17
13.23638 1.1732942E-17
13.37929 1.1748723E-17
13.52220 1.1773440E-17
13.66511 1.1799618E-17
13.80802 1.1819236E-17
13.95094 1.1826630E-17
14.09385 1.1820536E-17
14.23676 1.1804549E-17
14.37967 1.1785811E-17
14.52258 1.1772419E-17
14.66549 1.1770480E-17
14.80841 1.1781897E-17
14.95132 1.1803677E-17
15.09423 1.1829027E-17
15.23714 1.1849823E-17
15.38005 1.1859580E-17
15.52296 1.1855811E-17
15.66588 1.1840952E-17
15.80879 1.1821486E-17
15.95170 1.1805594E-17
16.09461 1.1800183E-17
16.23752 1.1808378E-17
16.38043 1.1828375E-17
16.52335 1.1854094E-17
16.66626 1.1877381E-17
16.80917 1.1890994E-17
16.95208 1.1891242E-17
17.09499 1.1879362E-17
17.23791 1.1861107E-17
17.38082 1.1844672E-17
17.52373 1.1837733E-17
17.66664 1.1844647E-17
17.80955 1.1864840E-17
17.95246 1.1892970E-17
18.09538 1.1920816E-17
18.23829 1.1940220E-17
18.38120 1.1946020E-17
18.52411 1.1937909E-17
18.66702 1.1920544E-17
18.80993 1.1901861E-17
18.95285 1.1890195E-17
19.09576 1.1891249E-17
19.23867 1.1906009E-17
19.38158 1.1930364E-17
19.52449 1.1956591E-17
19.66740 1.1976155E-17
19.81032 1.1982835E-17
19.95323 1.1975023E-17
20.09614 1.1956355E-17
20.23905 1.1934449E-17
20.38196 1.1918172E-17
20.52488 1.1914433E-17
20.66779 1.1925665E-17
20.81070 1.1948909E-17
20.95361 1.1976860E-17
21.09652 1.2000490E-17
21.23943 1.2012329E-17
21.38235 1.2009192E-17
21.52526 1.1993368E-17
21.66817 1.1971830E-17
21.81108 1.1953723E-17
21.95399 1.1947051E-17
22.09690 1.1955752E-17
22.23981 1.1978238E-17
22.38273 1.2007935E-17
22.52564 1.2035645E-17
22.66855 1.2052874E-17
22.81146 1.2054927E-17
22.95437 1.2042613E-17
23.09729 1.2021964E-17
23.24020 1.2002023E-17
23.38311 1.1991522E-17
23.52602 1.1995659E-17
23.66893 1.2014155E-17
23.81184 1.2041319E-17
23.95476 1.2068109E-17
24.09767 1.2085458E-17
24.24058 1.2087628E-17
24.38349 1.2074384E-17
24.52640 1.2051155E-17
24.66932 1.2027116E-17
24.81223 1.2011878E-17
24.95514 1.2011984E-17
25.09805 1.2028510E-17
25.24096 1.2056643E-17
25.38387 1.2087424E-17
25.52678 1.2111009E-17
25.66970 1.2120268E-17
25.81261 1.2113393E-17
25.95552 1.2094548E-17
26.09843 1.2072322E-17
26.24134 1.2056530E-17
26.38426 1.2054554E-17
26.52717 1.2068578E-17
26.67008 1.2094726E-17
26.81299 1.2124464E-17
26.95590 1.2147742E-17
27.09881 1.2156719E-17
27.24173 1.2148703E-17
27.38464 1.2127201E-17
27.52755 1.2100677E-17
27.67046 1.2079475E-17
27.81337 1.2072010E-17
27.95629 1.2081671E-17
28.09920 1.2105555E-17
28.24211 1.2135535E-17
28.38502 1.2161264E-17
28.52793 1.2174016E-17
28.67084 1.2169942E-17
28.81376 1.2151527E-17
28.95667 1.2126705E-17
29.09958 1.2105932E-17
29.24249 1.2098324E-17
29.38540 1.2108257E-17
29.52831 1.2133722E-17
29.67122 1.2167039E-17
29.81414 1.2197671E-17
29.95705 1.2216116E-17
30.09996 1.2217415E-17
30.24287 1.2202985E-17
30.38578 1.2180075E-17
30.52870 1.2159052E-17
30.67161 1.2149513E-17
30.81452 1.2156664E-17
30.95743 1.2179327E-17
31.10034 1.2210323E-17
31.24325 1.2239097E-17
31.38617 1.2255630E-17
31.52908 1.2254183E-17
31.67199 1.2235479E-17
31.81490 1.2206508E-17
31.95781 1.2178015E-17
32.10072 1.2160577E-17
32.24364 1.2160740E-17
32.38655 1.2178624E-17
32.52946 1.2207906E-17
32.67237 1.2238175E-17
32.81528 1.2258803E-17
32.95819 1.2262900E-17
33.10111 1.2249867E-17
33.24402 1.2225627E-17
33.38693 1.2200413E-17
33.52984 1.2184949E-17
33.67275 1.2186437E-17
33.81567 1.2205837E-17
33.95858 1.2237465E-17
34.10149 1.2271053E-17
34.24440 1.2295536E-17
34.38731 1.2303141E-17
34.53022 1.2292274E-17
34.67313 1.2268136E-17
34.81605 1.2240807E-17
34.95896 1.2221534E-17
35.10187 1.2218559E-17
35.24478 1.2234064E-17
35.38770 1.2263350E-17
35.53061 1.2296558E-17
35.67352 1.2322314E-17
35.81643 1.2331943E-17
35.95934 1.2322687E-17
36.10225 1.2298743E-17
36.24516 1.2269730E-17
36.38808 1.2247139E-17
36.53099 1.2240100E-17
36.67390 1.2252011E-17
36.81681 1.2279294E-17
36.95972 1.2312739E-17
37.10263 1.2340926E-17
37.24555 1.2354482E-17
37.38846 1.2349556E-17
37.53137 1.2329256E-17
37.67428 1.2302484E-17
37.81719 1.2280611E-17
37.96011 1.2273227E-17
38.10302 1.2284530E-17
38.24593 1.2311726E-17
38.38884 1.2346002E-17
38.53175 1.2375770E-17
38.67466 1.2390931E-17
38.81758 1.2386623E-17
38.96049 1.2365027E-17
39.10340 1.2334595E-17
39.24631 1.2306937E-17
39.38922 1.2292560E-17
39.53214 1.2297008E-17
39.67505 1.2318844E-17
39.81796 1.2350226E-17
39.96087 1.2379848E-17
40.10378 1.2397172E-17
40.24669 1.2396362E-17
40.38961 1.2378470E-17
40.53252 1.2351044E-17
40.67543 1.2325326E-17
40.81834 1.2312056E-17
40.96125 1.2317455E-17
41.10416 1.2340884E-17
41.24707 1.2375042E-17
41.38999 1.2408650E-17
41.53290 1.2430603E-17
41.67581 1.2434077E-17
41.81872 1.2419043E-17
41.96163 1.2392271E-17
42.10455 1.2364807E-17
42.24746 1.2347875E-17
42.39037 1.2348710E-17
42.53328 1.2367875E-17
42.67619 1.2399072E-17
42.81910 1.2431480E-17
42.96202 1.2453795E-17
43.10493 1.2458433E-17
43.24784 1.2444352E-17
43.39075 1.2417452E-17
43.53366 1.2388382E-17
43.67657 1.2368601E-17
43.81948 1.2366129E-17
43.96240 1.2382592E-17
44.10531 1.2412633E-17
44.24822 1.2445918E-17
44.39113 1.2470993E-17
44.53405 1.2479525E-17
44.67696 1.2469401E-17
44.81987 1.2445486E-17
44.96278 1.2417788E-17
45.10569 1.2397720E-17
45.24860 1.2393827E-17
45.39151 1.2408593E-17
45.53443 1.2437493E-17
45.67734 1.2470658E-17
45.82025 1.2496520E-17
45.96316 1.2506092E-17
46.10608 1.2496290E-17
46.24899 1.2471085E-17
46.39190 1.2440038E-17
46.53481 1.2414786E-17
46.67772 1.2404779E-17
46.82063 1.2413837E-17
46.96354 1.2438796E-17
47.10646 1.2470750E-17
47.24937 1.2498387E-17
47.39228 1.2512210E-17
47.53519 1.2508045E-17
47.67810 1.2488564E-17
47.82101 1.2462253E-17
47.96392 1.2440231E-17
48.10684 1.2432088E-17
48.24975 1.2442313E-17
48.39266 1.2468605E-17
48.53557 1.2502704E-17
48.67849 1.2533432E-17
48.82140 1.2550785E-17
48.96431 1.2549607E-17
49.10722 1.2531451E-17
49.25013 1.2503985E-17
49.39304 1.2478135E-17
49.53595 1.2464069E-17
49.67887 1.2467474E-17
49.82178 1.2487497E-17
49.96469 1.2517123E-17
50.10760 1.2545799E-17
50.25051 1.2563352E-17
50.39342 1.2563746E-17
50.53634 1.2547282E-17
50.67925 1.2520461E-17
50.82216 1.2493567E-17
50.96507 1.2476866E-17
51.10798 1.2476841E-17
51.25090 1.2493832E-17
51.39381 1.2521959E-17
51.53672 1.2551324E-17
51.67963 1.2571684E-17
51.82254 1.2576217E-17
51.96545 1.2564022E-17
52.10837 1.2540423E-17
52.25128 1.2514975E-17
52.39419 1.2497934E-17
52.53710 1.2496477E-17
52.68001 1.2512070E-17
52.82293 1.2539939E-17
52.96584 1.2570833E-17
53.10875 1.2594406E-17
53.25166 1.2603004E-17
53.39457 1.2594423E-17
53.53748 1.2572685E-17
53.68040 1.2546523E-17
53.82331 1.2526161E-17
53.96622 1.2519575E-17
54.10913 1.2529602E-17
54.25204 1.2552941E-17
54.39495 1.2581422E-17
54.53786 1.2605035E-17
54.68078 1.2615627E-17
54.82369 1.2609894E-17
54.96660 1.2590584E-17
55.10951 1.2565485E-17
55.25242 1.2544556E-17
55.39534 1.2536289E-17
55.53825 1.2544605E-17
55.68116 1.2567423E-17
55.82407 1.2597431E-17
55.96698 1.2624749E-17
56.10989 1.2640523E-17
56.25281 1.2640132E-17
56.39572 1.2624833E-17
56.53863 1.2601274E-17
56.68154 1.2579040E-17
56.82445 1.2567144E-17
56.96737 1.2570742E-17
57.11028 1.2589270E-17
57.25319 1.2616667E-17
57.39610 1.2643606E-17
57.53901 1.2660910E-17
57.68192 1.2662887E-17
57.82484 1.2649406E-17
57.96775 1.2625921E-17
58.11066 1.2601469E-17
58.25357 1.2585365E-17
58.39648 1.2583799E-17
58.53939 1.2597582E-17
58.68230 1.2621861E-17
58.82522 1.2647898E-17
58.96813 1.2666266E-17
59.11104 1.2670307E-17
59.25395 1.2658565E-17
59.39687 1.2635343E-17
59.53978 1.2609146E-17
59.68269 1.2589610E-17
59.82560 1.2584005E-17
59.96851 1.2594611E-17
60.11142 1.2617903E-17
60.25433 1.2645850E-17
60.39725 1.2668847E-17
60.54016 1.2679224E-17
60.68307 1.2674030E-17
60.82598 1.2656101E-17
60.96889 1.2633005E-17
61.11180 1.2614263E-17
61.25471 1.2607852E-17
61.39763 1.2617275E-17
61.54054 1.2640261E-17
61.68345 1.2669588E-17
61.82636 1.2695708E-17
61.96928 1.2710236E-17
62.11219 1.2709016E-17
62.25510 1.2693634E-17
62.39801 1.2670843E-17
62.54092 1.2650084E-17
62.68383 1.2640019E-17
62.82674 1.2645345E-17
62.96966 1.2665053E-17
63.11257 1.2692780E-17
63.25548 1.2719113E-17
63.39839 1.2735027E-17
63.54131 1.2735178E-17
63.68422 1.2719856E-17
63.82713 1.2694879E-17
63.97004 1.2669463E-17
64.11295 1.2652853E-17
64.25586 1.2650954E-17
64.39877 1.2664193E-17
64.54169 1.2687405E-17
64.68460 1.2711773E-17
64.82751 1.2728123E-17
64.97042 1.2730331E-17
65.11333 1.2717613E-17
65.25625 1.2694825E-17
65.39915 1.2670682E-17
65.54207 1.2654536E-17
65.68498 1.2652910E-17
65.82789 1.2667080E-17
65.97080 1.2692570E-17
66.11372 1.2720792E-17
66.25663 1.2742189E-17
66.39954 1.2749743E-17
66.54245 1.2741544E-17
66.68536 1.2721479E-17
66.82828 1.2697775E-17
66.97118 1.2679948E-17
67.11410 1.2675283E-17
67.25701 1.2686147E-17
67.39992 1.2709126E-17
67.54283 1.2736307E-17
67.68575 1.2758213E-17
67.82866 1.2767323E-17
67.97157 1.2760842E-17
68.11448 1.2741723E-17
68.25739 1.2717558E-17
68.40031 1.2697741E-17
68.54321 1.2689994E-17
68.68613 1.2697510E-17
68.82904 1.2717801E-17
68.97195 1.2743646E-17
69.11486 1.2765807E-17
69.25777 1.2776471E-17
69.40069 1.2772158E-17
69.54359 1.2754999E-17
69.68651 1.2731935E-17
69.82942 1.2712127E-17
69.97233 1.2703556E-17
70.11524 1.2710071E-17
70.25816 1.2729986E-17
70.40107 1.2756737E-17
70.54398 1.2781333E-17
70.68689 1.2795689E-17
70.82980 1.2795603E-17
70.97272 1.2782257E-17
71.11562 1.2761713E-17
71.25854 1.2742594E-17
71.40145 1.2732841E-17
71.54436 1.2736737E-17
71.68727 1.2753338E-17
71.83018 1.2776850E-17
71.97310 1.2798827E-17
72.11600 1.2811342E-17
72.25892 1.2809946E-17
72.40183 1.2795317E-17
72.54475 1.2772994E-17
72.68765 1.2751291E-17
72.83057 1.2738211E-17
72.97348 1.2738480E-17
73.11639 1.2751834E-17
73.25930 1.2773170E-17
73.40221 1.2794505E-17
73.54513 1.2807984E-17
73.68803 1.2808835E-17
73.83095 1.2797138E-17
73.97386 1.2777789E-17
74.11678 1.2758658E-17
74.25968 1.2747643E-17
74.40260 1.2749731E-17
74.54551 1.2765151E-17
74.68842 1.2789292E-17
74.83133 1.2814417E-17
74.97424 1.2832517E-17
75.11716 1.2838238E-17
75.26006 1.2830794E-17
75.40298 1.2814171E-17
75.54589 1.2795548E-17
75.68880 1.2782550E-17
75.83171 1.2780365E-17
75.97462 1.2789784E-17
76.11754 1.2806927E-17
76.26044 1.2824712E-17
76.40336 1.2835544E-17
76.54627 1.2834210E-17
76.68919 1.2819889E-17
76.83209 1.2796562E-17
76.97501 1.2771641E-17
77.11792 1.2753347E-17
77.26083 1.2747803E-17
77.40374 1.2756896E-17
77.54665 1.2777710E-17
77.68957 1.2803704E-17
77.83247 1.2827182E-17
77.97539 1.2842152E-17
78.11830 1.2846474E-17
78.26122 1.2842537E-17
78.40412 1.2836214E-17
78.54704 1.2834489E-17
78.68995 1.2842662E-17
78.83286 1.2862163E-17
78.97577 1.2889802E-17
79.11868 1.2918726E-17
79.26160 1.2940736E-17
79.40450 1.2949120E-17
79.54742 1.2940945E-17
79.69033 1.2918010E-17
79.83324 1.2886088E-17
79.97615 1.2852789E-17
80.11906 1.2824850E-17
80.26198 1.2805830E-17
80.40488 1.2795104E-17
80.54780 1.2788490E-17
80.69071 1.2780256E-17
80.83363 1.2765758E-17
80.97653 1.2743693E-17
81.11945 1.2717105E-17
81.26236 1.2692759E-17
81.40527 1.2679073E-17
81.54818 1.2683349E-17
81.69109 1.2709293E-17
81.83401 1.2755711E-17
81.97691 1.2816824E-17
82.11983 1.2884072E-17
82.26274 1.2948715E-17
82.40565 1.3004298E-17
82.54856 1.3048072E-17
82.69147 1.3080908E-17
82.83439 1.3105795E-17
82.97730 1.3125549E-17
83.12021 1.3140657E-17
83.26312 1.3148139E-17
83.40604 1.3141907E-17
83.54894 1.3114570E-17
83.69186 1.3060059E-17
83.83477 1.2976169E-17
83.97768 1.2866095E-17
84.12059 1.2738416E-17
84.26350 1.2605533E-17
84.40642 1.2481084E-17
84.54933 1.2377220E-17
84.69224 1.2302637E-17
84.83515 1.2261937E-17
84.97807 1.2256379E-17
85.12097 1.2285570E-17
85.26389 1.2349266E-17
85.40680 1.2448478E-17
85.54971 1.2585309E-17
85.69262 1.2761500E-17
85.83553 1.2976165E-17
85.97845 1.3223523E-17
86.12135 1.3491532E-17
86.26427 1.3762008E-17
86.40718 1.4012359E-17
86.55009 1.4218495E-17
86.69300 1.4358156E-17
86.83591 1.4413725E-17
86.97883 1.4373881E-17
87.12174 1.4233879E-17
87.26465 1.3994698E-17
87.40756 1.3661728E-17
87.55048 1.3243741E-17
87.69338 1.2752669E-17
87.83630 1.2204352E-17
87.97921 1.1619896E-17
88.12212 1.1026945E-17
88.26503 1.0460087E-17
88.40794 9.9597765E-18
88.55086 9.5696327E-18
88.69377 9.3324394E-18
88.83668 9.2855987E-18
88.97959 9.4569343E-18
89.12251 9.8616282E-18
89.26541 1.0500701E-17
89.40833 1.1360982E-17
89.55124 1.2416130E-17
89.69415 1.3628071E-17
89.83706 1.4948337E-17
89.97997 1.6319028E-17
90.12289 1.7673567E-17
90.26580 1.8937748E-17
90.40871 2.0031633E-17
90.55162 2.0872862E-17
90.69453 2.1381436E-17
90.83744 2.1485710E-17
90.98035 2.1128878E-17
91.12327 2.0275002E-17
91.26618 1.8913756E-17
91.40909 1.7063236E-17
91.55200 1.4770703E-17
91.69492 1.2111458E-17
91.83783 9.1863089E-18
91.98074 6.1181926E-18
92.12365 3.0482770E-18
92.26656 1.3162716E-19
92.40947 -2.4677687E-18
92.55238 -4.5829723E-18
92.69530 -6.0513655E-18
92.83821 -6.7232616E-18
92.98112 -6.4715344E-18
93.12403 -5.2015685E-18
93.26694 -2.8605901E-18
93.40986 5.5459555E-19
93.55276 4.9922501E-18
93.69568 1.0343208E-17
93.83859 1.6441321E-17
93.98150 2.3066643E-17
94.12441 2.9950999E-17
94.26733 3.6785632E-17
94.41024 4.3230815E-17
94.55315 4.8927376E-17
94.69606 5.3510426E-17
94.83897 5.6625297E-17
94.98188 5.7945603E-17
95.12479 5.7192922E-17
95.26771 5.4157222E-17
95.41062 4.8716660E-17
95.55353 4.0855377E-17
95.69644 3.0677766E-17
95.83936 1.8417951E-17
95.98227 4.4434757E-18
96.12518 -1.0747372E-17
96.26809 -2.6535042E-17
96.41100 -4.2195085E-17
96.55391 -5.6921448E-17
96.69682 -6.9856653E-17
96.83974 -8.0128503E-17
96.98265 -8.6892782E-17
97.12556 -8.9380796E-17
97.26847 -8.6949931E-17
97.41138 -7.9134874E-17
97.55430 -6.5696352E-17
97.69720 -4.6663895E-17
97.84012 -2.2368956E-17
97.98303 6.5349175E-18
98.12594 3.9067916E-17
98.26885 7.3937830E-17
98.41177 1.0957330E-16
98.55468 1.4417664E-16
98.69759 1.7579548E-16
98.84050 2.0241159E-16
98.98341 2.2204382E-16
99.12633 2.3286159E-16
99.26923 2.3330345E-16
99.41215 2.2219509E-16
99.55506 1.9885951E-16
99.69797 1.6321205E-16
99.84088 1.1583232E-16
99.98380 5.8006206E-17
100.1267 -8.2683634E-18
100.2696 -8.0316008E-17
100.4125 -1.5486142E-16
100.5554 -2.2814899E-16
100.6984 -2.9610215E-16
100.8413 -3.5451669E-16
100.9842 -3.9928027E-16
101.1271 -4.2660806E-16
101.2700 -4.3328337E-16
101.4129 -4.1688976E-16
101.5558 -3.7602164E-16
101.6987 -3.1045912E-16
101.8416 -2.2129416E-16
101.9846 -1.1099677E-16
102.1275 1.6588823E-17
102.2704 1.5632328E-16
102.4133 3.0192953E-16
102.5562 4.4622585E-16
102.6991 5.8142851E-16
102.8420 6.9951268E-16
102.9849 7.9261712E-16
103.1279 8.5347432E-16
103.2708 8.7584520E-16
103.4137 8.5493714E-16
103.5566 7.8778114E-16
103.6995 6.7354715E-16
103.8424 5.1377593E-16
103.9853 3.1250886E-16
104.1282 7.6301760E-17
104.2711 -1.8588812E-16
104.4141 -4.6294665E-16
104.5570 -7.4197667E-16
104.6999 -1.0087941E-15
104.8428 -1.2485300E-15
104.9857 -1.4463192E-15
105.1286 -1.5880472E-15
105.2715 -1.6611245E-15
105.4144 -1.6552529E-15
105.5574 -1.5631466E-15
105.7003 -1.3811692E-15
105.8432 -1.1098500E-15
105.9861 -7.5424313E-16
106.1290 -3.2409918E-16
106.2719 1.6617622E-16
106.4148 6.9779490E-16
106.5577 1.2480983E-15
106.7006 1.7913068E-15
106.8436 2.2994935E-15
106.9865 2.7437566E-15
107.1294 3.0955512E-15
107.2723 3.3281339E-15
107.4152 3.4180585E-15
107.5581 3.3466543E-15
107.7010 3.1014145E-15
107.8439 2.6772175E-15
107.9869 2.0773024E-15
108.1298 1.3139271E-15
108.2727 4.0864456E-16
108.4156 -6.0785911E-16
108.5585 -1.6963935E-15
108.7014 -2.8103829E-15
108.8443 -3.8974616E-15
108.9872 -4.9015205E-15
109.1301 -5.7651324E-15
109.2731 -6.4322869E-15
109.4160 -6.8513073E-15
109.5589 -6.9778329E-15
109.7018 -6.7777095E-15
109.8447 -6.2296376E-15
109.9876 -5.3274146E-15
110.1305 -4.0816235E-15
110.2734 -2.5206225E-15
110.4164 -6.9073022E-16
110.5593 1.3444828E-15
110.7022 3.5058313E-15
110.8451 5.7010840E-15
110.9880 7.8284005E-15
111.1309 9.7805395E-15
111.2738 1.1449683E-14
111.4167 1.2732666E-14
111.5596 1.3536391E-14
111.7026 1.3783151E-14
111.8455 1.3415580E-14
111.9884 1.2400962E-14
112.1313 1.0734626E-14
112.2742 8.4421868E-15
112.4171 5.5804585E-15
112.5600 2.2368963E-15
112.7029 -1.4724841E-15
112.8458 -5.4067083E-15
112.9888 -9.4048491E-15
113.1317 -1.3292284E-14
113.2746 -1.6887943E-14
113.4175 -2.0012253E-14
113.5604 -2.2495410E-14
113.7033 -2.4185604E-14
113.8462 -2.4956811E-14
113.9891 -2.4715735E-14
114.1321 -2.3407603E-14
114.2750 -2.1020444E-14
114.4179 -1.7587684E-14
114.5608 -1.3188836E-14
114.7037 -7.9482700E-15
114.8466 -2.0320278E-15
114.9895 4.3571832E-15
115.1324 1.0986640E-14
115.2754 1.7601675E-14
115.4183 2.3934840E-14
115.5612 2.9715844E-14
115.7041 3.4681893E-14
115.8470 3.8588094E-14
115.9899 4.1217535E-14
116.1328 4.2390719E-14
116.2757 4.1974071E-14
116.4186 3.9887185E-14
116.5616 3.6108601E-14
116.7045 3.0679903E-14
116.8474 2.3707886E-14
116.9903 1.5364725E-14
117.1332 5.8859303E-15
117.2761 -4.4339871E-15
117.4190 -1.5248201E-14
117.5619 -2.6166642E-14
117.7048 -3.6767427E-14
117.8478 -4.6610509E-14
117.9907 -5.5253355E-14
118.1336 -6.2268299E-14
118.2765 -6.7261111E-14
118.4194 -6.9890200E-14
118.5623 -6.9885653E-14
118.7052 -6.7067262E-14
118.8481 -6.1360530E-14
118.9911 -5.2809624E-14
119.1340 -4.1586184E-14
119.2769 -2.7993029E-14
119.4198 -1.2461845E-14
119.5627 4.4557563E-15
119.7056 2.2104168E-14
119.8485 3.9746709E-14
119.9914 5.6595059E-14
120.1343 7.1844325E-14
120.2773 8.4712382E-14
120.4202 9.4481633E-14
120.5631 1.0054108E-13
120.7060 1.0242619E-13
120.8489 9.9854058E-14
120.9918 9.2751205E-14
121.1347 8.1271741E-14
121.2776 6.5803794E-14
121.4206 4.6962979E-14
121.5635 2.5571965E-14
121.7064 2.6264613E-15
121.8493 -2.0751492E-14
121.9922 -4.3370862E-14
122.1351 -6.4036897E-14
122.2780 -8.1620650E-14
122.4209 -9.5128800E-14
122.5639 -1.0376908E-13
122.7068 -1.0700709E-13
122.8497 -1.0460996E-13
122.9926 -9.6673571E-14
123.1355 -8.3630111E-14
123.2784 -6.6234785E-14
123.4213 -4.5530941E-14
123.5642 -2.2795017E-14
123.7071 5.3633284E-16
123.8501 2.2952887E-14
123.9930 4.2966268E-14
124.1359 5.9208152E-14
124.2788 7.0524715E-14
124.4217 7.6060923E-14
124.5646 7.5328361E-14
124.7075 6.8251306E-14
124.8504 5.5187032E-14
124.9933 3.6917829E-14
125.1363 1.4614142E-14
125.2792 -1.0229631E-14
125.4221 -3.5883558E-14
125.5650 -6.0489286E-14
125.7079 -8.2179435E-14
125.8508 -9.9201233E-14
125.9937 -1.1003620E-13
126.1366 -1.1350741E-13
126.2795 -1.0886671E-13
126.4225 -9.5855446E-14
126.5654 -7.4733981E-14
126.7083 -4.6277330E-14
126.8512 -1.1736788E-14
126.9941 2.7230142E-14
127.1370 6.8656947E-14
127.2799 1.1038573E-13
127.4228 1.5019716E-13
127.5658 1.8594326E-13
127.7087 2.1567394E-13
127.8516 2.3774778E-13
127.9945 2.5091989E-13
128.1374 2.5440023E-13
128.2803 2.4787922E-13
128.4232 2.3151961E-13
128.5661 2.0591646E-13
128.7090 1.7202950E-13
128.8520 1.3109509E-13
128.9949 8.4525845E-14
129.1378 3.3808219E-14
129.2807 -1.9593199E-14
129.4236 -7.4314524E-14
129.5665 -1.2914809E-13
129.7094 -1.8306881E-13
129.8523 -2.3522959E-13
129.9953 -2.8492646E-13
130.1382 -3.3153829E-13
130.2811 -3.7444768E-13
130.4240 -4.1295344E-13
130.5669 -4.4618598E-13
130.7098 -4.7303784E-13
130.8527 -4.9212143E-13
130.9956 -5.0176334E-13
131.1385 -5.0004385E-13
131.2815 -4.8488421E-13
131.4244 -4.5418180E-13
131.5673 -4.0598758E-13
131.7102 -3.3871528E-13
131.8531 -2.5136872E-13
131.9960 -1.4376869E-13
132.1389 -1.6759956E-14
132.2818 1.2762298E-13
132.4248 2.8605102E-13
132.5677 4.5387343E-13
132.7106 6.2518258E-13
132.8535 7.9297685E-13
132.9964 9.4942196E-13
133.1393 1.0862058E-12
133.2822 1.1949690E-12
133.4251 1.2677932E-12
133.5681 1.2977158E-12
133.7110 1.2792432E-12
133.8539 1.2088223E-12
133.9968 1.0852415E-12
134.1397 9.0992220E-13
134.2826 6.8707708E-13
134.4255 4.2371006E-13
134.5684 1.2944745E-13
134.7113 -1.8380318E-13
134.8542 -5.0235852E-13
134.9972 -8.1140856E-13
135.1401 -1.0957808E-12
135.2830 -1.3407794E-12
135.4259 -1.5330534E-12
135.5688 -1.6614421E-12
135.7117 -1.7177469E-12
135.8546 -1.6973759E-12
135.9975 -1.5998151E-12
136.1405 -1.4288904E-12
136.2834 -1.1927877E-12
136.4263 -9.0381766E-13
136.5692 -5.7792416E-13
136.7121 -2.3394901E-13
136.8550 1.0731823E-13
136.9979 4.2426167E-13
137.1408 6.9567876E-13
137.2838 9.0207117E-13
137.4267 1.0269166E-12
137.5696 1.0578473E-12
137.7125 9.8766286E-13
137.8554 8.1510720E-13
137.9983 5.4535407E-13
138.1412 1.9015278E-13
138.2841 -2.3239228E-13
138.4270 -6.9842098E-13
138.5700 -1.1792843E-12
138.7129 -1.6428466E-12
138.8558 -2.0550710E-12
138.9987 -2.3818191E-12
139.1416 -2.5907731E-12
139.2845 -2.6533825E-12
139.4274 -2.5467282E-12
139.5703 -2.2551926E-12
139.7133 -1.7718306E-12
139.8562 -1.0993493E-12
139.9991 -2.5061482E-13
140.1420 7.5136555E-13
140.2849 1.8740131E-12
140.4278 3.0762992E-12
140.5707 4.3103754E-12
140.7136 5.5236462E-12
140.8566 6.6611868E-12
140.9995 7.6683685E-12
141.1424 8.4935566E-12
141.2853 9.0907100E-12
141.4282 9.4217299E-12
141.5711 9.4583985E-12
141.7140 9.1837779E-12
141.8569 8.5929666E-12
141.9998 7.6931439E-12
142.1427 6.5028963E-12
142.2857 5.0508465E-12
142.4286 3.3736880E-12
142.5715 1.5137475E-12
142.7144 -4.8373913E-13
142.8573 -2.5734250E-12
143.0002 -4.7124925E-12
143.1431 -6.8629061E-12
143.2860 -8.9930563E-12
143.4290 -1.1078622E-11
143.5719 -1.3102506E-11
143.7148 -1.5053800E-11
143.8577 -1.6925784E-11
144.0006 -1.8713073E-11
144.1435 -2.0408106E-11
144.2864 -2.1997220E-11
144.4293 -2.3456704E-11
144.5723 -2.4749140E-11
144.7152 -2.5820507E-11
144.8581 -2.6598394E-11
145.0010 -2.6991704E-11
145.1439 -2.6892110E-11
145.2868 -2.6177432E-11
145.4297 -2.4717003E-11
145.5726 -2.2378915E-11
145.7155 -1.9038845E-11
145.8585 -1.4590114E-11
146.0014 -8.9543746E-12
146.1443 -2.0922990E-12
146.2872 5.9864952E-12
146.4301 1.5215032E-11
146.5730 2.5462816E-11
146.7159 3.6532600E-11
146.8588 4.8160590E-11
147.0018 6.0020482E-11
147.1447 7.1731329E-11
147.2876 8.2869323E-11
147.4305 9.2982802E-11
147.5734 1.0161016E-10
147.7163 1.0829954E-10
147.8592 1.1262945E-10
148.0021 1.1422890E-10
148.1451 1.1279620E-10
148.2880 1.0811484E-10
148.4309 1.0006580E-10
148.5738 8.8635120E-11
148.7167 7.3916484E-11
148.8596 5.6108316E-11
149.0025 3.5505789E-11
149.1454 1.2488087E-11
149.2883 -1.2498102E-11
149.4312 -3.8957695E-11
149.5742 -6.6367571E-11
149.7171 -9.4196560E-11
149.8600 -1.2192360E-10
150.0029 -1.4905252E-10
150.1458 -1.7512246E-10
150.2887 -1.9971280E-10
150.4316 -2.2244247E-10
150.5745 -2.4296348E-10
150.7175 -2.6094960E-10
150.8604 -2.7608105E-10
151.0033 -2.8802694E-10
151.1462 -2.9642758E-10
151.2891 -3.0087849E-10
151.4320 -3.0091901E-10
151.5749 -2.9602695E-10
151.7178 -2.8562183E-10
151.8607 -2.6907759E-10
152.0037 -2.4574595E-10
152.1466 -2.1499001E-10
152.2895 -1.7622775E-10
152.4324 -1.2898305E-10
152.5753 -7.2942333E-11
152.7182 -8.0133990E-12
152.8611 6.5617546E-11
153.0040 1.4743444E-10
153.1470 2.3654972E-10
153.2899 3.3167658E-10
153.4328 4.3111834E-10
153.5757 5.3277782E-10
153.7186 6.3418776E-10
153.8615 7.3256401E-10
154.0044 8.2487817E-10
154.1473 9.0795027E-10
154.2903 9.7855624E-10
154.4332 1.0335446E-09
154.5761 1.0699599E-09
154.7190 1.0851625E-09
154.8619 1.0769422E-09
155.0048 1.0436170E-09
155.1477 9.8411201E-10
155.2906 8.9801427E-10
155.4335 7.8559975E-10
155.5765 6.4783168E-10
155.7194 4.8632898E-10
155.8623 3.0330782E-10
156.0052 1.0150001E-10
156.1481 -1.1594700E-10
156.2910 -3.4558115E-10
156.4339 -5.8376098E-10
156.5768 -8.2676643E-10
156.7197 -1.0708985E-09
156.8627 -1.3125601E-09
157.0056 -1.5483124E-09
157.1485 -1.7749038E-09
157.2914 -1.9892683E-09
157.4343 -2.1884961E-09
157.5772 -2.3697762E-09
157.7201 -2.5303204E-09
157.8630 -2.6672746E-09
158.0060 -2.7776241E-09
158.1489 -2.8581097E-09
158.2918 -2.9051588E-09
158.4347 -2.9148477E-09
158.5776 -2.8829019E-09
158.7205 -2.8047418E-09
158.8634 -2.6755806E-09
159.0063 -2.4905746E-09
159.1492 -2.2450273E-09
159.2922 -1.9346391E-09
159.4351 -1.5557946E-09
159.5780 -1.1058756E-09
159.7209 -5.8358496E-10
159.8638 1.0736747E-11
160.0067 6.7481992E-10
160.1496 1.4042194E-09
160.2925 2.1921287E-09
160.4355 3.0292726E-09
160.5784 3.9038892E-09
160.7213 4.8018118E-09
160.8642 5.7066534E-09
161.0071 6.6000871E-09
161.1500 7.4622273E-09
161.2929 8.2720906E-09
161.4358 9.0081169E-09
161.5788 9.6487467E-09
161.7217 1.0173011E-08
161.8646 1.0561119E-08
162.0075 1.0795025E-08
162.1504 1.0858932E-08
162.2933 1.0739731E-08
162.4362 1.0427351E-08
162.5791 9.9149986E-09
162.7220 9.1992973E-09
162.8650 8.2803195E-09
163.0079 7.1615083E-09
163.1508 5.8495186E-09
163.2937 4.3539781E-09
163.4366 2.6872018E-09
163.5795 8.6387802E-10
163.7224 -1.0992534E-09
163.8653 -3.1836971E-09
164.0083 -5.3694573E-09
164.1512 -7.6352347E-09
164.2941 -9.9585504E-09
164.4370 -1.2315796E-08
164.5799 -1.4682200E-08
164.7228 -1.7031736E-08
164.8657 -1.9336973E-08
165.0086 -2.1568901E-08
165.1515 -2.3696751E-08
165.2944 -2.5687836E-08
165.4374 -2.7507470E-08
165.5803 -2.9118945E-08
165.7232 -3.0483655E-08
165.8661 -3.1561349E-08
166.0090 -3.2310528E-08
166.1519 -3.2689023E-08
166.2948 -3.2654757E-08
166.4377 -3.2166607E-08
166.5807 -3.1185468E-08
166.7236 -2.9675396E-08
166.8665 -2.7604834E-08
167.0094 -2.4947880E-08
167.1523 -2.1685558E-08
167.2952 -1.7807038E-08
167.4381 -1.3310773E-08
167.5810 -8.2055323E-09
167.7240 -2.5112687E-09
167.8669 3.7401726E-09
168.0098 1.0504523E-08
168.1527 1.7724734E-08
168.2956 2.5330813E-08
168.4385 3.3239775E-08
168.5814 4.1355740E-08
168.7243 4.9570115E-08
168.8672 5.7761824E-08
169.0102 6.5797558E-08
169.1531 7.3531993E-08
169.2960 8.0807986E-08
169.4389 8.7456677E-08
169.5818 9.3297508E-08
169.7247 9.8138237E-08
169.8676 1.0177475E-07
170.0105 1.0399099E-07
170.1535 1.0455885E-07
170.2964 1.0323808E-07
170.4393 9.9776358E-08
170.5822 9.3909584E-08
170.7251 8.5362295E-08
170.8680 7.3848561E-08
171.0109 5.9073063E-08
171.1538 4.0732658E-08
171.2968 1.8518344E-08
171.4397 -7.8824520E-09
171.5826 -3.8783174E-08
171.7255 -7.4495063E-08
171.8684 -1.1532394E-07
172.0113 -1.6156685E-07
172.1542 -2.1350853E-07
172.2971 -2.7141820E-07
172.4400 -3.3554639E-07
172.5829 -4.0612247E-07
172.7259 -4.8335232E-07
172.8688 -5.6741720E-07
173.0117 -6.5847314E-07
173.1546 -7.5665110E-07
173.2975 -8.6205858E-07
173.4404 -9.7478164E-07
173.5833 -1.0948885E-06
173.7262 -1.2224341E-06
173.8692 -1.3574656E-06
174.0121 -1.5000278E-06
174.1550 -1.6501709E-06
174.2979 -1.8079573E-06
174.4408 -1.9734691E-06
174.5837 -2.1468161E-06
174.7266 -2.3281425E-06
174.8695 -2.5176346E-06
175.0125 -2.7155265E-06
175.1554 -2.9221051E-06
175.2983 -3.1377147E-06
175.4412 -3.3627575E-06
175.5841 -3.5976975E-06
175.7270 -3.8430558E-06
175.8699 -4.0994109E-06
176.0128 -4.3673913E-06
176.1557 -4.6476698E-06
176.2987 -4.9409541E-06
176.4416 -5.2479768E-06
176.5845 -5.5694800E-06