  -7.200000        2.0765666E-18
  -7.057088        2.0714331E-18
  -6.914176        2.0614176E-18
  -6.771265        2.0469138E-18
  -6.628353        2.0284468E-18
  -6.485441        2.0066620E-18
  -6.342530        1.9823098E-18
  -6.199618        1.9562199E-18
  -6.056706        1.9292735E-18
  -5.913795        1.9023665E-18
  -5.770883        1.8763695E-18
  -5.627971        1.8520855E-18
  -5.485059        1.8302089E-18
  -5.342147        1.8112879E-18
  -5.199236        1.7956981E-18
  -5.056324        1.7836235E-18
  -4.913413        1.7750545E-18
  -4.770501        1.7697972E-18
  -4.627589        1.7674955E-18
  -4.484677        1.7676618E-18
  -4.341765        1.7697180E-18
  -4.198854        1.7730350E-18
  -4.055942        1.7769746E-18
  -3.913030        1.7809219E-18
  -3.770118        1.7843190E-18
  -3.627207        1.7866812E-18
  -3.484295        1.7876113E-18
  -3.341383        1.7868061E-18
  -3.198472        1.7840545E-18
  -3.055560        1.7792357E-18
  -2.912648        1.7723151E-18
  -2.769737        1.7633404E-18
  -2.626825        1.7524407E-18
  -2.483913        1.7398261E-18
  -2.341001        1.7257888E-18
  -2.198090        1.7107007E-18
  -2.055178        1.6950131E-18
  -1.912266        1.6792473E-18
  -1.769354        1.6639781E-18
  -1.626443        1.6498126E-18
  -1.483531        1.6373573E-18
  -1.340619        1.6271864E-18
  -1.197708        1.6197987E-18
  -1.054796        1.6155796E-18
 -0.9118841        1.6147689E-18
 -0.7689723        1.6174332E-18
 -0.6260606        1.6234546E-18
 -0.4831489        1.6325284E-18
 -0.3402372        1.6441810E-18
 -0.1973254        1.6577956E-18
 -5.4413714E-02    1.6726575E-18
  8.8498011E-02    1.6879966E-18
  0.2314097        1.7030438E-18
  0.3743215        1.7170767E-18
  0.5172332        1.7294625E-18
  0.6601449        1.7396886E-18
  0.8030567        1.7473822E-18
  0.9459684        1.7523110E-18
   1.088880        1.7543756E-18
   1.231792        1.7535896E-18
   1.374704        1.7500528E-18
   1.517615        1.7439265E-18
   1.660527        1.7354088E-18
   1.803439        1.7247174E-18
   1.946350        1.7120845E-18
   2.089262        1.6977602E-18
   2.232174        1.6820231E-18
   2.375086        1.6651963E-18
   2.517997        1.6476656E-18
   2.660909        1.6298893E-18
   2.803821        1.6124015E-18
   2.946733        1.5958004E-18
   3.089644        1.5807226E-18
   3.232556        1.5678029E-18
   3.375468        1.5576269E-18
   3.518379        1.5506734E-18
   3.661291        1.5472632E-18
   3.804203        1.5475161E-18
   3.947115        1.5513230E-18
   4.090026        1.5583399E-18
   4.232938        1.5680066E-18
   4.375850        1.5795843E-18
   4.518762        1.5922177E-18
   4.661673        1.6050050E-18
   4.804585        1.6170731E-18
   4.947497        1.6276489E-18
   5.090408        1.6361127E-18
   5.233320        1.6420371E-18
   5.376232        1.6451966E-18
   5.519144        1.6455575E-18
   5.662055        1.6432468E-18
   5.804967        1.6385064E-18
   5.947879        1.6316404E-18
   6.090790        1.6229692E-18
   6.233702        1.6127918E-18
   6.376614        1.6013618E-18
   6.519526        1.5888903E-18
   6.662437        1.5755587E-18
   6.805349        1.5615527E-18
   6.948261        1.5470985E-18
   7.091173        1.5325025E-18
   7.234084        1.5181738E-18
   7.376996        1.5046333E-18
   7.519908        1.4924931E-18
   7.662819        1.4824159E-18
   7.805731        1.4750436E-18
   7.948643        1.4709209E-18
   8.091555        1.4704111E-18
   8.234467        1.4736252E-18
   8.377378        1.4803753E-18
   8.520289        1.4901694E-18
   8.663201        1.5022423E-18
   8.806113        1.5156348E-18
   8.949025        1.5292977E-18
   9.091937        1.5422179E-18
   9.234848        1.5535363E-18
   9.377760        1.5626420E-18
   9.520672        1.5692181E-18
   9.663584        1.5732348E-18
   9.806496        1.5748825E-18
   9.949407        1.5744568E-18
   10.09232        1.5722192E-18
   10.23523        1.5682615E-18
   10.37814        1.5624039E-18
   10.52105        1.5541684E-18
   10.66397        1.5428336E-18
   10.80688        1.5275939E-18
   10.94979        1.5077935E-18
   11.09270        1.4832168E-18
   11.23561        1.4543733E-18
   11.37852        1.4227154E-18
   11.52144        1.3907250E-18
   11.66435        1.3618046E-18
   11.80726        1.3399392E-18
   11.95017        1.3291289E-18
   12.09308        1.3326350E-18
   12.23599        1.3521395E-18
   12.37891        1.3869689E-18
   12.52182        1.4335613E-18
   12.66473        1.4853767E-18
   12.80764        1.5334140E-18
   12.95055        1.5674186E-18
   13.09346        1.5777469E-18
   13.23638        1.5576848E-18
   13.37929        1.5058365E-18
   13.52220        1.4280558E-18
   13.66511        1.3383026E-18
   13.80802        1.2578496E-18
   13.95094        1.2124447E-18
   14.09385        1.2274083E-18
   14.23676        1.3211221E-18
   14.37967        1.4979384E-18
   14.52258        1.7420316E-18
   14.66549        2.0140394E-18
   14.80841        2.2522925E-18
   14.95132        2.3799572E-18
   15.09423        2.3184386E-18
   15.23714        2.0059916E-18
   15.38005        1.4188883E-18
   15.52296        5.9097753E-19
   15.66588       -3.7353315E-19
   15.80879       -1.2993608E-18
   15.95170       -1.9556975E-18
   16.09461       -2.0898001E-18
   16.23752       -1.4768248E-18
   16.38043        2.0155516E-20
   16.52335        2.3902205E-18
   16.66626        5.4281010E-18
   16.80917        8.7155290E-18
   16.95208        1.1642966E-17
   17.09499        1.3479074E-17
   17.23791        1.3487067E-17
   17.38082        1.1076728E-17
   17.52373        5.9701827E-18
   17.66664       -1.6494619E-18
   17.80955       -1.1042154E-17
   17.95246       -2.0901668E-17
   18.09538       -2.9458079E-17
   18.23829       -3.4700352E-17
   18.38120       -3.4705269E-17
   18.52411       -2.8033799E-17
   18.66702       -1.4133304E-17
   18.80993        6.3319927E-18
   18.95285        3.1303747E-17
   19.09576        5.7375623E-17
   19.23867        8.0105070E-17
   19.38158        9.4591405E-17
   19.52449        9.6269536E-17
   19.66740        8.1817414E-17
   19.81032        5.0032516E-17
   19.95323        2.5095661E-18
   20.09614       -5.6044630E-17
   20.23905       -1.1798801E-16
   20.38196       -1.7347511E-16
   20.52488       -2.1171819E-16
   20.66779       -2.2265309E-16
   20.81070       -1.9879155E-16
   20.95361       -1.3697269E-16
   21.09652       -3.9697377E-17
   21.23943        8.4248683E-17
   21.38235        2.2010168E-16
   21.52526        3.4845024E-16
   21.66817        4.4752853E-16
   21.81108        4.9624553E-16
   21.95399        4.7757740E-16
   22.09690        3.8184571E-16
   22.23981        2.0936733E-16
   22.38273       -2.8002340E-17
   22.52564       -3.0679817E-16
   22.66855       -5.9353721E-16
   22.81146       -8.4794859E-16
   22.95437       -1.0275922E-15
   23.09729       -1.0934101E-15
   23.24020       -1.0155941E-15
   23.38311       -7.7905638E-16
   23.52602       -3.8777232E-16
   23.66893        1.3268371E-16
   23.81184        7.3495582E-16
   23.95476        1.3524406E-15
   24.09767        1.9046523E-15
   24.24058        2.3052493E-15
   24.38349        2.4722260E-15
   24.52640        2.3394358E-15
   24.66932        1.8682749E-15
   24.81223        1.0580581E-15
   24.95514       -4.6558609E-17
   25.09805       -1.3527763E-15
   25.24096       -2.7229206E-15
   25.38387       -3.9847039E-15
   25.52678       -4.9485931E-15
   25.66970       -5.4313044E-15
   25.81261       -5.2832215E-15
   25.95552       -4.4163434E-15
   26.09843       -2.8284516E-15
   26.24134       -6.1881612E-16
   26.38426        2.0088627E-15
   26.52717        4.7593303E-15
   26.67008        7.2754040E-15
   26.81299        9.1825376E-15
   26.95590        1.0143500E-14
   27.09881        9.9156040E-15
   27.24173        8.4010769E-15
   27.38464        5.6807273E-15
   27.52755        2.0224244E-15
   27.67046       -2.1408734E-15
   27.81337       -6.2640119E-15
   27.95629       -9.7682279E-15
   28.09920       -1.2134608E-14
   28.24211       -1.2997166E-14
   28.38502       -1.2218205E-14
   28.52793       -9.9295894E-15
   28.67084       -6.5278830E-15
   28.81376       -2.6186845E-15
   28.95667        1.0852000E-15
   29.09958        3.8973561E-15
   29.24249        5.3005564E-15
   29.38540        5.0713082E-15
   29.52831        3.3587008E-15
   29.67122        6.9559976E-16
   29.81414       -2.0692020E-15
   29.95705       -3.9149909E-15
   30.09996       -3.8508519E-15
   30.24287       -1.1426255E-15
   30.38578        4.4766077E-15
   30.52870        1.2656727E-14
   30.67161        2.2379708E-14
   30.81452        3.2031950E-14
   30.95743        3.9603805E-14
   31.10034        4.2996859E-14
   31.24325        4.0397190E-14
   31.38617        3.0655701E-14
   31.52908        1.3608506E-14
   31.67199       -9.7264429E-15
   31.81490       -3.7125454E-14
   31.95781       -6.5332376E-14
   32.10072       -9.0422075E-14
   32.24364       -1.0831552E-13
   32.38655       -1.1537921E-13
   32.52946       -1.0902324E-13
   32.67237       -8.8206257E-14
   32.81528       -5.3763095E-14
   32.95819       -8.4928123E-15
   33.10111        4.3023904E-14
   33.24402        9.4872027E-14
   33.38693        1.4047100E-13
   33.52984        1.7339017E-13
   33.67275        1.8821396E-13
   33.81567        1.8134902E-13
   33.95858        1.5166911E-13
   34.10149        1.0090750E-13
   34.24440        3.3730756E-14
   34.38731       -4.2540576E-14
   34.53022       -1.1856434E-13
   34.67313       -1.8392557E-13
   34.81605       -2.2832910E-13
   34.95896       -2.4293103E-13
   35.10187       -2.2167546E-13
   35.24478       -1.6248373E-13
   35.38770       -6.8132620E-14
   35.53061        5.3332112E-14
   35.67352        1.8877852E-13
   35.81643        3.2084855E-13
   35.95934        4.2950821E-13
   36.10225        4.9421329E-13
   36.24516        4.9651900E-13
   36.38808        4.2286899E-13
   36.53099        2.6722507E-13
   36.67390        3.3158155E-14
   36.81681       -2.6496676E-13
   36.95972       -6.0201480E-13
   37.10263       -9.4349344E-13
   37.24555       -1.2483625E-12
   37.38846       -1.4730570E-12
   37.53137       -1.5763461E-12
   37.67428       -1.5244930E-12
   37.81719       -1.2960815E-12
   37.96011       -8.8587205E-13
   38.10302       -3.0712577E-13
   38.24593        4.0798628E-13
   38.38884        1.2100354E-12
   38.53175        2.0359287E-12
   38.67466        2.8140637E-12
   38.81758        3.4704650E-12
   38.96049        3.9352133E-12
   39.10340        4.1484676E-12
   39.24631        4.0654971E-12
   39.38922        3.6603160E-12
   39.53214        2.9277661E-12
   39.67505        1.8841189E-12
   39.81796        5.6645818E-13
   39.96087       -9.6879438E-13
   40.10378       -2.6478657E-12
   40.24669       -4.3818963E-12
   40.38961       -6.0694392E-12
   40.53252       -7.5993673E-12
   40.67543       -8.8545282E-12
   40.81834       -9.7165938E-12
   40.96125       -1.0072459E-11
   41.10416       -9.8223851E-12
   41.24707       -8.8896954E-12
   41.38999       -7.2314364E-12
   41.53290       -4.8489541E-12
   41.67581       -1.7969933E-12
   41.81872        1.8102734E-12
   41.96163        5.7978305E-12
   42.10455        9.9342548E-12
   42.24746        1.3942677E-11
   42.39037        1.7518164E-11
   42.53328        2.0350596E-11
   42.67619        2.2151210E-11
   42.81910        2.2680370E-11
   42.96202        2.1773642E-11
   43.10493        1.9363178E-11
   43.24784        1.5491735E-11
   43.39075        1.0317280E-11
   43.53366        4.1070619E-12
   43.67657       -2.7788410E-12
   43.81948       -9.9133748E-12
   43.96240       -1.6835542E-11
   44.10531       -2.3087619E-11
   44.24822       -2.8252978E-11
   44.39113       -3.1990847E-11
   44.53405       -3.4064519E-11
   44.67696       -3.4360119E-11
   44.81987       -3.2893983E-11
   44.96278       -2.9807646E-11
   45.10569       -2.5350866E-11
   45.24860       -1.9854080E-11
   45.39151       -1.3693065E-11
   45.53443       -7.2493023E-12
   45.67734       -8.7027938E-13
   45.82025        5.1658187E-12
   45.96316        1.0676762E-11
   46.10608        1.5590662E-11
   46.24899        1.9945634E-11
   46.39190        2.3873710E-11
   46.53481        2.7569880E-11
   46.67772        3.1248937E-11
   46.82063        3.5094656E-11
   46.96354        3.9207290E-11
   47.10646        4.3556176E-11
   47.24937        4.7944555E-11
   47.39228        5.1992858E-11
   47.53519        5.5145218E-11
   47.67810        5.6701737E-11
   47.82101        5.5876151E-11
   47.96392        5.1875473E-11
   48.10684        4.3995405E-11
   48.24975        3.1722711E-11
   48.39266        1.4834224E-11
   48.53557       -6.5185188E-12
   48.67849       -3.1749558E-11
   48.82140       -5.9812620E-11
   48.96431       -8.9215524E-11
   49.10722       -1.1807805E-10
   49.25013       -1.4423285E-10
   49.39304       -1.6536519E-10
   49.53595       -1.7918372E-10
   49.67887       -1.8361132E-10
   49.82178       -1.7698271E-10
   49.96469       -1.5823330E-10
   50.10760       -1.2706365E-10
   50.25051       -8.4063111E-11
   50.39342       -3.0778324E-11
   50.53634        3.0285822E-11
   50.67925        9.5741456E-11
   50.82216        1.6147278E-10
   50.96507        2.2286865E-10
   51.10798        2.7512351E-10
   51.25090        3.1359035E-10
   51.39381        3.3416228E-10
   51.53672        3.3365405E-10
   51.67963        3.1014979E-10
   51.82254        2.6328367E-10
   51.96545        1.9442055E-10
   52.10837        1.0671073E-10
   52.25128        5.0011705E-12
   52.39419       -1.0440212E-10
   52.53710       -2.1411226E-10
   52.68001       -3.1615763E-10
   52.82293       -4.0256054E-10
   52.96584       -4.6595261E-10
   53.10875       -5.0017462E-10
   53.25166       -5.0080884E-10
   53.39457       -4.6559340E-10
   53.53748       -3.9468137E-10
   53.68040       -2.9071806E-10
   53.82331       -1.5872759E-10
   53.96622       -5.8178514E-12
   54.10913        1.5927182E-10
   54.25204        3.2674105E-10
   54.39495        4.8636889E-10
   54.53786        6.2817207E-10
   54.68078        7.4302964E-10
   54.82369        8.2322837E-10
   54.96660        8.6289570E-10
   55.10951        8.5829704E-10
   55.25242        8.0798984E-10
   55.39534        7.1284145E-10
   55.53825        5.7592608E-10
   55.68116        4.0232584E-10
   55.82407        1.9886542E-10
   55.96698       -2.6193455E-11
   56.10989       -2.6347272E-10
   56.25281       -5.0279758E-10
   56.39572       -7.3350698E-10
   56.53863       -9.4475616E-10
   56.68154       -1.1258197E-09
   56.82445       -1.2664094E-09
   56.96737       -1.3570227E-09
   57.11028       -1.3893338E-09
   57.25319       -1.3566347E-09
   57.39610       -1.2543232E-09
   57.53901       -1.0804198E-09
   57.68192       -8.3608420E-10
   57.82484       -5.2608995E-10
   57.96775       -1.5920154E-10
   58.11066        2.5160449E-10
   58.25357        6.8913120E-10
   58.39648        1.1322235E-09
   58.53939        1.5563381E-09
   58.68230        1.9344428E-09
   58.82522        2.2382465E-09
   58.96813        2.4397246E-09
   59.11104        2.5128872E-09
   59.25395        2.4357019E-09
   59.39687        2.1920592E-09
   59.53978        1.7736492E-09
   59.68269        1.1816025E-09
   59.82560        4.2773973E-10
   59.96851       -4.6472498E-10
   60.11142       -1.4611747E-09
   60.25433       -2.5163989E-09
   60.39725       -3.5763206E-09
   60.54016       -4.5806998E-09
   60.68307       -5.4668194E-09
   60.82598       -6.1740928E-09
   60.96889       -6.6494756E-09
   61.11180       -6.8534636E-09
   61.25471       -6.7664039E-09
   61.39763       -6.3947545E-09
   61.54054       -5.7768608E-09
   61.68345       -4.9877849E-09
   61.82636       -4.1426906E-09
   61.96928       -3.3983008E-09
   62.11219       -2.9519984E-09
   62.25510       -3.0382163E-09
   62.39801       -3.9219197E-09
   62.54092       -5.8891056E-09
   62.68383       -9.2344514E-09
   62.82674       -1.4246463E-08
   62.96966       -2.1190628E-08
   63.11257       -3.0291297E-08
   63.25548       -4.1713207E-08
   63.39839       -5.5543605E-08
   63.54131       -7.1776078E-08
   63.68422       -9.0297178E-08
   63.82713       -1.1087695E-07
   63.97004       -1.3316426E-07
   64.11295       -1.5668779E-07
   64.25586       -1.8086331E-07
   64.39877       -2.0500765E-07
   64.54169       -2.2835933E-07
   64.68460       -2.5010581E-07
   64.82751       -2.6941669E-07
   64.97042       -2.8548192E-07
   65.11333       -2.9755390E-07
   65.25625       -3.0499166E-07
   65.39915       -3.0730536E-07
   65.54207       -3.0419849E-07
   65.68498       -2.9560556E-07
   65.82789       -2.8172227E-07
   65.97080       -2.6302507E-07
   66.11372       -2.4027750E-07
   66.25663       -2.1451967E-07
   66.39954       -1.8703874E-07
   66.54245       -1.5931715E-07
   66.68536       -1.3295698E-07
   66.82828       -1.0957871E-07
   66.97118       -9.0693327E-08
   67.11410       -7.7547988E-08
   67.25701       -7.0946278E-08
   67.39992       -7.1044695E-08
   67.54283       -7.7129037E-08
   67.68575       -8.7374282E-08
   67.82866       -9.8594192E-08
   67.97157       -1.0598624E-07
   68.11448       -1.0288041E-07
   68.25739       -8.0499191E-08
   68.40031       -2.7738489E-08
   68.54321        6.9022256E-08
   68.68613        2.2606982E-07
   68.82904        4.6245904E-07
   68.97195        8.0005799E-07
   69.11486        1.2635267E-06
   69.25777        1.8802259E-06
   69.40069        2.6800494E-06
   69.54359        3.6951758E-06
   69.68651        4.9597393E-06
   69.82942        6.5094232E-06
   69.97233        8.3809728E-06
   70.11524        1.0611645E-05
   70.25816        1.3238587E-05
   70.40107        1.6298174E-05
   70.54398        1.9825302E-05
   70.68689        2.3852659E-05
   70.82980        2.8410002E-05
   70.97272        3.3523418E-05
   71.11562        3.9214643E-05
   71.25854        4.5500416E-05
   71.40145        5.2391897E-05
   71.54436        5.9894192E-05
   71.68727        6.8005924E-05
   71.83018        7.6718985E-05
   71.97310        8.6018386E-05
   72.11600        9.5882206E-05
   72.25892        1.0628172E-04
   72.40183        1.1718168E-04
   72.54475        1.2854068E-04
   72.68765        1.4031166E-04
   72.83057        1.5244263E-04
   72.97348        1.6487739E-04
   73.11639        1.7755634E-04
   73.25930        1.9041744E-04
   73.40221        2.0339723E-04
   73.54513        2.1643173E-04
   73.68803        2.2945752E-04
   73.83095        2.4241276E-04
   73.97386        2.5523797E-04
   74.11678        2.6787716E-04
   74.25968        2.8027827E-04
   74.40260        2.9239419E-04
   74.54551        3.0418302E-04
   74.68842        3.1560863E-04
   74.83133        3.2664090E-04
   74.97424        3.3725574E-04
   75.11716        3.4743530E-04
   75.26006        3.5716750E-04
   75.40298        3.6644595E-04
   75.54589        3.7526953E-04
   75.68880        3.8364177E-04
   75.83171        3.9157053E-04
   75.97462        3.9906712E-04
   76.11754        4.0614579E-04
   76.26044        4.1282305E-04
   76.40336        4.1911699E-04
   76.54627        4.2504678E-04
   76.68919        4.3063198E-04
   76.83209        4.3589211E-04
   76.97501        4.4084626E-04
   77.11792        4.4551265E-04
   77.26083        4.4990849E-04
   77.40374        4.5404985E-04
   77.54665        4.5795133E-04
   77.68957        4.6162648E-04
   77.83247        4.6508751E-04
   77.97539        4.6834559E-04
   78.11830        4.7141098E-04
   78.26122        4.7429325E-04
   78.40412        4.7700133E-04
   78.54704        4.7954396E-04
   78.68995        4.8192954E-04
   78.83286        4.8416655E-04
   78.97577        4.8626345E-04
   79.11868        4.8822872E-04
   79.26160        4.9007084E-04
   79.40450        4.9179827E-04
   79.54742        4.9341912E-04
   79.69033        4.9494125E-04
   79.83324        4.9637165E-04
   79.97615        4.9771648E-04
   80.11906        4.9898057E-04
   80.26198        5.0016731E-04
   80.40488        5.0127815E-04
   80.54780        5.0231256E-04
   80.69071        5.0326774E-04
   80.83363        5.0413836E-04
   80.97653        5.0491671E-04
   81.11945        5.0559238E-04
   81.26236        5.0615275E-04
   81.40527        5.0658244E-04
   81.54818        5.0686422E-04
   81.69109        5.0697889E-04
   81.83401        5.0690572E-04
   81.97691        5.0662266E-04
   82.11983        5.0610711E-04
   82.26274        5.0533592E-04
   82.40565        5.0428609E-04
   82.54856        5.0293509E-04
   82.69147        5.0126127E-04
   82.83439        4.9924414E-04
   82.97730        4.9686461E-04
   83.12021        4.9410522E-04
   83.26312        4.9095019E-04
   83.40604        4.8738555E-04
   83.54894        4.8339897E-04
   83.69186        4.7897964E-04
   83.83477        4.7411790E-04
   83.97768        4.6880535E-04
   84.12059        4.6303406E-04
   84.26350        4.5679655E-04
   84.40642        4.5008535E-04
   84.54933        4.4289255E-04
   84.69224        4.3520969E-04
   84.83515        4.2702755E-04
   84.97807        4.1833593E-04
   85.12097        4.0912366E-04
   85.26389        3.9937883E-04
   85.40680        3.8908876E-04
   85.54971        3.7824054E-04
   85.69262        3.6682151E-04
   85.83553        3.5481970E-04
   85.97845        3.4222472E-04
   86.12135        3.2902838E-04
   86.26427        3.1522557E-04
   86.40718        3.0081501E-04
   86.55009        2.8580028E-04
   86.69300        2.7019045E-04
   86.83591        2.5400086E-04
   86.97883        2.3725370E-04
   87.12174        2.1997849E-04
   87.26465        2.0221244E-04
   87.40756        1.8400044E-04
   87.55048        1.6539509E-04
   87.69338        1.4645637E-04
   87.83630        1.2725104E-04
   87.97921        1.0785209E-04
   88.12212        8.8337714E-05
   88.26503        6.8790294E-05
   88.40794        4.9295220E-05
   88.55086        2.9939574E-05
   88.69377        1.0810750E-05
   88.83668       -8.0049413E-06
   88.97959       -2.6423642E-05
   89.12251       -4.4365272E-05
   89.26541       -6.1754756E-05
   89.40833       -7.8523139E-05
   89.55124       -9.4608535E-05
   89.69415       -1.0995687E-04
   89.83706       -1.2452244E-04
   89.97997       -1.3826824E-04
   90.12289       -1.5116611E-04
   90.26580       -1.6319663E-04
   90.40871       -1.7434880E-04
   90.55162       -1.8461952E-04
   90.69453       -1.9401300E-04
   90.83744       -2.0253989E-04
   90.98035       -2.1021637E-04
   91.12327       -2.1706321E-04
   91.26618       -2.2310471E-04
   91.40909       -2.2836772E-04
   91.55200       -2.3288059E-04
   91.69492       -2.3667232E-04
   91.83783       -2.3977175E-04
   91.98074       -2.4220675E-04
   92.12365       -2.4400384E-04
   92.26656       -2.4518761E-04
   92.40947       -2.4578051E-04
   92.55238       -2.4580286E-04
   92.69530       -2.4527268E-04
   92.83821       -2.4420599E-04
   92.98112       -2.4261704E-04
   93.12403       -2.4051867E-04
   93.26694       -2.3792266E-04
   93.40986       -2.3484026E-04
   93.55276       -2.3128257E-04
   93.69568       -2.2726094E-04
   93.83859       -2.2278738E-04
   93.98150       -2.1787485E-04
   94.12441       -2.1253747E-04
   94.26733       -2.0679068E-04
   94.41024       -2.0065121E-04
   94.55315       -1.9413710E-04
   94.69606       -1.8726751E-04
   94.83897       -1.8006249E-04
   94.98188       -1.7254271E-04
   95.12479       -1.6472916E-04
   95.26771       -1.5664275E-04
   95.41062       -1.4830401E-04
   95.55353       -1.3973280E-04
   95.69644       -1.3094804E-04
   95.83936       -1.2196753E-04
   95.98227       -1.1280787E-04
   96.12518       -1.0348448E-04
   96.26809       -9.4011768E-05
   96.41100       -8.4403320E-05
   96.55391       -7.4672309E-05
   96.69682       -6.4831875E-05
   96.83974       -5.4895736E-05
   96.98265       -4.4878678E-05
   97.12556       -3.4797180E-05
   97.26847       -2.4670000E-05
   97.41138       -1.4518688E-05
   97.55430       -4.3680539E-06
   97.69720        5.7534967E-06
   97.84012        1.5813752E-05
   97.98303        2.5776644E-05
   98.12594        3.5602363E-05
   98.26885        4.5247663E-05
   98.41177        5.4666321E-05
   98.55468        6.3809777E-05
   98.69759        7.2627918E-05
   98.84050        8.1070000E-05
   98.98341        8.9085603E-05
   99.12633        9.6625750E-05
   99.26923        1.0364395E-04
   99.41215        1.1009727E-04
   99.55506        1.1594735E-04
   99.69797        1.2116129E-04
   99.84088        1.2571248E-04
   99.98380        1.2958115E-04
   100.1267        1.3275493E-04
   100.2696        1.3522898E-04
   100.4125        1.3700614E-04
   100.5554        1.3809673E-04
   100.6984        1.3851828E-04
   100.8413        1.3829491E-04
   100.9842        1.3745682E-04
   101.1271        1.3603944E-04
   101.2700        1.3408260E-04
   101.4129        1.3162965E-04
   101.5558        1.2872665E-04
   101.6987        1.2542139E-04
   101.8416        1.2176270E-04
   101.9846        1.1779977E-04
   102.1275        1.1358149E-04
   102.2704        1.0915606E-04
   102.4133        1.0457065E-04
   102.5562        9.9871198E-05
   102.6991        9.5102310E-05
   102.8420        9.0307236E-05
   102.9849        8.5528001E-05
   103.1279        8.0805454E-05
   103.2708        7.6179444E-05
   103.4137        7.1688897E-05
   103.5566        6.7371933E-05
   103.6995        6.3265841E-05
   103.8424        5.9407022E-05
   103.9853        5.5830798E-05
   104.1282        5.2571155E-05
   104.2711        4.9660350E-05
   104.4141        4.7128411E-05
   104.5570        4.5002605E-05
   104.6999        4.3306751E-05
   104.8428        4.2060579E-05
   104.9857        4.1279043E-05
   105.1286        4.0971656E-05
   105.2715        4.1141906E-05
   105.4144        4.1786767E-05
   105.5574        4.2896350E-05
   105.7003        4.4453751E-05
   105.8432        4.6435038E-05
   105.9861        4.8809517E-05
   106.1290        5.1540173E-05
   106.2719        5.4584390E-05
   106.4148        5.7894802E-05
   106.5577        6.1420418E-05
   106.7006        6.5107844E-05
   106.8436        6.8902635E-05
   106.9865        7.2750707E-05
   107.1294        7.6599790E-05
   107.2723        8.0400765E-05
   107.4152        8.4108971E-05
   107.5581        8.7685323E-05
   107.7010        9.1097238E-05
   107.8439        9.4319352E-05
   107.9869        9.7333897E-05
   108.1298        1.0013088E-04
   108.2727        1.0270796E-04
   108.4156        1.0506993E-04
   108.5585        1.0722812E-04
   108.7014        1.0919943E-04
   108.8443        1.1100517E-04
   108.9872        1.1266986E-04
   109.1301        1.1421977E-04
   109.2731        1.1568155E-04
   109.4160        1.1708082E-04
   109.5589        1.1844089E-04
   109.7018        1.1978150E-04
   109.8447        1.2111788E-04
   109.9876        1.2245994E-04
   110.1305        1.2381175E-04
   110.2734        1.2517130E-04
   110.4164        1.2653050E-04
   110.5593        1.2787549E-04
   110.7022        1.2918728E-04
   110.8451        1.3044239E-04
   110.9880        1.3161403E-04
   111.1309        1.3267303E-04
   111.2738        1.3358919E-04
   111.4167        1.3433245E-04
   111.5596        1.3487421E-04
   111.7026        1.3518833E-04
   111.8455        1.3525231E-04
   111.9884        1.3504805E-04
   112.1313        1.3456243E-04
   112.2742        1.3378795E-04
   112.4171        1.3272265E-04
   112.5600        1.3137022E-04
   112.7029        1.2973971E-04
   112.8458        1.2784489E-04
   112.9888        1.2570378E-04
   113.1317        1.2333773E-04
   113.2746        1.2077059E-04
   113.4175        1.1802783E-04
   113.5604        1.1513558E-04
   113.7033        1.1211987E-04
   113.8462        1.0900583E-04
   113.9891        1.0581717E-04
   114.1321        1.0257575E-04
   114.2750        9.9301367E-05
   114.4179        9.6011674E-05
   114.5608        9.2722345E-05
   114.7037        8.9447385E-05
   114.8466        8.6199558E-05
   114.9895        8.2990933E-05
   115.1324        7.9833495E-05
   115.2754        7.6739758E-05
   115.4183        7.3723335E-05
   115.5612        7.0799535E-05
   115.7041        6.7985711E-05
   115.8470        6.5301574E-05
   115.9899        6.2769337E-05
   116.1328        6.0413629E-05
   116.2757        5.8261267E-05
   116.4186        5.6340879E-05
   116.5616        5.4682296E-05
   116.7045        5.3315885E-05
   116.8474        5.2271742E-05
   116.9903        5.1578798E-05
   117.1332        5.1263924E-05
   117.2761        5.1351115E-05
   117.4190        5.1860643E-05
   117.5619        5.2808282E-05
   117.7048        5.4204800E-05
   117.8478        5.6055484E-05
   117.9907        5.8359874E-05
   118.1336        6.1111663E-05
   118.2765        6.4298845E-05
   118.4194        6.7903842E-05
   118.5623        7.1903996E-05
   118.7052        7.6272067E-05
   118.8481        8.0976737E-05
   118.9911        8.5983331E-05
   119.1340        9.1254304E-05
   119.2769        9.6749915E-05
   119.4198        1.0242873E-04
   119.5627        1.0824791E-04
   119.7056        1.1416350E-04
   119.8485        1.2013051E-04
   119.9914        1.2610290E-04
   120.1343        1.3203316E-04
   120.2773        1.3787214E-04
   120.4202        1.4356850E-04
   120.5631        1.4906825E-04
   120.7060        1.5431423E-04
   120.8489        1.5924561E-04
   120.9918        1.6379771E-04
   121.1347        1.6790177E-04
   121.2776        1.7148504E-04
   121.4206        1.7447125E-04
   121.5635        1.7678134E-04
   121.7064        1.7833438E-04
   121.8493        1.7904898E-04
   121.9922        1.7884493E-04
   122.1351        1.7764514E-04
   122.2780        1.7537767E-04
   122.4209        1.7197803E-04
   122.5639        1.6739129E-04