  -7.200000       -1.7506905E-18
  -7.057088       -1.7545849E-18
  -6.914176       -1.7621699E-18
  -6.771265       -1.7731274E-18
  -6.628353       -1.7870373E-18
  -6.485441       -1.8033941E-18
  -6.342530       -1.8216265E-18
  -6.199618       -1.8411206E-18
  -6.056706       -1.8612436E-18
  -5.913795       -1.8813669E-18
  -5.770883       -1.9008904E-18
  -5.627971       -1.9192666E-18
  -5.485059       -1.9360193E-18
  -5.342147       -1.9507622E-18
  -5.199236       -1.9632119E-18
  -5.056324       -1.9731982E-18
  -4.913413       -1.9806666E-18
  -4.770501       -1.9856731E-18
  -4.627589       -1.9883821E-18
  -4.484677       -1.9890519E-18
  -4.341765       -1.9880204E-18
  -4.198854       -1.9856901E-18
  -4.055942       -1.9825058E-18
  -3.913030       -1.9789401E-18
  -3.770118       -1.9754692E-18
  -3.627207       -1.9725536E-18
  -3.484295       -1.9706168E-18
  -3.341383       -1.9700253E-18
  -3.198472       -1.9710688E-18
  -3.055560       -1.9739443E-18
  -2.912648       -1.9787444E-18
  -2.769737       -1.9854496E-18
  -2.626825       -1.9939309E-18
  -2.483913       -2.0039526E-18
  -2.341001       -2.0151908E-18
  -2.198090       -2.0272458E-18
  -2.055178       -2.0396682E-18
  -1.912266       -2.0519812E-18
  -1.769354       -2.0637052E-18
  -1.626443       -2.0743820E-18
  -1.483531       -2.0835964E-18
  -1.340619       -2.0909914E-18
  -1.197708       -2.0962825E-18
  -1.054796       -2.0992690E-18
 -0.9118841       -2.0998404E-18
 -0.7689723       -2.0979765E-18
 -0.6260606       -2.0937501E-18
 -0.4831489       -2.0873227E-18
 -0.3402372       -2.0789437E-18
 -0.1973254       -2.0689402E-18
 -5.4413714E-02   -2.0577119E-18
  8.8498011E-02   -2.0457198E-18
  0.2314097       -2.0334720E-18
  0.3743215       -2.0215045E-18
  0.5172332       -2.0103630E-18
  0.6601449       -2.0005754E-18
  0.8030567       -1.9926249E-18
  0.9459684       -1.9869246E-18
   1.088880       -1.9837923E-18
   1.231792       -1.9834273E-18
   1.374704       -1.9859014E-18
   1.517615       -1.9911493E-18
   1.660527       -1.9989750E-18
   1.803439       -2.0090652E-18
   1.946350       -2.0210090E-18
   2.089262       -2.0343242E-18
   2.232174       -2.0484874E-18
   2.375086       -2.0629624E-18
   2.517997       -2.0772259E-18
   2.660909       -2.0907910E-18
   2.803821       -2.1032242E-18
   2.946733       -2.1141552E-18
   3.089644       -2.1232843E-18
   3.232556       -2.1303857E-18
   3.375468       -2.1353078E-18
   3.518379       -2.1379744E-18
   3.661291       -2.1383849E-18
   3.804203       -2.1366164E-18
   3.947115       -2.1328263E-18
   4.090026       -2.1272515E-18
   4.232938       -2.1202095E-18
   4.375850       -2.1120938E-18
   4.518762       -2.1033635E-18
   4.661673       -2.0945272E-18
   4.804585       -2.0861189E-18
   4.947497       -2.0786749E-18
   5.090408       -2.0726989E-18
   5.233320       -2.0686350E-18
   5.376232       -2.0668338E-18
   5.519144       -2.0675305E-18
   5.662055       -2.0708276E-18
   5.804967       -2.0766866E-18
   5.947879       -2.0849298E-18
   6.090790       -2.0952530E-18
   6.233702       -2.1072455E-18
   6.376614       -2.1204155E-18
   6.519526       -2.1342213E-18
   6.662437       -2.1481012E-18
   6.805349       -2.1615038E-18
   6.948261       -2.1739111E-18
   7.091173       -2.1848619E-18
   7.234084       -2.1939673E-18
   7.376996       -2.2009268E-18
   7.519908       -2.2055342E-18
   7.662819       -2.2076923E-18
   7.805731       -2.2074146E-18
   7.948643       -2.2048313E-18
   8.091555       -2.2001830E-18
   8.234467       -2.1938106E-18
   8.377378       -2.1861337E-18
   8.520289       -2.1776162E-18
   8.663201       -2.1687249E-18
   8.806113       -2.1598846E-18
   8.949025       -2.1514380E-18
   9.091937       -2.1436218E-18
   9.234848       -2.1365666E-18
   9.377760       -2.1303265E-18
   9.520672       -2.1249387E-18
   9.663584       -2.1205015E-18
   9.806496       -2.1172614E-18
   9.949407       -2.1156724E-18
   10.09232       -2.1164134E-18
   10.23523       -2.1203321E-18
   10.37814       -2.1283072E-18
   10.52105       -2.1410321E-18
   10.66397       -2.1587594E-18
   10.80688       -2.1810433E-18
   10.94979       -2.2065593E-18
   11.09270       -2.2330640E-18
   11.23561       -2.2575554E-18
   11.37852       -2.2766608E-18
   11.52144       -2.2872193E-18
   11.66435       -2.2869916E-18
   11.80726       -2.2753476E-18
   11.95017       -2.2537743E-18
   12.09308       -2.2260295E-18
   12.23599       -2.1978034E-18
   12.37891       -2.1758496E-18
   12.52182       -2.1666526E-18
   12.66473       -2.1748305E-18
   12.80764       -2.2015937E-18
   12.95055       -2.2436490E-18
   13.09346       -2.2929232E-18
   13.23638       -2.3373738E-18
   13.37929       -2.3629649E-18
   13.52220       -2.3566080E-18
   13.66511       -2.3095954E-18
   13.80802       -2.2208209E-18
   13.95094       -2.0989801E-18
   14.09385       -1.9629891E-18
   14.23676       -1.8401414E-18
   14.37967       -1.7619609E-18
   14.52258       -1.7582222E-18
   14.66549       -1.8501758E-18
   14.80841       -2.0443498E-18
   14.95132       -2.3284293E-18
   15.09423       -2.6704405E-18
   15.23714       -3.0218637E-18
   15.38005       -3.3244321E-18
   15.52296       -3.5194521E-18
   15.66588       -3.5577129E-18
   15.80879       -3.4077548E-18
   15.95170       -3.0605292E-18
   16.09461       -2.5294106E-18
   16.23752       -1.8459030E-18
   16.38043       -1.0529185E-18
   16.52335       -1.9867918E-19
   16.66626        6.6535668E-19
   16.80917        1.4800072E-18
   16.95208        2.1669495E-18
   17.09499        2.6131581E-18
   17.23791        2.6574025E-18
   17.38082        2.0876314E-18
   17.52373        6.5870951E-19
   17.66664       -1.8623070E-18
   17.80955       -5.6218875E-18
   17.95246       -1.0583908E-17
   18.09538       -1.6429003E-17
   18.23829       -2.2476034E-17
   18.38120       -2.7657795E-17
   18.52411       -3.0581926E-17
   18.66702       -2.9698189E-17
   18.80993       -2.3574361E-17
   18.95285       -1.1256773E-17
   19.09576        7.3373642E-18
   19.23867        3.1074671E-17
   19.38158        5.7401213E-17
   19.52449        8.2370923E-17
   19.66740        1.0097480E-16
   19.81032        1.0779260E-16
   19.95323        9.7925406E-17
   20.09614        6.8095070E-17
   20.23905        1.7731844E-17
   20.38196       -5.0172743E-17
   20.52488       -1.2867762E-16
   20.66779       -2.0715848E-16
   20.81070       -2.7233144E-16
   20.95361       -3.1000953E-16
   21.09652       -3.0741825E-16
   21.23943       -2.5575368E-16
   21.38235       -1.5255707E-16
   21.52526       -3.4359817E-18
   21.66817        1.7730021E-16
   21.81108        3.6739519E-16
   21.95399        5.3889305E-16
   22.09690        6.6172406E-16
   22.23981        7.0821764E-16
   22.38273        6.5791161E-16
   22.52564        5.0189524E-16
   22.66855        2.4591505E-16
   22.81146       -8.8410017E-17
   22.95437       -4.6466639E-16
   23.09729       -8.3509349E-16
   23.24020       -1.1461088E-15
   23.38311       -1.3452850E-15
   23.52602       -1.3888871E-15
   23.66893       -1.2489674E-15
   23.81184       -9.1901338E-16
   23.95476       -4.1730137E-16
   24.09767        2.1262675E-16
   24.24058        9.0463320E-16
   24.38349        1.5757242E-15
   24.52640        2.1344633E-15
   24.66932        2.4913835E-15
   24.81223        2.5704864E-15
   24.95514        2.3207265E-15
   25.09805        1.7262185E-15
   25.24096        8.1380877E-16
   25.38387       -3.4338732E-16
   25.52678       -1.6277622E-15
   25.66970       -2.8852623E-15
   25.81261       -3.9400843E-15
   25.95552       -4.6155046E-15
   26.09843       -4.7592253E-15
   26.24134       -4.2703606E-15
   26.38426       -3.1241190E-15
   26.52717       -1.3894756E-15
   26.67008        7.6481231E-16
   26.81299        3.0796238E-15
   26.95590        5.2321107E-15
   27.09881        6.8785259E-15
   27.24173        7.7088079E-15
   27.38464        7.5052167E-15
   27.52755        6.1947200E-15
   27.67046        3.8839125E-15
   27.81337        8.6627918E-16
   27.95629       -2.4048970E-15
   28.09920       -5.3791026E-15
   28.24211       -7.5008164E-15
   28.38502       -8.3183260E-15
   28.52793       -7.5902368E-15
   28.67084       -5.3676025E-15
   28.81376       -2.0304335E-15
   28.95667        1.7372077E-15
   29.09958        5.0397897E-15
   29.24249        6.9241102E-15
   29.38540        6.5743123E-15
   29.52831        3.5162135E-15
   29.67122       -2.2084559E-15
   29.81414       -9.9382011E-15
   29.95705       -1.8391648E-14
   30.09996       -2.5790027E-14
   30.24287       -3.0100586E-14
   30.38578       -2.9376143E-14
   30.52870       -2.2144153E-14
   30.67161       -7.7825506E-15
   30.81452        1.3187120E-14
   30.95743        3.8953666E-14
   31.10034        6.6464514E-14
   31.24325        9.1688098E-14
   31.38617        1.1007661E-13
   31.52908        1.1718060E-13
   31.67199        1.0933797E-13
   31.81490        8.4340473E-14
   31.95781        4.1976530E-14
   32.10072       -1.5640126E-14
   32.24364       -8.4020959E-14
   32.38655       -1.5656179E-13
   32.52946       -2.2509898E-13
   32.67237       -2.8071211E-13
   32.81528       -3.1468992E-13
   32.95819       -3.1955623E-13
   33.10111       -2.9004495E-13
   33.24402       -2.2391950E-13
   33.38693       -1.2254759E-13
   33.52984        8.8333830E-15
   33.67275        1.6120068E-13
   33.81567        3.2219399E-13
   33.95858        4.7691723E-13
   34.10149        6.0906304E-13
   34.24440        7.0230356E-13
   34.38731        7.4186994E-13
   34.53022        7.1621127E-13
   34.67313        6.1859431E-13
   34.81605        4.4847939E-13
   34.95896        2.1248410E-13
   35.10187       -7.5249926E-14
   35.24478       -3.9345027E-13
   35.38770       -7.1497029E-13
   35.53061       -1.0089222E-12
   35.67352       -1.2435820E-12
   35.81643       -1.3898287E-12
   35.95934       -1.4247586E-12
   36.10225       -1.3350186E-12
   36.24516       -1.1193648E-12
   36.38808       -7.8999036E-13
   36.53099       -3.7227038E-13
   36.67390        9.7229570E-14
   36.81681        5.7440099E-13
   36.95972        1.0125532E-12
   37.10263        1.3681015E-12
   37.24555        1.6062307E-12
   37.38846        1.7057091E-12
   37.53137        1.6620839E-12
   37.67428        1.4886747E-12
   37.81719        1.2150812E-12
   37.96011        8.8327566E-13
   38.10302        5.4173300E-13
   38.24593        2.3837383E-13
   38.38884        1.3318266E-14
   38.53175       -1.0748392E-13
   38.67466       -1.1676975E-13
   38.81758       -2.7900616E-14
   38.96049        1.2614345E-13
   39.10340        2.9664685E-13
   39.24631        4.2544326E-13
   39.38922        4.5279085E-13
   39.53214        3.2580657E-13
   39.67505        6.3858136E-15
   39.81796       -5.2237208E-13
   39.96087       -1.2519737E-12
   40.10378       -2.1470109E-12
   40.24669       -3.1464126E-12
   40.38961       -4.1672612E-12
   40.53252       -5.1107590E-12
   40.67543       -5.8697808E-12
   40.81834       -6.3374314E-12
   40.96125       -6.4160244E-12
   41.10416       -6.0259710E-12
   41.24707       -5.1141001E-12
   41.38999       -3.6609132E-12
   41.53290       -1.6862674E-12
   41.67581        7.4711049E-13
   41.81872        3.5328962E-12
   41.96163        6.5238314E-12
   42.10455        9.5382166E-12
   42.24746        1.2370378E-11
   42.39037        1.4804807E-11
   42.53328        1.6633127E-11
   42.67619        1.7672492E-11
   42.81910        1.7783502E-11
   42.96202        1.6885529E-11
   43.10493        1.4967276E-11
   43.24784        1.2090840E-11
   43.39075        8.3881894E-12
   43.53366        4.0499856E-12
   43.67657       -6.9229198E-13
   43.81948       -5.5888545E-12
   43.96240       -1.0395926E-11
   44.10531       -1.4898581E-11
   44.24822       -1.8928924E-11
   44.39113       -2.2376951E-11
   44.53405       -2.5192463E-11
   44.67696       -2.7377775E-11
   44.81987       -2.8972201E-11
   44.96278       -3.0030686E-11
   45.10569       -3.0599846E-11
   45.24860       -3.0694964E-11
   45.39151       -3.0281628E-11
   45.53443       -2.9264782E-11
   45.67734       -2.7487228E-11
   45.82025       -2.4738264E-11
   45.96316       -2.0771954E-11
   46.10608       -1.5333549E-11
   46.24899       -8.1918283E-12
   46.39190        8.2534007E-13
   46.53481        1.1794929E-11
   46.67772        2.4664859E-11
   46.82063        3.9224755E-11
   46.96354        5.5083705E-11
   47.10646        7.1657381E-11
   47.24937        8.8166842E-11
   47.39228        1.0365146E-10
   47.53519        1.1699806E-10
   47.67810        1.2698835E-10
   47.82101        1.3236486E-10
   47.96392        1.3191487E-10
   48.10684        1.2456908E-10
   48.24975        1.0950948E-10
   48.39266        8.6278366E-11
   48.53557        5.4878171E-11
   48.67849        1.5851100E-11
   48.82140       -2.9673347E-11
   48.96431       -7.9972584E-11
   49.10722       -1.3277411E-10
   49.25013       -1.8535007E-10
   49.39304       -2.3466104E-10
   49.53595       -2.7754093E-10
   49.67887       -3.1091019E-10
   49.82178       -3.3200026E-10
   49.96469       -3.3857020E-10
   50.10760       -3.2909644E-10
   50.25051       -3.0291708E-10
   50.39342       -2.6031791E-10
   50.53634       -2.0255095E-10
   50.67925       -1.3178320E-10
   50.82216       -5.0979148E-11
   50.96507        3.6273446E-11
   51.10798        1.2598027E-10
   51.25090        2.1398232E-10
   51.39381        2.9620428E-10
   51.53672        3.6889081E-10
   51.67963        4.2881332E-10
   51.82254        4.7343440E-10
   51.96545        5.0101867E-10
   52.10837        5.1068538E-10
   52.25128        5.0240168E-10
   52.39419        4.7692028E-10
   52.53710        4.3566895E-10
   52.68001        3.8060449E-10
   52.82293        3.1404404E-10
   52.96584        2.3849020E-10
   53.10875        1.5646547E-10
   53.25166        7.0371306E-11
   53.39457       -1.7617272E-11
   53.53748       -1.0561207E-10
   53.68040       -1.9202466E-10
   53.82331       -2.7553382E-10
   53.96622       -3.5501424E-10
   54.10913       -4.2943912E-10
   54.25204       -4.9777077E-10
   54.39495       -5.5885635E-10
   54.53786       -6.1134403E-10
   54.68078       -6.5363359E-10
   54.82369       -6.8387024E-10
   54.96660       -6.9998607E-10
   55.10951       -6.9978895E-10
   55.25242       -6.8109102E-10
   55.39534       -6.4186817E-10
   55.53825       -5.8043692E-10
   55.68116       -4.9563476E-10
   55.82407       -3.8699013E-10
   55.96698       -2.5487046E-10
   56.10989       -1.0059761E-10
   56.25281        7.3476045E-11
   56.39572        2.6393684E-10
   56.53863        4.6632598E-10
   56.68154        6.7520578E-10
   56.82445        8.8427415E-10
   56.96737        1.0865269E-09
   57.11028        1.2744646E-09
   57.25319        1.4403386E-09
   57.39610        1.5764293E-09
   57.53901        1.6753470E-09
   57.68192        1.7303438E-09
   57.82484        1.7356226E-09
   57.96775        1.6866295E-09
   58.11066        1.5803158E-09
   58.25357        1.4153604E-09
   58.39648        1.1923419E-09
   58.53939        9.1385721E-10
   58.68230        5.8458727E-10
   58.82522        2.1130987E-10
   58.96813       -1.9713399E-10
   59.11104       -6.2991790E-10
   59.25395       -1.0743499E-09
   59.39687       -1.5160359E-09
   59.53978       -1.9390947E-09
   59.68269       -2.3264384E-09
   59.82560       -2.6601328E-09
   59.96851       -2.9218639E-09
   60.11142       -3.0935301E-09
   60.25433       -3.1579859E-09
   60.39725       -3.0999499E-09
   60.54016       -2.9070981E-09
   60.68307       -2.5713305E-09
   60.82598       -2.0902085E-09
   60.96889       -1.4685312E-09
   61.11180       -7.1999828E-10
   61.25471        1.3110181E-10
   61.39763        1.0482757E-09
   61.54054        1.9813824E-09
   61.68345        2.8654996E-09
   61.82636        3.6202414E-09
   61.96928        4.1496548E-09
   62.11219        4.3428643E-09
   62.25510        4.0755697E-09
   62.39801        3.2124940E-09
   62.54092        1.6108083E-09
   62.68383       -8.7543250E-10
   62.82674       -4.3899901E-09
   62.96966       -9.0684198E-09
   63.11257       -1.5031546E-08
   63.25548       -2.2378819E-08
   63.39839       -3.1181944E-08
   63.54131       -4.1479190E-08
   63.68422       -5.3271048E-08
   63.82713       -6.6517600E-08
   63.97004       -8.1138289E-08
   64.11295       -9.7014571E-08
   64.25586       -1.1399588E-07
   64.39877       -1.3190930E-07
   64.54169       -1.5057343E-07
   64.68460       -1.6981613E-07
   64.82751       -1.8949677E-07
   64.97042       -2.0953189E-07
   65.11333       -2.2992428E-07
   65.25625       -2.5079478E-07
   65.39915       -2.7241526E-07
   65.54207       -2.9524151E-07
   65.68498       -3.1994472E-07
   65.82789       -3.4743906E-07
   65.97080       -3.7890362E-07
   66.11372       -4.1579619E-07
   66.25663       -4.5985666E-07
   66.39954       -5.1309848E-07
   66.54245       -5.7778453E-07
   66.68536       -6.5638693E-07
   66.82828       -7.5153031E-07
   66.97118       -8.6591530E-07
   67.11410       -1.0022239E-06
   67.25701       -1.1630079E-06
   67.39992       -1.3505587E-06
   67.54283       -1.5667645E-06
   67.68575       -1.8129538E-06
   67.82866       -2.0897332E-06
   67.97157       -2.3968189E-06
   68.11448       -2.7328699E-06
   68.25739       -3.0953277E-06
   68.40031       -3.4802688E-06
   68.54321       -3.8822745E-06
   68.68613       -4.2943229E-06
   68.82904       -4.7077156E-06
   68.97195       -5.1120337E-06
   69.11486       -5.4951379E-06
   69.25777       -5.8432115E-06
   69.40069       -6.1408491E-06
   69.54359       -6.3711946E-06
   69.68651       -6.5161244E-06
   69.82942       -6.5564836E-06
   69.97233       -6.4723586E-06
   70.11524       -6.2433951E-06
   70.25816       -5.8491437E-06
   70.40107       -5.2694390E-06
   70.54398       -4.4847925E-06
   70.68689       -3.4767825E-06
   70.82980       -2.2284669E-06
   70.97272       -7.2475507E-07
   71.11562        1.0472248E-06
   71.25854        3.0978053E-06
   71.40145        5.4344810E-06
   71.54436        8.0616910E-06
   71.68727        1.0980630E-05
   71.83018        1.4189151E-05
   71.97310        1.7681708E-05
   72.11600        2.1449398E-05
   72.25892        2.5480023E-05
   72.40183        2.9758296E-05
   72.54475        3.4266006E-05
   72.68765        3.8982344E-05
   72.83057        4.3884196E-05
   72.97348        4.8946524E-05
   73.11639        5.4142740E-05
   73.25930        5.9445134E-05
   73.40221        6.4825246E-05
   73.54513        7.0254326E-05
   73.68803        7.5703734E-05
   73.83095        8.1145256E-05
   73.97386        8.6551503E-05
   74.11678        9.1896174E-05
   74.25968        9.7154320E-05
   74.40260        1.0230256E-04
   74.54551        1.0731923E-04
   74.68842        1.1218447E-04
   74.83133        1.1688030E-04
   74.97424        1.2139061E-04
   75.11716        1.2570115E-04
   75.26006        1.2979936E-04
   75.40298        1.3367443E-04
   75.54589        1.3731708E-04
   75.68880        1.4071945E-04
   75.83171        1.4387499E-04
   75.97462        1.4677833E-04
   76.11754        1.4942515E-04
   76.26044        1.5181213E-04
   76.40336        1.5393687E-04
   76.54627        1.5579790E-04
   76.68919        1.5739461E-04
   76.83209        1.5872734E-04
   76.97501        1.5979740E-04
   77.11792        1.6060715E-04
   77.26083        1.6116010E-04
   77.40374        1.6146105E-04
   77.54665        1.6151615E-04
   77.68957        1.6133301E-04
   77.83247        1.6092088E-04
   77.97539        1.6029061E-04
   78.11830        1.5945481E-04
   78.26122        1.5842776E-04
   78.40412        1.5722550E-04
   78.54704        1.5586567E-04
   78.68995        1.5436744E-04
   78.83286        1.5275134E-04
   78.97577        1.5103903E-04
   79.11868        1.4925304E-04
   79.26160        1.4741647E-04
   79.40450        1.4555268E-04
   79.54742        1.4368483E-04
   79.69033        1.4183554E-04
   79.83324        1.4002647E-04
   79.97615        1.3827789E-04
   80.11906        1.3660821E-04
   80.26198        1.3503370E-04
   80.40488        1.3356798E-04
   80.54780        1.3222176E-04
   80.69071        1.3100255E-04
   80.83363        1.2991448E-04
   80.97653        1.2895803E-04
   81.11945        1.2813005E-04
   81.26236        1.2742370E-04
   81.40527        1.2682859E-04
   81.54818        1.2633082E-04
   81.69109        1.2591334E-04
   81.83401        1.2555615E-04
   81.97691        1.2523675E-04
   82.11983        1.2493046E-04
   82.26274        1.2461089E-04
   82.40565        1.2425048E-04
   82.54856        1.2382097E-04
   82.69147        1.2329381E-04
   82.83439        1.2264079E-04
   82.97730        1.2183435E-04
   83.12021        1.2084811E-04
   83.26312        1.1965710E-04
   83.40604        1.1823820E-04
   83.54894        1.1657037E-04
   83.69186        1.1463479E-04
   83.83477        1.1241502E-04
   83.97768        1.0989709E-04
   84.12059        1.0706945E-04
   84.26350        1.0392295E-04
   84.40642        1.0045079E-04
   84.54933        9.6648306E-05
   84.69224        9.2512877E-05
   84.83515        8.8043715E-05
   84.97807        8.3241692E-05
   85.12097        7.8109180E-05
   85.26389        7.2649840E-05
   85.40680        6.6868561E-05
   85.54971        6.0771294E-05
   85.69262        5.4365031E-05
   85.83553        4.7657802E-05
   85.97845        4.0658695E-05
   86.12135        3.3377957E-05
   86.26427        2.5827139E-05
   86.40718        1.8019267E-05
   86.55009        9.9690524E-06
   86.69300        1.6931201E-06
   86.83591       -6.7897304E-06
   86.97883       -1.5458319E-05
   87.12174       -2.4288855E-05
   87.26465       -3.3254753E-05
   87.40756       -4.2326556E-05
   87.55048       -5.1471863E-05
   87.69338       -6.0655359E-05
   87.83630       -6.9838934E-05
   87.97921       -7.8981975E-05
   88.12212       -8.8041670E-05
   88.26503       -9.6973417E-05
   88.40794       -1.0573141E-04
   88.55086       -1.1426930E-04
   88.69377       -1.2254086E-04
   88.83668       -1.3050076E-04
   88.97959       -1.3810545E-04
   89.12251       -1.4531394E-04
   89.26541       -1.5208866E-04
   89.40833       -1.5839616E-04
   89.55124       -1.6420797E-04
   89.69415       -1.6950109E-04
   89.83706       -1.7425860E-04
   89.97997       -1.7847001E-04
   90.12289       -1.8213144E-04
   90.26580       -1.8524571E-04
   90.40871       -1.8782222E-04
   90.55162       -1.8987665E-04
   90.69453       -1.9143044E-04
   90.83744       -1.9251026E-04
   90.98035       -1.9314713E-04
   91.12327       -1.9337561E-04
   91.26618       -1.9323273E-04
   91.40909       -1.9275698E-04
   91.55200       -1.9198727E-04
   91.69492       -1.9096177E-04
   91.83783       -1.8971687E-04
   91.98074       -1.8828620E-04
   92.12365       -1.8669978E-04
   92.26656       -1.8498319E-04
   92.40947       -1.8315706E-04
   92.55238       -1.8123649E-04
   92.69530       -1.7923098E-04
   92.83821       -1.7714419E-04
   92.98112       -1.7497422E-04
   93.12403       -1.7271387E-04
   93.26694       -1.7035121E-04
   93.40986       -1.6787020E-04
   93.55276       -1.6525155E-04
   93.69568       -1.6247368E-04
   93.83859       -1.5951370E-04
   93.98150       -1.5634859E-04
   94.12441       -1.5295617E-04
   94.26733       -1.4931637E-04
   94.41024       -1.4541214E-04
   94.55315       -1.4123046E-04
   94.69606       -1.3676322E-04
   94.83897       -1.3200796E-04
   94.98188       -1.2696833E-04
   95.12479       -1.2165462E-04
   95.26771       -1.1608391E-04
   95.41062       -1.1028004E-04
   95.55353       -1.0427349E-04
   95.69644       -9.8101009E-05
   95.83936       -9.1805043E-05
   95.98227       -8.5433028E-05
   96.12518       -7.9036581E-05
   96.26809       -7.2670424E-05
   96.41100       -6.6391425E-05
   96.55391       -6.0257356E-05
   96.69682       -5.4325807E-05
   96.83974       -4.8652924E-05
   96.98265       -4.3292319E-05
   97.12556       -3.8293951E-05
   97.26847       -3.3703123E-05
   97.41138       -2.9559618E-05
   97.55430       -2.5896892E-05
   97.69720       -2.2741508E-05
   97.84012       -2.0112666E-05
   97.98303       -1.8021925E-05
   98.12594       -1.6473083E-05
   98.26885       -1.5462234E-05
   98.41177       -1.4977974E-05
   98.55468       -1.5001758E-05
   98.69759       -1.5508373E-05
   98.84050       -1.6466547E-05
   98.98341       -1.7839639E-05
   99.12633       -1.9586403E-05
   99.26923       -2.1661808E-05
   99.41215       -2.4017882E-05
   99.55506       -2.6604574E-05
   99.69797       -2.9370585E-05
   99.84088       -3.2264204E-05
   99.98380       -3.5234068E-05
   100.1267       -3.8229886E-05
   100.2696       -4.1203057E-05
   100.4125       -4.4107281E-05
   100.5554       -4.6899037E-05
   100.6984       -4.9537994E-05
   100.8413       -5.1987332E-05
   100.9842       -5.4214019E-05
   101.1271       -5.6188972E-05
   101.2700       -5.7887206E-05
   101.4129       -5.9287853E-05
   101.5558       -6.0374190E-05
   101.6987       -6.1133585E-05
   101.8416       -6.1557439E-05
   101.9846       -6.1641091E-05
   102.1275       -6.1383667E-05
   102.2704       -6.0788003E-05
   102.4133       -5.9860482E-05
   102.5562       -5.8610935E-05
   102.6991       -5.7052504E-05
   102.8420       -5.5201555E-05
   102.9849       -5.3077583E-05
   103.1279       -5.0703133E-05
   103.2708       -4.8103713E-05
   103.4137       -4.5307737E-05
   103.5566       -4.2346415E-05
   103.6995       -3.9253693E-05
   103.8424       -3.6066089E-05
   103.9853       -3.2822536E-05
   104.1282       -2.9564182E-05
   104.2711       -2.6334104E-05
   104.4141       -2.3176957E-05
   104.5570       -2.0138570E-05
   104.6999       -1.7265456E-05
   104.8428       -1.4604218E-05
   104.9857       -1.2200923E-05
   105.1286       -1.0100360E-05
   105.2715       -8.3452669E-06
   105.4144       -6.9755042E-06
   105.5574       -6.0271927E-06
   105.7003       -5.5318537E-06
   105.8432       -5.5155556E-06
   105.9861       -5.9981053E-06
   106.1290       -6.9923158E-06
   106.2719       -8.5033507E-06
   106.4148       -1.0528203E-05
   106.5577       -1.3055306E-05
   106.7006       -1.6064303E-05
   106.8436       -1.9525995E-05
   106.9865       -2.3402468E-05
   107.1294       -2.7647422E-05
   107.2723       -3.2206673E-05
   107.4152       -3.7018835E-05
   107.5581       -4.2016203E-05
   107.7010       -4.7125766E-05
   107.8439       -5.2270349E-05
   107.9869       -5.7369907E-05
   108.1298       -6.2342857E-05
   108.2727       -6.7107481E-05
   108.4156       -7.1583345E-05
   108.5585       -7.5692718E-05
   108.7014       -7.9361911E-05
   108.8443       -8.2522522E-05
   108.9872       -8.5112646E-05
   109.1301       -8.7077839E-05
   109.2731       -8.8371977E-05
   109.4160       -8.8957939E-05
   109.5589       -8.8808083E-05
   109.7018       -8.7904504E-05
   109.8447       -8.6239183E-05
   109.9876       -8.3813866E-05
   110.1305       -8.0639860E-05
   110.2734       -7.6737648E-05
   110.4164       -7.2136405E-05
   110.5593       -6.6873428E-05
   110.7022       -6.0993505E-05
   110.8451       -5.4548284E-05
   110.9880       -4.7595586E-05
   111.1309       -4.0198796E-05
   111.2738       -3.2426226E-05
   111.4167       -2.4350591E-05
   111.5596       -1.6048483E-05
   111.7026       -7.5999292E-06
   111.8455        9.1201525E-07
   111.9884        9.4016332E-06
   112.1313        1.7780894E-05
   112.2742        2.5959811E-05
   112.4171        3.3846809E-05
   112.5600        4.1349158E-05
   112.7029        4.8373444E-05
   112.8458        5.4826167E-05
   112.9888        6.0614413E-05
   113.1317        6.5646695E-05
   113.2746        6.9833855E-05
   113.4175        7.3090167E-05
   113.5604        7.5334538E-05
   113.7033        7.6491800E-05
   113.8462        7.6494151E-05
   113.9891        7.5282624E-05
   114.1321        7.2808631E-05
   114.2750        6.9035515E-05
   114.4179        6.3940024E-05
   114.5608        5.7513775E-05
   114.7037        4.9764538E-05
   114.8466        4.0717419E-05
   114.9895        3.0415795E-05
   115.1324        1.8921990E-05
   115.2754        6.3177195E-06
   115.4183       -7.2958237E-06
   115.5612       -2.1798238E-05
   115.7041       -3.7050457E-05
   115.8470       -5.2895793E-05
   115.9899       -6.9161215E-05
   116.1328       -8.5659107E-05
   116.2757       -1.0218927E-04
   116.4186       -1.1854137E-04
   116.5616       -1.3449753E-04
   116.7045       -1.4983532E-04
   116.8474       -1.6433082E-04
   116.9903       -1.7776198E-04
   117.1332       -1.8991188E-04
   117.2761       -2.0057221E-04
   117.4190       -2.0954653E-04
   117.5619       -2.1665361E-04
   117.7048       -2.2173047E-04
   117.8478       -2.2463518E-04
   117.9907       -2.2524939E-04
   118.1336       -2.2348044E-04
   118.2765       -2.1926314E-04
   118.4194       -2.1256100E-04
   118.5623       -2.0336708E-04
   118.7052       -1.9170393E-04
   118.8481       -1.7762357E-04
   118.9911       -1.6120647E-04
   119.1340       -1.4256002E-04
   119.2769       -1.2181668E-04
   119.4198       -9.9131459E-05
   119.5627       -7.4678959E-05
   119.7056       -4.8650054E-05
   119.8485       -2.1248292E-05
   119.9914        7.3140295E-06
   120.1343        3.6819903E-05
   120.2773        6.7051616E-05
   120.4202        9.7794829E-05
   120.5631        1.2884245E-04
   120.7060        1.5999815E-04
   120.8489        1.9107967E-04
   120.9918        2.2192160E-04
   121.1347        2.5237762E-04
   121.2776        2.8232235E-04
   121.4206        3.1165229E-04
   121.5635        3.4028629E-04
   121.7064        3.6816570E-04
   121.8493        3.9525318E-04
   121.9922        4.2153159E-04
   122.1351        4.4700221E-04
   122.2780        4.7168220E-04
   122.4209        4.9560203E-04
   122.5639        5.1880267E-04