  -30.00000        9.8404830E-18
  -29.85750        9.8575444E-18
  -29.71500        9.8833773E-18
  -29.57250        9.9064540E-18
  -29.43000        9.9186673E-18
  -29.28750        9.9198593E-18
  -29.14500        9.9175299E-18
  -29.00250        9.9219380E-18
  -28.86000        9.9395933E-18
  -28.71750        9.9690583E-18
  -28.57500        1.0001610E-17
  -28.43250        1.0026345E-17
  -28.29000        1.0036668E-17
  -28.14750        1.0034238E-17
  -28.00500        1.0027999E-17
  -27.86250        1.0028878E-17
  -27.72000        1.0043319E-17
  -27.57750        1.0069542E-17
  -27.43500        1.0098720E-17
  -27.29250        1.0120369E-17
  -27.15000        1.0128662E-17
  -27.00750        1.0125884E-17
  -26.86500        1.0120963E-17
  -26.72250        1.0124005E-17
  -26.58000        1.0140147E-17
  -26.43750        1.0166456E-17
  -26.29500        1.0193726E-17
  -26.15250        1.0212079E-17
  -26.01000        1.0216954E-17
  -25.86750        1.0211876E-17
  -25.72500        1.0206311E-17
  -25.58250        1.0209948E-17
  -25.44000        1.0226830E-17
  -25.29750        1.0252930E-17
  -25.15500        1.0278592E-17
  -25.01250        1.0294379E-17
  -24.87000        1.0296766E-17
  -24.72750        1.0290252E-17
  -24.58500        1.0284600E-17
  -24.44250        1.0288914E-17
  -24.30000        1.0306134E-17
  -24.15750        1.0331284E-17
  -24.01500        1.0354554E-17
  -23.87250        1.0367304E-17
  -23.73000        1.0367374E-17
  -23.58750        1.0360439E-17
  -23.44500        1.0356579E-17
  -23.30250        1.0364138E-17
  -23.16000        1.0384594E-17
  -23.01750        1.0411554E-17
  -22.87500        1.0434517E-17
  -22.73250        1.0445156E-17
  -22.59000        1.0442316E-17
  -22.44750        1.0432705E-17
  -22.30500        1.0426874E-17
  -22.16250        1.0432848E-17
  -22.02000        1.0451318E-17
  -21.87750        1.0475250E-17
  -21.73500        1.0494179E-17
  -21.59250        1.0500592E-17
  -21.45000        1.0494533E-17
  -21.30750        1.0483625E-17
  -21.16500        1.0478477E-17
  -21.02250        1.0486239E-17
  -20.88000        1.0506172E-17
  -20.73750        1.0529965E-17
  -20.59500        1.0546616E-17
  -20.45250        1.0548978E-17
  -20.31000        1.0538063E-17
  -20.16750        1.0522480E-17
  -20.02500        1.0513380E-17
  -19.88250        1.0517889E-17
  -19.74000        1.0534986E-17
  -19.59750        1.0556285E-17
  -19.45500        1.0571222E-17
  -19.31250        1.0573531E-17
  -19.17000        1.0565080E-17
  -19.02750        1.0554763E-17
  -18.88500        1.0553095E-17
  -18.74250        1.0565769E-17
  -18.60000        1.0590049E-17
  -18.45750        1.0616191E-17
  -18.31500        1.0633054E-17
  -18.17250        1.0634557E-17
  -18.03000        1.0623149E-17
  -17.88750        1.0608207E-17
  -17.74500        1.0600384E-17
  -17.60250        1.0605282E-17
  -17.46000        1.0620261E-17
  -17.31750        1.0636267E-17
  -17.17500        1.0643531E-17
  -17.03250        1.0637682E-17
  -16.89000        1.0622572E-17
  -16.74750        1.0608107E-17
  -16.60500        1.0604383E-17
  -16.46250        1.0615681E-17
  -16.32000        1.0637912E-17
  -16.17750        1.0661058E-17
  -16.03500        1.0675122E-17
  -15.89250        1.0676013E-17
  -15.75000        1.0667823E-17
  -15.60750        1.0660178E-17
  -15.46500        1.0662285E-17
  -15.32250        1.0677287E-17
  -15.18000        1.0700341E-17
  -15.03750        1.0721556E-17
  -14.89500        1.0731998E-17
  -14.75250        1.0729096E-17
  -14.61000        1.0718180E-17
  -14.46750        1.0709239E-17
  -14.32500        1.0710837E-17
  -14.18250        1.0724931E-17
  -14.04000        1.0745679E-17
  -13.89750        1.0763004E-17
  -13.75500        1.0768727E-17
  -13.61250        1.0761564E-17
  -13.47000        1.0747946E-17
  -13.32750        1.0738174E-17
  -13.18500        1.0740232E-17
  -13.04250        1.0755000E-17
  -12.90000        1.0775770E-17
  -12.75750        1.0792358E-17
  -12.61500        1.0797298E-17
  -12.47250        1.0790390E-17
  -12.33000        1.0778799E-17
  -12.18750        1.0772670E-17
  -12.04500        1.0778900E-17
  -11.90250        1.0796850E-17
  -11.76000        1.0818632E-17
  -11.61750        1.0833817E-17
  -11.47500        1.0835731E-17
  -11.33250        1.0825554E-17
  -11.19000        1.0811703E-17
  -11.04750        1.0804856E-17
  -10.90500        1.0811601E-17
  -10.76250        1.0830518E-17
  -10.62000        1.0853071E-17
  -10.47750        1.0868771E-17
  -10.33500        1.0871502E-17
  -10.19250        1.0863196E-17
  -10.05000        1.0852634E-17
  -9.907500        1.0850073E-17
  -9.765000        1.0860961E-17
  -9.622500        1.0882525E-17
  -9.480000        1.0905323E-17
  -9.337500        1.0918846E-17
  -9.195000        1.0917833E-17
  -9.052500        1.0905478E-17
  -8.910000        1.0891612E-17
  -8.767500        1.0886912E-17
  -8.625000        1.0896600E-17
  -8.482500        1.0917400E-17
  -8.340000        1.0939567E-17
  -8.197500        1.0952748E-17
  -8.055000        1.0952170E-17
  -7.912500        1.0941424E-17
  -7.770000        1.0930200E-17
  -7.627500        1.0928342E-17
  -7.485000        1.0939825E-17
  -7.342500        1.0960290E-17
  -7.200000        1.0979611E-17
  -7.057500        1.0987975E-17
  -6.915000        1.0981816E-17
  -6.772500        1.0966026E-17
  -6.630000        1.0951139E-17
  -6.487500        1.0947156E-17
  -6.345000        1.0957724E-17
  -6.202500        1.0978132E-17
  -6.060000        1.0998291E-17
  -5.917500        1.1008884E-17
  -5.775000        1.1006947E-17
  -5.632500        1.0997556E-17
  -5.490000        1.0990604E-17
  -5.347500        1.0994683E-17
  -5.205000        1.1011751E-17
  -5.062500        1.1035843E-17
  -4.920000        1.1056584E-17
  -4.777500        1.1065387E-17
  -4.635000        1.1060578E-17
  -4.492500        1.1048376E-17
  -4.350000        1.1039136E-17
  -4.207500        1.1041137E-17
  -4.065000        1.1055658E-17
  -3.922500        1.1076315E-17
  -3.780000        1.1093017E-17
  -3.637500        1.1098136E-17
  -3.495000        1.1091135E-17
  -3.352500        1.1078870E-17
  -3.210000        1.1071377E-17
  -3.067500        1.1075743E-17
  -2.925000        1.1091767E-17
  -2.782500        1.1112059E-17
  -2.640000        1.1126531E-17
  -2.497500        1.1128536E-17
  -2.355000        1.1118944E-17
  -2.212500        1.1105673E-17
  -2.070000        1.1098931E-17
  -1.927500        1.1105062E-17
  -1.785000        1.1122715E-17
  -1.642500        1.1143651E-17
  -1.500000        1.1157722E-17
  -1.357500        1.1159002E-17
  -1.215000        1.1149364E-17
  -1.072500        1.1137322E-17
 -0.9300000        1.1132844E-17
 -0.7875000        1.1141272E-17
 -0.6450000        1.1160026E-17
 -0.5025000        1.1180130E-17
 -0.3600000        1.1191635E-17
 -0.2175000        1.1189680E-17
 -7.5000003E-02    1.1177513E-17
  6.7500003E-02    1.1164627E-17
  0.2100000        1.1161102E-17
  0.3525000        1.1171544E-17
  0.4950000        1.1192289E-17
  0.6375000        1.1213552E-17
  0.7800000        1.1225259E-17
  0.9225000        1.1223063E-17
   1.065000        1.1210921E-17
   1.207500        1.1198681E-17
   1.350000        1.1196133E-17
   1.492500        1.1207096E-17
   1.635000        1.1227116E-17
   1.777500        1.1246156E-17
   1.920000        1.1254683E-17
   2.062500        1.1249474E-17
   2.205000        1.1235648E-17
   2.347500        1.1223681E-17
   2.490000        1.1223188E-17
   2.632500        1.1237177E-17
   2.775000        1.1260240E-17
   2.917500        1.1281743E-17
   3.060000        1.1292123E-17
   3.202500        1.1288507E-17
   3.345000        1.1276299E-17
   3.487500        1.1265809E-17
   3.630000        1.1265972E-17
   3.772500        1.1278948E-17
   3.915000        1.1298833E-17
   4.057500        1.1315266E-17
   4.200000        1.1319731E-17
   4.342500        1.1310747E-17
   4.485000        1.1294844E-17
   4.627500        1.1282715E-17
   4.770000        1.1282869E-17
   4.912500        1.1296618E-17
   5.055000        1.1317362E-17
   5.197500        1.1334609E-17
   5.340000        1.1340277E-17
   5.482500        1.1333481E-17
   5.625000        1.1320955E-17
   5.767500        1.1312869E-17
   5.910000        1.1316619E-17
   6.052500        1.1332338E-17
   6.195000        1.1352840E-17
   6.337500        1.1368009E-17
   6.480000        1.1370963E-17
   6.622500        1.1362251E-17
   6.765000        1.1349538E-17
   6.907500        1.1342989E-17
   7.050000        1.1349137E-17
   7.192500        1.1366959E-17
   7.335000        1.1388507E-17
   7.477500        1.1403730E-17
   7.620000        1.1406535E-17
   7.762500        1.1398428E-17
   7.905000        1.1387542E-17
   8.047500        1.1383648E-17
   8.190000        1.1392189E-17
   8.332500        1.1410953E-17
   8.475000        1.1431411E-17
   8.617500        1.1443905E-17
   8.760000        1.1443523E-17
   8.902500        1.1433100E-17
   9.045000        1.1421501E-17
   9.187500        1.1418216E-17
   9.330000        1.1427552E-17
   9.472500        1.1445932E-17
   9.615000        1.1463974E-17
   9.757500        1.1472109E-17
   9.900000        1.1466361E-17
   10.04250        1.1450780E-17
   10.18500        1.1435070E-17
   10.32750        1.1428805E-17
   10.47000        1.1435752E-17
   10.61250        1.1451691E-17
   10.75500        1.1467086E-17
   10.89750        1.1472975E-17
   11.04000        1.1466526E-17
   11.18250        1.1452866E-17
   11.32500        1.1442082E-17
   11.46750        1.1443147E-17
   11.61000        1.1458448E-17
   11.75250        1.1482221E-17
   11.89500        1.1503861E-17
   12.03750        1.1514145E-17
   12.18000        1.1510659E-17
   12.32250        1.1499153E-17
   12.46500        1.1490027E-17
   12.60750        1.1492047E-17
   12.75000        1.1507078E-17
   12.89250        1.1528974E-17
   13.03500        1.1547305E-17
   13.17750        1.1553665E-17
   13.32000        1.1546764E-17
   13.46250        1.1533231E-17
   13.60500        1.1523641E-17
   13.74750        1.1526156E-17
   13.89000        1.1541591E-17
   14.03250        1.1562877E-17
   14.17500        1.1579252E-17
   14.31750        1.1582655E-17
   14.46000        1.1572513E-17
   14.60250        1.1556048E-17
   14.74500        1.1543946E-17
   14.88750        1.1544002E-17
   15.03000        1.1556549E-17
   15.17250        1.1574407E-17
   15.31500        1.1587338E-17
   15.45750        1.1588310E-17
   15.60000        1.1577778E-17
   15.74250        1.1563419E-17
   15.88500        1.1555487E-17
   16.02750        1.1560611E-17
   16.17000        1.1577782E-17
   16.31250        1.1598929E-17
   16.45500        1.1613743E-17
   16.59750        1.1615813E-17
   16.74000        1.1606397E-17
   16.88250        1.1593567E-17
   17.02500        1.1587269E-17
   17.16750        1.1593297E-17
   17.31000        1.1609833E-17
   17.45250        1.1628606E-17
   17.59500        1.1639960E-17
   17.73750        1.1638731E-17
   17.88000        1.1627382E-17
   18.02250        1.1614491E-17
   18.16500        1.1609540E-17
   18.30750        1.1617160E-17
   18.45000        1.1634331E-17
   18.59250        1.1652234E-17
   18.73500        1.1661629E-17
   18.87750        1.1658485E-17
   19.02000        1.1646454E-17
   19.16250        1.1634683E-17
   19.30500        1.1632286E-17
   19.44750        1.1642821E-17
   19.59000        1.1662132E-17
   19.73250        1.1680844E-17
   19.87500        1.1690033E-17
   20.01750        1.1686603E-17
   20.16000        1.1675129E-17
   20.30250        1.1665047E-17
   20.44500        1.1664874E-17
   20.58750        1.1676988E-17
   20.73000        1.1696116E-17
   20.87250        1.1712499E-17
   21.01500        1.1717799E-17
   21.15750        1.1710216E-17
   21.30000        1.1695672E-17
   21.44250        1.1684348E-17
   21.58500        1.1684620E-17
   21.72750        1.1698053E-17
   21.87000        1.1718466E-17
   22.01250        1.1735646E-17
   22.15500        1.1741479E-17
   22.29750        1.1734810E-17
   22.44000        1.1722099E-17
   22.58250        1.1713460E-17
   22.72500        1.1716488E-17
   22.86750        1.1731575E-17
   23.01000        1.1751566E-17
   23.15250        1.1765986E-17
   23.29500        1.1767302E-17
   23.43750        1.1755476E-17
   23.58000        1.1738056E-17
   23.72250        1.1725738E-17
   23.86500        1.1726061E-17
   24.00750        1.1738992E-17
   24.15000        1.1757054E-17
   24.29250        1.1769893E-17
   24.43500        1.1770554E-17
   24.57750        1.1759671E-17
   24.72000        1.1745077E-17
   24.86250        1.1737072E-17
   25.00500        1.1742198E-17
   25.14750        1.1759278E-17
   25.29000        1.1780088E-17
   25.43250        1.1794258E-17
   25.57500        1.1795464E-17
   25.71750        1.1785187E-17
   25.86000        1.1771793E-17
   26.00250        1.1765508E-17
   26.14500        1.1772305E-17
   26.28750        1.1790377E-17
   26.43000        1.1811278E-17
   26.57250        1.1825044E-17
   26.71500        1.1826161E-17
   26.85750        1.1816807E-17
   27.00000        1.1805444E-17
   27.14250        1.1801609E-17
   27.28500        1.1810105E-17
   27.42750        1.1828067E-17
   27.57000        1.1846689E-17
   27.71250        1.1856546E-17
   27.85500        1.1853276E-17
   27.99750        1.1840202E-17
   28.14000        1.1826336E-17
   28.28250        1.1820949E-17
   28.42500        1.1828041E-17
   28.56750        1.1844006E-17
   28.71000        1.1859915E-17
   28.85250        1.1866992E-17
   28.99500        1.1861972E-17
   29.13750        1.1849078E-17
   29.28000        1.1837448E-17
   29.42250        1.1835576E-17
   29.56500        1.1846143E-17
   29.70750        1.1864381E-17
   29.85000        1.1880965E-17
   29.99250        1.1887670E-17
   30.13500        1.1882358E-17
   30.27750        1.1870273E-17
   30.42000        1.1860846E-17
   30.56250        1.1861945E-17
   30.70500        1.1875055E-17
   30.84750        1.1894307E-17
   30.99000        1.1909980E-17
   31.13250        1.1914333E-17
   31.27500        1.1906273E-17
   31.41750        1.1892013E-17
   31.56000        1.1881317E-17
   31.70250        1.1881603E-17
   31.84500        1.1893461E-17
   31.98750        1.1910310E-17
   32.13000        1.1922409E-17
   32.27250        1.1922809E-17
   32.41500        1.1911630E-17
   32.55750        1.1896071E-17
   32.70000        1.1886115E-17
   32.84250        1.1888503E-17
   32.98500        1.1902612E-17
   33.12750        1.1920726E-17
   33.27000        1.1932584E-17
   33.41250        1.1931467E-17
   33.55500        1.1918198E-17
   33.69750        1.1900626E-17
   33.84000        1.1888936E-17
   33.98250        1.1889568E-17
   34.12500        1.1901418E-17
   34.26750        1.1916606E-17
   34.41000        1.1925335E-17
   34.55250        1.1921919E-17
   34.69500        1.1908350E-17
   34.83750        1.1893228E-17
   34.98000        1.1886709E-17
   35.12250        1.1894459E-17
   35.26500        1.1914275E-17
   35.40750        1.1937373E-17
   35.55000        1.1953585E-17
   35.69250        1.1957357E-17
   35.83500        1.1950952E-17
   35.97750        1.1942966E-17
   36.12000        1.1943055E-17
   36.26250        1.1956074E-17
   36.40500        1.1979106E-17
   36.54750        1.2003204E-17
   36.69000        1.2018727E-17
   36.83250        1.2021080E-17
   36.97500        1.2013408E-17
   37.11750        1.2004607E-17
   37.26000        1.2003907E-17
   37.40250        1.2015259E-17
   37.54500        1.2034931E-17
   37.68750        1.2053730E-17
   37.83000        1.2062505E-17
   37.97250        1.2057612E-17
   38.11500        1.2043059E-17
   38.25750        1.2028058E-17
   38.40000        1.2021484E-17
   38.54250        1.2026597E-17
   38.68500        1.2039195E-17
   38.82750        1.2050284E-17
   38.97000        1.2051641E-17
   39.11250        1.2040862E-17
   39.25500        1.2022874E-17
   39.39750        1.2006980E-17
   39.54000        1.2001262E-17
   39.68250        1.2007724E-17
   39.82500        1.2021124E-17
   39.96750        1.2032192E-17
   40.11000        1.2033278E-17
   40.25250        1.2023002E-17
   40.39500        1.2007096E-17
   40.53750        1.1994925E-17
   40.68000        1.1993798E-17
   40.82250        1.2004522E-17
   40.96500        1.2020896E-17
   41.10750        1.2033437E-17
   41.25000        1.2035114E-17
   41.39250        1.2025580E-17
   41.53500        1.2011365E-17
   41.67750        1.2001899E-17
   41.82000        1.2003782E-17
   41.96250        1.2016775E-17
   42.10500        1.2033943E-17
   42.24750        1.2045891E-17
   42.39000        1.2046522E-17
   42.53250        1.2036817E-17
   42.67500        1.2024349E-17
   42.81750        1.2018776E-17
   42.96000        1.2026030E-17
   43.10250        1.2044692E-17
   43.24500        1.2066766E-17
   43.38750        1.2082401E-17
   43.53000        1.2085718E-17
   43.67250        1.2078263E-17
   43.81500        1.2067980E-17
   43.95750        1.2064336E-17
   44.10000        1.2072527E-17
   44.24250        1.2090277E-17
   44.38500        1.2109150E-17
   44.52750        1.2119625E-17
   44.67000        1.2116867E-17
   44.81250        1.2103724E-17
   44.95500        1.2089126E-17
   45.09750        1.2082831E-17
   45.24000        1.2089639E-17
   45.38250        1.2106572E-17
   45.52500        1.2124674E-17
   45.66750        1.2134381E-17
   45.81000        1.2131228E-17
   45.95250        1.2118481E-17
   46.09500        1.2105113E-17
   46.23750        1.2100369E-17
   46.38000        1.2108167E-17
   46.52250        1.2124726E-17
   46.66500        1.2140819E-17
   46.80750        1.2147319E-17
   46.95000        1.2140680E-17
   47.09250        1.2125083E-17
   47.23500        1.2109964E-17
   47.37750        1.2104397E-17
   47.52000        1.2111723E-17
   47.66250        1.2127637E-17
   47.80500        1.2142844E-17
   47.94750        1.2148697E-17
   48.09000        1.2142389E-17
   48.23250        1.2128611E-17
   48.37500        1.2116679E-17
   48.51750        1.2114896E-17
   48.66000        1.2125555E-17
   48.80250        1.2143581E-17
   48.94500        1.2159620E-17
   49.08750        1.2165689E-17
   49.23000        1.2159967E-17
   49.37250        1.2147854E-17
   49.51500        1.2138659E-17
   49.65750        1.2139941E-17
   49.80000        1.2152925E-17
   49.94250        1.2171757E-17
   50.08500        1.2187029E-17
   50.22750        1.2191447E-17
   50.37000        1.2184184E-17
   50.51250        1.2171334E-17
   50.65500        1.2162171E-17
   50.79750        1.2163518E-17
   50.94000        1.2175620E-17
   51.08250        1.2192038E-17
   51.22500        1.2203597E-17
   51.36750        1.2204001E-17
   51.51000        1.2193680E-17
   51.65250        1.2179555E-17
   51.79500        1.2170842E-17
   51.93750        1.2173434E-17
   52.08000        1.2186285E-17
   52.22250        1.2201989E-17
   52.36500        1.2211218E-17
   52.50750        1.2208354E-17
   52.65000        1.2194894E-17
   52.79250        1.2178582E-17
   52.93500        1.2168770E-17
   53.07750        1.2170819E-17
   53.22000        1.2182912E-17
   53.36250        1.2197231E-17
   53.50500        1.2204761E-17
   53.64750        1.2200852E-17
   53.79000        1.2188123E-17
   53.93250        1.2174954E-17
   54.07500        1.2170448E-17
   54.21750        1.2178887E-17
   54.36000        1.2197035E-17
   54.50250        1.2215956E-17
   54.64500        1.2226252E-17
   54.78750        1.2223624E-17
   54.93000        1.2211398E-17
   55.07250        1.2198493E-17
   55.21500        1.2194062E-17
   55.35750        1.2202010E-17
   55.50000        1.2218686E-17
   55.64250        1.2235149E-17
   55.78500        1.2242628E-17
   55.92750        1.2237893E-17
   56.07000        1.2225296E-17
   56.21250        1.2214222E-17
   56.35500        1.2213480E-17
   56.49750        1.2225993E-17
   56.64000        1.2246971E-17
   56.78250        1.2266678E-17
   56.92500        1.2276159E-17
   57.06750        1.2272487E-17
   57.21000        1.2260407E-17
   57.35250        1.2249415E-17
   57.49500        1.2248018E-17
   57.63750        1.2258635E-17
   57.78000        1.2276188E-17
   57.92250        1.2291213E-17
   58.06500        1.2295587E-17
   58.20750        1.2287439E-17
   58.35000        1.2272270E-17
   58.49250        1.2259645E-17
   58.63500        1.2257425E-17
   58.77750        1.2267052E-17
   58.92000        1.2282702E-17
   59.06250        1.2294808E-17
   59.20500        1.2295843E-17
   59.34750        1.2284865E-17
   59.49000        1.2268113E-17
   59.63250        1.2255297E-17
   59.77500        1.2253841E-17
   59.91750        1.2264517E-17
   60.06000        1.2281107E-17
   60.20250        1.2294235E-17
   60.34500        1.2297050E-17
   60.48750        1.2289307E-17
   60.63000        1.2277395E-17
   60.77250        1.2270321E-17
   60.91500        1.2274115E-17
   61.05750        1.2288054E-17
   61.20000        1.2305012E-17
   61.34250        1.2315729E-17
   61.48500        1.2314416E-17
   61.62750        1.2302298E-17
   61.77000        1.2286964E-17
   61.91250        1.2277876E-17
   62.05500        1.2280784E-17
   62.19750        1.2294378E-17
   62.34000        1.2311201E-17
   62.48250        1.2322242E-17
   62.62500        1.2322417E-17
   62.76750        1.2313606E-17
   62.91000        1.2303411E-17
   63.05250        1.2300390E-17
   63.19500        1.2308682E-17
   63.33750        1.2325305E-17
   63.48000        1.2341800E-17
   63.62250        1.2349250E-17
   63.76500        1.2343664E-17
   63.90750        1.2328457E-17
   64.05000        1.2312499E-17
   64.19250        1.2304896E-17
   64.33500        1.2309613E-17
   64.47750        1.2323195E-17
   64.62000        1.2336939E-17
   64.76250        1.2342211E-17
   64.90500        1.2335715E-17
   65.04750        1.2321499E-17
   65.19000        1.2308504E-17
   65.33250        1.2305116E-17
   65.47500        1.2314024E-17
   65.61750        1.2330495E-17
   65.76000        1.2345164E-17
   65.90250        1.2349640E-17
   66.04500        1.2341614E-17
   66.18750        1.2326334E-17
   66.33000        1.2313576E-17
   66.47250        1.2311878E-17
   66.61500        1.2323496E-17
   66.75750        1.2343090E-17
   66.90000        1.2360940E-17
   67.04250        1.2368748E-17
   67.18500        1.2364568E-17
   67.32750        1.2353872E-17
   67.47000        1.2346174E-17
   67.61250        1.2349196E-17
   67.75500        1.2364145E-17
   67.89750        1.2384901E-17
   68.04000        1.2401641E-17
   68.18250        1.2406710E-17
   68.32500        1.2399204E-17
   68.46750        1.2385519E-17
   68.61000        1.2375519E-17
   68.75250        1.2376633E-17
   68.89500        1.2389413E-17
   69.03750        1.2407205E-17
   69.18000        1.2420124E-17
   69.32250        1.2420947E-17
   69.46500        1.2409369E-17
   69.60750        1.2392118E-17
   69.75000        1.2378868E-17
   69.89250        1.2376434E-17
   70.03500        1.2384782E-17
   70.17750        1.2397202E-17
   70.32000        1.2404553E-17
   70.46250        1.2400960E-17
   70.60500        1.2387516E-17
   70.74750        1.2371750E-17
   70.89000        1.2363161E-17
   71.03250        1.2367525E-17
   71.17500        1.2383402E-17
   71.31750        1.2402937E-17
   71.46000        1.2416473E-17
   71.60250        1.2418199E-17
   71.74500        1.2409427E-17
   71.88750        1.2397570E-17
   72.03000        1.2391465E-17
   72.17250        1.2395914E-17
   72.31500        1.2408759E-17
   72.45750        1.2422255E-17
   72.60000        1.2427901E-17
   72.74250        1.2421769E-17
   72.88500        1.2407066E-17
   73.02750        1.2392363E-17
   73.17000        1.2386523E-17
   73.31250        1.2393381E-17
   73.45500        1.2409413E-17
   73.59750        1.2425792E-17
   73.74000        1.2433611E-17
   73.88250        1.2429126E-17
   74.02500        1.2415871E-17
   74.16750        1.2402366E-17
   74.31000        1.2396842E-17
   74.45250        1.2402180E-17
   74.59500        1.2414149E-17
   74.73750        1.2424024E-17
   74.88000        1.2424005E-17
   75.02250        1.2412128E-17
   75.16500        1.2393678E-17
   75.30750        1.2378204E-17
   75.45000        1.2373896E-17
   75.59250        1.2382695E-17
   75.73500        1.2399112E-17
   75.87750        1.2413468E-17
   76.02000        1.2417639E-17
   76.16250        1.2409864E-17
   76.30500        1.2395737E-17
   76.44750        1.2384770E-17
   76.59000        1.2384621E-17
   76.73250        1.2396460E-17
   76.87500        1.2414267E-17
   77.01750        1.2428485E-17
   77.16000        1.2431847E-17
   77.30250        1.2423831E-17
   77.44500        1.2411052E-17
   77.58750        1.2403321E-17
   77.73000        1.2407731E-17
   77.87250        1.2424309E-17
   78.01500        1.2445864E-17
   78.15750        1.2462139E-17
   78.30000        1.2465800E-17
   78.44250        1.2456682E-17
   78.58500        1.2441770E-17
   78.72750        1.2430953E-17
   78.87000        1.2431088E-17
   79.01250        1.2441966E-17
   79.15500        1.2456565E-17
   79.29750        1.2465425E-17
   79.44000        1.2462482E-17
   79.58250        1.2448832E-17
   79.72500        1.2432154E-17
   79.86750        1.2422127E-17
   80.01000        1.2424616E-17
   80.15250        1.2438119E-17
   80.29500        1.2454616E-17
   80.43750        1.2464311E-17
   80.58000        1.2461430E-17
   80.72250        1.2447600E-17
   80.86500        1.2430802E-17
   81.00750        1.2420556E-17
   81.15000        1.2422258E-17
   81.29250        1.2434052E-17
   81.43500        1.2448114E-17
   81.57750        1.2455518E-17
   81.72000        1.2451704E-17
   81.86250        1.2439244E-17
   82.00500        1.2426228E-17
   82.14750        1.2421260E-17
   82.29000        1.2428120E-17
   82.43250        1.2443337E-17
   82.57500        1.2458162E-17
   82.71750        1.2463757E-17
   82.86000        1.2456472E-17
   83.00250        1.2440046E-17
   83.14500        1.2423388E-17
   83.28750        1.2415302E-17
   83.43000        1.2419332E-17
   83.57250        1.2431828E-17
   83.71500        1.2444371E-17
   83.85750        1.2449059E-17
   84.00000        1.2443411E-17
   84.14250        1.2431904E-17
   84.28500        1.2423205E-17
   84.42750        1.2424768E-17
   84.57000        1.2438119E-17
   84.71250        1.2457689E-17
   84.85500        1.2473980E-17
   84.99750        1.2479145E-17
   85.14000        1.2471671E-17
   85.28250        1.2457280E-17
   85.42500        1.2445539E-17
   85.56750        1.2444179E-17
   85.71000        1.2454532E-17
   85.85250        1.2470855E-17
   85.99500        1.2483913E-17
   86.13750        1.2486654E-17
   86.28000        1.2478525E-17
   86.42250        1.2465821E-17
   86.56500        1.2457816E-17
   86.70750        1.2461042E-17
   86.85000        1.2475166E-17
   86.99250        1.2493007E-17
   87.13500        1.2504714E-17
   87.27750        1.2503632E-17
   87.42000        1.2490321E-17
   87.56250        1.2472324E-17
   87.70500        1.2459766E-17
   87.84750        1.2459442E-17
   87.99000        1.2470884E-17
   88.13250        1.2486779E-17
   88.27500        1.2497457E-17
   88.41750        1.2496741E-17
   88.56000        1.2485631E-17
   88.70250        1.2471626E-17
   88.84500        1.2464072E-17
   88.98750        1.2468384E-17
   89.13000        1.2482615E-17
   89.27250        1.2498483E-17
   89.41500        1.2506234E-17
   89.55750        1.2500465E-17
   89.70000        1.2483400E-17
   89.84250        1.2463647E-17
   89.98500        1.2451202E-17
   90.12750        1.2451642E-17
   90.27000        1.2463010E-17
   90.41250        1.2477196E-17
   90.55500        1.2484957E-17
   90.69750        1.2481539E-17
   90.84000        1.2469510E-17
   90.98250        1.2457119E-17
   91.12500        1.2453206E-17
   91.26750        1.2461753E-17
   91.41000        1.2479379E-17
   91.55250        1.2497292E-17
   91.69500        1.2506518E-17
   91.83750        1.2503260E-17
   91.98000        1.2491151E-17
   92.12250        1.2479049E-17
   92.26500        1.2475717E-17
   92.40750        1.2484593E-17
   92.55000        1.2501770E-17
   92.69250        1.2518405E-17
   92.83500        1.2526052E-17
   92.97750        1.2521700E-17
   93.12000        1.2509475E-17
   93.26250        1.2498003E-17
   93.40500        1.2495078E-17
   93.54750        1.2502865E-17
   93.69000        1.2516588E-17
   93.83250        1.2527481E-17
   93.97500        1.2528199E-17
   94.11750        1.2517420E-17
   94.26000        1.2500800E-17
   94.40250        1.2487706E-17
   94.54500        1.2485662E-17
   94.68750        1.2495879E-17
   94.83000        1.2512548E-17
   94.97250        1.2526325E-17
   95.11500        1.2529904E-17
   95.25750        1.2522308E-17
   95.40000        1.2509315E-17
   95.54250        1.2499779E-17
   95.68500        1.2500102E-17
   95.82750        1.2510226E-17
   95.97000        1.2523615E-17
   96.11250        1.2531239E-17
   96.25500        1.2527160E-17
   96.39750        1.2512335E-17
   96.54000        1.2494272E-17
   96.68250        1.2482720E-17
   96.82500        1.2483946E-17
   96.96750        1.2497035E-17
   97.11000        1.2514440E-17
   97.25250        1.2526468E-17
   97.39500        1.2527008E-17
   97.53750        1.2517075E-17
   97.68000        1.2504033E-17
   97.82250        1.2497000E-17
   97.96500        1.2501205E-17
   98.10750        1.2514734E-17
   98.25000        1.2529634E-17
   98.39250        1.2536745E-17
   98.53500        1.2531328E-17
   98.67750        1.2516094E-17
   98.82000        1.2499780E-17
   98.96250        1.2492080E-17
   99.10500        1.2497945E-17
   99.24750        1.2514668E-17
   99.39000        1.2533487E-17