  -30.000000        9.84048302E-18
  -29.857500        9.85754445E-18
  -29.715000        9.88337730E-18
  -29.572500        9.90645398E-18
  -29.430000        9.91866730E-18
  -29.287500        9.91985927E-18
  -29.145000        9.91752993E-18
  -29.002501        9.92193798E-18
  -28.860001        9.93959332E-18
  -28.717501        9.96905832E-18
  -28.575001        1.00016095E-17
  -28.432501        1.00263447E-17
  -28.290001        1.00366679E-17
  -28.147499        1.00342377E-17
  -28.004999        1.00279991E-17
  -27.862499        1.00288775E-17
  -27.719999        1.00433193E-17
  -27.577499        1.00695409E-17
  -27.434999        1.00987189E-17
  -27.292500        1.01203679E-17
  -27.150000        1.01286620E-17
  -27.007500        1.01258843E-17
  -26.865000        1.01209642E-17
  -26.722500        1.01240058E-17
  -26.580000        1.01401474E-17
  -26.437500        1.01664550E-17
  -26.295000        1.01937255E-17
  -26.152500        1.02120790E-17
  -26.010000        1.02169553E-17
  -25.867500        1.02118772E-17
  -25.725000        1.02063127E-17
  -25.582500        1.02099482E-17
  -25.440001        1.02268293E-17
  -25.297501        1.02529285E-17
  -25.155001        1.02785910E-17
  -25.012501        1.02943794E-17
  -24.870001        1.02967674E-17
  -24.727501        1.02902517E-17
  -24.584999        1.02845988E-17
  -24.442499        1.02889125E-17
  -24.299999        1.03061328E-17
  -24.157499        1.03312848E-17
  -24.014999        1.03545551E-17
  -23.872499        1.03673061E-17
  -23.730000        1.03673764E-17
  -23.587500        1.03604405E-17
  -23.445000        1.03565792E-17
  -23.302500        1.03641380E-17
  -23.160000        1.03845950E-17
  -23.017500        1.04115545E-17
  -22.875000        1.04345186E-17
  -22.732500        1.04451595E-17
  -22.590000        1.04423190E-17
  -22.447500        1.04327088E-17
  -22.305000        1.04268738E-17
  -22.162500        1.04328453E-17
  -22.020000        1.04513137E-17
  -21.877501        1.04752449E-17
  -21.735001        1.04941757E-17
  -21.592501        1.05005922E-17
  -21.450001        1.04945347E-17
  -21.307501        1.04836250E-17
  -21.165001        1.04784758E-17
  -21.022499        1.04862348E-17
  -20.879999        1.05061665E-17
  -20.737499        1.05299620E-17
  -20.594999        1.05466148E-17
  -20.452499        1.05489806E-17
  -20.309999        1.05380651E-17
  -20.167500        1.05224810E-17
  -20.025000        1.05133787E-17
  -19.882500        1.05178860E-17
  -19.740000        1.05349839E-17
  -19.597500        1.05562838E-17
  -19.455000        1.05712218E-17
  -19.312500        1.05735313E-17
  -19.170000        1.05650792E-17
  -19.027500        1.05547609E-17
  -18.885000        1.05530925E-17
  -18.742500        1.05657666E-17
  -18.600000        1.05900476E-17
  -18.457500        1.06161915E-17
  -18.315001        1.06330536E-17
  -18.172501        1.06345574E-17
  -18.030001        1.06231497E-17
  -17.887501        1.06082084E-17
  -17.745001        1.06003866E-17
  -17.602501        1.06052843E-17
  -17.459999        1.06202629E-17
  -17.317499        1.06362688E-17
  -17.174999        1.06435315E-17
  -17.032499        1.06376816E-17
  -16.889999        1.06225732E-17
  -16.747499        1.06081083E-17
  -16.605000        1.06043851E-17
  -16.462500        1.06156836E-17
  -16.320000        1.06379141E-17
  -16.177500        1.06610586E-17
  -16.035000        1.06751240E-17
  -15.892500        1.06760157E-17
  -15.750000        1.06678274E-17
  -15.607500        1.06601843E-17
  -15.465000        1.06622911E-17
  -15.322500        1.06772920E-17
  -15.180000        1.07003422E-17
  -15.037500        1.07215561E-17
  -14.895000        1.07319984E-17
  -14.752500        1.07290959E-17
  -14.610000        1.07181820E-17
  -14.467500        1.07092402E-17
  -14.325000        1.07108392E-17
  -14.182500        1.07249310E-17
  -14.040000        1.07456775E-17
  -13.897500        1.07630028E-17
  -13.755000        1.07687269E-17
  -13.612500        1.07615652E-17
  -13.470000        1.07479473E-17
  -13.327500        1.07381758E-17
  -13.185000        1.07402314E-17
  -13.042500        1.07549965E-17
  -12.900000        1.07757654E-17
  -12.757500        1.07923512E-17
  -12.615000        1.07972936E-17
  -12.472500        1.07903875E-17
  -12.330000        1.07787978E-17
  -12.187500        1.07726692E-17
  -12.045000        1.07788979E-17
  -11.902500        1.07968477E-17
  -11.760000        1.08186299E-17
  -11.617500        1.08338153E-17
  -11.475000        1.08357310E-17
  -11.332500        1.08255559E-17
  -11.190000        1.08117047E-17
  -11.047500        1.08048565E-17
  -10.905000        1.08115997E-17
  -10.762500        1.08305156E-17
  -10.620000        1.08530687E-17
  -10.477500        1.08687686E-17
  -10.335000        1.08715000E-17
  -10.192500        1.08631951E-17
  -10.050000        1.08526336E-17
  -9.9075003        1.08500727E-17
  -9.7650003        1.08609592E-17
  -9.6225004        1.08825230E-17
  -9.4799995        1.09053201E-17
  -9.3374996        1.09188445E-17
  -9.1949997        1.09178320E-17
  -9.0524998        1.09054789E-17
  -8.9099998        1.08916145E-17
  -8.7674999        1.08869136E-17
  -8.6250000        1.08965999E-17
  -8.4825001        1.09173986E-17
  -8.3400002        1.09395653E-17
  -8.1975002        1.09527473E-17
  -8.0550003        1.09521716E-17
  -7.9124999        1.09414282E-17
  -7.7700000        1.09302041E-17
  -7.6275001        1.09283438E-17
  -7.4850001        1.09398251E-17
  -7.3425002        1.09602887E-17
  -7.1999998        1.09796083E-17
  -7.0574999        1.09879728E-17
  -6.9150000        1.09818136E-17
  -6.7725000        1.09660227E-17
  -6.6300001        1.09511335E-17
  -6.4875002        1.09471489E-17
  -6.3449998        1.09577153E-17
  -6.2024999        1.09781235E-17
  -6.0599999        1.09982844E-17
  -5.9175000        1.10088806E-17
  -5.7750001        1.10069475E-17
  -5.6325002        1.09975573E-17
  -5.4899998        1.09906074E-17
  -5.3474998        1.09946862E-17
  -5.2049999        1.10117542E-17
  -5.0625000        1.10358450E-17
  -4.9200001        1.10565874E-17
  -4.7775002        1.10653911E-17
  -4.6350002        1.10605827E-17
  -4.4924998        1.10483810E-17
  -4.3499999        1.10391405E-17
  -4.2075000        1.10411406E-17
  -4.0650001        1.10556601E-17
  -3.9224999        1.10763173E-17
  -3.7800000        1.10930206E-17
  -3.6375000        1.10981400E-17
  -3.4949999        1.10911404E-17
  -3.3525000        1.10788741E-17
  -3.2100000        1.10713799E-17
  -3.0675001        1.10757441E-17
  -2.9250000        1.10917666E-17
  -2.7825000        1.11120573E-17
  -2.6400001        1.11265297E-17
  -2.4974999        1.11285331E-17
  -2.3550000        1.11189419E-17
  -2.2125001        1.11056707E-17
  -2.0699999        1.10989291E-17
  -1.9275000        1.11050610E-17
  -1.7850000        1.11227147E-17
  -1.6425000        1.11436507E-17
  -1.5000000        1.11577210E-17
  -1.3575000        1.11590015E-17
  -1.2150000        1.11493632E-17
  -1.0725000        1.11373219E-17
 -0.93000001        1.11328460E-17
 -0.78750002        1.11412742E-17
 -0.64499998        1.11600280E-17
 -0.50250000        1.11801318E-17
 -0.36000001        1.11916362E-17
 -0.21750000        1.11896799E-17
 -7.50000030E-02    1.11775138E-17
  6.75000027E-02    1.11646304E-17
  0.20999999        1.11611075E-17
  0.35249999        1.11715515E-17
  0.49500000        1.11922963E-17
  0.63749999        1.12135573E-17
  0.77999997        1.12252636E-17
  0.92250001        1.12230674E-17
   1.0650001        1.12109244E-17
   1.2075000        1.11986855E-17
   1.3500000        1.11961377E-17
   1.4924999        1.12071020E-17
   1.6350000        1.12271214E-17
   1.7775000        1.12461590E-17
   1.9200000        1.12546831E-17
   2.0625000        1.12494710E-17
   2.2049999        1.12356431E-17
   2.3475001        1.12236762E-17
   2.4900000        1.12231849E-17
   2.6324999        1.12371758E-17
   2.7750001        1.12602385E-17
   2.9175000        1.12817402E-17
   3.0599999        1.12921196E-17
   3.2025001        1.12885024E-17
   3.3450000        1.12762949E-17
   3.4875000        1.12658070E-17
   3.6300001        1.12659733E-17
   3.7725000        1.12789509E-17
   3.9150000        1.12988355E-17
   4.0574999        1.13152675E-17
   4.1999998        1.13197293E-17
   4.3425002        1.13107461E-17
   4.4850001        1.12948460E-17
   4.6275001        1.12827187E-17
   4.7700000        1.12828751E-17
   4.9124999        1.12966245E-17
   5.0549998        1.13173660E-17
   5.1975002        1.13346103E-17
   5.3400002        1.13402764E-17
   5.4825001        1.13334795E-17
   5.6250000        1.13209535E-17
   5.7674999        1.13128678E-17
   5.9099998        1.13166183E-17
   6.0524998        1.13323363E-17
   6.1950002        1.13528364E-17
   6.3375001        1.13680052E-17
   6.4800000        1.13709607E-17
   6.6224999        1.13622505E-17
   6.7649999        1.13495409E-17
   6.9074998        1.13429946E-17
   7.0500002        1.13491438E-17
   7.1925001        1.13669646E-17
   7.3350000        1.13885127E-17
   7.4775000        1.14037369E-17
   7.6199999        1.14065419E-17
   7.7624998        1.13984363E-17
   7.9050002        1.13875523E-17
   8.0474997        1.13836588E-17
   8.1899996        1.13921986E-17
   8.3325005        1.14109582E-17
   8.4750004        1.14314136E-17
   8.6175003        1.14439048E-17
   8.7600002        1.14435227E-17
   8.9025002        1.14331018E-17
   9.0450001        1.14215048E-17
   9.1875000        1.14182225E-17
   9.3299999        1.14275581E-17
   9.4724998        1.14459364E-17
   9.6149998        1.14639763E-17
   9.7574997        1.14721117E-17
   9.8999996        1.14663661E-17
   10.042500        1.14507878E-17
   10.185000        1.14350788E-17
   10.327500        1.14288162E-17
   10.470000        1.14357620E-17
   10.612500        1.14516985E-17
   10.755000        1.14670907E-17
   10.897500        1.14729794E-17
   11.040000        1.14665307E-17
   11.182500        1.14528739E-17
   11.325000        1.14420933E-17
   11.467500        1.14431595E-17
   11.610000        1.14584607E-17
   11.752500        1.14822314E-17
   11.895000        1.15038680E-17
   12.037500        1.15141506E-17
   12.180000        1.15106641E-17
   12.322500        1.14991596E-17
   12.465000        1.14900334E-17
   12.607500        1.14920533E-17
   12.750000        1.15070832E-17
   12.892500        1.15289779E-17
   13.035000        1.15473073E-17
   13.177500        1.15536692E-17
   13.320000        1.15467713E-17
   13.462500        1.15332411E-17
   13.605000        1.15236525E-17
   13.747500        1.15261663E-17
   13.890000        1.15415973E-17
   14.032500        1.15628807E-17
   14.175000        1.15792531E-17
   14.317500        1.15826553E-17
   14.460000        1.15725140E-17
   14.602500        1.15560490E-17
   14.745000        1.15439465E-17
   14.887500        1.15440011E-17
   15.030000        1.15565470E-17
   15.172500        1.15744041E-17
   15.315000        1.15873371E-17
   15.457500        1.15883132E-17
   15.600000        1.15777865E-17
   15.742500        1.15634316E-17
   15.885000        1.15555006E-17
   16.027500        1.15606225E-17
   16.170000        1.15777898E-17
   16.312500        1.15989342E-17
   16.455000        1.16137457E-17
   16.597500        1.16158144E-17
   16.740000        1.16064011E-17
   16.882500        1.15935740E-17
   17.025000        1.15872767E-17
   17.167500        1.15933044E-17
   17.309999        1.16098381E-17
   17.452499        1.16286084E-17
   17.594999        1.16399615E-17
   17.737499        1.16387340E-17
   17.879999        1.16273875E-17
   18.022499        1.16145001E-17
   18.165001        1.16095510E-17
   18.307501        1.16171694E-17
   18.450001        1.16343358E-17
   18.592501        1.16522352E-17
   18.735001        1.16616278E-17
   18.877501        1.16584854E-17
   19.020000        1.16464582E-17
   19.162500        1.16346915E-17
   19.305000        1.16322960E-17
   19.447500        1.16428302E-17
   19.590000        1.16621374E-17
   19.732500        1.16808474E-17
   19.875000        1.16900374E-17
   20.017500        1.16866095E-17
   20.160000        1.16751382E-17
   20.302500        1.16650582E-17
   20.445000        1.16648869E-17
   20.587500        1.16769993E-17
   20.730000        1.16961254E-17
   20.872499        1.17125052E-17
   21.014999        1.17178066E-17
   21.157499        1.17102272E-17
   21.299999        1.16956895E-17
   21.442499        1.16843695E-17
   21.584999        1.16846433E-17
   21.727501        1.16980734E-17
   21.870001        1.17184824E-17
   22.012501        1.17356597E-17
   22.155001        1.17414921E-17
   22.297501        1.17348251E-17
   22.440001        1.17221146E-17
   22.582500        1.17134747E-17
   22.725000        1.17164972E-17
   22.867500        1.17315759E-17
   23.010000        1.17515597E-17
   23.152500        1.17659759E-17
   23.295000        1.17672952E-17
   23.437500        1.17554764E-17
   23.580000        1.17380626E-17
   23.722500        1.17257476E-17
   23.865000        1.17260694E-17
   24.007500        1.17389965E-17
   24.150000        1.17570547E-17
   24.292500        1.17698942E-17
   24.434999        1.17705584E-17
   24.577499        1.17596802E-17
   24.719999        1.17450895E-17
   24.862499        1.17370841E-17
   25.004999        1.17422060E-17
   25.147499        1.17592798E-17
   25.290001        1.17800842E-17
   25.432501        1.17942530E-17
   25.575001        1.17954648E-17
   25.717501        1.17851946E-17
   25.860001        1.17718066E-17
   26.002501        1.17655234E-17
   26.145000        1.17723162E-17
   26.287500        1.17903785E-17
   26.430000        1.18112723E-17
   26.572500        1.18250341E-17
   26.715000        1.18261508E-17
   26.857500        1.18168028E-17
   27.000000        1.18054431E-17
   27.142500        1.18016091E-17
   27.285000        1.18100993E-17
   27.427500        1.18280516E-17
   27.570000        1.18466681E-17
   27.712500        1.18565240E-17
   27.855000        1.18532566E-17
   27.997499        1.18401905E-17
   28.139999        1.18263294E-17
   28.282499        1.18209445E-17
   28.424999        1.18280326E-17
   28.567499        1.18439930E-17
   28.709999        1.18599006E-17
   28.852501        1.18669820E-17
   28.995001        1.18619710E-17
   29.137501        1.18490901E-17
   29.280001        1.18374749E-17
   29.422501        1.18356145E-17
   29.565001        1.18461876E-17
   29.707500        1.18644294E-17
   29.850000        1.18810193E-17
   29.992500        1.18877344E-17
   30.135000        1.18824371E-17
   30.277500        1.18703694E-17
   30.420000        1.18609618E-17
   30.562500        1.18620777E-17
   30.705000        1.18752009E-17
   30.847500        1.18944684E-17
   30.990000        1.19101576E-17
   31.132500        1.19145309E-17
   31.275000        1.19064948E-17
   31.417500        1.18922607E-17
   31.559999        1.18815892E-17
   31.702499        1.18818961E-17
   31.844999        1.18937703E-17
   31.987499        1.19106324E-17
   32.130001        1.19227464E-17
   32.272499        1.19231617E-17
   32.415001        1.19119980E-17
   32.557499        1.18964537E-17
   32.700001        1.18865093E-17
   32.842499        1.18889073E-17
   32.985001        1.19030215E-17
   33.127499        1.19211417E-17
   33.270000        1.19330068E-17
   33.412498        1.19318992E-17
   33.555000        1.19186362E-17
   33.697498        1.19010677E-17
   33.840000        1.18893771E-17
   33.982498        1.18900058E-17
   34.125000        1.19018527E-17
   34.267502        1.19170405E-17
   34.410000        1.19257723E-17
   34.552502        1.19223610E-17
   34.695000        1.19087952E-17
   34.837502        1.18936760E-17
   34.980000        1.18871528E-17
   35.122501        1.18948994E-17
   35.264999        1.19147137E-17
   35.407501        1.19378135E-17
   35.549999        1.19540345E-17
   35.692501        1.19578172E-17
   35.834999        1.19514223E-17
   35.977501        1.19434450E-17
   36.119999        1.19435426E-17
   36.262501        1.19565682E-17
   36.404999        1.19796143E-17
   36.547501        1.20037307E-17
   36.689999        1.20192784E-17
   36.832500        1.20216607E-17
   36.974998        1.20140184E-17
   37.117500        1.20052461E-17
   37.259998        1.20045711E-17
   37.402500        1.20159474E-17
   37.544998        1.20356458E-17
   37.687500        1.20544741E-17
   37.830002        1.20632828E-17
   37.972500        1.20584272E-17
   38.115002        1.20439102E-17
   38.257500        1.20289407E-17
   38.400002        1.20223952E-17
   38.542500        1.20275353E-17
   38.685001        1.20401606E-17
   38.827499        1.20512804E-17
   38.970001        1.20526684E-17
   39.112499        1.20419208E-17
   39.255001        1.20239602E-17
   39.397499        1.20080875E-17
   39.540001        1.20023841E-17
   39.682499        1.20088568E-17
   39.825001        1.20222645E-17
   39.967499        1.20333388E-17
   40.110001        1.20344315E-17
   40.252499        1.20241613E-17
   40.395000        1.20082595E-17
   40.537498        1.19960892E-17
   40.680000        1.19949593E-17
   40.822498        1.20056779E-17
   40.965000        1.20220437E-17
   41.107498        1.20345796E-17
   41.250000        1.20362505E-17
   41.392502        1.20267106E-17
   41.535000        1.20124864E-17
   41.677502        1.20030086E-17
   41.820000        1.20048788E-17
   41.962502        1.20178565E-17
   42.105000        1.20350106E-17
   42.247501        1.20469476E-17
   42.389999        1.20475672E-17
   42.532501        1.20378527E-17
   42.674999        1.20253747E-17
   42.817501        1.20197929E-17
   42.959999        1.20270390E-17
   43.102501        1.20456961E-17
   43.244999        1.20677702E-17
   43.387501        1.20834064E-17
   43.529999        1.20867275E-17
   43.672501        1.20792771E-17
   43.814999        1.20689978E-17
   43.957500        1.20653573E-17
   44.099998        1.20735563E-17
   44.242500        1.20913167E-17
   44.384998        1.21102038E-17
   44.527500        1.21206932E-17
   44.669998        1.21179495E-17
   44.812500        1.21048205E-17
   44.955002        1.20902381E-17
   45.097500        1.20839590E-17
   45.240002        1.20907873E-17
   45.382500        1.21077429E-17
   45.525002        1.21258681E-17
   45.667500        1.21355990E-17
   45.810001        1.21324690E-17
   45.952499        1.21197420E-17
   46.095001        1.21063938E-17
   46.237499        1.21016681E-17
   46.380001        1.21094874E-17
   46.522499        1.21260691E-17
   46.665001        1.21421883E-17
   46.807499        1.21487115E-17
   46.950001        1.21420916E-17
   47.092499        1.21265100E-17
   47.235001        1.21114023E-17
   47.377499        1.21058420E-17
   47.520000        1.21131758E-17
   47.662498        1.21290974E-17
   47.805000        1.21443142E-17
   47.947498        1.21501764E-17
   48.090000        1.21438775E-17
   48.232498        1.21301032E-17
   48.375000        1.21181703E-17
   48.517502        1.21163853E-17
   48.660000        1.21270435E-17
   48.802502        1.21450736E-17
   48.945000        1.21611217E-17
   49.087502        1.21671998E-17
   49.230000        1.21614865E-17
   49.372501        1.21493782E-17
   49.514999        1.21401841E-17
   49.657501        1.21414654E-17
   49.799999        1.21544513E-17
   49.942501        1.21732887E-17
   50.084999        1.21885733E-17
   50.227501        1.21930029E-17
   50.369999        1.21857518E-17
   50.512501        1.21729107E-17
   50.654999        1.21637538E-17
   50.797501        1.21651029E-17
   50.939999        1.21772095E-17
   51.082500        1.21936357E-17
   51.224998        1.22052096E-17
   51.367500        1.22056290E-17
   51.509998        1.21953239E-17
   51.652500        1.21812156E-17
   51.794998        1.21725144E-17
   51.937500        1.21751159E-17
   52.080002        1.21879786E-17
   52.222500        1.22036975E-17
   52.365002        1.22129445E-17
   52.507500        1.22100982E-17
   52.650002        1.21966549E-17
   52.792500        1.21803553E-17
   52.935001        1.21705540E-17
   53.077499        1.21726096E-17
   53.220001        1.21847096E-17
   53.362499        1.21990330E-17
   53.505001        1.22065695E-17
   53.647499        1.22026668E-17
   53.790001        1.21899415E-17
   53.932499        1.21767736E-17
   54.075001        1.21722663E-17
   54.217499        1.21807019E-17
   54.360001        1.21988469E-17
   54.502499        1.22177654E-17
   54.645000        1.22280596E-17
   54.787498        1.22254325E-17
   54.930000        1.22132043E-17
   55.072498        1.22002945E-17
   55.215000        1.21958567E-17
   55.357498        1.22037968E-17
   55.500000        1.22204661E-17
   55.642502        1.22369270E-17
   55.785000        1.22444055E-17
   55.927502        1.22396732E-17
   56.070000        1.22270769E-17
   56.212502        1.22160002E-17
   56.355000        1.22152557E-17
   56.497501        1.22277676E-17
   56.639999        1.22487482E-17
   56.782501        1.22684649E-17
   56.924999        1.22779593E-17
   57.067501        1.22742982E-17
   57.209999        1.22622280E-17
   57.352501        1.22512430E-17
   57.494999        1.22498509E-17
   57.637501        1.22604777E-17
   57.779999        1.22780495E-17
   57.922501        1.22931000E-17
   58.064999        1.22975039E-17
   58.207500        1.22893827E-17
   58.349998        1.22742378E-17
   58.492500        1.22616307E-17
   58.634998        1.22594280E-17
   58.777500        1.22690745E-17
   58.919998        1.22847471E-17
   59.062500        1.22968777E-17
   59.205002        1.22979382E-17
   59.347500        1.22869814E-17
   59.490002        1.22702442E-17
   59.632500        1.22574402E-17
   59.775002        1.22559927E-17
   59.917500        1.22666823E-17
   60.060001        1.22832921E-17
   60.202499        1.22964476E-17
   60.345001        1.22992931E-17
   60.487499        1.22915780E-17
   60.630001        1.22796873E-17
   60.772499        1.22726273E-17
   60.915001        1.22764298E-17
   61.057499        1.22903769E-17
   61.200001        1.23073474E-17
   61.342499        1.23180792E-17
   61.485001        1.23167822E-17
   61.627499        1.23046781E-17
   61.770000        1.22893512E-17
   61.912498        1.22802655E-17
   62.055000        1.22831747E-17
   62.197498        1.22967735E-17
   62.340000        1.23136058E-17
   62.482498        1.23246603E-17
   62.625000        1.23248497E-17
   62.767502        1.23160501E-17
   62.910000        1.23058609E-17
   63.052502        1.23028392E-17
   63.195000        1.23111292E-17
   63.337502        1.23277514E-17
   63.480000        1.23442487E-17
   63.622501        1.23517058E-17
   63.764999        1.23461297E-17
   63.907501        1.23309303E-17
   64.050003        1.23149740E-17
   64.192497        1.23073680E-17
   64.334999        1.23120821E-17
   64.477501        1.23256628E-17
   64.620003        1.23394056E-17
   64.762497        1.23446780E-17
   64.904999        1.23381805E-17
   65.047501        1.23239588E-17
   65.190002        1.23109539E-17
   65.332497        1.23075533E-17
   65.474998        1.23164480E-17
   65.617500        1.23329122E-17
   65.760002        1.23475789E-17
   65.902496        1.23520565E-17
   66.044998        1.23440287E-17
   66.187500        1.23287440E-17
   66.330002        1.23159773E-17
   66.472504        1.23142709E-17
   66.614998        1.23258820E-17
   66.757500        1.23454763E-17
   66.900002        1.23633293E-17
   67.042503        1.23711462E-17
   67.184998        1.23669730E-17
   67.327499        1.23562834E-17
   67.470001        1.23485889E-17
   67.612503        1.23516206E-17
   67.754997        1.23665826E-17
   67.897499        1.23873581E-17
   68.040001        1.24041225E-17
   68.182503        1.24092171E-17
   68.324997        1.24017345E-17
   68.467499        1.23880670E-17
   68.610001        1.23780812E-17
   68.752502        1.23792128E-17
   68.894997        1.23920151E-17
   69.037498        1.24098350E-17
   69.180000        1.24227887E-17
   69.322502        1.24236465E-17
   69.464996        1.24121015E-17
   69.607498        1.23948813E-17
   69.750000        1.23816571E-17
   69.892502        1.23792500E-17
   70.035004        1.23876277E-17
   70.177498        1.24000851E-17
   70.320000        1.24074784E-17
   70.462502        1.24039290E-17
   70.605003        1.23905253E-17
   70.747498        1.23747940E-17
   70.889999        1.23662344E-17
   71.032501        1.23706267E-17
   71.175003        1.23865342E-17
   71.317497        1.24061028E-17
   71.459999        1.24196760E-17
   71.602501        1.24214387E-17
   71.745003        1.24126987E-17
   71.887497        1.24008659E-17
   72.029999        1.23947779E-17
   72.172501        1.23992405E-17
   72.315002        1.24121007E-17
   72.457497        1.24256176E-17
   72.599998        1.24312896E-17
   72.742500        1.24251842E-17
   72.885002        1.24105051E-17
   73.027496        1.23958218E-17
   73.169998        1.23899943E-17
   73.312500        1.23968632E-17
   73.455002        1.24129072E-17
   73.597504        1.24293011E-17
   73.739998        1.24371361E-17
   73.882500        1.24326677E-17
   74.025002        1.24194229E-17
   74.167503        1.24059208E-17
   74.309998        1.24003944E-17
   74.452499        1.24057273E-17
   74.595001        1.24176941E-17
   74.737503        1.24275731E-17
   74.879997        1.24275590E-17
   75.022499        1.24156840E-17
   75.165001        1.23972329E-17
   75.307503        1.23817514E-17
   75.449997        1.23774311E-17
   75.592499        1.23862199E-17
   75.735001        1.24026328E-17
   75.877502        1.24169902E-17
   76.019997        1.24211641E-17
   76.162498        1.24133936E-17
   76.305000        1.23992670E-17
   76.447502        1.23882969E-17
   76.589996        1.23881464E-17
   76.732498        1.23999875E-17
   76.875000        1.24177991E-17
   77.017502        1.24320250E-17
   77.160004        1.24353958E-17
   77.302498        1.24273862E-17
   77.445000        1.24146079E-17
   77.587502        1.24068729E-17
   77.730003        1.24112793E-17
   77.872498        1.24278560E-17
   78.014999        1.24494148E-17
   78.157501        1.24656987E-17
   78.300003        1.24693730E-17
   78.442497        1.24602682E-17
   78.584999        1.24453724E-17
   78.727501        1.24345694E-17
   78.870003        1.24347224E-17
   79.012497        1.24456230E-17
   79.154999        1.24602525E-17
   79.297501        1.24691480E-17
   79.440002        1.24662430E-17
   79.582497        1.24526301E-17
   79.724998        1.24359839E-17
   79.867500        1.24259849E-17
   80.010002        1.24285020E-17
   80.152496        1.24420380E-17
   80.294998        1.24585717E-17
   80.437500        1.24683060E-17
   80.580002        1.24654638E-17
   80.722504        1.24516689E-17
   80.864998        1.24348986E-17
   81.007500        1.24246763E-17
   81.150002        1.24263977E-17
   81.292503        1.24382098E-17
   81.434998        1.24522926E-17
   81.577499        1.24597165E-17
   81.720001        1.24559189E-17
   81.862503        1.24434715E-17
   82.004997        1.24304616E-17
   82.147499        1.24254961E-17
   82.290001        1.24323567E-17
   82.432503        1.24475785E-17
   82.574997        1.24624123E-17
   82.717499        1.24680156E-17
   82.860001        1.24607389E-17
   83.002502        1.24443152E-17
   83.144997        1.24276542E-17
   83.287498        1.24195602E-17
   83.430000        1.24235803E-17
   83.572502        1.24360674E-17
   83.714996        1.24486033E-17
   83.857498        1.24532844E-17
   84.000000        1.24476273E-17
   84.142502        1.24361088E-17
   84.285004        1.24273944E-17
   84.427498        1.24289437E-17
   84.570000        1.24422795E-17
   84.712502        1.24618391E-17
   84.855003        1.24781213E-17
   84.997498        1.24832821E-17
   85.139999        1.24758019E-17
   85.282501        1.24614040E-17
   85.425003        1.24496555E-17
   85.567497        1.24482865E-17
   85.709999        1.24586337E-17
   85.852501        1.24749548E-17
   85.995003        1.24880160E-17
   86.137497        1.24907623E-17
   86.279999        1.24826410E-17
   86.422501        1.24699421E-17
   86.565002        1.24619408E-17
   86.707497        1.24651693E-17
   86.849998        1.24792967E-17
   86.992500        1.24971440E-17
   87.135002        1.25088610E-17
   87.277496        1.25077906E-17
   87.419998        1.24944920E-17
   87.562500        1.24765058E-17
   87.705002        1.24639600E-17
   87.847504        1.24636506E-17
   87.989998        1.24751137E-17
   88.132500        1.24910369E-17
   88.275002        1.25017497E-17
   88.417503        1.25010706E-17
   88.559998        1.24899979E-17
   88.702499        1.24760252E-17
   88.845001        1.24684995E-17
   88.987503        1.24728381E-17
   89.129997        1.24870995E-17
   89.272499        1.25029987E-17
   89.415001        1.25107817E-17
   89.557503        1.25050452E-17
   89.699997        1.24880086E-17
   89.842499        1.24682828E-17
   89.985001        1.24558585E-17
   90.127502        1.24563218E-17
   90.269997        1.24677154E-17
   90.412498        1.24819296E-17
   90.555000        1.24897217E-17
   90.697502        1.24863327E-17
   90.839996        1.24743262E-17
   90.982498        1.24619499E-17
   91.125000        1.24580448E-17
   91.267502        1.24665953E-17
   91.410004        1.24842250E-17
   91.552498        1.25021426E-17
   91.695000        1.25113756E-17
   91.837502        1.25081248E-17
   91.980003        1.24960190E-17