  -30.000000        9.78447028E-19
  -29.857500        9.80199307E-19
  -29.715000        9.83397394E-19
  -29.572500        9.87513134E-19
  -29.430000        9.91905360E-19
  -29.287500        9.95947895E-19
  -29.145000        9.99148670E-19
  -29.002501        1.00123947E-18
  -28.860001        1.00221565E-18
  -28.717501        1.00232742E-18
  -28.575001        1.00202137E-18
  -28.432501        1.00184714E-18
  -28.290001        1.00234531E-18
  -28.147499        1.00393484E-18
  -28.004999        1.00682098E-18
  -27.862499        1.01094706E-18
  -27.719999        1.01599389E-18
  -27.577499        1.02144015E-18
  -27.434999        1.02666556E-18
  -27.292500        1.03107846E-18
  -27.150000        1.03423933E-18
  -27.007500        1.03595262E-18
  -26.865000        1.03630376E-18
  -26.722500        1.03563933E-18
  -26.580000        1.03449399E-18
  -26.437500        1.03348070E-18
  -26.295000        1.03316978E-18
  -26.152500        1.03398393E-18
  -26.010000        1.03611785E-18
  -25.867500        1.03950402E-18
  -25.725000        1.04382883E-18
  -25.582500        1.04859122E-18
  -25.440001        1.05320099E-18
  -25.297501        1.05709774E-18
  -25.155001        1.05986559E-18
  -25.012501        1.06132070E-18
  -24.870001        1.06155107E-18
  -24.727501        1.06090091E-18
  -24.584999        1.05989568E-18
  -24.442499        1.05912991E-18
  -24.299999        1.05914087E-18
  -24.157499        1.06029800E-18
  -24.014999        1.06272867E-18
  -23.872499        1.06629961E-18
  -23.730000        1.07064706E-18
  -23.587500        1.07525311E-18
  -23.445000        1.07954970E-18
  -23.302500        1.08302954E-18
  -23.160000        1.08534575E-18
  -23.017500        1.08638024E-18
  -22.875000        1.08627167E-18
  -22.732500        1.08538959E-18
  -22.590000        1.08426328E-18
  -22.447500        1.08347291E-18
  -22.305000        1.08352812E-18
  -22.162500        1.08475897E-18
  -22.020000        1.08724268E-18
  -21.877501        1.09078891E-18
  -21.735001        1.09498199E-18
  -21.592501        1.09927196E-18
  -21.450001        1.10309198E-18
  -21.307501        1.10597708E-18
  -21.165001        1.10765812E-18
  -21.022499        1.10811121E-18
  -20.879999        1.10756506E-18
  -20.737499        1.10645323E-18
  -20.594999        1.10533188E-18
  -20.452499        1.10476960E-18
  -20.309999        1.10523562E-18
  -20.167500        1.10700258E-18
  -20.025000        1.11008403E-18
  -19.882500        1.11422800E-18
  -19.740000        1.11896196E-18
  -19.597500        1.12368950E-18
  -19.455000        1.12781796E-18
  -19.312500        1.13088514E-18
  -19.170000        1.13265945E-18
  -19.027500        1.13319174E-18
  -18.885000        1.13280100E-18
  -18.742500        1.13201032E-18
  -18.600000        1.13143915E-18
  -18.457500        1.13167862E-18
  -18.315001        1.13317395E-18
  -18.172501        1.13613567E-18
  -18.030001        1.14049264E-18
  -17.887501        1.14589951E-18
  -17.745001        1.15179069E-18
  -17.602501        1.15747993E-18
  -17.459999        1.16228720E-18
  -17.317499        1.16566985E-18
  -17.174999        1.16733124E-18
  -17.032499        1.16728150E-18
  -16.889999        1.16583921E-18
  -16.747499        1.16356705E-18
  -16.605000        1.16116037E-18
  -16.462500        1.15930697E-18
  -16.320000        1.15855547E-18
  -16.177500        1.15921463E-18
  -16.035000        1.16130388E-18
  -15.892500        1.16456380E-18
  -15.750000        1.16851431E-18
  -15.607500        1.17255416E-18
  -15.465000        1.17607857E-18
  -15.322500        1.17859279E-18
  -15.180000        1.17980947E-18
  -15.037500        1.17970038E-18
  -14.895000        1.17850293E-18
  -14.752500        1.17666969E-18
  -14.610000        1.17477256E-18
  -14.467500        1.17338041E-18
  -14.325000        1.17293404E-18
  -14.182500        1.17364997E-18
  -14.040000        1.17547204E-18
  -13.897500        1.17808428E-18
  -13.755000        1.18098179E-18
  -13.612500        1.18357965E-18
  -13.470000        1.18533534E-18
  -13.327500        1.18586288E-18
  -13.185000        1.18501202E-18
  -13.042500        1.18290167E-18
  -12.900000        1.17990387E-18
  -12.757500        1.17657870E-18
  -12.615000        1.17357666E-18
  -12.472500        1.17151801E-18
  -12.330000        1.17087819E-18
  -12.187500        1.17189283E-18
  -12.045000        1.17451137E-18
  -11.902500        1.17840574E-18
  -11.760000        1.18303392E-18
  -11.617500        1.18775143E-18
  -11.475000        1.19194017E-18
  -11.332500        1.19512854E-18
  -11.190000        1.19708141E-18
  -11.047500        1.19783115E-18
  -10.905000        1.19766064E-18
  -10.762500        1.19702992E-18
  -10.620000        1.19647736E-18
  -10.477500        1.19650693E-18
  -10.335000        1.19748600E-18
  -10.192500        1.19956926E-18
  -10.050000        1.20266560E-18
  -9.9075003        1.20644944E-18
  -9.7650003        1.21042011E-18
  -9.6225004        1.21400015E-18
  -9.4799995        1.21664671E-18
  -9.3374996        1.21796813E-18
  -9.1949997        1.21780353E-18
  -9.0524998        1.21625701E-18
  -8.9099998        1.21367610E-18
  -8.7674999        1.21057655E-18
  -8.6250000        1.20753491E-18
  -8.4825001        1.20507539E-18
  -8.3400002        1.20356671E-18
  -8.1975002        1.20316377E-18
  -8.0550003        1.20378902E-18
  -7.9124999        1.20515945E-18
  -7.7700000        1.20685486E-18
  -7.6275001        1.20840675E-18
  -7.4850001        1.20939523E-18
  -7.3425002        1.20953916E-18
  -7.1999998        1.20875986E-18
  -7.0574999        1.20720341E-18
  -6.9150000        1.20521694E-18
  -6.7725000        1.20327968E-18
  -6.6300001        1.20190118E-18
  -6.4875002        1.20151127E-18
  -6.3449998        1.20236110E-18
  -6.2024999        1.20446865E-18
  -6.0599999        1.20761225E-18
  -5.9175000        1.21137850E-18
  -5.7750001        1.21525033E-18
  -5.6325002        1.21871208E-18
  -5.4899998        1.22135234E-18
  -5.3474998        1.22294011E-18
  -5.2049999        1.22346733E-18
  -5.0625000        1.22314504E-18
  -4.9200001        1.22236150E-18
  -4.7775002        1.22160442E-18
  -4.6350002        1.22136154E-18
  -4.4924998        1.22201729E-18
  -4.3499999        1.22376832E-18
  -4.2075000        1.22656647E-18
  -4.0650001        1.23011962E-18
  -3.9224999        1.23393913E-18
  -3.7800000        1.23743635E-18
  -3.6375000        1.24004331E-18
  -3.4949999        1.24133175E-18
  -3.3525000        1.24110251E-18
  -3.2100000        1.23942830E-18
  -3.0675001        1.23663884E-18
  -2.9250000        1.23325805E-18
  -2.7825000        1.22990507E-18
  -2.6400001        1.22718138E-18
  -2.4974999        1.22556351E-18
  -2.3550000        1.22531970E-18
  -2.2125001        1.22646524E-18
  -2.0699999        1.22876388E-18
  -1.9275000        1.23177812E-18
  -1.7850000        1.23495698E-18
  -1.6425000        1.23774995E-18
  -1.5000000        1.23972278E-18
  -1.3575000        1.24065139E-18
  -1.2150000        1.24056940E-18
  -1.0725000        1.23975907E-18
 -0.93000001        1.23868622E-18
 -0.78750002        1.23789647E-18
 -0.64499998        1.23789388E-18
 -0.50250000        1.23902898E-18
 -0.36000001        1.24142522E-18
 -0.21750000        1.24494766E-18
 -7.50000030E-02    1.24922781E-18
  6.75000027E-02    1.25373087E-18
  0.20999999        1.25785654E-18
  0.35249999        1.26105163E-18
  0.49500000        1.26292075E-18
  0.63749999        1.26330384E-18
  0.77999997        1.26231949E-18
  0.92250001        1.26034615E-18
   1.0650001        1.25795363E-18
   1.2075000        1.25579045E-18
   1.3500000        1.25445114E-18
   1.4924999        1.25435374E-18
   1.6350000        1.25565304E-18
   1.7775000        1.25820975E-18
   1.9200000        1.26162145E-18
   2.0625000        1.26530809E-18
   2.2049999        1.26862550E-18
   2.3475001        1.27099351E-18
   2.4900000        1.27200474E-18
   2.6324999        1.27150037E-18
   2.7750001        1.26960064E-18
   2.9175000        1.26668597E-18
   3.0599999        1.26332917E-18
   3.2025001        1.26019364E-18
   3.3450000        1.25790783E-18
   3.4875000        1.25694850E-18
   3.6300001        1.25754573E-18
   3.7725000        1.25964284E-18
   3.9150000        1.26291030E-18
   4.0574999        1.26681977E-18
   4.1999998        1.27075580E-18
   4.3425002        1.27414342E-18
   4.4850001        1.27656003E-18
   4.6275001        1.27780731E-18
   4.7700000        1.27793521E-18
   4.9124999        1.27721215E-18
   5.0549998        1.27605379E-18
   5.1975002        1.27493141E-18
   5.3400002        1.27427153E-18
   5.4825001        1.27436748E-18
   5.6250000        1.27531905E-18
   5.7674999        1.27700825E-18
   5.9099998        1.27911943E-18
   6.0524998        1.28120299E-18
   6.1950002        1.28277174E-18
   6.3375001        1.28340980E-18
   6.4800000        1.28287369E-18
   6.6224999        1.28115667E-18
   6.7649999        1.27850452E-18
   6.9074998        1.27537095E-18
   7.0500002        1.27232972E-18
   7.1925001        1.26996254E-18
   7.3350000        1.26874462E-18
   7.4775000        1.26895606E-18
   7.6199999        1.27063648E-18
   7.7624998        1.27358052E-18
   7.9050002        1.27738359E-18
   8.0474997        1.28151887E-18
   8.1899996        1.28543536E-18
   8.3325005        1.28866013E-18
   8.4750004        1.29088648E-18
   8.6175003        1.29203306E-18
   8.7600002        1.29225898E-18
   8.9025002        1.29192708E-18
   9.0450001        1.29152620E-18
   9.1875000        1.29155846E-18
   9.3299999        1.29242793E-18
   9.4724998        1.29434493E-18
   9.6149998        1.29727542E-18
   9.7574997        1.30094562E-18
   9.8999996        1.30489375E-18
   10.042500        1.30856437E-18
   10.185000        1.31141628E-18
   10.327500        1.31302421E-18
   10.470000        1.31316101E-18
   10.612500        1.31184062E-18
   10.755000        1.30931845E-18
   10.897500        1.30604943E-18
   11.040000        1.30260681E-18
   11.182500        1.29957767E-18
   11.325000        1.29745399E-18
   11.467500        1.29653892E-18
   11.610000        1.29689099E-18
   11.752500        1.29832129E-18
   11.895000        1.30044052E-18
   12.037500        1.30275053E-18
   12.180000        1.30475758E-18
   12.322500        1.30607548E-18
   12.465000        1.30650645E-18
   12.607500        1.30607517E-18
   12.750000        1.30501680E-18
   12.892500        1.30372391E-18
   13.035000        1.30266802E-18
   13.177500        1.30230292E-18
   13.320000        1.30297118E-18
   13.462500        1.30483482E-18
   13.605000        1.30783097E-18
   13.747500        1.31167498E-18
   13.890000        1.31590591E-18
   14.032500        1.31997336E-18
   14.175000        1.32334722E-18
   14.317500        1.32562631E-18
   14.460000        1.32662224E-18
   14.602500        1.32639714E-18
   14.745000        1.32524539E-18
   14.887500        1.32362815E-18
   15.030000        1.32207285E-18
   15.172500        1.32106824E-18
   15.315000        1.32096846E-18
   15.457500        1.32193016E-18
   15.600000        1.32388727E-18
   15.742500        1.32656806E-18
   15.885000        1.32954591E-18
   16.027500        1.33232203E-18
   16.170000        1.33442265E-18
   16.312500        1.33549344E-18
   16.455000        1.33538043E-18
   16.597500        1.33417191E-18
   16.740000        1.33219226E-18
   16.882500        1.32994316E-18
   17.025000        1.32800301E-18
   17.167500        1.32690875E-18
   17.309999        1.32704275E-18
   17.452499        1.32855443E-18
   17.594999        1.33133251E-18
   17.737499        1.33502846E-18
   17.879999        1.33912621E-18
   18.022499        1.34303795E-18
   18.165001        1.34621091E-18
   18.307501        1.34822044E-18
   18.450001        1.34884186E-18
   18.592501        1.34808623E-18
   18.735001        1.34619767E-18
   18.877501        1.34360725E-18
   19.020000        1.34085160E-18
   19.162500        1.33847015E-18
   19.305000        1.33689872E-18
   19.447500        1.33638338E-18
   19.590000        1.33693625E-18
   19.732500        1.33834163E-18
   19.875000        1.34021385E-18
   20.017500        1.34208876E-18
   20.160000        1.34352877E-18
   20.302500        1.34421533E-18
   20.445000        1.34401319E-18
   20.587500        1.34298997E-18
   20.730000        1.34139930E-18
   20.872499        1.33962541E-18
   21.014999        1.33810474E-18
   21.157499        1.33723951E-18
   21.299999        1.33731861E-18
   21.442499        1.33845309E-18
   21.584999        1.34055465E-18
   21.727501        1.34334483E-18
   21.870001        1.34641605E-18
   22.012501        1.34931894E-18
   22.155001        1.35166068E-18
   22.297501        1.35319438E-18
   22.440001        1.35387567E-18
   22.582500        1.35387008E-18
   22.725000        1.35351274E-18
   22.867500        1.35323564E-18
   23.010000        1.35346931E-18
   23.152500        1.35455251E-18
   23.295000        1.35665882E-18
   23.437500        1.35975454E-18
   23.580000        1.36359938E-18
   23.722500        1.36777975E-18
   23.865000        1.37178040E-18
   24.007500        1.37507724E-18
   24.150000        1.37723814E-18
   24.292500        1.37801052E-18
   24.434999        1.37737876E-18
   24.577499        1.37557334E-18
   24.719999        1.37302697E-18
   24.862499        1.37028641E-18
   25.004999        1.36790072E-18
   25.147499        1.36630798E-18
   25.290001        1.36575481E-18
   25.432501        1.36625422E-18
   25.575001        1.36759684E-18
   25.717501        1.36940722E-18
   25.860001        1.37122402E-18
   26.002501        1.37259973E-18
   26.145000        1.37318971E-18
   26.287500        1.37282317E-18
   26.430000        1.37154311E-18
   26.572500        1.36960968E-18
   26.715000        1.36745559E-18
   26.857500        1.36560902E-18
   27.000000        1.36458714E-18
   27.142500        1.36478608E-18
   27.285000        1.36639298E-18
   27.427500        1.36933774E-18
   27.570000        1.37330386E-18
   27.712500        1.37779111E-18
   27.855000        1.38221756E-18
   27.997499        1.38603417E-18
   28.139999        1.38883129E-18
   28.282499        1.39040551E-18
   28.424999        1.39078664E-18
   28.567499        1.39021754E-18
   28.709999        1.38909516E-18
   28.852501        1.38788964E-18
   28.995001        1.38704809E-18
   29.137501        1.38690602E-18
   29.280001        1.38761678E-18
   29.422501        1.38911542E-18
   29.565001        1.39112609E-18
   29.707500        1.39321803E-18
   29.850000        1.39489731E-18
   29.992500        1.39571943E-18
   30.135000        1.39539445E-18
   30.277500        1.39386334E-18
   30.420000        1.39131903E-18
   30.562500        1.38817554E-18
   30.705000        1.38498769E-18
   30.847500        1.38234609E-18
   30.990000        1.38076038E-18
   31.132500        1.38056847E-18
   31.275000        1.38187128E-18
   31.417500        1.38451526E-18
   31.559999        1.38811764E-18
   31.702499        1.39213411E-18
   31.844999        1.39595393E-18
   31.987499        1.39901171E-18
   32.130001        1.40089830E-18
   32.272499        1.40143731E-18
   32.415001        1.40072563E-18
   32.557499        1.39911345E-18
   32.700001        1.39713587E-18
   32.842499        1.39540272E-18
   32.985001        1.39447865E-18
   33.127499        1.39477168E-18
   33.270000        1.39645934E-18
   33.412498        1.39946035E-18
   33.555000        1.40345687E-18
   33.697498        1.40795777E-18
   33.840000        1.41238691E-18
   33.982498        1.41618636E-18
   34.125000        1.41891450E-18
   34.267502        1.42031936E-18
   34.410000        1.42038275E-18
   34.552502        1.41931589E-18
   34.695000        1.41751377E-18
   34.837502        1.41547146E-18
   34.980000        1.41367814E-18
   35.122501        1.41251357E-18
   35.264999        1.41217298E-18
   35.407501        1.41263361E-18
   35.549999        1.41367224E-18
   35.692501        1.41492511E-18
   35.834999        1.41597749E-18
   35.977501        1.41645540E-18
   36.119999        1.41610674E-18
   36.262501        1.41485563E-18
   36.404999        1.41281983E-18
   36.547501        1.41029910E-18
   36.689999        1.40772626E-18
   36.832500        1.40559575E-18
   36.974998        1.40437391E-18
   37.117500        1.40441258E-18
   37.259998        1.40587451E-18
   37.402500        1.40869572E-18
   37.544998        1.41258936E-18
   37.687500        1.41710194E-18
   37.830002        1.42169982E-18
   37.972500        1.42587471E-18
   38.115002        1.42923947E-18
   38.257500        1.43159156E-18
   38.400002        1.43293614E-18
   38.542500        1.43346306E-18
   38.685001        1.43348860E-18
   38.827499        1.43338323E-18
   38.970001        1.43348973E-18
   39.112499        1.43405625E-18
   39.255001        1.43518618E-18
   39.397499        1.43681986E-18
   39.540001        1.43874336E-18
   39.682499        1.44062934E-18
   39.825001        1.44210720E-18
   39.967499        1.44284856E-18
   40.110001        1.44264848E-18
   40.252499        1.44148598E-18
   40.395000        1.43954397E-18
   40.537498        1.43718258E-18
   40.680000        1.43486792E-18
   40.822498        1.43308069E-18
   40.965000        1.43221350E-18
   41.107498        1.43249753E-18
   41.250000        1.43395730E-18
   41.392502        1.43641082E-18
   41.535000        1.43950944E-18
   41.677502        1.44280120E-18
   41.820000        1.44581266E-18
   41.962502        1.44813238E-18
   42.105000        1.44948317E-18
   42.247501        1.44976761E-18
   42.389999        1.44908364E-18
   42.532501        1.44770111E-18
   42.674999        1.44600146E-18
   42.817501        1.44439342E-18
   42.959999        1.44322141E-18
   43.102501        1.44268736E-18
   43.244999        1.44281185E-18
   43.387501        1.44343575E-18
   43.529999        1.44426717E-18
   43.672501        1.44495673E-18
   43.814999        1.44518348E-18
   43.957500        1.44473329E-18
   44.099998        1.44354804E-18
   44.242500        1.44174686E-18
   44.384998        1.43960622E-18
   44.527500        1.43751614E-18
   44.669998        1.43590634E-18
   44.812500        1.43516788E-18
   44.955002        1.43556926E-18
   45.097500        1.43719819E-18
   45.240002        1.43993109E-18
   45.382500        1.44344930E-18
   45.525002        1.44729476E-18
   45.667500        1.45096237E-18
   45.810001        1.45399988E-18
   45.952499        1.45609978E-18
   46.095001        1.45715434E-18
   46.237499        1.45726797E-18
   46.380001        1.45672668E-18
   46.522499        1.45592990E-18
   46.665001        1.45530859E-18
   46.807499        1.45524231E-18
   46.950001        1.45598884E-18
   47.092499        1.45764072E-18
   47.235001        1.46010685E-18
   47.377499        1.46312875E-18
   47.520000        1.46632746E-18
   47.662498        1.46927739E-18
   47.805000        1.47158967E-18
   47.947498        1.47300136E-18
   48.090000        1.47343118E-18
   48.232498        1.47299888E-18
   48.375000        1.47199913E-18
   48.517502        1.47083011E-18
   48.660000        1.46990202E-18
   48.802502        1.46954488E-18
   48.945000        1.46993665E-18
   49.087502        1.47107237E-18
   49.230000        1.47276913E-18
   49.372501        1.47470876E-18
   49.514999        1.47650323E-18
   49.657501        1.47776313E-18
   49.799999        1.47817258E-18
   49.942501        1.47755054E-18
   50.084999        1.47589142E-18
   50.227501        1.47337866E-18
   50.369999        1.47036441E-18
   50.512501        1.46731201E-18
   50.654999        1.46470991E-18
   50.797501        1.46297789E-18
   50.939999        1.46237664E-18
   51.082500        1.46295690E-18
   51.224998        1.46454933E-18
   51.367500        1.46680650E-18
   51.509998        1.46927936E-18
   51.652500        1.47150809E-18
   51.794998        1.47311168E-18
   51.937500        1.47385553E-18
   52.080002        1.47368657E-18
   52.222500        1.47273728E-18
   52.365002        1.47129654E-18
   52.507500        1.46976026E-18
   52.650002        1.46855588E-18
   52.792500        1.46806609E-18
   52.935001        1.46854772E-18
   53.077499        1.47007790E-18
   53.220001        1.47252904E-18
   53.362499        1.47559043E-18
   53.505001        1.47882843E-18
   53.647499        1.48177857E-18
   53.790001        1.48404112E-18
   53.932499        1.48536295E-18
   54.075001        1.48568431E-18
   54.217499        1.48514530E-18
   54.360001        1.48405053E-18
   54.502499        1.48280779E-18
   54.645000        1.48185023E-18
   54.787498        1.48155358E-18
   54.930000        1.48216952E-18
   55.072498        1.48377487E-18
   55.215000        1.48625176E-18
   55.357498        1.48930106E-18
   55.500000        1.49249501E-18
   55.642502        1.49535912E-18
   55.785000        1.49746760E-18
   55.927502        1.49853394E-18
   56.070000        1.49847346E-18
   56.212502        1.49741818E-18
   56.355000        1.49568668E-18
   56.497501        1.49371303E-18
   56.639999        1.49195289E-18
   56.782501        1.49079660E-18
   56.924999        1.49049550E-18
   57.067501        1.49112147E-18
   57.209999        1.49255942E-18
   57.352501        1.49453122E-18
   57.494999        1.49664766E-18
   57.637501        1.49847997E-18
   57.779999        1.49964505E-18
   57.922501        1.49988618E-18
   58.064999        1.49913799E-18
   58.207500        1.49755125E-18
   58.349998        1.49547296E-18
   58.492500        1.49337937E-18
   58.634998        1.49177329E-18
   58.777500        1.49107515E-18
   58.919998        1.49153196E-18
   59.062500        1.49316616E-18
   59.205002        1.49578140E-18
   59.347500        1.49900513E-18
   59.490002        1.50236824E-18
   59.632500        1.50539499E-18
   59.775002        1.50768680E-18
   59.917500        1.50899106E-18
   60.060001        1.50924386E-18
   60.202499        1.50858222E-18
   60.345001        1.50732346E-18
   60.487499        1.50591074E-18
   60.630001        1.50482620E-18
   60.772499        1.50449202E-18
   60.915001        1.50517300E-18
   61.057499        1.50691225E-18
   61.200001        1.50951332E-18
   61.342499        1.51258102E-18
   61.485001        1.51560530E-18
   61.627499        1.51807474E-18
   61.770000        1.51958248E-18
   61.912498        1.51990581E-18
   62.055000        1.51904399E-18
   62.197498        1.51720920E-18
   62.340000        1.51478225E-18
   62.482498        1.51224177E-18
   62.625000        1.51007911E-18
   62.767502        1.50871561E-18
   62.910000        1.50842516E-18
   63.052502        1.50928140E-18
   63.195000        1.51113893E-18
   63.337502        1.51365532E-18
   63.480000        1.51635545E-18
   63.622501        1.51873183E-18
   63.764999        1.52034990E-18
   63.907501        1.52094216E-18
   64.050003        1.52046095E-18
   64.192497        1.51908256E-18
   64.334999        1.51716298E-18
   64.477501        1.51515883E-18
   64.620003        1.51353631E-18
   64.762497        1.51268773E-18
   64.904999        1.51286454E-18
   65.047501        1.51414253E-18
   65.190002        1.51641107E-18
   65.332497        1.51939595E-18
   65.474998        1.52270788E-18
   65.617500        1.52591269E-18
   65.760002        1.52861385E-18
   65.902496        1.53053022E-18
   66.044998        1.53155251E-18
   66.187500        1.53176003E-18
   66.330002        1.53139225E-18
   66.472504        1.53078540E-18
   66.614998        1.53028579E-18
   66.757500        1.53016833E-18
   66.900002        1.53057871E-18
   67.042503        1.53150908E-18
   67.184998        1.53281127E-18
   67.327499        1.53423216E-18
   67.470001        1.53546694E-18
   67.612503        1.53621781E-18
   67.754997        1.53625121E-18
   67.897499        1.53544688E-18
   68.040001        1.53383160E-18
   68.182503        1.53159273E-18
   68.324997        1.52905732E-18
   68.467499        1.52663782E-18
   68.610001        1.52475360E-18
   68.752502        1.52373979E-18
   68.894997        1.52377422E-18
   69.037498        1.52483808E-18
   69.180000        1.52672302E-18
   69.322502        1.52908069E-18
   69.464996        1.53150030E-18
   69.607498        1.53359027E-18
   69.750000        1.53504818E-18
   69.892502        1.53570610E-18
   70.035004        1.53554986E-18
   70.177498        1.53471493E-18
   70.320000        1.53346154E-18
   70.462502        1.53213402E-18
   70.605003        1.53110015E-18
   70.747498        1.53068480E-18
   70.889999        1.53109860E-18
   71.032501        1.53238559E-18
   71.175003        1.53440453E-18
   71.317497        1.53685412E-18
   71.459999        1.53933700E-18
   71.602501        1.54145242E-18
   71.745003        1.54288240E-18
   71.887497        1.54346298E-18
   72.029999        1.54320531E-18
   72.172501        1.54228663E-18
   72.315002        1.54100243E-18
   72.457497        1.53970117E-18
   72.599998        1.53872355E-18
   72.742500        1.53834459E-18
   72.885002        1.53872923E-18
   73.027496        1.53990569E-18
   73.169998        1.54175785E-18
   73.312500        1.54404242E-18
   73.455002        1.54643411E-18
   73.597504        1.54859181E-18
   73.739998        1.55023749E-18
   73.882500        1.55122235E-18
   74.025002        1.55156366E-18
   74.167503        1.55143793E-18
   74.309998        1.55113415E-18
   74.452499        1.55097533E-18
   74.595001        1.55123589E-18
   74.737503        1.55207745E-18
   74.879997        1.55351054E-18
   75.022499        1.55539641E-18
   75.165001        1.55747284E-18
   75.307503        1.55940482E-18
   75.449997        1.56084587E-18
   75.592499        1.56150141E-18
   75.735001        1.56118905E-18
   75.877502        1.55988841E-18
   76.019997        1.55776049E-18
   76.162498        1.55513719E-18
   76.305000        1.55246519E-18
   76.447502        1.55022218E-18
   76.589996        1.54881474E-18
   76.732498        1.54848862E-18
   76.875000        1.54927393E-18
   77.017502        1.55098278E-18
   77.160004        1.55325411E-18
   77.302498        1.55563153E-18
   77.445000        1.55765947E-18
   77.587502        1.55896879E-18
   77.730003        1.55934071E-18
   77.872498        1.55874277E-18
   78.014999        1.55733532E-18
   78.157501        1.55544842E-18
   78.300003        1.55352936E-18
   78.442497        1.55206659E-18
   78.584999        1.55149573E-18
   78.727501        1.55210919E-18
   78.870003        1.55398586E-18
   79.012497        1.55696774E-18
   79.154999        1.56068747E-18
   79.297501        1.56464904E-18
   79.440002        1.56833692E-18
   79.582497        1.57132718E-18
   79.724998        1.57336970E-18
   79.867500        1.57442528E-18
   80.010002        1.57465296E-18
   80.152496        1.57435942E-18
   80.294998        1.57392370E-18
   80.437500        1.57371691E-18
   80.580002        1.57403072E-18
   80.722504        1.57501816E-18
   80.864998        1.57665588E-18
   81.007500        1.57873624E-18
   81.150002        1.58089404E-18
   81.292503        1.58266896E-18
   81.434998        1.58360037E-18
   81.577499        1.58333216E-18
   81.720001        1.58170385E-18
   81.862503        1.57880138E-18
   82.004997        1.57494961E-18
   82.147499        1.57065106E-18
   82.290001        1.56648197E-18
   82.432503        1.56298031E-18
   82.574997        1.56054829E-18
   82.717499        1.55938869E-18
   82.860001        1.55948516E-18
   83.002502        1.56062171E-18
   83.144997        1.56243313E-18
   83.287498        1.56447182E-18
   83.430000        1.56628862E-18
   83.572502        1.56751533E-18
   83.714996        1.56793388E-18
   83.857498        1.56752442E-18
   84.000000        1.56647215E-18
   84.142502        1.56512539E-18
   84.285004        1.56392154E-18
   84.427498        1.56327975E-18
   84.570000        1.56350464E-18
   84.712502        1.56471149E-18
   84.855003        1.56680643E-18
   84.997498        1.56950738E-18
   85.139999        1.57241099E-18
   85.282501        1.57507338E-18
   85.425003        1.57709397E-18
   85.567497        1.57818244E-18
   85.709999        1.57820839E-18
   85.852501        1.57722043E-18
   85.995003        1.57544168E-18
   86.137497        1.57323631E-18
   86.279999        1.57104790E-18
   86.422501        1.56932003E-18
   86.565002        1.56840630E-18
   86.707497        1.56849926E-18
   86.849998        1.56959114E-18
   86.992500        1.57148186E-18
   87.135002        1.57383385E-18
   87.277496        1.57625470E-18
   87.419998        1.57838624E-18
   87.562500        1.57997763E-18
   87.705002        1.58092547E-18
   87.847504        1.58128033E-18
   87.989998        1.58122181E-18
   88.132500        1.58101615E-18
   88.275002        1.58096621E-18
   88.417503        1.58135737E-18
   88.559998        1.58240106E-18
   88.702499        1.58418746E-18
   88.845001        1.58665267E-18
   88.987503        1.58957737E-18
   89.129997        1.59261902E-18
   89.272499        1.59537984E-18
   89.415001        1.59750114E-18
   89.557503        1.59874708E-18
   89.699997        1.59906679E-18
   89.842499        1.59860770E-18
   89.985001        1.59768012E-18
   90.127502        1.59668792E-18
   90.269997        1.59604065E-18
   90.412498        1.59607394E-18
   90.555000        1.59699129E-18
   90.697502        1.59883176E-18
   90.839996        1.60146365E-18
   90.982498        1.60460218E-18
   91.125000        1.60784586E-18
   91.267502        1.61073727E-18
   91.410004        1.61283872E-18
   91.552498        1.61381645E-18
   91.695000        1.61351680E-18
   91.837502        1.61200751E-18
   91.980003        1.60957694E-18