  -37.8452110         0.00000000    
  -37.7302094        -1.65370300E-12
  -37.6152115        -3.75211364E-12
  -37.5002098        -4.10220599E-12
  -37.3852119        -9.12292635E-14
  -37.2702103         1.05944966E-11
  -37.1552124         2.92532387E-11
  -37.0402107         5.56146830E-11
  -36.9252129         8.75788053E-11
  -36.8102112         1.21319718E-10
  -36.6952095         1.51753596E-10
  -36.5802116         1.73300277E-10
  -36.4652100         1.80812587E-10
  -36.3502121         1.70520070E-10
  -36.2352104         1.40837703E-10
  -36.1202126         9.29244806E-11
  -36.0052109         3.09264350E-11
  -35.8902092        -3.81044814E-11
  -35.7752113        -1.04575321E-10
  -35.6602097        -1.56932939E-10
  -35.5452118        -1.82381527E-10
  -35.4302101        -1.67663300E-10
  -35.3152122        -9.98486432E-11
  -35.2002106         3.29208501E-11
  -35.0852127         2.40775316E-10
  -34.9702110         5.31605204E-10
  -34.8552094         9.10774289E-10
  -34.7402115         1.38109568E-09
  -34.6252098         1.94315186E-09
  -34.5102119         2.59594657E-09
  -34.3952103         3.33782668E-09
  -34.2802124         4.16755341E-09
  -34.1652107         5.08533571E-09
  -34.0502129         6.09364292E-09
  -33.9352112         7.19761806E-09
  -33.8202095         8.40505443E-09
  -33.7052116         9.72596226E-09
  -33.5902100         1.11719070E-08
  -33.4752121         1.27553852E-08
  -33.3602104         1.44894363E-08
  -33.2452126         1.63877552E-08
  -33.1302109         1.84652844E-08
  -33.0152092         2.07392414E-08
  -32.9002113         2.32302302E-08
  -32.7852097         2.59631427E-08
  -32.6702118         2.89674507E-08
  -32.5552101         3.22766240E-08
  -32.4402122         3.59265790E-08
  -32.3252106         3.99533207E-08
  -32.2102127         4.43899530E-08
  -32.0952110         4.92636225E-08
  -31.9802113         5.45927179E-08
  -31.8652115         6.03847639E-08
  -31.7502117         6.66352733E-08
  -31.6352119         7.33277759E-08
  -31.5202103         8.04348872E-08
  -31.4052105         8.79205189E-08
  -31.2902107         9.57430117E-08
  -31.1752110         1.03859087E-07
  -31.0602112         1.12228513E-07
  -30.9452114         1.20819095E-07
  -30.8302116         1.29611365E-07
  -30.7152119         1.38603127E-07
  -30.6002102         1.47812372E-07
  -30.4852104         1.57278805E-07
  -30.3702106         1.67062638E-07
  -30.2552109         1.77241247E-07
  -30.1402111         1.87903169E-07
  -30.0252113         1.99140359E-07
  -29.9102116         2.11039236E-07
  -29.7952118         2.23672131E-07
  -29.6802101         2.37089608E-07
  -29.5652103         2.51315299E-07
  -29.4502106         2.66343619E-07
  -29.3352108         2.82140917E-07
  -29.2202110         2.98649638E-07
  -29.1052113         3.15795319E-07
  -28.9902115         3.33495507E-07
  -28.8752117         3.51669485E-07
  -28.7602119         3.70247818E-07
  -28.6452103         3.89181395E-07
  -28.5302105         4.08447647E-07
  -28.4152107         4.28054705E-07
  -28.3002110         4.48042840E-07
  -28.1852112         4.68482142E-07
  -28.0702114         4.89466970E-07
  -27.9552116         5.11108396E-07
  -27.8402119         5.33524997E-07
  -27.7252102         5.56831424E-07
  -27.6102104         5.81128972E-07
  -27.4952106         6.06495917E-07
  -27.3802109         6.32982278E-07
  -27.2652111         6.60606474E-07
  -27.1502113         6.89355829E-07
  -27.0352116         7.19192030E-07
  -26.9202118         7.50057779E-07
  -26.8052101         7.81887138E-07
  -26.6902103         8.14616499E-07
  -26.5752106         8.48195157E-07
  -26.4602108         8.82594350E-07
  -26.3452110         9.17813395E-07
  -26.2302113         9.53882818E-07
  -26.1152115         9.90863782E-07
  -26.0002117         1.02884326E-06
  -25.8852119         1.06792709E-06
  -25.7702103         1.10822964E-06
  -25.6552105         1.14986437E-06
  -25.5402107         1.19293406E-06
  -25.4252110         1.23752250E-06
  -25.3102112         1.28368913E-06
  -25.1952114         1.33146705E-06
  -25.0802116         1.38086432E-06
  -24.9652119         1.43186776E-06
  -24.8502102         1.48444860E-06
  -24.7352104         1.53857059E-06
  -24.6202106         1.59419767E-06
  -24.5052109         1.65130098E-06
  -24.3902111         1.70986664E-06
  -24.2752113         1.76989772E-06
  -24.1602116         1.83141856E-06
  -24.0452118         1.89447269E-06
  -23.9302101         1.95912207E-06
  -23.8152103         2.02544129E-06
  -23.7002106         2.09351128E-06
  -23.5852108         2.16341277E-06
  -23.4702110         2.23522079E-06
  -23.3552113         2.30899832E-06
  -23.2402115         2.38479493E-06
  -23.1252117         2.46264585E-06
  -23.0102119         2.54257657E-06
  -22.8952103         2.62460799E-06
  -22.7802105         2.70876421E-06
  -22.6652107         2.79507981E-06
  -22.5502110         2.88360548E-06
  -22.4352112         2.97441238E-06
  -22.3202114         3.06759398E-06
  -22.2052116         3.16326373E-06
  -22.0902119         3.26154714E-06
  -21.9752102         3.36257767E-06
  -21.8602104         3.46648835E-06
  -21.7452106         3.57340150E-06
  -21.6302109         3.68342603E-06
  -21.5152111         3.79664743E-06
  -21.4002113         3.91313324E-06
  -21.2852116         4.03292643E-06
  -21.1702118         4.15605382E-06
  -21.0552101         4.28252724E-06
  -20.9402103         4.41235579E-06
  -20.8252106         4.54554993E-06
  -20.7102108         4.68213466E-06
  -20.5952110         4.82215546E-06
  -20.4802113         4.96568646E-06
  -20.3652115         5.11283133E-06
  -20.2502117         5.26372469E-06
  -20.1352119         5.41852796E-06
  -20.0202103         5.57742078E-06
  -19.9052105         5.74059050E-06
  -19.7902107         5.90822310E-06
  -19.6752110         6.08048686E-06
  -19.5602112         6.25752864E-06
  -19.4452114         6.43946123E-06
  -19.3302116         6.62636694E-06
  -19.2152119         6.81829579E-06
  -19.1002102         7.01526960E-06
  -18.9852104         7.21730066E-06
  -18.8702106         7.42438715E-06
  -18.7552109         7.63653770E-06
  -18.6402111         7.85377597E-06
  -18.5252113         8.07615379E-06
  -18.4102116         8.30374847E-06
  -18.2952118         8.53667098E-06
  -18.1802101         8.77506682E-06
  -18.0652103         9.01910244E-06
  -17.9502106         9.26896882E-06
  -17.8352108         9.52486334E-06
  -17.7202110         9.78698699E-06
  -17.6052113         1.00555289E-05
  -17.4902115         1.03306656E-05
  -17.3752117         1.06125544E-05
  -17.2602119         1.09013363E-05
  -17.1452103         1.11971331E-05
  -17.0302105         1.15000603E-05
  -16.9152107         1.18102280E-05
  -16.8002110         1.21277453E-05
  -16.6852112         1.24527378E-05
  -16.5702114         1.27853446E-05
  -16.4552116         1.31257211E-05
  -16.3402119         1.34740430E-05
  -16.2252102         1.38305004E-05
  -16.1102104         1.41952960E-05
  -15.9952106         1.45686354E-05
  -15.8802109         1.49507196E-05
  -15.7652111         1.53417368E-05
  -15.6502113         1.57418581E-05
  -15.5352106         1.61512271E-05
  -15.4202108         1.65699676E-05
  -15.3052111         1.69981849E-05
  -15.1902113         1.74359684E-05
  -15.0752115         1.78834034E-05
  -14.9602108         1.83405809E-05
  -14.8452110         1.88076010E-05
  -14.7302113         1.92846019E-05
  -14.6152115         1.97717236E-05
  -14.5002108         2.02691554E-05
  -14.3852110         2.07770991E-05
  -14.2702112         2.12957784E-05
  -14.1552114         2.18254117E-05
  -14.0402107         2.23662173E-05
  -13.9252110         2.29184006E-05
  -13.8102112         2.34821382E-05
  -13.6952114         2.40575755E-05
  -13.5802107         2.46448199E-05
  -13.4652109         2.52439513E-05
  -13.3502111         2.58550153E-05
  -13.2352114         2.64780374E-05
  -13.1202106         2.71130393E-05
  -13.0052109         2.77600575E-05
  -12.8902111         2.84191337E-05
  -12.7752113         2.90903590E-05
  -12.6602106         2.97738661E-05
  -12.5452108         3.04698424E-05
  -12.4302111         3.11785334E-05
  -12.3152113         3.19002211E-05
  -12.2002115         3.26352201E-05
  -12.0852108         3.33838798E-05
  -11.9702110         3.41465347E-05
  -11.8552113         3.49235015E-05
  -11.7402115         3.57150675E-05
  -11.6252108         3.65214582E-05
  -11.5102110         3.73428738E-05
  -11.3952112         3.81794234E-05
  -11.2802114         3.90312016E-05
  -11.1652107         3.98982484E-05
  -11.0502110         4.07805856E-05
  -10.9352112         4.16782277E-05
  -10.8202114         4.25912040E-05
  -10.7052107         4.35195652E-05
  -10.5902109         4.44634024E-05
  -10.4752111         4.54228684E-05
  -10.3602114         4.63981451E-05
  -10.2452106         4.73894761E-05
  -10.1302109         4.83971526E-05
  -10.0152111         4.94214910E-05
  -9.90021133         5.04628151E-05
  -9.78521061         5.15214379E-05
  -9.67021084         5.25976720E-05
  -9.55521107         5.36917760E-05
  -9.44021130         5.48039570E-05
  -9.32521152         5.59343898E-05
  -9.21021080         5.70832162E-05
  -9.09521103         5.82505090E-05
  -8.98021126         5.94363119E-05
  -8.86521149         6.06406538E-05
  -8.75021076         6.18635822E-05
  -8.63521099         6.31051153E-05
  -8.52021122         6.43653111E-05
  -8.40521145         6.56442644E-05
  -8.29021072         6.69420697E-05
  -8.17521095         6.82588725E-05
  -8.06021118         6.95948256E-05
  -7.94521093         7.09501110E-05
  -7.83021116         7.23249104E-05
  -7.71521091         7.37194132E-05
  -7.60021114         7.51337793E-05
  -7.48521090         7.65681907E-05
  -7.37021112         7.80227274E-05
  -7.25521088         7.94975422E-05
  -7.14021111         8.09927151E-05
  -7.02521086         8.25083189E-05
  -6.91021109         8.40444482E-05
  -6.79521084         8.56011466E-05
  -6.68021107         8.71784941E-05
  -6.56521130         8.87765855E-05
  -6.45021105         9.03955006E-05
  -6.33521128         9.20353341E-05
  -6.22021103         9.36962024E-05
  -6.10521126         9.53782146E-05
  -5.99021101         9.70814799E-05
  -5.87521124         9.88060929E-05
  -5.76021099         1.00552148E-04
  -5.64521122         1.02319696E-04
  -5.53021097         1.04108796E-04
  -5.41521120         1.05919520E-04
  -5.30021095         1.07751817E-04
  -5.18521118         1.09605731E-04
  -5.07021093         1.11481226E-04
  -4.95521116         1.13378330E-04
  -4.84021091         1.15297094E-04
  -4.72521114         1.17237541E-04
  -4.61021090         1.19199780E-04
  -4.49521112         1.21183861E-04
  -4.38021088         1.23189864E-04
  -4.26521111         1.25217921E-04
  -4.15021086         1.27268082E-04
  -4.03521109         1.29340435E-04
  -3.92021108         1.31434994E-04
  -3.80521107         1.33551745E-04
  -3.69021106         1.35690629E-04
  -3.57521105         1.37851530E-04
  -3.46021104         1.40034303E-04
  -3.34521103         1.42238772E-04
  -3.23021102         1.44464735E-04
  -3.11521101         1.46711973E-04
  -3.00021100         1.48980296E-04
  -2.88521099         1.51269443E-04
  -2.77021098         1.53579284E-04
  -2.65521097         1.55909700E-04
  -2.54021096         1.58260547E-04
  -2.42521095         1.60631767E-04
  -2.31021094         1.63023331E-04
  -2.19521117         1.65435224E-04
  -2.08021116         1.67867387E-04
  -1.96521103         1.70319821E-04
  -1.85021102         1.72792425E-04
  -1.73521101         1.75285095E-04
  -1.62021101         1.77797701E-04
  -1.50521111         1.80329997E-04
  -1.39021111         1.82881748E-04
  -1.27521110         1.85452678E-04
  -1.16021109         1.88042482E-04
  -1.04521108         1.90650826E-04
 -0.930211067         1.93277432E-04
 -0.815211058         1.95921995E-04
 -0.700211048         1.98584268E-04
 -0.585211039         2.01263974E-04
 -0.470211059         2.03960924E-04
 -0.355211049         2.06674900E-04
 -0.240211055         2.09405771E-04
 -0.125211060         2.12153289E-04
  -1.02110580E-02     2.14917352E-04
  0.104788944         2.17697801E-04
  0.219788939         2.20494359E-04
  0.334788948         2.23306852E-04
  0.449788928         2.26135016E-04
  0.564788938         2.28978548E-04
  0.679788947         2.31837199E-04
  0.794788957         2.34710664E-04
  0.909788966         2.37598579E-04
   1.02478898         2.40500580E-04
   1.13978899         2.43416376E-04
   1.25478899         2.46345706E-04
   1.36978889         2.49288161E-04
   1.48478889         2.52243539E-04
   1.59978890         2.55211460E-04
   1.71478891         2.58191634E-04
   1.82978892         2.61183770E-04
   1.94478893         2.64187576E-04
   2.05978894         2.67202617E-04
   2.17478895         2.70228571E-04
   2.28978896         2.73264886E-04
   2.40478897         2.76311126E-04
   2.51978898         2.79366737E-04
   2.63478899         2.82431196E-04
   2.74978900         2.85503920E-04
   2.86478901         2.88584328E-04
   2.97978902         2.91671808E-04
   3.09478903         2.94765923E-04
   3.20978904         2.97866209E-04
   3.32478905         3.00972111E-04
   3.43978906         3.04083253E-04
   3.55478883         3.07199254E-04
   3.66978884         3.10319650E-04
   3.78478885         3.13444092E-04
   3.89978886         3.16572114E-04
   4.01478910         3.19703307E-04
   4.12978888         3.22837208E-04
   4.24478912         3.25973320E-04
   4.35978889         3.29111121E-04
   4.47478914         3.32250056E-04
   4.58978891         3.35389515E-04
   4.70478916         3.38528916E-04
   4.81978893         3.41667619E-04
   4.93478870         3.44805012E-04
   5.04978895         3.47940571E-04
   5.16478872         3.51073744E-04
   5.27978897         3.54204007E-04
   5.39478874         3.57331010E-04
   5.50978899         3.60454345E-04
   5.62478876         3.63573607E-04
   5.73978901         3.66688502E-04
   5.85478878         3.69798712E-04
   5.96978903         3.72903916E-04
   6.08478880         3.76003707E-04
   6.19978905         3.79097793E-04
   6.31478882         3.82185681E-04
   6.42978907         3.85266903E-04
   6.54478884         3.88340908E-04
   6.65978909         3.91407171E-04
   6.77478886         3.94465053E-04
   6.88978910         3.97513941E-04
   7.00478888         4.00553225E-04
   7.11978912         4.03582293E-04
   7.23478889         4.06600477E-04
   7.34978914         4.09607252E-04
   7.46478891         4.12601919E-04
   7.57978916         4.15584043E-04
   7.69478893         4.18553071E-04
   7.80978870         4.21508623E-04
   7.92478895         4.24450176E-04
   8.03978920         4.27377236E-04
   8.15478897         4.30289452E-04
   8.26978874         4.33186302E-04
   8.38478851         4.36067436E-04
   8.49978924         4.38932329E-04
   8.61478901         4.41780430E-04
   8.72978878         4.44611418E-04
   8.84478855         4.47424682E-04
   8.95978928         4.50219697E-04
   9.07478905         4.52995911E-04
   9.18978882         4.55752801E-04
   9.30478859         4.58489842E-04
   9.41978931         4.61206539E-04
   9.53478909         4.63902194E-04
   9.64978886         4.66576486E-04
   9.76478863         4.69228718E-04
   9.87978935         4.71858541E-04
   9.99478912         4.74465429E-04
   10.1097889         4.77048714E-04
   10.2247887         4.79607930E-04
   10.3397894         4.82142757E-04
   10.4547892         4.84652584E-04
   10.5697889         4.87137120E-04
   10.6847887         4.89595870E-04
   10.7997885         4.92028426E-04
   10.9147892         4.94434615E-04
   11.0297890         4.96813911E-04
   11.1447887         4.99166141E-04
   11.2597885         5.01491071E-04
   11.3747892         5.03788411E-04
   11.4897890         5.06057928E-04
   11.6047888         5.08299388E-04
   11.7197886         5.10512269E-04
   11.8347893         5.12696570E-04
   11.9497890         5.14851767E-04
   12.0647888         5.16977627E-04
   12.1797886         5.19073743E-04
   12.2947893         5.21139824E-04
   12.4097891         5.23175288E-04
   12.5247889         5.25180076E-04
   12.6397886         5.27153548E-04
   12.7547894         5.29095531E-04
   12.8697891         5.31005790E-04
   12.9847889         5.32884093E-04
   13.0997887         5.34730207E-04
   13.2147894         5.36544132E-04
   13.3297892         5.38325636E-04
   13.4447889         5.40074776E-04
   13.5597887         5.41791320E-04
   13.6747885         5.43475384E-04
   13.7897892         5.45126735E-04
   13.9047890         5.46745432E-04
   14.0197887         5.48331183E-04
   14.1347885         5.49883873E-04
   14.2497892         5.51403267E-04
   14.3647890         5.52889309E-04
   14.4797888         5.54341532E-04
   14.5947886         5.55759878E-04
   14.7097893         5.57144056E-04
   14.8247890         5.58493775E-04
   14.9397888         5.59809036E-04
   15.0547886         5.61089662E-04
   15.1697893         5.62335714E-04
   15.2847891         5.63547073E-04
   15.3997889         5.64723858E-04
   15.5147886         5.65866183E-04
   15.6297894         5.66974108E-04
   15.7447891         5.68047864E-04
   15.8597889         5.69087686E-04
   15.9747887         5.70093573E-04
   16.0897884         5.71065757E-04
   16.2047882         5.72004355E-04
   16.3197899         5.72909485E-04
   16.4347897         5.73781028E-04
   16.5497894         5.74619160E-04
   16.6647892         5.75423939E-04
   16.7797890         5.76195423E-04
   16.8947887         5.76933555E-04
   17.0097885         5.77638624E-04
   17.1247883         5.78310573E-04
   17.2397881         5.78949694E-04
   17.3547897         5.79556043E-04
   17.4697895         5.80129796E-04
   17.5847893         5.80671243E-04
   17.6997890         5.81180560E-04
   17.8147888         5.81658154E-04
   17.9297886         5.82104258E-04
   18.0447884         5.82519220E-04
   18.1597881         5.82903158E-04
   18.2747898         5.83256537E-04
   18.3897896         5.83579589E-04
   18.5047894         5.83872665E-04
   18.6197891         5.84136113E-04
   18.7347889         5.84370166E-04
   18.8497887         5.84575289E-04
   18.9647884         5.84751717E-04
   19.0797882         5.84899972E-04
   19.1947899         5.85020229E-04
   19.3097897         5.85113012E-04
   19.4247894         5.85178670E-04
   19.5397892         5.85217495E-04
   19.6547890         5.85230009E-04
   19.7697887         5.85216389E-04
   19.8847885         5.85177157E-04
   19.9997883         5.85112546E-04
   20.1147881         5.85022848E-04
   20.2297897         5.84908586E-04
   20.3447895         5.84769761E-04
   20.4597893         5.84606954E-04
   20.5747890         5.84420282E-04
   20.6897888         5.84210211E-04
   20.8047886         5.83976915E-04
   20.9197884         5.83720917E-04
   21.0347881         5.83442452E-04
   21.1497898         5.83141984E-04
   21.2647896         5.82819863E-04
   21.3797894         5.82476670E-04
   21.4947891         5.82112931E-04
   21.6097889         5.81728993E-04
   21.7247887         5.81325323E-04
   21.8397884         5.80902561E-04
   21.9547882         5.80461056E-04
   22.0697899         5.80001506E-04
   22.1847897         5.79524261E-04
   22.2997894         5.79029846E-04
   22.4147892         5.78518724E-04
   22.5297890         5.77991479E-04
   22.6447887         5.77448518E-04
   22.7597885         5.76890365E-04
   22.8747883         5.76317660E-04
   22.9897881         5.75730810E-04
   23.1047897         5.75130340E-04
   23.2197895         5.74516947E-04
   23.3347893         5.73891099E-04
   23.4497890         5.73253317E-04
   23.5647888         5.72604302E-04
   23.6797886         5.71944576E-04
   23.7947884         5.71274722E-04
   23.9097881         5.70595264E-04
   24.0247898         5.69906959E-04
   24.1397896         5.69210039E-04
   24.2547894         5.68505144E-04
   24.3697891         5.67792915E-04
   24.4847889         5.67073759E-04
   24.5997887         5.66348201E-04
   24.7147884         5.65616763E-04
   24.8297882         5.64879912E-04
   24.9447899         5.64138114E-04
   25.0597897         5.63391717E-04
   25.1747894         5.62641304E-04
   25.2897892         5.61887166E-04
   25.4047890         5.61129767E-04
   25.5197887         5.60369459E-04
   25.6347885         5.59606648E-04
   25.7497883         5.58841799E-04
   25.8647881         5.58075320E-04
   25.9797897         5.57307503E-04
   26.0947895         5.56538813E-04
   26.2097893         5.55769657E-04
   26.3247890         5.55000384E-04
   26.4397888         5.54231636E-04
   26.5547886         5.53463760E-04
   26.6697884         5.52697165E-04
   26.7847881         5.51932375E-04
   26.8997898         5.51169913E-04
   27.0147896         5.50410245E-04
   27.1297894         5.49653720E-04
   27.2447891         5.48900862E-04
   27.3597889         5.48152020E-04
   27.4747887         5.47407602E-04
   27.5897884         5.46667841E-04
   27.7047882         5.45933086E-04
   27.8197899         5.45203395E-04
   27.9347897         5.44479117E-04
   28.0497894         5.43760310E-04
   28.1647892         5.43047150E-04
   28.2797890         5.42339985E-04
   28.3947887         5.41638990E-04
   28.5097885         5.40944457E-04
   28.6247883         5.40256675E-04
   28.7397881         5.39575994E-04
   28.8547897         5.38902939E-04
   28.9697895         5.38237917E-04
   29.0847893         5.37581509E-04
   29.1997890         5.36934182E-04
   29.3147888         5.36296458E-04
   29.4297886         5.35668689E-04
   29.5447884         5.35051397E-04
   29.6597881         5.34445106E-04
   29.7747898         5.33849990E-04
   29.8897896         5.33266400E-04
   30.0047894         5.32694336E-04
   30.1197891         5.32134087E-04
   30.2347889         5.31585771E-04
   30.3497887         5.31049329E-04
   30.4647884         5.30524878E-04
   30.5797882         5.30012476E-04
   30.6947899         5.29512181E-04
   30.8097897         5.29024052E-04
   30.9247894         5.28548087E-04
   31.0397892         5.28084813E-04
   31.1547890         5.27634227E-04
   31.2697887         5.27196680E-04
   31.3847885         5.26772346E-04
   31.4997883         5.26361458E-04
   31.6147881         5.25964366E-04
   31.7297897         5.25581243E-04
   31.8447895         5.25212323E-04
   31.9597893         5.24857780E-04
   32.0747871         5.24517614E-04
   32.1897888         5.24191943E-04
   32.3047905         5.23880823E-04
   32.4197884         5.23584138E-04
   32.5347900         5.23301831E-04
   32.6497879         5.23033959E-04
   32.7647896         5.22780349E-04
   32.8797874         5.22540882E-04
   32.9947891         5.22315560E-04
   33.1097908         5.22104325E-04
   33.2247887         5.21907175E-04
   33.3397903         5.21724229E-04
   33.4547882         5.21555427E-04
   33.5697899         5.21400769E-04
   33.6847878         5.21260314E-04
   33.7997894         5.21134003E-04
   33.9147873         5.21022012E-04
   34.0297890         5.20924164E-04
   34.1447906         5.20840345E-04
   34.2597885         5.20770671E-04
   34.3747902         5.20714966E-04
   34.4897881         5.20672940E-04
   34.6047897         5.20644709E-04
   34.7197876         5.20630041E-04
   34.8347893         5.20628644E-04
   34.9497871         5.20640460E-04
   35.0647888         5.20665257E-04
   35.1797905         5.20702859E-04
   35.2947884         5.20753034E-04
   35.4097900         5.20815316E-04
   35.5247879         5.20889647E-04
   35.6397896         5.20975911E-04
   35.7547874         5.21073816E-04
   35.8697891         5.21183130E-04
   35.9847908         5.21303737E-04
   36.0997887         5.21435635E-04
   36.2147903         5.21578593E-04
   36.3297882         5.21732552E-04
   36.4447899         5.21897571E-04
   36.5597878         5.22073475E-04
   36.6747894         5.22260321E-04
   36.7897873         5.22458111E-04
   36.9047890         5.22666727E-04
   37.0197906         5.22886228E-04
   37.1347885         5.23116556E-04
   37.2497902         5.23357419E-04
   37.3647881         5.23608760E-04
   37.4797897         5.23870345E-04
   37.5947876         5.24141826E-04
   37.7097893         5.24422969E-04
   37.8247871         5.24713425E-04
   37.9397888         5.25012787E-04
   38.0547905         5.25320647E-04
   38.1697884         5.25636831E-04
   38.2847900         5.25960582E-04
   38.3997879         5.26291959E-04
   38.5147896         5.26630494E-04
   38.6297874         5.26976015E-04
   38.7447891         5.27328171E-04
   38.8597908         5.27686789E-04
   38.9747887         5.28051925E-04
   39.0897903         5.28423290E-04
   39.2047882         5.28800883E-04
   39.3197899         5.29184414E-04
   39.4347878         5.29573939E-04
   39.5497894         5.29969111E-04
   39.6647873         5.30369871E-04
   39.7797890         5.30775986E-04
   39.8947906         5.31187281E-04
   40.0097885         5.31603349E-04
   40.1247902         5.32023900E-04
   40.2397881         5.32448816E-04
   40.3547897         5.32877748E-04
   40.4697876         5.33310522E-04
   40.5847893         5.33746730E-04
   40.6997871         5.34186256E-04
   40.8147888         5.34628867E-04
   40.9297905         5.35074447E-04
   41.0447884         5.35522820E-04
   41.1597900         5.35973988E-04
   41.2747879         5.36427717E-04
   41.3897896         5.36883832E-04
   41.5047874         5.37342217E-04
   41.6197891         5.37802698E-04
   41.7347908         5.38265158E-04
   41.8497887         5.38729248E-04
   41.9647903         5.39194793E-04
   42.0797882         5.39661560E-04
   42.1947899         5.40129317E-04
   42.3097878         5.40597888E-04
   42.4247894         5.41066984E-04
   42.5397873         5.41536312E-04
   42.6547890         5.42005873E-04
   42.7697906         5.42475376E-04
   42.8847885         5.42944763E-04
   42.9997902         5.43413800E-04
   43.1147881         5.43882372E-04
   43.2297897         5.44350303E-04
   43.3447876         5.44817536E-04
   43.4597893         5.45283896E-04
   43.5747871         5.45749033E-04
   43.6897888         5.46212948E-04
   43.8047905         5.46675292E-04
   43.9197884         5.47135773E-04
   44.0347900         5.47594216E-04
   44.1497879         5.48050564E-04
   44.2647896         5.48504351E-04
   44.3797874         5.48955461E-04
   44.4947891         5.49403951E-04
   44.6097908         5.49849472E-04
   44.7247887         5.50291850E-04
   44.8397903         5.50731202E-04
   44.9547882         5.51167352E-04
   45.0697899         5.51600242E-04
   45.1847878         5.52029698E-04
   45.2997894         5.52455720E-04
   45.4147873         5.52878133E-04
   45.5297890         5.53296879E-04
   45.6447906         5.53711667E-04
   45.7597885         5.54122380E-04
   45.8747902         5.54528902E-04
   45.9897881         5.54931059E-04
   46.1047897         5.55328676E-04
   46.2197876         5.55721577E-04
   46.3347893         5.56109822E-04
   46.4497871         5.56493120E-04
   46.5647888         5.56871586E-04
   46.6797905         5.57245163E-04
   46.7947884         5.57614025E-04
   46.9097900         5.57978230E-04
   47.0247879         5.58337953E-04
   47.1397896         5.58693369E-04
   47.2547874         5.59044536E-04
   47.3697891         5.59391628E-04
   47.4847908         5.59734704E-04
   47.5997887         5.60073764E-04
   47.7147903         5.60409040E-04
   47.8297882         5.60740358E-04
   47.9447899         5.61067602E-04
   48.0597878         5.61390771E-04
   48.1747894         5.61709632E-04
   48.2897873         5.62024012E-04
   48.4047890         5.62333735E-04
   48.5197906         5.62638743E-04
   48.6347885         5.62938803E-04
   48.7497902         5.63233742E-04
   48.8647881         5.63523441E-04
   48.9797897         5.63808018E-04
   49.0947876         5.64087182E-04
   49.2097893         5.64361108E-04
   49.3247871         5.64629561E-04
   49.4397888         5.64892602E-04
   49.5547905         5.65150287E-04
   49.6697884         5.65402384E-04
   49.7847900         5.65649243E-04
   49.8997879         5.65890747E-04
   50.0147896         5.66126895E-04
   50.1297874         5.66357630E-04
   50.2447891         5.66583127E-04
   50.3597908         5.66803326E-04
   50.4747887         5.67018229E-04
   50.5897903         5.67227951E-04
   50.7047882         5.67432377E-04
   50.8197899         5.67631389E-04
   50.9347878         5.67825104E-04
   51.0497894         5.68013405E-04
   51.1647873         5.68196236E-04
   51.2797890         5.68373303E-04
   51.3947906         5.68544783E-04
   51.5097885         5.68710442E-04
   51.6247902         5.68870048E-04
   51.7397881         5.69023658E-04
   51.8547897         5.69171156E-04
   51.9697876         5.69312484E-04
   52.0847893         5.69447584E-04
   52.1997871         5.69576398E-04
   52.3147888         5.69698983E-04
   52.4297905         5.69815573E-04
   52.5447884         5.69926167E-04
   52.6597900         5.70031058E-04
   52.7747879         5.70130302E-04
   52.8897896         5.70224016E-04
   53.0047874         5.70312317E-04
   53.1197891         5.70395146E-04
   53.2347908         5.70472737E-04
   53.3497887         5.70545089E-04
   53.4647903         5.70612203E-04
   53.5797882         5.70673787E-04
   53.6947899         5.70729957E-04
   53.8097878         5.70780539E-04
   53.9247894         5.70825592E-04
   54.0397873         5.70864999E-04
   54.1547890         5.70898759E-04
   54.2697906         5.70926990E-04
   54.3847885         5.70949749E-04
   54.4997902         5.70967211E-04
   54.6147881         5.70979493E-04
   54.7297897         5.70986886E-04
   54.8447876         5.70989563E-04
   54.9597893         5.70987817E-04
   55.0747871         5.70981763E-04
   55.1897888         5.70971693E-04