  -37.8452110         0.00000000    
  -37.7264595         7.16556849E-12
  -37.6077118         2.42160649E-11
  -37.4889603         5.55089794E-11
  -37.3702126         1.05530591E-10
  -37.2514610         1.77041298E-10
  -37.1327095         2.69347211E-10
  -37.0139618         3.77169962E-10
  -36.8952103         4.90481988E-10
  -36.7764626         5.95474725E-10
  -36.6577110         6.76586231E-10
  -36.5389595         7.19264148E-10
  -36.4202118         7.12968240E-10
  -36.3014603         6.53833043E-10
  -36.1827126         5.46462486E-10
  -36.0639610         4.04485639E-10
  -35.9452095         2.49726545E-10
  -35.8264618         1.10086648E-10
  -35.7077103         1.64411488E-11
  -35.5889626        -1.02980320E-12
  -35.4702110         8.33975389E-11
  -35.3514595         2.87563390E-10
  -35.2327118         6.18702700E-10
  -35.1139603         1.07171028E-09
  -34.9952126         1.62861702E-09
  -34.8764610         2.25941088E-09
  -34.7577095         2.92428459E-09
  -34.6389618         3.57724805E-09
  -34.5202103         4.17087564E-09
  -34.4014626         4.66174654E-09
  -34.2827110         5.01593966E-09
  -34.1639595         5.21379606E-09
  -34.0452118         5.25313704E-09
  -33.9264603         5.15026999E-09
  -33.8077126         4.93839547E-09
  -33.6889610         4.66349048E-09
  -33.5702095         4.37809655E-09
  -33.4514618         4.13385326E-09
  -33.3327103         3.97390076E-09
  -33.2139626         3.92622823E-09
  -33.0952110         3.99892963E-09
  -32.9764595         4.17805612E-09
  -32.8577118         4.42830128E-09
  -32.7389603         4.69639394E-09
  -32.6202126         4.91661734E-09
  -32.5014610         5.01772623E-09
  -32.3827095         4.93040986E-09
  -32.2639618         4.59420768E-09
  -32.1452103         3.96329014E-09
  -32.0264626         3.01032332E-09
  -31.9077110         1.72809367E-09
  -31.7889614         1.28935501E-10
  -31.6702118        -1.75812154E-09
  -31.5514603        -3.89173893E-09
  -31.4327106        -6.22380325E-09
  -31.3139610        -8.70545769E-09
  -31.1952114        -1.12928777E-08
  -31.0764618        -1.39522749E-08
  -30.9577103        -1.66637815E-08
  -30.8389606        -1.94235934E-08
  -30.7202110        -2.22448957E-08
  -30.6014614        -2.51566163E-08
  -30.4827118        -2.82010877E-08
  -30.3639603        -3.14301829E-08
  -30.2452106        -3.49007436E-08
  -30.1264610        -3.86695653E-08
  -30.0077114        -4.27886953E-08
  -29.8889618        -4.73016861E-08
  -29.7702103        -5.22408214E-08
  -29.6514606        -5.76263055E-08
  -29.5327110        -6.34665795E-08
  -29.4139614        -6.97601052E-08
  -29.2952118        -7.64977912E-08
  -29.1764603        -8.36655758E-08
  -29.0577106        -9.12463989E-08
  -28.9389610        -9.92223832E-08
  -28.8202114        -1.07575445E-07
  -28.7014618        -1.16288746E-07
  -28.5827103        -1.25347299E-07
  -28.4639606        -1.34739636E-07
  -28.3452110        -1.44460202E-07
  -28.2264614        -1.54512065E-07
  -28.1077118        -1.64909665E-07
  -27.9889603        -1.75681592E-07
  -27.8702106        -1.86871901E-07
  -27.7514610        -1.98539709E-07
  -27.6327114        -2.10757023E-07
  -27.5139618        -2.23604900E-07
  -27.3952103        -2.37167555E-07
  -27.2764606        -2.51526274E-07
  -27.1577110        -2.66752608E-07
  -27.0389614        -2.82902732E-07
  -26.9202118        -3.00012090E-07
  -26.8014603        -3.18092702E-07
  -26.6827106        -3.37132292E-07
  -26.5639610        -3.57095360E-07
  -26.4452114        -3.77927620E-07
  -26.3264618        -3.99561770E-07
  -26.2077103        -4.21925904E-07
  -26.0889606        -4.44952917E-07
  -25.9702110        -4.68590173E-07
  -25.8514614        -4.92807771E-07
  -25.7327118        -5.17605827E-07
  -25.6139603        -5.43018132E-07
  -25.4952106        -5.69112444E-07
  -25.3764610        -5.95985796E-07
  -25.2577114        -6.23758467E-07
  -25.1389618        -6.52561710E-07
  -25.0202103        -6.82527173E-07
  -24.9014606        -7.13772579E-07
  -24.7827110        -7.46390526E-07
  -24.6639614        -7.80439052E-07
  -24.5452118        -8.15935948E-07
  -24.4264603        -8.52858818E-07
  -24.3077106        -8.91147351E-07
  -24.1889610        -9.30714407E-07
  -24.0702114        -9.71458007E-07
  -23.9514618        -1.01327578E-06
  -23.8327103        -1.05608069E-06
  -23.7139606        -1.09981465E-06
  -23.5952110        -1.14445777E-06
  -23.4764614        -1.19003539E-06
  -23.3577118        -1.23661698E-06
  -23.2389603        -1.28431270E-06
  -23.1202106        -1.33326353E-06
  -23.0014610        -1.38363214E-06
  -22.8827114        -1.43558759E-06
  -22.7639618        -1.48929280E-06
  -22.6452103        -1.54489408E-06
  -22.5264606        -1.60251182E-06
  -22.4077110        -1.66223299E-06
  -22.2889614        -1.72411023E-06
  -22.1702118        -1.78816276E-06
  -22.0514603        -1.85438137E-06
  -21.9327106        -1.92273819E-06
  -21.8139610        -1.99319720E-06
  -21.6952114        -2.06572440E-06
  -21.5764618        -2.14030251E-06
  -21.4577103        -2.21693813E-06
  -21.3389606        -2.29566740E-06
  -21.2202110        -2.37655809E-06
  -21.1014614        -2.45970546E-06
  -20.9827118        -2.54522820E-06
  -20.8639603        -2.63325728E-06
  -20.7452106        -2.72392867E-06
  -20.6264610        -2.81737289E-06
  -20.5077114        -2.91370861E-06
  -20.3889618        -3.01303839E-06
  -20.2702103        -3.11544795E-06
  -20.1514606        -3.22100504E-06
  -20.0327110        -3.32976197E-06
  -19.9139614        -3.44176055E-06
  -19.7952118        -3.55703401E-06
  -19.6764603        -3.67561279E-06
  -19.5577106        -3.79752714E-06
  -19.4389610        -3.92280754E-06
  -19.3202114        -4.05149376E-06
  -19.2014618        -4.18362742E-06
  -19.0827103        -4.31925901E-06
  -18.9639606        -4.45844262E-06
  -18.8452110        -4.60123556E-06
  -18.7264614        -4.74770422E-06
  -18.6077118        -4.89791682E-06
  -18.4889603        -5.05194839E-06
  -18.3702106        -5.20988306E-06
  -18.2514610        -5.37181813E-06
  -18.1327114        -5.53786595E-06
  -18.0139618        -5.70815837E-06
  -17.8952103        -5.88284638E-06
  -17.7764606        -6.06209960E-06
  -17.6577110        -6.24610902E-06
  -17.5389614        -6.43507974E-06
  -17.4202118        -6.62922275E-06
  -17.3014603        -6.82875771E-06
  -17.1827106        -7.03390060E-06
  -17.0639610        -7.24485972E-06
  -16.9452114        -7.46182877E-06
  -16.8264618        -7.68498649E-06
  -16.7077103        -7.91449747E-06
  -16.5889606        -8.15051044E-06
  -16.4702110        -8.39316817E-06
  -16.3514614        -8.64260892E-06
  -16.2327118        -8.89898456E-06
  -16.1139603        -9.16245699E-06
  -15.9952106        -9.43321356E-06
  -15.8764610        -9.71146346E-06
  -15.7577114        -9.99744498E-06
  -15.6389608        -1.02914137E-05
  -15.5202112        -1.05936351E-05
  -15.4014606        -1.09043804E-05
  -15.2827110        -1.12238995E-05
  -15.1639614        -1.15524281E-05
  -15.0452108        -1.18901653E-05
  -14.9264612        -1.22372749E-05
  -14.8077106        -1.25938823E-05
  -14.6889610        -1.29600739E-05
  -14.5702114        -1.33359172E-05
  -14.4514608        -1.37214547E-05
  -14.3327112        -1.41167156E-05
  -14.2139606        -1.45217473E-05
  -14.0952110        -1.49366033E-05
  -13.9764614        -1.53613692E-05
  -13.8577108        -1.57961567E-05
  -13.7389612        -1.62411288E-05
  -13.6202106        -1.66964692E-05
  -13.5014610        -1.71623942E-05
  -13.3827114        -1.76391331E-05
  -13.2639608        -1.81269170E-05
  -13.1452112        -1.86259622E-05
  -13.0264606        -1.91364597E-05
  -12.9077110        -1.96585788E-05
  -12.7889614        -2.01924595E-05
  -12.6702108        -2.07382000E-05
  -12.5514612        -2.12959039E-05
  -12.4327106        -2.18656751E-05
  -12.3139610        -2.24476262E-05
  -12.1952114        -2.30419118E-05
  -12.0764608        -2.36487303E-05
  -11.9577112        -2.42683254E-05
  -11.8389606        -2.49010100E-05
  -11.7202110        -2.55471514E-05
  -11.6014614        -2.62071535E-05
  -11.4827108        -2.68814620E-05
  -11.3639612        -2.75705206E-05
  -11.2452106        -2.82747806E-05
  -11.1264610        -2.89946529E-05
  -11.0077114        -2.97304978E-05
  -10.8889608        -3.04826226E-05
  -10.7702112        -3.12512857E-05
  -10.6514606        -3.20366635E-05
  -10.5327110        -3.28389106E-05
  -10.4139614        -3.36581361E-05
  -10.2952108        -3.44944601E-05
  -10.1764612        -3.53480136E-05
  -10.0577106        -3.62189749E-05
  -9.93896103        -3.71075730E-05
  -9.82021141        -3.80140991E-05
  -9.70146084        -3.89389024E-05
  -9.58271122        -3.98824013E-05
  -9.46396065        -4.08450251E-05
  -9.34521103        -4.18272284E-05
  -9.22646141        -4.28294661E-05
  -9.10771084        -4.38521711E-05
  -8.98896122        -4.48957107E-05
  -8.87021065        -4.59603798E-05
  -8.75146103        -4.70464256E-05
  -8.63271141        -4.81539973E-05
  -8.51396084        -4.92831823E-05
  -8.39521122        -5.04340205E-05
  -8.27646065        -5.16065302E-05
  -8.15771103        -5.28007149E-05
  -8.03896141        -5.40166111E-05
  -7.92021084        -5.52543024E-05
  -7.80146122        -5.65139126E-05
  -7.68271112        -5.77956525E-05
  -7.56396103        -5.90997843E-05
  -7.44521093        -6.04266279E-05
  -7.32646084        -6.17765618E-05
  -7.20771122        -6.31499788E-05
  -7.08896112        -6.45472828E-05
  -6.97021103        -6.59688958E-05
  -6.85146093        -6.74151597E-05
  -6.73271084        -6.88864384E-05
  -6.61396122        -7.03830083E-05
  -6.49521112        -7.19051386E-05
  -6.37646103        -7.34530113E-05
  -6.25771093        -7.50268300E-05
  -6.13896084        -7.66267549E-05
  -6.02021122        -7.82529532E-05
  -5.90146112        -7.99055997E-05
  -5.78271103        -8.15848543E-05
  -5.66396093        -8.32909427E-05
  -5.54521084        -8.50241049E-05
  -5.42646122        -8.67845811E-05
  -5.30771112        -8.85726768E-05
  -5.18896103        -9.03886976E-05
  -5.07021093        -9.22329345E-05
  -4.95146084        -9.41057224E-05
  -4.83271122        -9.60073885E-05
  -4.71396112        -9.79382530E-05
  -4.59521103        -9.98986216E-05
  -4.47646093        -1.01888814E-04
  -4.35771084        -1.03909151E-04
  -4.23896122        -1.05959902E-04
  -4.12021112        -1.08041357E-04
  -4.00146103        -1.10153778E-04
  -3.88271117        -1.12297392E-04
  -3.76396108        -1.14472423E-04
  -3.64521098        -1.16679083E-04
  -3.52646112        -1.18917502E-04
  -3.40771103        -1.21187848E-04
  -3.28896117        -1.23490201E-04
  -3.17021108        -1.25824648E-04
  -3.05146098        -1.28191241E-04
  -2.93271112        -1.30590037E-04
  -2.81396103        -1.33021123E-04
  -2.69521117        -1.35484559E-04
  -2.57646108        -1.37980474E-04
  -2.45771098        -1.40509015E-04
  -2.33896112        -1.43070429E-04
  -2.22021103        -1.45664962E-04
  -2.10146117        -1.48292966E-04
  -1.98271108        -1.50954715E-04
  -1.86396110        -1.53650602E-04
  -1.74521101        -1.56380920E-04
  -1.62646103        -1.59145959E-04
  -1.50771105        -1.61945936E-04
  -1.38896108        -1.64781042E-04
  -1.27021110        -1.67651378E-04
  -1.15146101        -1.70556901E-04
  -1.03271103        -1.73497538E-04
 -0.913961053        -1.76473171E-04
 -0.795211077        -1.79483613E-04
 -0.676461041        -1.82528660E-04
 -0.557711065        -1.85608180E-04
 -0.438961059        -1.88721984E-04
 -0.320211053        -1.91870015E-04
 -0.201461062        -1.95052300E-04
  -8.27110559E-02    -1.98268885E-04
   3.60389426E-02    -2.01520001E-04
  0.154788941        -2.04805867E-04
  0.273538947        -2.08126730E-04
  0.392288953        -2.11482911E-04
  0.511038959        -2.14874686E-04
  0.629788935        -2.18302303E-04
  0.748538971        -2.21765920E-04
  0.867288947        -2.25265583E-04
  0.986038923        -2.28801277E-04
   1.10478890        -2.32372942E-04
   1.22353899        -2.35980304E-04
   1.34228897        -2.39623158E-04
   1.46103895        -2.43301241E-04
   1.57978892        -2.47014221E-04
   1.69853890        -2.50761863E-04
   1.81728899        -2.54543935E-04
   1.93603897        -2.58360233E-04
   2.05478883        -2.62210728E-04
   2.17353892        -2.66095332E-04
   2.29228902        -2.70014076E-04
   2.41103888        -2.73966958E-04
   2.52978897        -2.77954037E-04
   2.64853883        -2.81975314E-04
   2.76728892        -2.86030699E-04
   2.88603902        -2.90120108E-04
   3.00478888        -2.94243335E-04
   3.12353897        -2.98400089E-04
   3.24228883        -3.02589964E-04
   3.36103892        -3.06812552E-04
   3.47978902        -3.11067270E-04
   3.59853888        -3.15353740E-04
   3.71728897        -3.19671381E-04
   3.83603883        -3.24019726E-04
   3.95478892        -3.28398281E-04
   4.07353878        -3.32806783E-04
   4.19228888        -3.37244914E-04
   4.31103897        -3.41712410E-04
   4.42978907        -3.46209184E-04
   4.54853916        -3.50735179E-04
   4.66728878        -3.55290191E-04
   4.78603888        -3.59874248E-04
   4.90478897        -3.64487147E-04
   5.02353907        -3.69128829E-04
   5.14228916        -3.73798946E-04
   5.26103878        -3.78497265E-04
   5.37978888        -3.83223552E-04
   5.49853897        -3.87977343E-04
   5.61728907        -3.92758346E-04
   5.73603916        -3.97566153E-04
   5.85478878        -4.02400299E-04
   5.97353888        -4.07260493E-04
   6.09228897        -4.12146270E-04
   6.21103907        -4.17057337E-04
   6.32978916        -4.21993376E-04
   6.44853878        -4.26954037E-04
   6.56728888        -4.31939116E-04
   6.68603897        -4.36948321E-04
   6.80478907        -4.41981363E-04
   6.92353916        -4.47037950E-04
   7.04228878        -4.52117732E-04
   7.16103888        -4.57220303E-04
   7.27978897        -4.62345197E-04
   7.39853907        -4.67491889E-04
   7.51728916        -4.72659827E-04
   7.63603878        -4.77848487E-04
   7.75478888        -4.83057171E-04
   7.87353897        -4.88285383E-04
   7.99228907        -4.93532396E-04
   8.11103916        -4.98797628E-04
   8.22978878        -5.04080439E-04
   8.34853935        -5.09380305E-04
   8.46728897        -5.14696701E-04
   8.58603859        -5.20028989E-04
   8.70478916        -5.25376643E-04
   8.82353878        -5.30739024E-04
   8.94228935        -5.36115491E-04
   9.06103897        -5.41505462E-04
   9.17978859        -5.46908355E-04
   9.29853916        -5.52323530E-04
   9.41728878        -5.57750289E-04
   9.53603935        -5.63187990E-04
   9.65478897        -5.68635995E-04
   9.77353859        -5.74093545E-04
   9.89228916        -5.79560117E-04
   10.0110388        -5.85034897E-04
   10.1297894        -5.90517302E-04
   10.2485390        -5.96006634E-04
   10.3672886        -6.01502368E-04
   10.4860392        -6.07003865E-04
   10.6047888        -6.12510543E-04
   10.7235394        -6.18021877E-04
   10.8422890        -6.23537286E-04
   10.9610386        -6.29056245E-04
   11.0797892        -6.34578348E-04
   11.1985388        -6.40103070E-04
   11.3172894        -6.45630120E-04
   11.4360390        -6.51158858E-04
   11.5547886        -6.56688993E-04
   11.6735392        -6.62220176E-04
   11.7922888        -6.67751941E-04
   11.9110394        -6.73283997E-04
   12.0297890        -6.78815763E-04
   12.1485386        -6.84346829E-04
   12.2672892        -6.89876615E-04
   12.3860388        -6.95404480E-04
   12.5047894        -7.00929842E-04
   12.6235390        -7.06451887E-04
   12.7422886        -7.11969798E-04
   12.8610392        -7.17482762E-04
   12.9797888        -7.22989847E-04
   13.0985394        -7.28490297E-04
   13.2172890        -7.33983296E-04
   13.3360386        -7.39468029E-04
   13.4547892        -7.44943682E-04
   13.5735388        -7.50409614E-04
   13.6922894        -7.55865185E-04
   13.8110390        -7.61309813E-04
   13.9297886        -7.66742916E-04
   14.0485392        -7.72164029E-04
   14.1672888        -7.77572452E-04
   14.2860394        -7.82967836E-04
   14.4047890        -7.88349542E-04
   14.5235386        -7.93716928E-04
   14.6422892        -7.99069297E-04
   14.7610388        -8.04405892E-04
   14.8797894        -8.09725898E-04
   14.9985390        -8.15028441E-04
   15.1172886        -8.20312591E-04
   15.2360392        -8.25577590E-04
   15.3547888        -8.30822508E-04
   15.4735394        -8.36046762E-04
   15.5922890        -8.41249595E-04
   15.7110386        -8.46430426E-04
   15.8297892        -8.51588789E-04
   15.9485388        -8.56724218E-04
   16.0672894        -8.61836539E-04
   16.1860390        -8.66925402E-04
   16.3047886        -8.71990458E-04
   16.4235382        -8.77031533E-04
   16.5422897        -8.82048102E-04
   16.6610394        -8.87039874E-04
   16.7797890        -8.92006268E-04
   16.8985386        -8.96946702E-04
   17.0172882        -9.01860534E-04
   17.1360397        -9.06746835E-04
   17.2547894        -9.11604788E-04
   17.3735390        -9.16433579E-04
   17.4922886        -9.21232218E-04
   17.6110382        -9.25999950E-04
   17.7297897        -9.30736074E-04
   17.8485394        -9.35439894E-04
   17.9672890        -9.40110825E-04
   18.0860386        -9.44748521E-04
   18.2047882        -9.49352805E-04
   18.3235397        -9.53923271E-04
   18.4422894        -9.58459917E-04
   18.5610390        -9.62962571E-04
   18.6797886        -9.67431173E-04
   18.7985382        -9.71865607E-04
   18.9172897        -9.76265641E-04
   19.0360394        -9.80630750E-04
   19.1547890        -9.84960818E-04
   19.2735386        -9.89255146E-04
   19.3922882        -9.93513037E-04
   19.5110397        -9.97734023E-04
   19.6297894        -1.00191706E-03
   19.7485390        -1.00606179E-03
   19.8672886        -1.01016718E-03
   19.9860382        -1.01423275E-03
   20.1047897        -1.01825781E-03
   20.2235394        -1.02224189E-03
   20.3422890        -1.02618488E-03
   20.4610386        -1.03008631E-03
   20.5797882        -1.03394606E-03
   20.6985397        -1.03776390E-03
   20.8172894        -1.04153994E-03
   20.9360390        -1.04527408E-03
   21.0547886        -1.04896631E-03
   21.1735382        -1.05261651E-03
   21.2922897        -1.05622457E-03
   21.4110394        -1.05979003E-03
   21.5297890        -1.06331264E-03
   21.6485386        -1.06679229E-03
   21.7672882        -1.07022817E-03
   21.8860397        -1.07362005E-03
   22.0047894        -1.07696746E-03
   22.1235390        -1.08026981E-03
   22.2422886        -1.08352664E-03
   22.3610382        -1.08673784E-03
   22.4797897        -1.08990306E-03
   22.5985394        -1.09302194E-03
   22.7172890        -1.09609438E-03
   22.8360386        -1.09912036E-03
   22.9547882        -1.10209989E-03
   23.0735397        -1.10503274E-03
   23.1922894        -1.10791915E-03
   23.3110390        -1.11075887E-03
   23.4297886        -1.11355190E-03
   23.5485382        -1.11629837E-03
   23.6672897        -1.11899804E-03
   23.7860394        -1.12165057E-03
   23.9047890        -1.12425594E-03
   24.0235386        -1.12681382E-03
   24.1422882        -1.12932420E-03
   24.2610397        -1.13178650E-03
   24.3797894        -1.13420037E-03
   24.4985390        -1.13656570E-03
   24.6172886        -1.13888213E-03
   24.7360382        -1.14114967E-03
   24.8547897        -1.14336796E-03
   24.9735394        -1.14553713E-03
   25.0922890        -1.14765682E-03
   25.2110386        -1.14972715E-03
   25.3297882        -1.15174812E-03
   25.4485397        -1.15371984E-03
   25.5672894        -1.15564233E-03
   25.6860390        -1.15751545E-03
   25.8047886        -1.15933968E-03
   25.9235382        -1.16111478E-03
   26.0422897        -1.16284110E-03
   26.1610394        -1.16451841E-03
   26.2797890        -1.16614671E-03
   26.3985386        -1.16772624E-03
   26.5172882        -1.16925652E-03
   26.6360397        -1.17073755E-03
   26.7547894        -1.17216946E-03
   26.8735390        -1.17355189E-03
   26.9922886        -1.17488450E-03
   27.1110382        -1.17616740E-03
   27.2297897        -1.17740047E-03
   27.3485394        -1.17858360E-03
   27.4672890        -1.17971667E-03
   27.5860386        -1.18079991E-03
   27.7047882        -1.18183333E-03
   27.8235397        -1.18281716E-03
   27.9422894        -1.18375150E-03
   28.0610390        -1.18463696E-03
   28.1797886        -1.18547352E-03
   28.2985382        -1.18626188E-03
   28.4172897        -1.18700229E-03
   28.5360394        -1.18769496E-03
   28.6547890        -1.18834048E-03
   28.7735386        -1.18893874E-03
   28.8922882        -1.18949031E-03
   29.0110397        -1.18999497E-03
   29.1297894        -1.19045330E-03
   29.2485390        -1.19086518E-03
   29.3672886        -1.19123084E-03
   29.4860382        -1.19155052E-03
   29.6047897        -1.19182444E-03
   29.7235394        -1.19205285E-03
   29.8422890        -1.19223609E-03
   29.9610386        -1.19237450E-03
   30.0797882        -1.19246857E-03
   30.1985397        -1.19251874E-03
   30.3172894        -1.19252515E-03
   30.4360390        -1.19248824E-03
   30.5547886        -1.19240850E-03
   30.6735382        -1.19228591E-03
   30.7922897        -1.19212084E-03
   30.9110394        -1.19191338E-03
   31.0297890        -1.19166356E-03
   31.1485386        -1.19137147E-03
   31.2672882        -1.19103724E-03
   31.3860397        -1.19066087E-03
   31.5047894        -1.19024236E-03
   31.6235390        -1.18978217E-03
   31.7422886        -1.18928030E-03
   31.8610382        -1.18873711E-03
   31.9797897        -1.18815317E-03
   32.0985374        -1.18752883E-03
   32.2172890        -1.18686492E-03
   32.3360405        -1.18616200E-03
   32.4547882        -1.18542090E-03
   32.5735397        -1.18464208E-03
   32.6922874        -1.18382613E-03
   32.8110390        -1.18297373E-03
   32.9297905        -1.18208514E-03
   33.0485382        -1.18116091E-03
   33.1672897        -1.18020119E-03
   33.2860374        -1.17920619E-03
   33.4047890        -1.17817638E-03
   33.5235405        -1.17711187E-03
   33.6422882        -1.17601291E-03
   33.7610397        -1.17488008E-03
   33.8797874        -1.17371348E-03
   33.9985390        -1.17251382E-03
   34.1172905        -1.17128168E-03
   34.2360382        -1.17001787E-03
   34.3547897        -1.16872299E-03
   34.4735374        -1.16739806E-03
   34.5922890        -1.16604380E-03
   34.7110405        -1.16466091E-03
   34.8297882        -1.16325030E-03
   34.9485397        -1.16181234E-03
   35.0672874        -1.16034760E-03
   35.1860390        -1.15885655E-03
   35.3047905        -1.15733955E-03
   35.4235382        -1.15579658E-03
   35.5422897        -1.15422811E-03
   35.6610374        -1.15263416E-03
   35.7797890        -1.15101517E-03
   35.8985405        -1.14937138E-03
   36.0172882        -1.14770315E-03
   36.1360397        -1.14601117E-03
   36.2547874        -1.14429579E-03
   36.3735390        -1.14255783E-03
   36.4922905        -1.14079809E-03
   36.6110382        -1.13901764E-03
   36.7297897        -1.13721692E-03
   36.8485374        -1.13539724E-03
   36.9672890        -1.13355916E-03
   37.0860405        -1.13170350E-03
   37.2047882        -1.12983072E-03
   37.3235397        -1.12794153E-03
   37.4422874        -1.12603605E-03
   37.5610390        -1.12411508E-03
   37.6797905        -1.12217851E-03
   37.7985382        -1.12022681E-03
   37.9172897        -1.11826009E-03
   38.0360374        -1.11627881E-03
   38.1547890        -1.11428334E-03
   38.2735405        -1.11227389E-03
   38.3922882        -1.11025129E-03
   38.5110397        -1.10821601E-03
   38.6297874        -1.10616849E-03
   38.7485390        -1.10410980E-03
   38.8672905        -1.10204075E-03
   38.9860382        -1.09996216E-03
   39.1047897        -1.09787460E-03
   39.2235374        -1.09577924E-03
   39.3422890        -1.09367678E-03
   39.4610405        -1.09156792E-03
   39.5797882        -1.08945346E-03
   39.6985397        -1.08733389E-03
   39.8172874        -1.08520989E-03
   39.9360390        -1.08308182E-03
   40.0547905        -1.08094991E-03
   40.1735382        -1.07881485E-03
   40.2922897        -1.07667653E-03
   40.4110374        -1.07453542E-03
   40.5297890        -1.07239175E-03
   40.6485405        -1.07024563E-03
   40.7672882        -1.06809742E-03
   40.8860397        -1.06594735E-03
   41.0047874        -1.06379576E-03
   41.1235390        -1.06164312E-03
   41.2422905        -1.05948991E-03
   41.3610382        -1.05733681E-03
   41.4797897        -1.05518429E-03
   41.5985374        -1.05303305E-03
   41.7172890        -1.05088390E-03
   41.8360405        -1.04873732E-03
   41.9547882        -1.04659423E-03
   42.0735397        -1.04445498E-03
   42.1922874        -1.04232028E-03
   42.3110390        -1.04019057E-03
   42.4297905        -1.03806646E-03
   42.5485382        -1.03594805E-03
   42.6672897        -1.03383581E-03
   42.7860374        -1.03172963E-03
   42.9047890        -1.02962984E-03
   43.0235405        -1.02753669E-03
   43.1422882        -1.02545042E-03
   43.2610397        -1.02337124E-03
   43.3797874        -1.02129951E-03
   43.4985390        -1.01923605E-03
   43.6172905        -1.01718144E-03
   43.7360382        -1.01513637E-03
   43.8547897        -1.01310166E-03
   43.9735374        -1.01107836E-03
   44.0922890        -1.00906705E-03
   44.2110405        -1.00706879E-03
   44.3297882        -1.00508414E-03
   44.4485397        -1.00311358E-03
   44.5672874        -1.00115768E-03
   44.6860390        -9.99216689E-04
   44.8047905        -9.97290597E-04
   44.9235382        -9.95379291E-04
   45.0422897        -9.93482885E-04
   45.1610374        -9.91601031E-04
   45.2797890        -9.89733497E-04
   45.3985405        -9.87880398E-04
   45.5172882        -9.86041618E-04
   45.6360397        -9.84217273E-04
   45.7547874        -9.82407713E-04
   45.8735390        -9.80613288E-04
   45.9922905        -9.78834694E-04
   46.1110382        -9.77072632E-04
   46.2297897        -9.75327683E-04
   46.3485374        -9.73600603E-04
   46.4672890        -9.71892034E-04
   46.5860405        -9.70202556E-04
   46.7047882        -9.68532579E-04
   46.8235397        -9.66882333E-04
   46.9422874        -9.65251937E-04
   47.0610390        -9.63641447E-04
   47.1797905        -9.62050632E-04
   47.2985382        -9.60479316E-04
   47.4172897        -9.58927441E-04
   47.5360374        -9.57394775E-04
   47.6547890        -9.55881202E-04
   47.7735405        -9.54386720E-04
   47.8922882        -9.52911447E-04
   48.0110397        -9.51455557E-04
   48.1297874        -9.50019341E-04
   48.2485390        -9.48603149E-04
   48.3672905        -9.47207503E-04
   48.4860382        -9.45832755E-04
   48.6047897        -9.44479194E-04
   48.7235374        -9.43147228E-04
   48.8422890        -9.41836974E-04
   48.9610405        -9.40548722E-04
   49.0797882        -9.39282472E-04
   49.1985397        -9.38038051E-04
   49.3172874        -9.36815341E-04
   49.4360390        -9.35614284E-04
   49.5547905        -9.34434473E-04
   49.6735382        -9.33275849E-04
   49.7922897        -9.32138297E-04
   49.9110374        -9.31021757E-04
   50.0297890        -9.29926231E-04
   50.1485405        -9.28851776E-04
   50.2672882        -9.27798625E-04
   50.3860397        -9.26766952E-04
   50.5047874        -9.25756874E-04
   50.6235390        -9.24768683E-04
   50.7422905        -9.23802610E-04
   50.8610382        -9.22858715E-04
   50.9797897        -9.21937171E-04
   51.0985374        -9.21037921E-04
   51.2172890        -9.20160965E-04
   51.3360405        -9.19306302E-04
   51.4547882        -9.18473757E-04
   51.5735397        -9.17663041E-04
   51.6922874        -9.16874036E-04
   51.8110390        -9.16106510E-04
   51.9297905        -9.15360230E-04
   52.0485382        -9.14634904E-04
   52.1672897        -9.13930300E-04
   52.2860374        -9.13246418E-04
   52.4047890        -9.12583026E-04
   52.5235405        -9.11940064E-04
   52.6422882        -9.11317416E-04
   52.7610397        -9.10715084E-04
   52.8797874        -9.10133007E-04
   52.9985390        -9.09571245E-04
   53.1172905        -9.09029797E-04
   53.2360382        -9.08508722E-04
   53.3547897        -9.08007962E-04
   53.4735374        -9.07527632E-04
   53.5922890        -9.07067675E-04
   53.7110405        -9.06628033E-04
   53.8297882        -9.06208705E-04
   53.9485397        -9.05809575E-04
   54.0672874        -9.05430352E-04
   54.1860390        -9.05070861E-04
   54.3047905        -9.04730870E-04
   54.4235382        -9.04410088E-04
   54.5422897        -9.04108107E-04
   54.6610374        -9.03824577E-04
   54.7797890        -9.03559325E-04
   54.8985405        -9.03311884E-04
   55.0172882        -9.03082138E-04
   55.1360397        -9.02869739E-04
   55.2547874        -9.02674627E-04
   55.3735390        -9.02496744E-04
   55.4922905        -9.02336091E-04
   55.6110382        -9.02192551E-04
   55.7297897        -9.02066007E-04
   55.8485374        -9.01956402E-04
   55.9672890        -9.01863677E-04
   56.0860405        -9.01787542E-04
   56.2047882        -9.01727704E-04
   56.3235397        -9.01683990E-04
   56.4422874        -9.01655760E-04
   56.5610390        -9.01642721E-04
   56.6797905        -9.01644409E-04
   56.7985382        -9.01660358E-04
   56.9172897        -9.01690102E-04
   57.0360374        -9.01733467E-04
   57.1547890        -9.01790219E-04
   57.2735405        -9.01860185E-04
   57.3922882        -9.01943480E-04
   57.5110397        -9.02040105E-04
   57.6297874        -9.02150408E-04
   57.7485390        -9.02274449E-04
   57.8672905        -9.02412401E-04
   57.9860382        -9.02564439E-04
   58.1047897        -9.02730448E-04
   58.2235374        -9.02910251E-04