  -37.8452110         0.00000000    
  -37.7302094         1.11049902E-11
  -37.6152115         3.14976240E-11
  -37.5002098         5.75990609E-11
  -37.3852119         8.49937967E-11
  -37.2702103         1.09561374E-10
  -37.1552124         1.28517016E-10
  -37.0402107         1.41079218E-10
  -36.9252129         1.48563842E-10
  -36.8102112         1.53858884E-10
  -36.6952095         1.60400124E-10
  -36.5802116         1.70929618E-10
  -36.4652100         1.86415522E-10
  -36.3502121         2.05509054E-10
  -36.2352104         2.24813945E-10
  -36.1202126         2.40039683E-10
  -36.0052109         2.47861953E-10
  -35.8902092         2.48080306E-10
  -35.7752113         2.45517412E-10
  -35.6602097         2.51081739E-10
  -35.5452118         2.81581758E-10
  -35.4302101         3.58145874E-10
  -35.3152122         5.03464104E-10
  -35.2002106         7.38396844E-10
  -35.0852127         1.07869524E-09
  -34.9702110         1.53260993E-09
  -34.8552094         2.09995998E-09
  -34.7402115         2.77288970E-09
  -34.6252098         3.53808938E-09
  -34.5102119         4.37990089E-09
  -34.3952103         5.28348565E-09
  -34.2802124         6.23724228E-09
  -34.1652107         7.23395210E-09
  -34.0502129         8.27046698E-09
  -33.9352112         9.34628019E-09
  -33.8202095         1.04616174E-08
  -33.7052116         1.16158159E-08
  -33.5902100         1.28067112E-08
  -33.4752121         1.40313015E-08
  -33.3602104         1.52875170E-08
  -33.2452126         1.65766227E-08
  -33.1302109         1.79053004E-08
  -33.0152092         1.92866949E-08
  -32.9002113         2.07398028E-08
  -32.7852097         2.22872139E-08
  -32.6702118         2.39515359E-08
  -32.5552101         2.57514845E-08
  -32.4402122         2.76984586E-08
  -32.3252106         2.97946929E-08
  -32.2102127         3.20333271E-08
  -32.0952110         3.44003404E-08
  -31.9802113         3.68779425E-08
  -31.8652115         3.94483237E-08
  -31.7502117         4.20969428E-08
  -31.6352119         4.48144384E-08
  -31.5202103         4.75969095E-08
  -31.4052105         5.04444131E-08
  -31.2902107         5.33586224E-08
  -31.1752110         5.63400704E-08
  -31.0602112         5.93862133E-08
  -30.9452114         6.24906349E-08
  -30.8302116         6.56439241E-08
  -30.7152119         6.88357957E-08
  -30.6002102         7.20580502E-08
  -30.4852104         7.53074403E-08
  -30.3702106         7.85875898E-08
  -30.2552109         8.19092989E-08
  -30.1402111         8.52892938E-08
  -30.0252113         8.87470293E-08
  -29.9102116         9.23008230E-08
  -29.7952118         9.59639550E-08
  -29.6802101         9.97411789E-08
  -29.5652103         1.03627777E-07
  -29.4502106         1.07610489E-07
  -29.3352108         1.11669891E-07
  -29.2202110         1.15785099E-07
  -29.1052113         1.19938051E-07
  -28.9902115         1.24117250E-07
  -28.8752117         1.28319655E-07
  -28.7602119         1.32550113E-07
  -28.6452103         1.36818642E-07
  -28.5302105         1.41136638E-07
  -28.4152107         1.45512900E-07
  -28.3002110         1.49950921E-07
  -28.1852112         1.54448458E-07
  -28.0702114         1.58999981E-07
  -27.9552116         1.63600717E-07
  -27.8402119         1.68251759E-07
  -27.7252102         1.72963439E-07
  -27.6102104         1.77757627E-07
  -27.4952106         1.82665573E-07
  -27.3802109         1.87722520E-07
  -27.2652111         1.92961636E-07
  -27.1502113         1.98407008E-07
  -27.0352116         2.04069337E-07
  -26.9202118         2.09944645E-07
  -26.8052101         2.16017554E-07
  -26.6902103         2.22267730E-07
  -26.5752106         2.28677479E-07
  -26.4602108         2.35237906E-07
  -26.3452110         2.41952904E-07
  -26.2302113         2.48838148E-07
  -26.1152115         2.55915154E-07
  -26.0002117         2.63204043E-07
  -25.8852119         2.70715674E-07
  -25.7702103         2.78445469E-07
  -25.6552105         2.86372227E-07
  -25.5402107         2.94461643E-07
  -25.4252110         3.02673470E-07
  -25.3102112         3.10970194E-07
  -25.1952114         3.19325693E-07
  -25.0802116         3.27729367E-07
  -24.9652119         3.36185337E-07
  -24.8502102         3.44708241E-07
  -24.7352104         3.53315642E-07
  -24.6202106         3.62018341E-07
  -24.5052109         3.70815599E-07
  -24.3902111         3.79692324E-07
  -24.2752113         3.88623192E-07
  -24.1602116         3.97577452E-07
  -24.0452118         4.06528983E-07
  -23.9302101         4.15463120E-07
  -23.8152103         4.24381710E-07
  -23.7002106         4.33303711E-07
  -23.5852108         4.42261239E-07
  -23.4702110         4.51292351E-07
  -23.3552113         4.60435160E-07
  -23.2402115         4.69722352E-07
  -23.1252117         4.79178766E-07
  -23.0102119         4.88823275E-07
  -22.8952103         4.98674240E-07
  -22.7802105         5.08754795E-07
  -22.6652107         5.19098876E-07
  -22.5502110         5.29754061E-07
  -22.4352112         5.40779013E-07
  -22.3202114         5.52237111E-07
  -22.2052116         5.64188440E-07
  -22.0902119         5.76680179E-07
  -21.9752102         5.89737681E-07
  -21.8602104         6.03361343E-07
  -21.7452106         6.17526155E-07
  -21.6302109         6.32186584E-07
  -21.5152111         6.47288232E-07
  -21.4002113         6.62774482E-07
  -21.2852116         6.78601054E-07
  -21.1702118         6.94738389E-07
  -21.0552101         7.11178473E-07
  -20.9402103         7.27927784E-07
  -20.8252106         7.45002126E-07
  -20.7102108         7.62420541E-07
  -20.5952110         7.80196160E-07
  -20.4802113         7.98333872E-07
  -20.3652115         8.16829754E-07
  -20.2502117         8.35677383E-07
  -20.1352119         8.54874145E-07
  -20.0202103         8.74428338E-07
  -19.9052105         8.94360142E-07
  -19.7902107         9.14706845E-07
  -19.6752110         9.35510116E-07
  -19.5602112         9.56811505E-07
  -19.4452114         9.78639036E-07
  -19.3302116         1.00099919E-06
  -19.2152119         1.02387571E-06
  -19.1002102         1.04722881E-06
  -18.9852104         1.07100720E-06
  -18.8702106         1.09515986E-06
  -18.7552109         1.11964869E-06
  -18.6402111         1.14445368E-06
  -18.5252113         1.16957710E-06
  -18.4102116         1.19503636E-06
  -18.2952118         1.22085646E-06
  -18.1802101         1.24705218E-06
  -18.0652103         1.27362034E-06
  -17.9502106         1.30053445E-06
  -17.8352108         1.32775165E-06
  -17.7202110         1.35521998E-06
  -17.6052113         1.38289408E-06
  -17.4902115         1.41074884E-06
  -17.3752117         1.43878844E-06
  -17.2602119         1.46704804E-06
  -17.1452103         1.49558298E-06
  -17.0302105         1.52445932E-06
  -16.9152107         1.55373402E-06
  -16.8002110         1.58345256E-06
  -16.6852112         1.61363243E-06
  -16.5702114         1.64426865E-06
  -16.4552116         1.67533926E-06
  -16.3402119         1.70681801E-06
  -16.2252102         1.73868193E-06
  -16.1102104         1.77091817E-06
  -15.9952106         1.80352185E-06
  -15.8802109         1.83648785E-06
  -15.7652111         1.86979776E-06
  -15.6502113         1.90341905E-06
  -15.5352106         1.93729397E-06
  -15.4202108         1.97134204E-06
  -15.3052111         2.00547629E-06
  -15.1902113         2.03960826E-06
  -15.0752115         2.07367384E-06
  -14.9602108         2.10764006E-06
  -14.8452110         2.14152169E-06
  -14.7302113         2.17536262E-06
  -14.6152115         2.20923653E-06
  -14.5002108         2.24323003E-06
  -14.3852110         2.27742066E-06
  -14.2702112         2.31186618E-06
  -14.1552114         2.34660297E-06
  -14.0402107         2.38163534E-06
  -13.9252110         2.41693920E-06
  -13.8102112         2.45247793E-06
  -13.6952114         2.48820220E-06
  -13.5802107         2.52406380E-06
  -13.4652109         2.56001658E-06
  -13.3502111         2.59601529E-06
  -13.2352114         2.63200900E-06
  -13.1202106         2.66794723E-06
  -13.0052109         2.70376677E-06
  -12.8902111         2.73940714E-06
  -12.7752113         2.77479921E-06
  -12.6602106         2.80988570E-06
  -12.5452108         2.84461657E-06
  -12.4302111         2.87896023E-06
  -12.3152113         2.91290962E-06
  -12.2002115         2.94647680E-06
  -12.0852108         2.97966903E-06
  -11.9702110         3.01248883E-06
  -11.8552113         3.04493119E-06
  -11.7402115         3.07695518E-06
  -11.6252108         3.10849055E-06
  -11.5102110         3.13942883E-06
  -11.3952112         3.16965543E-06
  -11.2802114         3.19903575E-06
  -11.1652107         3.22746291E-06
  -11.0502110         3.25484871E-06
  -10.9352112         3.28114515E-06
  -10.8202114         3.30634589E-06
  -10.7052107         3.33046682E-06
  -10.5902109         3.35353980E-06
  -10.4752111         3.37560414E-06
  -10.3602114         3.39668145E-06
  -10.2452106         3.41679174E-06
  -10.1302109         3.43592501E-06
  -10.0152111         3.45405920E-06
  -9.90021133         3.47117589E-06
  -9.78521061         3.48725939E-06
  -9.67021084         3.50231426E-06
  -9.55521107         3.51633503E-06
  -9.44021130         3.52934330E-06
  -9.32521152         3.54132021E-06
  -9.21021080         3.55223983E-06
  -9.09521103         3.56205328E-06
  -8.98021126         3.57068052E-06
  -8.86521149         3.57803151E-06
  -8.75021076         3.58400689E-06
  -8.63521099         3.58855004E-06
  -8.52021122         3.59159208E-06
  -8.40521145         3.59309820E-06
  -8.29021072         3.59304613E-06
  -8.17521095         3.59139426E-06
  -8.06021118         3.58808711E-06
  -7.94521093         3.58300872E-06
  -7.83021116         3.57601107E-06
  -7.71521091         3.56689657E-06
  -7.60021114         3.55546513E-06
  -7.48521090         3.54152439E-06
  -7.37021112         3.52492088E-06
  -7.25521088         3.50556525E-06
  -7.14021111         3.48339631E-06
  -7.02521086         3.45842636E-06
  -6.91021109         3.43067609E-06
  -6.79521084         3.40021188E-06
  -6.68021107         3.36707626E-06
  -6.56521130         3.33128628E-06
  -6.45021105         3.29283739E-06
  -6.33521128         3.25169481E-06
  -6.22021103         3.20781623E-06
  -6.10521126         3.16115188E-06
  -5.99021101         3.11162171E-06
  -5.87521124         3.05914455E-06
  -5.76021099         3.00362126E-06
  -5.64521122         2.94490701E-06
  -5.53021097         2.88284696E-06
  -5.41521120         2.81721736E-06
  -5.30021095         2.74783383E-06
  -5.18521118         2.67447263E-06
  -5.07021093         2.59698504E-06
  -4.95521116         2.51523829E-06
  -4.84021091         2.42915462E-06
  -4.72521114         2.33872424E-06
  -4.61021090         2.24399287E-06
  -4.49521112         2.14502597E-06
  -4.38021088         2.04194248E-06
  -4.26521111         1.93479104E-06
  -4.15021086         1.82362874E-06
  -4.03521109         1.70841099E-06
  -3.92021108         1.58910188E-06
  -3.80521107         1.46559410E-06
  -3.69021106         1.33773540E-06
  -3.57521105         1.20534798E-06
  -3.46021104         1.06828145E-06
  -3.34521103         9.26395558E-07
  -3.23021102         7.79528477E-07
  -3.11521101         6.27554527E-07
  -3.00021100         4.70365023E-07
  -2.88521099         3.07820727E-07
  -2.77021098         1.39786238E-07
  -2.65521097        -3.39100410E-08
  -2.54021096        -2.13353829E-07
  -2.42521095        -3.98684904E-07
  -2.31021094        -5.90007517E-07
  -2.19521117        -7.87391343E-07
  -2.08021116        -9.90890726E-07
  -1.96521103        -1.20052982E-06
  -1.85021102        -1.41637588E-06
  -1.73521101        -1.63847790E-06
  -1.62021101        -1.86693057E-06
  -1.50521111        -2.10181634E-06
  -1.39021111        -2.34327081E-06
  -1.27521110        -2.59143917E-06
  -1.16021109        -2.84644079E-06
  -1.04521108        -3.10832661E-06
 -0.930211067        -3.37712959E-06
 -0.815211058        -3.65280130E-06
 -0.700211048        -3.93528580E-06
 -0.585211039        -4.22446647E-06
 -0.470211059        -4.52030008E-06
 -0.355211049        -4.82272617E-06
 -0.240211055        -5.13178838E-06
 -0.125211060        -5.44756313E-06
  -1.02110580E-02    -5.77019819E-06
  0.104788944        -6.09990184E-06
  0.219788939        -6.43685962E-06
  0.334788948        -6.78125070E-06
  0.449788928        -7.13322970E-06
  0.564788938        -7.49288984E-06
  0.679788947        -7.86031433E-06
  0.794788957        -8.23551636E-06
  0.909788966        -8.61849458E-06
   1.02478898        -9.00926716E-06
   1.13978899        -9.40788505E-06
   1.25478899        -9.81442645E-06
   1.36978889        -1.02288686E-05
   1.48478889        -1.06512616E-05
   1.59978890        -1.10815390E-05
   1.71478891        -1.15196563E-05
   1.82978892        -1.19655406E-05
   1.94478893        -1.24191265E-05
   2.05978894        -1.28804350E-05
   2.17478895        -1.33495032E-05
   2.28978896        -1.38264113E-05
   2.40478897        -1.43114330E-05
   2.51978898        -1.48047584E-05
   2.63478899        -1.53065776E-05
   2.74978900        -1.58169732E-05
   2.86478901        -1.63359455E-05
   2.97978902        -1.68634597E-05
   3.09478903        -1.73993285E-05
   3.20978904        -1.79433118E-05
   3.32478905        -1.84950804E-05
   3.43978906        -1.90543742E-05
   3.55478883        -1.96210203E-05
   3.66978884        -2.01948169E-05
   3.78478885        -2.07756420E-05
   3.89978886        -2.13634630E-05
   4.01478910        -2.19582507E-05
   4.12978888        -2.25600197E-05
   4.24478912        -2.31688391E-05
   4.35978889        -2.37846980E-05
   4.47478914        -2.44077091E-05
   4.58978891        -2.50379180E-05
   4.70478916        -2.56754793E-05
   4.81978893        -2.63204620E-05
   4.93478870        -2.69730299E-05
   5.04978895        -2.76333067E-05
   5.16478872        -2.83013451E-05
   5.27978897        -2.89770833E-05
   5.39478874        -2.96604758E-05
   5.50978899        -3.03513389E-05
   5.62478876        -3.10493378E-05
   5.73978901        -3.17542581E-05
   5.85478878        -3.24658213E-05
   5.96978903        -3.31838201E-05
   6.08478880        -3.39080980E-05
   6.19978905        -3.46386623E-05
   6.31478882        -3.53754549E-05
   6.42978907        -3.61185666E-05
   6.54478884        -3.68679757E-05
   6.65978909        -3.76236349E-05
   6.77478886        -3.83854895E-05
   6.88978910        -3.91534159E-05
   7.00478888        -3.99271812E-05
   7.11978912        -4.07066073E-05
   7.23478889        -4.14914357E-05
   7.34978914        -4.22815356E-05
   7.46478891        -4.30766959E-05
   7.57978916        -4.38768511E-05
   7.69478893        -4.46819213E-05
   7.80978870        -4.54919209E-05
   7.92478895        -4.63067663E-05
   8.03978920        -4.71262865E-05
   8.15478897        -4.79503215E-05
   8.26978874        -4.87786783E-05
   8.38478851        -4.96111825E-05
   8.49978924        -5.04476702E-05
   8.61478901        -5.12879596E-05
   8.72978878        -5.21319853E-05
   8.84478855        -5.29795470E-05
   8.95978928        -5.38304812E-05
   9.07478905        -5.46845222E-05
   9.18978882        -5.55413462E-05
   9.30478859        -5.64006259E-05
   9.41978931        -5.72619610E-05
   9.53478909        -5.81248969E-05
   9.64978886        -5.89891497E-05
   9.76478863        -5.98543884E-05
   9.87978935        -6.07205729E-05
   9.99478912        -6.15876270E-05
   10.1097889        -6.24556342E-05
   10.2247887        -6.33246964E-05
   10.3397894        -6.41949737E-05
   10.4547892        -6.50664806E-05
   10.5697889        -6.59393118E-05
   10.6847887        -6.68133071E-05
   10.7997885        -6.76882264E-05
   10.9147892        -6.85637933E-05
   11.0297890        -6.94395931E-05
   11.1447887        -7.03152618E-05
   11.2597885        -7.11904213E-05
   11.3747892        -7.20646785E-05
   11.4897890        -7.29376843E-05
   11.6047888        -7.38090093E-05
   11.7197886        -7.46784062E-05
   11.8347893        -7.55455258E-05
   11.9497890        -7.64100914E-05
   12.0647888        -7.72717394E-05
   12.1797886        -7.81303170E-05
   12.2947893        -7.89856422E-05
   12.4097891        -7.98375841E-05
   12.5247889        -8.06861208E-05
   12.6397886        -8.15312233E-05
   12.7547894        -8.23728260E-05
   12.8697891        -8.32108199E-05
   12.9847889        -8.40450448E-05
   13.0997887        -8.48751515E-05
   13.2147894        -8.57006671E-05
   13.3297892        -8.65210677E-05
   13.4447889        -8.73358513E-05
   13.5597887        -8.81443921E-05
   13.6747885        -8.89463699E-05
   13.7897892        -8.97414138E-05
   13.9047890        -9.05293491E-05
   14.0197887        -9.13100230E-05
   14.1347885        -9.20833481E-05
   14.2497892        -9.28492882E-05
   14.3647890        -9.36077413E-05
   14.4797888        -9.43585983E-05
   14.5947886        -9.51016991E-05
   14.7097893        -9.58369274E-05
   14.8247890        -9.65640211E-05
   14.9397888        -9.72829293E-05
   15.0547886        -9.79933611E-05
   15.1697893        -9.86952218E-05
   15.2847891        -9.93881767E-05
   15.3997889        -1.00072088E-04
   15.5147886        -1.00746656E-04
   15.6297894        -1.01411577E-04
   15.7447891        -1.02066515E-04
   15.8597889        -1.02711150E-04
   15.9747887        -1.03345141E-04
   16.0897884        -1.03968123E-04
   16.2047882        -1.04579944E-04
   16.3197899        -1.05180465E-04
   16.4347897        -1.05769461E-04
   16.5497894        -1.06346786E-04
   16.6647892        -1.06912426E-04
   16.7797890        -1.07466156E-04
   16.8947887        -1.08007669E-04
   17.0097885        -1.08536726E-04
   17.1247883        -1.09052911E-04
   17.2397881        -1.09555920E-04
   17.3547897        -1.10045294E-04
   17.4697895        -1.10520807E-04
   17.5847893        -1.10982219E-04
   17.6997890        -1.11429472E-04
   17.8147888        -1.11862515E-04
   17.9297886        -1.12281392E-04
   18.0447884        -1.12686314E-04
   18.1597881        -1.13077294E-04
   18.2747898        -1.13454436E-04
   18.3897896        -1.13817732E-04
   18.5047894        -1.14167058E-04
   18.6197891        -1.14502363E-04
   18.7347889        -1.14823481E-04
   18.8497887        -1.15130286E-04
   18.9647884        -1.15422568E-04
   19.0797882        -1.15700132E-04
   19.1947899        -1.15962699E-04
   19.3097897        -1.16210038E-04
   19.4247894        -1.16441843E-04
   19.5397892        -1.16657837E-04
   19.6547890        -1.16857751E-04
   19.7697887        -1.17041360E-04
   19.8847885        -1.17208700E-04
   19.9997883        -1.17359676E-04
   20.1147881        -1.17494521E-04
   20.2297897        -1.17613519E-04
   20.3447895        -1.17716882E-04
   20.4597893        -1.17804899E-04
   20.5747890        -1.17877818E-04
   20.6897888        -1.17935764E-04
   20.8047886        -1.17978612E-04
   20.9197884        -1.18006283E-04
   21.0347881        -1.18018448E-04
   21.1497898        -1.18014810E-04
   21.2647896        -1.17995049E-04
   21.3797894        -1.17958880E-04
   21.4947891        -1.17906231E-04
   21.6097889        -1.17836840E-04
   21.7247887        -1.17750598E-04
   21.8397884        -1.17647425E-04
   21.9547882        -1.17527423E-04
   22.0697899        -1.17390628E-04
   22.1847897        -1.17237141E-04
   22.2997894        -1.17067124E-04
   22.4147892        -1.16880678E-04
   22.5297890        -1.16678137E-04
   22.6447887        -1.16459712E-04
   22.7597885        -1.16225761E-04
   22.8747883        -1.15976531E-04
   22.9897881        -1.15712115E-04
   23.1047897        -1.15432711E-04
   23.2197895        -1.15138406E-04
   23.3347893        -1.14829141E-04
   23.4497890        -1.14504866E-04
   23.5647888        -1.14165559E-04
   23.6797886        -1.13811155E-04
   23.7947884        -1.13441747E-04
   23.9097881        -1.13057475E-04
   24.0247898        -1.12658592E-04
   24.1397896        -1.12245230E-04
   24.2547894        -1.11817790E-04
   24.3697891        -1.11376561E-04
   24.4847889        -1.10921814E-04
   24.5997887        -1.10453751E-04
   24.7147884        -1.09972563E-04
   24.8297882        -1.09478387E-04
   24.9447899        -1.08971311E-04
   25.0597897        -1.08451415E-04
   25.1747894        -1.07918808E-04
   25.2897892        -1.07373562E-04
   25.4047890        -1.06815853E-04
   25.5197887        -1.06245934E-04
   25.6347885        -1.05664054E-04
   25.7497883        -1.05070452E-04
   25.8647881        -1.04465413E-04
   25.9797897        -1.03849190E-04
   26.0947895        -1.03222104E-04
   26.2097893        -1.02584410E-04
   26.3247890        -1.01936384E-04
   26.4397888        -1.01278369E-04
   26.5547886        -1.00610516E-04
   26.6697884        -9.99330514E-05
   26.7847881        -9.92462010E-05
   26.8997898        -9.85500519E-05
   27.0147896        -9.78445896E-05
   27.1297894        -9.71299232E-05
   27.2447891        -9.64060164E-05
   27.3597889        -9.56729345E-05
   27.4747887        -9.49308233E-05
   27.5897884        -9.41797989E-05
   27.7047882        -9.34202544E-05
   27.8197899        -9.26525536E-05
   27.9347897        -9.18772930E-05
   28.0497894        -9.10950912E-05
   28.1647892        -9.03065447E-05
   28.2797890        -8.95123740E-05
   28.3947887        -8.87131027E-05
   28.5097885        -8.79091385E-05
   28.6247883        -8.71007942E-05
   28.7397881        -8.62882880E-05
   28.8547897        -8.54717509E-05
   28.9697895        -8.46513503E-05
   29.0847893        -8.38271226E-05
   29.1997890        -8.29991768E-05
   29.3147888        -8.21675276E-05
   29.4297886        -8.13321967E-05
   29.5447884        -8.04932424E-05
   29.6597881        -7.96508975E-05
   29.7747898        -7.88052275E-05
   29.8897896        -7.79565307E-05
   30.0047894        -7.71050472E-05
   30.1197891        -7.62513082E-05
   30.2347889        -7.53958084E-05
   30.3497887        -7.45391153E-05
   30.4647884        -7.36817965E-05
   30.5797882        -7.28244995E-05
   30.6947899        -7.19676609E-05
   30.8097897        -7.11116081E-05
   30.9247894        -7.02566322E-05
   31.0397892        -6.94030023E-05
   31.1547890        -6.85507403E-05
   31.2697887        -6.76999407E-05
   31.3847885        -6.68505745E-05
   31.4997883        -6.60027872E-05
   31.6147881        -6.51567680E-05
   31.7297897        -6.43127642E-05
   31.8447895        -6.34712123E-05
   31.9597893        -6.26324691E-05
   32.0747871        -6.17969199E-05
   32.1897888        -6.09649906E-05
   32.3047905        -6.01370339E-05
   32.4197884        -5.93132900E-05
   32.5347900        -5.84941736E-05
   32.6497879        -5.76800776E-05
   32.7647896        -5.68712603E-05
   32.8797874        -5.60680928E-05
   32.9947891        -5.52709353E-05
   33.1097908        -5.44801478E-05
   33.2247887        -5.36959778E-05
   33.3397903        -5.29186982E-05
   33.4547882        -5.21484289E-05
   33.5697899        -5.13852065E-05
   33.6847878        -5.06291508E-05
   33.7997894        -4.98803165E-05
   33.9147873        -4.91388710E-05
   34.0297890        -4.84050142E-05
   34.1447906        -4.76789101E-05
   34.2597885        -4.69609913E-05
   34.3747902        -4.62514799E-05
   34.4897881        -4.55505506E-05
   34.6047897        -4.48584287E-05
   34.7197876        -4.41751617E-05
   34.8347893        -4.35007096E-05
   34.9497871        -4.28351013E-05
   35.0647888        -4.21781442E-05
   35.1797905        -4.15299037E-05
   35.2947884        -4.08903979E-05
   35.4097900        -4.02598234E-05
   35.5247879        -3.96384967E-05
   35.6397896        -3.90269088E-05
   35.7547874        -3.84254054E-05
   35.8697891        -3.78343648E-05
   35.9847908        -3.72541872E-05
   36.0997887        -3.66852182E-05
   36.2147903        -3.61275233E-05
   36.3297882        -3.55811571E-05
   36.4447899        -3.50462906E-05
   36.5597878        -3.45229164E-05
   36.6747894        -3.40111110E-05
   36.7897873        -3.35109326E-05
   36.9047890        -3.30224138E-05
   37.0197906        -3.25455439E-05
   37.1347885        -3.20802210E-05
   37.2497902        -3.16262958E-05
   37.3647881        -3.11836520E-05
   37.4797897        -3.07520422E-05
   37.5947876        -3.03313755E-05
   37.7097893        -2.99217263E-05
   37.8247871        -2.95232621E-05
   37.9397888        -2.91362048E-05
   38.0547905        -2.87609801E-05
   38.1697884        -2.83980407E-05
   38.2847900        -2.80477379E-05
   38.3997879        -2.77104791E-05
   38.5147896        -2.73864134E-05
   38.6297874        -2.70756609E-05
   38.7447891        -2.67779978E-05
   38.8597908        -2.64932405E-05
   38.9747887        -2.62212106E-05
   39.0897903        -2.59616227E-05
   39.2047882        -2.57143056E-05
   39.3197899        -2.54790102E-05
   39.4347878        -2.52556238E-05
   39.5497894        -2.50440244E-05
   39.6647873        -2.48441975E-05
   39.7797890        -2.46559102E-05
   39.8947906        -2.44790390E-05
   40.0097885        -2.43133636E-05
   40.1247902        -2.41586986E-05
   40.2397881        -2.40150312E-05
   40.3547897        -2.38823595E-05
   40.4697876        -2.37607419E-05
   40.5847893        -2.36503183E-05
   40.6997871        -2.35512634E-05
   40.8147888        -2.34636536E-05
   40.9297905        -2.33875471E-05
   41.0447884        -2.33229475E-05
   41.1597900        -2.32697403E-05
   41.2747879        -2.32276689E-05
   41.3897896        -2.31964732E-05
   41.5047874        -2.31759532E-05
   41.6197891        -2.31659578E-05
   41.7347908        -2.31664708E-05
   41.8497887        -2.31773374E-05
   41.9647903        -2.31985614E-05
   42.0797882        -2.32301027E-05
   42.1947899        -2.32718958E-05
   42.3097878        -2.33238188E-05
   42.4247894        -2.33855899E-05
   42.5397873        -2.34568506E-05
   42.6547890        -2.35373427E-05
   42.7697906        -2.36267551E-05
   42.8847885        -2.37248005E-05
   42.9997902        -2.38312186E-05
   43.1147881        -2.39459350E-05
   43.2297897        -2.40688205E-05
   43.3447876        -2.41999660E-05
   43.4597893        -2.43393279E-05
   43.5747871        -2.44867751E-05
   43.6897888        -2.46422078E-05
   43.8047905        -2.48054312E-05
   43.9197884        -2.49761506E-05
   44.0347900        -2.51542406E-05
   44.1497879        -2.53395774E-05
   44.2647896        -2.55318682E-05
   44.3797874        -2.57310421E-05
   44.4947891        -2.59369972E-05
   44.6097908        -2.61495097E-05
   44.7247887        -2.63683178E-05
   44.8397903        -2.65931576E-05
   44.9547882        -2.68236981E-05
   45.0697899        -2.70595501E-05
   45.1847878        -2.73003698E-05
   45.2997894        -2.75458533E-05
   45.4147873        -2.77957515E-05
   45.5297890        -2.80500080E-05
   45.6447906        -2.83086029E-05
   45.7597885        -2.85715905E-05
   45.8747902        -2.88391930E-05
   45.9897881        -2.91114156E-05
   46.1047897        -2.93883022E-05
   46.2197876        -2.96697472E-05
   46.3347893        -2.99556323E-05
   46.4497871        -3.02456119E-05
   46.5647888        -3.05394060E-05
   46.6797905        -3.08366798E-05
   46.7947884        -3.11371696E-05
   46.9097900        -3.14405697E-05
   47.0247879        -3.17466584E-05
   47.1397896        -3.20551590E-05
   47.2547874        -3.23658278E-05
   47.3697891        -3.26783338E-05
   47.4847908        -3.29921786E-05
   47.5997887        -3.33070566E-05
   47.7147903        -3.36226585E-05
   47.8297882        -3.39386315E-05
   47.9447899        -3.42547282E-05
   48.0597878        -3.45709159E-05
   48.1747894        -3.48870635E-05
   48.2897873        -3.52032694E-05
   48.4047890        -3.55196316E-05
   48.5197906        -3.58362158E-05
   48.6347885        -3.61529746E-05
   48.7497902        -3.64698644E-05
   48.8647881        -3.67866596E-05
   48.9797897        -3.71031383E-05
   49.0947876        -3.74190313E-05
   49.2097893        -3.77340912E-05
   49.3247871        -3.80480924E-05
   49.4397888        -3.83608312E-05
   49.5547905        -3.86722131E-05
   49.6697884        -3.89819361E-05
   49.7847900        -3.92899092E-05
   49.8997879        -3.95958814E-05
   50.0147896        -3.98995471E-05
   50.1297874        -4.02005062E-05
   50.2447891        -4.04984639E-05
   50.3597908        -4.07930493E-05
   50.4747887        -4.10840803E-05
   50.5897903        -4.13714442E-05
   50.7047882        -4.16550392E-05
   50.8197899        -4.19349417E-05
   50.9347878        -4.22113626E-05
   51.0497894        -4.24844766E-05
   51.1647873        -4.27544255E-05
   51.2797890        -4.30212713E-05
   51.3947906        -4.32850466E-05
   51.5097885        -4.35456313E-05
   51.6247902        -4.38027964E-05
   51.7397881        -4.40564872E-05
   51.8547897        -4.43065474E-05
   51.9697876        -4.45527876E-05
   52.0847893        -4.47950406E-05
   52.1997871        -4.50331572E-05
   52.3147888        -4.52669083E-05
   52.4297905        -4.54961519E-05
   52.5447884        -4.57204733E-05
   52.6597900        -4.59396579E-05
   52.7747879        -4.61533273E-05
   52.8897896        -4.63611686E-05
   53.0047874        -4.65629382E-05
   53.1197891        -4.67585633E-05
   53.2347908        -4.69480910E-05
   53.3497887        -4.71316744E-05
   53.4647903        -4.73094733E-05
   53.5797882        -4.74816370E-05
   53.6947899        -4.76483219E-05
   53.8097878        -4.78096263E-05
   53.9247894        -4.79655828E-05
   54.0397873        -4.81160096E-05
   54.1547890        -4.82607466E-05
   54.2697906        -4.83996628E-05
   54.3847885        -4.85326200E-05
   54.4997902        -4.86594508E-05
   54.6147881        -4.87801117E-05
   54.7297897        -4.88946753E-05
   54.8447876        -4.90030870E-05
   54.9597893        -4.91054088E-05
   55.0747871        -4.92015242E-05
   55.1897888        -4.92913896E-05