  -37.8452110         0.00000000    
  -37.7264595         7.16556849E-12
  -37.6077118         2.42160632E-11
  -37.4889603         5.55089759E-11
  -37.3702126         1.05530591E-10
  -37.2514610         1.77041284E-10
  -37.1327095         2.69347183E-10
  -37.0139618         3.77169990E-10
  -36.8952103         4.90482099E-10
  -36.7764626         5.95474947E-10
  -36.6577110         6.76586343E-10
  -36.5389595         7.19264370E-10
  -36.4202118         7.12968629E-10
  -36.3014603         6.53833265E-10
  -36.1827126         5.46462597E-10
  -36.0639610         4.04485584E-10
  -35.9452095         2.49725962E-10
  -35.8264618         1.10085628E-10
  -35.7077103         1.64397385E-11
  -35.5889626        -1.03137431E-12
  -35.4702110         8.33955682E-11
  -35.3514595         2.87560947E-10
  -35.2327118         6.18699758E-10
  -35.1139603         1.07170706E-09
  -34.9952126         1.62861413E-09
  -34.8764610         2.25940910E-09
  -34.7577095         2.92428370E-09
  -34.6389618         3.57724894E-09
  -34.5202103         4.17087742E-09
  -34.4014626         4.66174654E-09
  -34.2827110         5.01593789E-09
  -34.1639595         5.21379739E-09
  -34.0452118         5.25313926E-09
  -33.9264603         5.15027088E-09
  -33.8077126         4.93839281E-09
  -33.6889610         4.66348693E-09
  -33.5702095         4.37808545E-09
  -33.4514618         4.13383860E-09
  -33.3327103         3.97388478E-09
  -33.2139626         3.92621002E-09
  -33.0952110         3.99890698E-09
  -32.9764595         4.17803081E-09
  -32.8577118         4.42827819E-09
  -32.7389603         4.69637351E-09
  -32.6202126         4.91660002E-09
  -32.5014610         5.01771247E-09
  -32.3827095         4.93040098E-09
  -32.2639618         4.59419214E-09
  -32.1452103         3.96327193E-09
  -32.0264626         3.01029490E-09
  -31.9077110         1.72805681E-09
  -31.7889614         1.28872191E-10
  -31.6702118        -1.75819947E-09
  -31.5514603        -3.89183441E-09
  -31.4327106        -6.22391250E-09
  -31.3139610        -8.70559003E-09
  -31.1952114        -1.12930190E-08
  -31.0764618        -1.39524268E-08
  -30.9577103        -1.66639271E-08
  -30.8389606        -1.94237462E-08
  -30.7202110        -2.22450289E-08
  -30.6014614        -2.51567247E-08
  -30.4827118        -2.82011943E-08
  -30.3639603        -3.14303001E-08
  -30.2452106        -3.49008573E-08
  -30.1264610        -3.86696399E-08
  -30.0077114        -4.27887556E-08
  -29.8889618        -4.73017359E-08
  -29.7702103        -5.22408889E-08
  -29.6514606        -5.76264370E-08
  -29.5327110        -6.34667501E-08
  -29.4139614        -6.97602900E-08
  -29.2952118        -7.64979688E-08
  -29.1764603        -8.36657108E-08
  -29.0577106        -9.12465623E-08
  -28.9389610        -9.92225466E-08
  -28.8202114        -1.07575637E-07
  -28.7014618        -1.16288902E-07
  -28.5827103        -1.25347427E-07
  -28.4639606        -1.34739764E-07
  -28.3452110        -1.44460273E-07
  -28.2264614        -1.54512051E-07
  -28.1077118        -1.64909636E-07
  -27.9889603        -1.75681606E-07
  -27.8702106        -1.86871901E-07
  -27.7514610        -1.98539723E-07
  -27.6327114        -2.10757023E-07
  -27.5139618        -2.23604829E-07
  -27.3952103        -2.37167512E-07
  -27.2764606        -2.51526217E-07
  -27.1577110        -2.66752636E-07
  -27.0389614        -2.82902846E-07
  -26.9202118        -3.00012289E-07
  -26.8014603        -3.18093043E-07
  -26.6827106        -3.37132775E-07
  -26.5639610        -3.57096042E-07
  -26.4452114        -3.77928330E-07
  -26.3264618        -3.99562481E-07
  -26.2077103        -4.21926586E-07
  -26.0889606        -4.44953571E-07
  -25.9702110        -4.68590571E-07
  -25.8514614        -4.92808113E-07
  -25.7327118        -5.17606225E-07
  -25.6139603        -5.43018587E-07
  -25.4952106        -5.69112728E-07
  -25.3764610        -5.95986023E-07
  -25.2577114        -6.23758524E-07
  -25.1389618        -6.52561766E-07
  -25.0202103        -6.82527173E-07
  -24.9014606        -7.13772749E-07
  -24.7827110        -7.46390754E-07
  -24.6639614        -7.80439223E-07
  -24.5452118        -8.15936346E-07
  -24.4264603        -8.52859387E-07
  -24.3077106        -8.91148318E-07
  -24.1889610        -9.30715771E-07
  -24.0702114        -9.71459372E-07
  -23.9514618        -1.01327737E-06
  -23.8327103        -1.05608228E-06
  -23.7139606        -1.09981625E-06
  -23.5952110        -1.14445925E-06
  -23.4764614        -1.19003664E-06
  -23.3577118        -1.23661812E-06
  -23.2389603        -1.28431361E-06
  -23.1202106        -1.33326432E-06
  -23.0014610        -1.38363271E-06
  -22.8827114        -1.43558771E-06
  -22.7639618        -1.48929246E-06
  -22.6452103        -1.54489362E-06
  -22.5264606        -1.60251102E-06
  -22.4077110        -1.66223163E-06
  -22.2889614        -1.72410819E-06
  -22.1702118        -1.78816038E-06
  -22.0514603        -1.85437898E-06
  -21.9327106        -1.92273615E-06
  -21.8139610        -1.99319493E-06
  -21.6952114        -2.06572236E-06
  -21.5764618        -2.14030069E-06
  -21.4577103        -2.21693676E-06
  -21.3389606        -2.29566581E-06
  -21.2202110        -2.37655672E-06
  -21.1014614        -2.45970432E-06
  -20.9827118        -2.54522683E-06
  -20.8639603        -2.63325592E-06
  -20.7452106        -2.72392731E-06
  -20.6264610        -2.81737107E-06
  -20.5077114        -2.91370634E-06
  -20.3889618        -3.01303567E-06
  -20.2702103        -3.11544477E-06
  -20.1514606        -3.22100209E-06
  -20.0327110        -3.32975992E-06
  -19.9139614        -3.44175896E-06
  -19.7952118        -3.55703355E-06
  -19.6764603        -3.67561302E-06
  -19.5577106        -3.79752737E-06
  -19.4389610        -3.92280845E-06
  -19.3202114        -4.05149467E-06
  -19.2014618        -4.18362879E-06
  -19.0827103        -4.31925946E-06
  -18.9639606        -4.45844125E-06
  -18.8452110        -4.60123556E-06
  -18.7264614        -4.74770377E-06
  -18.6077118        -4.89791410E-06
  -18.4889603        -5.05194475E-06
  -18.3702106        -5.20987805E-06
  -18.2514610        -5.37181222E-06
  -18.1327114        -5.53785958E-06
  -18.0139618        -5.70815155E-06
  -17.8952103        -5.88283910E-06
  -17.7764606        -6.06209278E-06
  -17.6577110        -6.24610220E-06
  -17.5389614        -6.43507246E-06
  -17.4202118        -6.62921684E-06
  -17.3014603        -6.82875316E-06
  -17.1827106        -7.03389696E-06
  -17.0639610        -7.24485699E-06
  -16.9452114        -7.46182604E-06
  -16.8264618        -7.68498376E-06
  -16.7077103        -7.91449565E-06
  -16.5889606        -8.15050953E-06
  -16.4702110        -8.39316908E-06
  -16.3514614        -8.64261256E-06
  -16.2327118        -8.89898820E-06
  -16.1139603        -9.16245790E-06
  -15.9952106        -9.43321265E-06
  -15.8764610        -9.71146164E-06
  -15.7577114        -9.99744134E-06
  -15.6389608        -1.02914091E-05
  -15.5202112        -1.05936315E-05
  -15.4014606        -1.09043731E-05
  -15.2827110        -1.12238913E-05
  -15.1639614        -1.15524190E-05
  -15.0452108        -1.18901562E-05
  -14.9264612        -1.22372649E-05
  -14.8077106        -1.25938705E-05
  -14.6889610        -1.29600639E-05
  -14.5702114        -1.33359108E-05
  -14.4514608        -1.37214483E-05
  -14.3327112        -1.41167129E-05
  -14.2139606        -1.45217482E-05
  -14.0952110        -1.49366060E-05
  -13.9764614        -1.53613710E-05
  -13.8577108        -1.57961622E-05
  -13.7389612        -1.62411325E-05
  -13.6202106        -1.66964710E-05
  -13.5014610        -1.71623924E-05
  -13.3827114        -1.76391295E-05
  -13.2639608        -1.81269097E-05
  -13.1452112        -1.86259495E-05
  -13.0264606        -1.91364452E-05
  -12.9077110        -1.96585625E-05
  -12.7889614        -2.01924395E-05
  -12.6702108        -2.07381836E-05
  -12.5514612        -2.12958930E-05
  -12.4327106        -2.18656696E-05
  -12.3139610        -2.24476280E-05
  -12.1952114        -2.30419191E-05
  -12.0764608        -2.36487376E-05
  -11.9577112        -2.42683345E-05
  -11.8389606        -2.49010227E-05
  -11.7202110        -2.55471641E-05
  -11.6014614        -2.62071644E-05
  -11.4827108        -2.68814656E-05
  -11.3639612        -2.75705206E-05
  -11.2452106        -2.82747769E-05
  -11.1264610        -2.89946474E-05
  -11.0077114        -2.97304941E-05
  -10.8889608        -3.04826226E-05
  -10.7702112        -3.12512784E-05
  -10.6514606        -3.20366526E-05
  -10.5327110        -3.28388996E-05
  -10.4139614        -3.36581252E-05
  -10.2952108        -3.44944528E-05
  -10.1764612        -3.53480136E-05
  -10.0577106        -3.62189749E-05
  -9.93896103        -3.71075839E-05
  -9.82021141        -3.80141209E-05
  -9.70146084        -3.89389388E-05
  -9.58271122        -3.98824377E-05
  -9.46396065        -4.08450505E-05
  -9.34521103        -4.18272575E-05
  -9.22646141        -4.28294989E-05
  -9.10771084        -4.38522002E-05
  -8.98896122        -4.48957398E-05
  -8.87021065        -4.59604125E-05
  -8.75146103        -4.70464583E-05
  -8.63271141        -4.81540301E-05
  -8.51396084        -4.92832078E-05
  -8.39521122        -5.04340387E-05
  -8.27646065        -5.16065375E-05
  -8.15771103        -5.28007149E-05
  -8.03896141        -5.40166038E-05
  -7.92021084        -5.52542879E-05
  -7.80146122        -5.65138944E-05
  -7.68271112        -5.77956380E-05
  -7.56396103        -5.90997770E-05
  -7.44521093        -6.04266315E-05
  -7.32646084        -6.17765763E-05
  -7.20771122        -6.31500006E-05
  -7.08896112        -6.45473265E-05
  -6.97021103        -6.59689467E-05
  -6.85146093        -6.74152252E-05
  -6.73271084        -6.88865039E-05
  -6.61396122        -7.03830665E-05
  -6.49521112        -7.19051823E-05
  -6.37646103        -7.34530622E-05
  -6.25771093        -7.50268809E-05
  -6.13896084        -7.66267985E-05
  -6.02021122        -7.82529896E-05
  -5.90146112        -7.99056070E-05
  -5.78271103        -8.15848471E-05
  -5.66396093        -8.32909209E-05
  -5.54521084        -8.50240613E-05
  -5.42646122        -8.67845520E-05
  -5.30771112        -8.85726404E-05
  -5.18896103        -9.03886394E-05
  -5.07021093        -9.22328691E-05
  -4.95146084        -9.41056496E-05
  -4.83271122        -9.60073085E-05
  -4.71396112        -9.79381657E-05
  -4.59521103        -9.98985488E-05
  -4.47646093        -1.01888749E-04
  -4.35771084        -1.03909100E-04
  -4.23896122        -1.05959880E-04
  -4.12021112        -1.08041349E-04
  -4.00146103        -1.10153785E-04
  -3.88271117        -1.12297421E-04
  -3.76396108        -1.14472474E-04
  -3.64521098        -1.16679126E-04
  -3.52646112        -1.18917545E-04
  -3.40771103        -1.21187863E-04
  -3.28896117        -1.23490216E-04
  -3.17021108        -1.25824648E-04
  -3.05146098        -1.28191226E-04
  -2.93271112        -1.30590022E-04
  -2.81396103        -1.33021080E-04
  -2.69521117        -1.35484515E-04
  -2.57646108        -1.37980416E-04
  -2.45771098        -1.40508972E-04
  -2.33896112        -1.43070400E-04
  -2.22021103        -1.45664948E-04
  -2.10146117        -1.48292951E-04
  -1.98271108        -1.50954700E-04
  -1.86396110        -1.53650573E-04
  -1.74521101        -1.56380891E-04
  -1.62646103        -1.59145930E-04
  -1.50771105        -1.61945922E-04
  -1.38896108        -1.64781028E-04
  -1.27021110        -1.67651335E-04
  -1.15146101        -1.70556843E-04
  -1.03271103        -1.73497465E-04
 -0.913961053        -1.76473099E-04
 -0.795211077        -1.79483526E-04
 -0.676461041        -1.82528602E-04
 -0.557711065        -1.85608122E-04
 -0.438961059        -1.88721941E-04
 -0.320211053        -1.91870015E-04
 -0.201461062        -1.95052300E-04
  -8.27110559E-02    -1.98268928E-04
   3.60389426E-02    -2.01520044E-04
  0.154788941        -2.04805910E-04
  0.273538947        -2.08126803E-04
  0.392288953        -2.11483013E-04
  0.511038959        -2.14874803E-04
  0.629788935        -2.18302419E-04
  0.748538971        -2.21765978E-04
  0.867288947        -2.25265569E-04
  0.986038923        -2.28801218E-04
   1.10478890        -2.32372811E-04
   1.22353899        -2.35980144E-04
   1.34228897        -2.39622968E-04
   1.46103895        -2.43301009E-04
   1.57978892        -2.47013988E-04
   1.69853890        -2.50761601E-04
   1.81728899        -2.54543673E-04
   1.93603897        -2.58360029E-04
   2.05478883        -2.62210553E-04
   2.17353892        -2.66095158E-04
   2.29228902        -2.70013930E-04
   2.41103888        -2.73966842E-04
   2.52978897        -2.77953950E-04
   2.64853883        -2.81975226E-04
   2.76728892        -2.86030670E-04
   2.88603902        -2.90120108E-04
   3.00478888        -2.94243335E-04
   3.12353897        -2.98400031E-04
   3.24228883        -3.02589906E-04
   3.36103892        -3.06812435E-04
   3.47978902        -3.11067153E-04
   3.59853888        -3.15353594E-04
   3.71728897        -3.19671177E-04
   3.83603883        -3.24019522E-04
   3.95478892        -3.28398077E-04
   4.07353878        -3.32806550E-04
   4.19228888        -3.37244681E-04
   4.31103897        -3.41712235E-04
   4.42978907        -3.46209126E-04
   4.54853916        -3.50735179E-04
   4.66728878        -3.55290307E-04
   4.78603888        -3.59874452E-04
   4.90478897        -3.64487438E-04
   5.02353907        -3.69129062E-04
   5.14228916        -3.73799208E-04
   5.26103878        -3.78497527E-04
   5.37978888        -3.83223785E-04
   5.49853897        -3.87977605E-04
   5.61728907        -3.92758579E-04
   5.73603916        -3.97566298E-04
   5.85478878        -4.02400387E-04
   5.97353888        -4.07260493E-04
   6.09228897        -4.12146241E-04
   6.21103907        -4.17057279E-04
   6.32978916        -4.21993260E-04
   6.44853878        -4.26953949E-04
   6.56728888        -4.31939028E-04
   6.68603897        -4.36948263E-04
   6.80478907        -4.41981334E-04
   6.92353916        -4.47037950E-04
   7.04228878        -4.52117762E-04
   7.16103888        -4.57220332E-04
   7.27978897        -4.62345226E-04
   7.39853907        -4.67491889E-04
   7.51728916        -4.72659798E-04
   7.63603878        -4.77848400E-04
   7.75478888        -4.83056996E-04
   7.87353897        -4.88285092E-04
   7.99228907        -4.93531988E-04
   8.11103916        -4.98797221E-04
   8.22978878        -5.04080090E-04
   8.34853935        -5.09380014E-04
   8.46728897        -5.14696410E-04
   8.58603859        -5.20028698E-04
   8.70478916        -5.25376294E-04
   8.82353878        -5.30738675E-04
   8.94228935        -5.36115200E-04
   9.06103897        -5.41505287E-04
   9.17978859        -5.46908239E-04
   9.29853916        -5.52323530E-04
   9.41728878        -5.57750347E-04
   9.53603935        -5.63188107E-04
   9.65478897        -5.68636111E-04
   9.77353859        -5.74093661E-04
   9.89228916        -5.79560176E-04
   10.0110388        -5.85034955E-04
   10.1297894        -5.90517244E-04
   10.2485390        -5.96006576E-04
   10.3672886        -6.01502310E-04
   10.4860392        -6.07003749E-04
   10.6047888        -6.12510368E-04
   10.7235394        -6.18021644E-04
   10.8422890        -6.23536995E-04
   10.9610386        -6.29056012E-04
   11.0797892        -6.34578115E-04
   11.1985388        -6.40102895E-04
   11.3172894        -6.45629945E-04
   11.4360390        -6.51158742E-04
   11.5547886        -6.56688993E-04
   11.6735392        -6.62220235E-04
   11.7922888        -6.67752000E-04
   11.9110394        -6.73283997E-04
   12.0297890        -6.78815763E-04
   12.1485386        -6.84346713E-04
   12.2672892        -6.89876382E-04
   12.3860388        -6.95404131E-04
   12.5047894        -7.00929435E-04
   12.6235390        -7.06451479E-04
   12.7422886        -7.11969391E-04
   12.8610392        -7.17482413E-04
   12.9797888        -7.22989556E-04
   13.0985394        -7.28490064E-04
   13.2172890        -7.33983063E-04
   13.3360386        -7.39467854E-04
   13.4547892        -7.44943623E-04
   13.5735388        -7.50409614E-04
   13.6922894        -7.55865243E-04
   13.8110390        -7.61309930E-04
   13.9297886        -7.66743033E-04
   14.0485392        -7.72164145E-04
   14.1672888        -7.77572626E-04
   14.2860394        -7.82968011E-04
   14.4047890        -7.88349658E-04
   14.5235386        -7.93717045E-04
   14.6422892        -7.99069356E-04
   14.7610388        -8.04405892E-04
   14.8797894        -8.09725898E-04
   14.9985390        -8.15028441E-04
   15.1172886        -8.20312649E-04
   15.2360392        -8.25577648E-04
   15.3547888        -8.30822566E-04
   15.4735394        -8.36046820E-04
   15.5922890        -8.41249654E-04
   15.7110386        -8.46430485E-04
   15.8297892        -8.51588848E-04
   15.9485388        -8.56724277E-04
   16.0672894        -8.61836481E-04
   16.1860390        -8.66925227E-04
   16.3047886        -8.71990167E-04
   16.4235382        -8.77031125E-04
   16.5422897        -8.82047694E-04
   16.6610394        -8.87039467E-04
   16.7797890        -8.92005919E-04
   16.8985386        -8.96946411E-04
   17.0172882        -9.01860185E-04
   17.1360397        -9.06746427E-04
   17.2547894        -9.11604438E-04
   17.3735390        -9.16433288E-04
   17.4922886        -9.21232044E-04
   17.6110382        -9.25999833E-04
   17.7297897        -9.30736016E-04
   17.8485394        -9.35439835E-04
   17.9672890        -9.40110825E-04
   18.0860386        -9.44748637E-04
   18.2047882        -9.49352805E-04
   18.3235397        -9.53923212E-04
   18.4422894        -9.58459859E-04
   18.5610390        -9.62962455E-04
   18.6797886        -9.67430940E-04
   18.7985382        -9.71865258E-04
   18.9172897        -9.76265175E-04
   19.0360394        -9.80630284E-04
   19.1547890        -9.84960119E-04
   19.2735386        -9.89254448E-04
   19.3922882        -9.93512338E-04
   19.5110397        -9.97733208E-04
   19.6297894        -1.00191636E-03
   19.7485390        -1.00606098E-03
   19.8672886        -1.01016636E-03
   19.9860382        -1.01423205E-03
   20.1047897        -1.01825711E-03
   20.2235394        -1.02224143E-03
   20.3422890        -1.02618441E-03
   20.4610386        -1.03008596E-03
   20.5797882        -1.03394571E-03
   20.6985397        -1.03776378E-03
   20.8172894        -1.04153983E-03
   20.9360390        -1.04527420E-03
   21.0547886        -1.04896666E-03
   21.1735382        -1.05261698E-03
   21.2922897        -1.05622492E-03
   21.4110394        -1.05979049E-03
   21.5297890        -1.06331310E-03
   21.6485386        -1.06679252E-03
   21.7672882        -1.07022841E-03
   21.8860397        -1.07362017E-03
   22.0047894        -1.07696734E-03
   22.1235390        -1.08026958E-03
   22.2422886        -1.08352641E-03
   22.3610382        -1.08673749E-03
   22.4797897        -1.08990259E-03
   22.5985394        -1.09302148E-03
   22.7172890        -1.09609403E-03
   22.8360386        -1.09912013E-03
   22.9547882        -1.10209978E-03
   23.0735397        -1.10503274E-03
   23.1922894        -1.10791915E-03
   23.3110390        -1.11075898E-03
   23.4297886        -1.11355213E-03
   23.5485382        -1.11629860E-03
   23.6672897        -1.11899828E-03
   23.7860394        -1.12165080E-03
   23.9047890        -1.12425617E-03
   24.0235386        -1.12681394E-03
   24.1422882        -1.12932408E-03
   24.2610397        -1.13178627E-03
   24.3797894        -1.13420002E-03
   24.4985390        -1.13656535E-03
   24.6172886        -1.13888190E-03
   24.7360382        -1.14114943E-03
   24.8547897        -1.14336773E-03
   24.9735394        -1.14553689E-03
   25.0922890        -1.14765659E-03
   25.2110386        -1.14972703E-03
   25.3297882        -1.15174800E-03
   25.4485397        -1.15371984E-03
   25.5672894        -1.15564233E-03
   25.6860390        -1.15751557E-03
   25.8047886        -1.15933968E-03
   25.9235382        -1.16111478E-03
   26.0422897        -1.16284098E-03
   26.1610394        -1.16451806E-03
   26.2797890        -1.16614636E-03
   26.3985386        -1.16772554E-03
   26.5172882        -1.16925559E-03
   26.6360397        -1.17073662E-03
   26.7547894        -1.17216830E-03
   26.8735390        -1.17355073E-03
   26.9922886        -1.17488345E-03
   27.1110382        -1.17616658E-03
   27.2297897        -1.17739977E-03
   27.3485394        -1.17858301E-03
   27.4672890        -1.17971620E-03
   27.5860386        -1.18079968E-03
   27.7047882        -1.18183321E-03
   27.8235397        -1.18281727E-03
   27.9422894        -1.18375174E-03
   28.0610390        -1.18463719E-03
   28.1797886        -1.18547399E-03
   28.2985382        -1.18626235E-03
   28.4172897        -1.18700275E-03
   28.5360394        -1.18769542E-03
   28.6547890        -1.18834071E-03
   28.7735386        -1.18893897E-03
   28.8922882        -1.18949031E-03
   29.0110397        -1.18999509E-03
   29.1297894        -1.19045319E-03
   29.2485390        -1.19086518E-03
   29.3672886        -1.19123084E-03
   29.4860382        -1.19155063E-03
   29.6047897        -1.19182456E-03
   29.7235394        -1.19205308E-03
   29.8422890        -1.19223644E-03
   29.9610386        -1.19237497E-03
   30.0797882        -1.19246915E-03
   30.1985397        -1.19251921E-03
   30.3172894        -1.19252573E-03
   30.4360390        -1.19248894E-03
   30.5547886        -1.19240920E-03
   30.6735382        -1.19228673E-03
   30.7922897        -1.19212165E-03
   30.9110394        -1.19191408E-03
   31.0297890        -1.19166414E-03
   31.1485386        -1.19137205E-03
   31.2672882        -1.19103771E-03
   31.3860397        -1.19066122E-03
   31.5047894        -1.19024271E-03
   31.6235390        -1.18978240E-03
   31.7422886        -1.18928053E-03
   31.8610382        -1.18873734E-03
   31.9797897        -1.18815340E-03
   32.0985374        -1.18752930E-03
   32.2172890        -1.18686550E-03
   32.3360405        -1.18616270E-03
   32.4547882        -1.18542137E-03
   32.5735397        -1.18464255E-03
   32.6922874        -1.18382659E-03
   32.8110390        -1.18297408E-03
   32.9297905        -1.18208549E-03
   33.0485382        -1.18116091E-03
   33.1672897        -1.18020107E-03
   33.2860374        -1.17920607E-03
   33.4047890        -1.17817614E-03
   33.5235405        -1.17711152E-03
   33.6422882        -1.17601245E-03
   33.7610397        -1.17487949E-03
   33.8797874        -1.17371301E-03
   33.9985390        -1.17251347E-03
   34.1172905        -1.17128156E-03
   34.2360382        -1.17001799E-03
   34.3547897        -1.16872345E-03
   34.4735374        -1.16739876E-03
   34.5922890        -1.16604473E-03
   34.7110405        -1.16466207E-03
   34.8297882        -1.16325147E-03
   34.9485397        -1.16181374E-03
   35.0672874        -1.16034900E-03
   35.1860390        -1.15885795E-03
   35.3047905        -1.15734059E-03
   35.4235382        -1.15579762E-03
   35.5422897        -1.15422881E-03
   35.6610374        -1.15263462E-03
   35.7797890        -1.15101540E-03
   35.8985405        -1.14937138E-03
   36.0172882        -1.14770292E-03
   36.1360397        -1.14601059E-03
   36.2547874        -1.14429498E-03
   36.3735390        -1.14255701E-03
   36.4922905        -1.14079739E-03
   36.6110382        -1.13901694E-03
   36.7297897        -1.13721658E-03
   36.8485374        -1.13539712E-03
   36.9672890        -1.13355916E-03
   37.0860405        -1.13170361E-03
   37.2047882        -1.12983107E-03
   37.3235397        -1.12794188E-03
   37.4422874        -1.12603663E-03
   37.5610390        -1.12411566E-03
   37.6797905        -1.12217921E-03
   37.7985382        -1.12022739E-03
   37.9172897        -1.11826079E-03
   38.0360374        -1.11627951E-03
   38.1547890        -1.11428392E-03
   38.2735405        -1.11227436E-03
   38.3922882        -1.11025164E-03
   38.5110397        -1.10821612E-03
   38.6297874        -1.10616861E-03
   38.7485390        -1.10410992E-03
   38.8672905        -1.10204075E-03
   38.9860382        -1.09996216E-03
   39.1047897        -1.09787472E-03
   39.2235374        -1.09577959E-03
   39.3422890        -1.09367725E-03
   39.4610405        -1.09156850E-03
   39.5797882        -1.08945416E-03
   39.6985397        -1.08733471E-03
   39.8172874        -1.08521071E-03
   39.9360390        -1.08308252E-03
   40.0547905        -1.08095072E-03
   40.1735382        -1.07881543E-03
   40.2922897        -1.07667700E-03
   40.4110374        -1.07453577E-03
   40.5297890        -1.07239187E-03
   40.6485405        -1.07024540E-03
   40.7672882        -1.06809696E-03
   40.8860397        -1.06594677E-03
   41.0047874        -1.06379506E-03
   41.1235390        -1.06164254E-03
   41.2422905        -1.05948956E-03
   41.3610382        -1.05733657E-03
   41.4797897        -1.05518429E-03
   41.5985374        -1.05303340E-03
   41.7172890        -1.05088437E-03
   41.8360405        -1.04873814E-03
   41.9547882        -1.04659516E-03
   42.0735397        -1.04445592E-03
   42.1922874        -1.04232132E-03
   42.3110390        -1.04019174E-03
   42.4297905        -1.03806739E-03
   42.5485382        -1.03594875E-03
   42.6672897        -1.03383616E-03
   42.7860374        -1.03172974E-03
   42.9047890        -1.02962961E-03
   43.0235405        -1.02753611E-03
   43.1422882        -1.02544960E-03
   43.2610397        -1.02337031E-03
   43.3797874        -1.02129858E-03
   43.4985390        -1.01923523E-03
   43.6172905        -1.01718074E-03
   43.7360382        -1.01513590E-03
   43.8547897        -1.01310154E-03
   43.9735374        -1.01107848E-03
   44.0922890        -1.00906764E-03
   44.2110405        -1.00706960E-03
   44.3297882        -1.00508507E-03
   44.4485397        -1.00311474E-03
   44.5672874        -1.00115885E-03
   44.6860390        -9.99217737E-04
   44.8047905        -9.97291529E-04
   44.9235382        -9.95380105E-04
   45.0422897        -9.93483351E-04
   45.1610374        -9.91601148E-04
   45.2797890        -9.89733497E-04
   45.3985405        -9.87880165E-04
   45.5172882        -9.86041152E-04
   45.6360397        -9.84216807E-04
   45.7547874        -9.82407248E-04
   45.8735390        -9.80612938E-04
   45.9922905        -9.78834345E-04
   46.1110382        -9.77072399E-04
   46.2297897        -9.75327566E-04
   46.3485374        -9.73600603E-04
   46.4672890        -9.71892092E-04
   46.5860405        -9.70202673E-04
   46.7047882        -9.68532695E-04
   46.8235397        -9.66882450E-04
   46.9422874        -9.65251995E-04
   47.0610390        -9.63641331E-04
   47.1797905        -9.62050399E-04
   47.2985382        -9.60479083E-04
   47.4172897        -9.58927034E-04
   47.5360374        -9.57394252E-04
   47.6547890        -9.55880678E-04
   47.7735405        -9.54386196E-04
   47.8922882        -9.52911039E-04
   48.0110397        -9.51455266E-04
   48.1297874        -9.50019166E-04
   48.2485390        -9.48603207E-04
   48.3672905        -9.47207736E-04
   48.4860382        -9.45833162E-04
   48.6047897        -9.44479718E-04
   48.7235374        -9.43147927E-04
   48.8422890        -9.41837789E-04
   48.9610405        -9.40549537E-04
   49.0797882        -9.39283229E-04
   49.1985397        -9.38038691E-04
   49.3172874        -9.36815748E-04
   49.4360390        -9.35614342E-04
   49.5547905        -9.34434240E-04
   49.6735382        -9.33275325E-04
   49.7922897        -9.32137424E-04
   49.9110374        -9.31020593E-04
   50.0297890        -9.29924892E-04
   50.1485405        -9.28850321E-04
   50.2672882        -9.27797169E-04
   50.3860397        -9.26765439E-04
   50.5047874        -9.25755536E-04
   50.6235390        -9.24767519E-04
   50.7422905        -9.23801621E-04
   50.8610382        -9.22858017E-04
   50.9797897        -9.21936706E-04
   51.0985374        -9.21037747E-04
   51.2172890        -9.20161081E-04
   51.3360405        -9.19306534E-04
   51.4547882        -9.18474048E-04
   51.5735397        -9.17663390E-04
   51.6922874        -9.16874385E-04
   51.8110390        -9.16106743E-04
   51.9297905        -9.15360288E-04
   52.0485382        -9.14634729E-04
   52.1672897        -9.13930009E-04
   52.2860374        -9.13245953E-04
   52.4047890        -9.12582502E-04
   52.5235405        -9.11939482E-04
   52.6422882        -9.11316893E-04
   52.7610397        -9.10714734E-04
   52.8797874        -9.10132949E-04
   52.9985390        -9.09571536E-04
   53.1172905        -9.09030496E-04
   53.2360382        -9.08509770E-04
   53.3547897        -9.08009300E-04
   53.4735374        -9.07529204E-04
   53.5922890        -9.07069421E-04
   53.7110405        -9.06629837E-04
   53.8297882        -9.06210393E-04
   53.9485397        -9.05810972E-04
   54.0672874        -9.05431400E-04
   54.1860390        -9.05071502E-04
   54.3047905        -9.04731045E-04
   54.4235382        -9.04409739E-04
   54.5422897        -9.04107350E-04
   54.6610374        -9.03823413E-04
   54.7797890        -9.03557811E-04
   54.8985405        -9.03310254E-04
   55.0172882        -9.03080450E-04
   55.1360397        -9.02868283E-04
   55.2547874        -9.02673521E-04
   55.3735390        -9.02496045E-04
   55.4922905        -9.02335683E-04
   55.6110382        -9.02192434E-04
   55.7297897        -9.02066182E-04
   55.8485374        -9.01956868E-04
   55.9672890        -9.01864201E-04
   56.0860405        -9.01788066E-04
   56.2047882        -9.01728112E-04
   56.3235397        -9.01683932E-04
   56.4422874        -9.01655294E-04
   56.5610390        -9.01641848E-04
   56.6797905        -9.01643129E-04
   56.7985382        -9.01658670E-04
   56.9172897        -9.01688123E-04
   57.0360374        -9.01731371E-04
   57.1547890        -9.01788066E-04
   57.2735405        -9.01858206E-04
   57.3922882        -9.01941792E-04
   57.5110397        -9.02038882E-04
   57.6297874        -9.02149652E-04
   57.7485390        -9.02274216E-04
   57.8672905        -9.02412867E-04
   57.9860382        -9.02565371E-04
   58.1047897        -9.02731786E-04
   58.2235374        -9.02911881E-04