  -75.1732025         0.00000000    
  -75.0581970         1.11049902E-11
  -74.9431992         3.12771337E-11
  -74.8282013         5.67498791E-11
  -74.7132034         8.29880539E-11
  -74.5981979         1.05837297E-10
  -74.4832001         1.22560698E-10
  -74.3682022         1.32480138E-10
  -74.2531967         1.37032719E-10
  -74.1381989         1.39202885E-10
  -74.0232010         1.42467593E-10
  -73.9082031         1.49542712E-10
  -73.7931976         1.61314545E-10
  -73.6781998         1.76332268E-10
  -73.5632019         1.91123534E-10
  -73.4481964         2.01388170E-10
  -73.3331985         2.03875875E-10
  -73.2182007         1.98529623E-10
  -73.1032028         1.90318789E-10
  -72.9881973         1.90207225E-10
  -72.8731995         2.14843698E-10
  -72.7582016         2.84858637E-10
  -72.6432037         4.22020086E-10
  -72.5281982         6.45797860E-10
  -72.4132004         9.70121428E-10
  -72.2982025         1.40107526E-09
  -72.1831970         1.93611727E-09
  -72.0681992         2.56499688E-09
  -71.9532013         3.27213567E-09
  -71.8382034         4.03983558E-09
  -71.7231979         4.85149521E-09
  -71.6082001         5.69402925E-09
  -71.4932022         6.55893206E-09
  -71.3781967         7.44190576E-09
  -71.2631989         8.34134006E-09
  -71.1482010         9.25635124E-09
  -71.0332031         1.01851647E-08
  -70.9181976         1.11244880E-08
  -70.8031998         1.20702106E-08
  -70.6882019         1.30192266E-08
  -70.5731964         1.39717873E-08
  -70.4581985         1.49335246E-08
  -70.3432007         1.59164060E-08
  -70.2282028         1.69379692E-08
  -70.1131973         1.80189463E-08
  -69.9981995         1.91796197E-08
  -69.8832016         2.04358681E-08
  -69.7682037         2.17958842E-08
  -69.6531982         2.32584565E-08
  -69.5382004         2.48131329E-08
  -69.4232025         2.64424216E-08
  -69.3081970         2.81253030E-08
  -69.1931992         2.98410363E-08
  -69.0782013         3.15724975E-08
  -68.9632034         3.33080088E-08
  -68.8481979         3.50414808E-08
  -68.7332001         3.67708779E-08
  -68.6182022         3.84956955E-08
  -68.5031967         4.02143208E-08
  -68.3881989         4.19219823E-08
  -68.2732010         4.36101075E-08
  -68.1582031         4.52672353E-08
  -68.0431976         4.68812225E-08
  -67.9281998         4.84421960E-08
  -67.8132019         4.99453883E-08
  -67.6981964         5.13929805E-08
  -67.5831985         5.27942632E-08
  -67.4682007         5.41641434E-08
  -67.3532028         5.55200863E-08
  -67.2381973         5.68779761E-08
  -67.1231995         5.82481015E-08
  -67.0082016         5.96322565E-08
  -66.8932037         6.10225257E-08
  -66.7781982         6.24023500E-08
  -66.6632004         6.37495461E-08
  -66.5482025         6.50405880E-08
  -66.4331970         6.62553887E-08
  -66.3181992         6.73806539E-08
  -66.2032013         6.84119286E-08
  -66.0882034         6.93525593E-08
  -65.9731979         7.02110867E-08
  -65.8582001         7.09972880E-08
  -65.7432022         7.17180271E-08
  -65.6281967         7.23747107E-08
  -65.5131989         7.29630472E-08
  -65.3982010         7.34754124E-08
  -65.2832031         7.39051771E-08
  -65.1681976         7.42515311E-08
  -65.0531998         7.45233066E-08
  -64.9382019         7.47401927E-08
  -64.8231964         7.49308811E-08
  -64.7081985         7.51278151E-08
  -64.5932007         7.53604823E-08
  -64.4782028         7.56486997E-08
  -64.3631973         7.59981873E-08
  -64.2481995         7.64000987E-08
  -64.1332016         7.68341906E-08
  -64.0182037         7.72754163E-08
  -63.9031982         7.77016780E-08
  -63.7882004         7.81004132E-08
  -63.6731987         7.84717571E-08
  -63.5582008         7.88273695E-08
  -63.4431992         7.91848862E-08
  -63.3282013         7.95602233E-08
  -63.2131996         7.99591362E-08
  -63.0982018         8.03721960E-08
  -62.9832001         8.07731766E-08
  -62.8681984         8.11233534E-08
  -62.7532005         8.13785164E-08
  -62.6381989         8.14985697E-08
  -62.5232010         8.14551058E-08
  -62.4081993         8.12357683E-08
  -62.2932014         8.08436411E-08
  -62.1781998         8.02922173E-08
  -62.0632019         7.95970010E-08
  -61.9482002         7.87675347E-08
  -61.8331985         7.78010971E-08
  -61.7182007         7.66812462E-08
  -61.6031990         7.53809744E-08
  -61.4882011         7.38692947E-08
  -61.3731995         7.21199527E-08
  -61.2582016         7.01189862E-08
  -61.1431999         6.78691947E-08
  -61.0281982         6.53902532E-08
  -60.9132004         6.27149532E-08
  -60.7981987         5.98821828E-08
  -60.6832008         5.69302081E-08
  -60.5681992         5.38909255E-08
  -60.4532013         5.07880600E-08
  -60.3381996         4.76392685E-08
  -60.2232018         4.44608830E-08
  -60.1082001         4.12743510E-08
  -59.9931984         3.81110432E-08
  -59.8782005         3.50147147E-08
  -59.7631989         3.20396047E-08
  -59.6482010         2.92443811E-08
  -59.5331993         2.66831659E-08
  -59.4182014         2.43960994E-08
  -59.3031998         2.24010588E-08
  -59.1882019         2.06897930E-08
  -59.0732002         1.92285992E-08
  -58.9581985         1.79646751E-08
  -58.8432007         1.68353882E-08
  -58.7281990         1.57794542E-08
  -58.6132011         1.47470356E-08
  -58.4981995         1.37059919E-08
  -58.3832016         1.26438762E-08
  -58.2681999         1.15648531E-08
  -58.1531982         1.04828626E-08
  -58.0382004         9.41359257E-09
  -57.9231987         8.36750935E-09
  -57.8082008         7.34666372E-09
  -57.6931992         6.34480601E-09
  -57.5782013         5.35258238E-09
  -57.4631996         4.36484759E-09
  -57.3482018         3.38684170E-09
  -57.2332001         2.43795806E-09
  -57.1181984         1.55108026E-09
  -57.0032005         7.66313568E-10
  -56.8881989         1.20987845E-10
  -56.7732010        -3.60633468E-10
  -56.6581993        -6.76238954E-10
  -56.5432014        -8.47855675E-10
  -56.4281998        -9.18301934E-10
  -56.3132019        -9.42114720E-10
  -56.1982002        -9.72623981E-10
  -56.0831985        -1.04989595E-09
  -55.9682007        -1.19282706E-09
  -55.8531990        -1.39801726E-09
  -55.7382011        -1.64639691E-09
  -55.6231995        -1.91358174E-09
  -55.5082016        -2.18361040E-09
  -55.3931999        -2.45865128E-09
  -55.2781982        -2.76315948E-09
  -55.1632004        -3.13880300E-09
  -55.0481987        -3.63483066E-09
  -54.9332008        -4.29257430E-09
  -54.8181992        -5.13140730E-09
  -54.7032013        -6.14203532E-09
  -54.5881996        -7.28404848E-09
  -54.4732018        -8.49557313E-09
  -54.3582001        -9.70524638E-09
  -54.2431984        -1.08487193E-08
  -54.1282005        -1.18801129E-08
  -54.0131989        -1.27784574E-08
  -53.8982010        -1.35464626E-08
  -53.7831993        -1.42021337E-08
  -53.6682014        -1.47685268E-08
  -53.5531998        -1.52630779E-08
  -53.4382019        -1.56938071E-08
  -53.3232002        -1.60609748E-08
  -53.2081985        -1.63639413E-08
  -53.0932007        -1.66121481E-08
  -52.9781990        -1.68327308E-08
  -52.8632011        -1.70767063E-08
  -52.7481995        -1.74134929E-08
  -52.6332016        -1.79216428E-08
  -52.5181999        -1.86722264E-08
  -52.4031982        -1.97139869E-08
  -52.2882004        -2.10602931E-08
  -52.1731987        -2.26836008E-08
  -52.0582008        -2.45187852E-08
  -51.9431992        -2.64744564E-08
  -51.8282013        -2.84487243E-08
  -51.7131996        -3.03466265E-08
  -51.5982018        -3.20938760E-08
  -51.4832001        -3.36445574E-08
  -51.3681984        -3.49825235E-08
  -51.2532005        -3.61170116E-08
  -51.1381989        -3.70726774E-08
  -51.0232010        -3.78819571E-08
  -50.9081993        -3.85782783E-08
  -50.7932014        -3.91918462E-08
  -50.6781998        -3.97495903E-08
  -50.5632019        -4.02788700E-08
  -50.4482002        -4.08115781E-08
  -50.3331985        -4.13843075E-08
  -50.2182007        -4.20387316E-08
  -50.1031990        -4.28162039E-08
  -49.9882011        -4.37510330E-08
  -49.8731995        -4.48641266E-08
  -49.7582016        -4.61560319E-08
  -49.6431999        -4.76067505E-08
  -49.5281982        -4.91801266E-08
  -49.4132004        -5.08308524E-08
  -49.2981987        -5.25201429E-08
  -49.1832008        -5.42264011E-08
  -49.0681992        -5.59567290E-08
  -48.9532013        -5.77515706E-08
  -48.8381996        -5.96795715E-08
  -48.7232018        -6.18274285E-08
  -48.6082001        -6.42857216E-08
  -48.4931984        -6.71275728E-08
  -48.3782005        -7.03945773E-08
  -48.2631989        -7.40902024E-08
  -48.1482010        -7.81760932E-08
  -48.0331993        -8.25837176E-08
  -47.9182014        -8.72282868E-08
  -47.8031998        -9.20237397E-08
  -47.6882019        -9.68969758E-08
  -47.5732002        -1.01793290E-07
  -47.4581985        -1.06677021E-07
  -47.3432007        -1.11523413E-07
  -47.2281990        -1.16307426E-07
  -47.1132011        -1.20995864E-07
  -46.9981995        -1.25541945E-07
  -46.8832016        -1.29891049E-07
  -46.7681999        -1.33987854E-07
  -46.6531982        -1.37790835E-07
  -46.5382004        -1.41280466E-07
  -46.4231987        -1.44464849E-07
  -46.3082008        -1.47377051E-07
  -46.1931992        -1.50061950E-07
  -46.0782013        -1.52562606E-07
  -45.9631996        -1.54903859E-07
  -45.8482018        -1.57087285E-07
  -45.7332001        -1.59090888E-07
  -45.6181984        -1.60884966E-07
  -45.5032005        -1.62447321E-07
  -45.3881989        -1.63785970E-07
  -45.2732010        -1.64952809E-07
  -45.1581993        -1.66046647E-07
  -45.0432014        -1.67199090E-07
  -44.9281998        -1.68554138E-07
  -44.8132019        -1.70241009E-07
  -44.6982002        -1.72349516E-07
  -44.5831985        -1.74909616E-07
  -44.4682007        -1.77888367E-07
  -44.3531990        -1.81202481E-07
  -44.2382011        -1.84734233E-07
  -44.1231995        -1.88359252E-07
  -44.0082016        -1.91965157E-07
  -43.8931999        -1.95464622E-07
  -43.7781982        -1.98799526E-07
  -43.6632004        -2.01937937E-07
  -43.5481987        -2.04864051E-07
  -43.4332008        -2.07568959E-07
  -43.3181992        -2.10056143E-07
  -43.2032013        -2.12335109E-07
  -43.0881996        -2.14437478E-07
  -42.9732018        -2.16421782E-07
  -42.8582001        -2.18381203E-07
  -42.7431984        -2.20435879E-07
  -42.6282005        -2.22726754E-07
  -42.5131989        -2.25387097E-07
  -42.3982010        -2.28521060E-07
  -42.2831993        -2.32178593E-07
  -42.1682014        -2.36345230E-07
  -42.0531998        -2.40937680E-07
  -41.9382019        -2.45816636E-07
  -41.8232002        -2.50811496E-07
  -41.7081985        -2.55745960E-07
  -41.5932007        -2.60468397E-07
  -41.4781990        -2.64873051E-07
  -41.3632011        -2.68909247E-07
  -41.2481995        -2.72583350E-07
  -41.1332016        -2.75945013E-07
  -41.0181999        -2.79076858E-07
  -40.9031982        -2.82066480E-07
  -40.7882004        -2.85000510E-07
  -40.6731987        -2.87953213E-07
  -40.5582008        -2.90983365E-07
  -40.4431992        -2.94145508E-07
  -40.3282013        -2.97487162E-07
  -40.2131996        -3.01060453E-07
  -40.0982018        -3.04928250E-07
  -39.9832001        -3.09153705E-07
  -39.8681984        -3.13797216E-07
  -39.7532005        -3.18905961E-07
  -39.6381989        -3.24501144E-07
  -39.5232010        -3.30580832E-07
  -39.4081993        -3.37116717E-07
  -39.2932014        -3.44063977E-07
  -39.1781998        -3.51384443E-07
  -39.0632019        -3.59054496E-07
  -38.9482002        -3.67081100E-07
  -38.8331985        -3.75501997E-07
  -38.7182007        -3.84377557E-07
  -38.6031990        -3.93773604E-07
  -38.4882011        -4.03739904E-07
  -38.3731995        -4.14278645E-07
  -38.2582016        -4.25340545E-07
  -38.1431999        -4.36812400E-07
  -38.0281982        -4.48547866E-07
  -37.9132004        -4.60378033E-07
  -37.7981987        -4.72163634E-07
  -37.6832008        -4.83813039E-07
  -37.5681992        -4.95314680E-07
  -37.4532013        -5.06723040E-07
  -37.3381996        -5.18155787E-07
  -37.2232018        -5.29763668E-07
  -37.1082001        -5.41698114E-07
  -36.9931984        -5.54073324E-07
  -36.8782005        -5.66966037E-07
  -36.7631989        -5.80401377E-07
  -36.6482010        -5.94372295E-07
  -36.5331993        -6.08864411E-07
  -36.4182014        -6.23864935E-07
  -36.3031998        -6.39381426E-07
  -36.1882019        -6.55436452E-07
  -36.0732002        -6.72044052E-07
  -35.9581985        -6.89201727E-07
  -35.8432007        -7.06863432E-07
  -35.7281990        -7.24943220E-07
  -35.6132011        -7.43329963E-07
  -35.4981995        -7.61905142E-07
  -35.3832016        -7.80590540E-07
  -35.2681999        -7.99364784E-07
  -35.1531982        -8.18294552E-07
  -35.0382004        -8.37522521E-07
  -34.9231987        -8.57249574E-07
  -34.8082008        -8.77683135E-07
  -34.6931992        -8.98998906E-07
  -34.5782013        -9.21287551E-07
  -34.4631996        -9.44535998E-07
  -34.3482018        -9.68618338E-07
  -34.2332001        -9.93324875E-07
  -34.1181984        -1.01839271E-06
  -34.0032005        -1.04355547E-06
  -33.8881989        -1.06857624E-06
  -33.7732010        -1.09328005E-06
  -33.6581993        -1.11755890E-06
  -33.5432014        -1.14135844E-06
  -33.4281998        -1.16467481E-06
  -33.3132019        -1.18752780E-06
  -33.1982002        -1.20995969E-06
  -33.0831985        -1.23202437E-06
  -32.9682007        -1.25379904E-06
  -32.8531990        -1.27539124E-06
  -32.7382011        -1.29695377E-06
  -32.6231995        -1.31867341E-06
  -32.5082016        -1.34076129E-06
  -32.3931999        -1.36342533E-06
  -32.2781982        -1.38684061E-06
  -32.1632004        -1.41112343E-06
  -32.0481987        -1.43629961E-06
  -31.9332008        -1.46231253E-06
  -31.8181992        -1.48901836E-06
  -31.7031994        -1.51622817E-06
  -31.5881996        -1.54374402E-06
  -31.4731998        -1.57139823E-06
  -31.3582001        -1.59908393E-06
  -31.2432003        -1.62677657E-06
  -31.1282005        -1.65453446E-06
  -31.0132008        -1.68247482E-06
  -30.8981991        -1.71073293E-06
  -30.7831993        -1.73943840E-06
  -30.6681995        -1.76868161E-06
  -30.5531998        -1.79848939E-06
  -30.4382000        -1.82881990E-06
  -30.3232002        -1.85959289E-06
  -30.2082005        -1.89070954E-06
  -30.0932007        -1.92208836E-06
  -29.9782009        -1.95368352E-06
  -29.8631992        -1.98551061E-06
  -29.7481995        -2.01762282E-06
  -29.6331997        -2.05010952E-06
  -29.5181999        -2.08306255E-06
  -29.4032001        -2.11655174E-06
  -29.2882004        -2.15059254E-06
  -29.1732006        -2.18517721E-06
  -29.0582008        -2.22027029E-06
  -28.9431992        -2.25584222E-06
  -28.8281994        -2.29186890E-06
  -28.7131996        -2.32837169E-06
  -28.5981998        -2.36539245E-06
  -28.4832001        -2.40298073E-06
  -28.3682003        -2.44116109E-06
  -28.2532005        -2.47989806E-06
  -28.1382008        -2.51907818E-06
  -28.0231991        -2.55851387E-06
  -27.9081993        -2.59797230E-06
  -27.7931995        -2.63722541E-06
  -27.6781998        -2.67609266E-06
  -27.5632000        -2.71452723E-06
  -27.4482002        -2.75261300E-06
  -27.3332005        -2.79058395E-06
  -27.2182007        -2.82877613E-06
  -27.1032009        -2.86757677E-06
  -26.9881992        -2.90735488E-06
  -26.8731995        -2.94839288E-06
  -26.7581997        -2.99086196E-06
  -26.6431999        -3.03480761E-06
  -26.5282001        -3.08015410E-06
  -26.4132004        -3.12676912E-06
  -26.2982006        -3.17450053E-06
  -26.1832008        -3.22319306E-06
  -26.0681992        -3.27273483E-06
  -25.9531994        -3.32302670E-06
  -25.8381996        -3.37398137E-06
  -25.7231998        -3.42549811E-06
  -25.6082001        -3.47744708E-06
  -25.4932003        -3.52970096E-06
  -25.3782005        -3.58212492E-06
  -25.2632008        -3.63464005E-06
  -25.1481991        -3.68723568E-06
  -25.0331993        -3.74000047E-06
  -24.9181995        -3.79313587E-06
  -24.8031998        -3.84690065E-06
  -24.6882000        -3.90156720E-06
  -24.5732002        -3.95737061E-06
  -24.4582005        -4.01444049E-06
  -24.3432007        -4.07277912E-06
  -24.2282009        -4.13223643E-06
  -24.1131992        -4.19255548E-06
  -23.9981995        -4.25342478E-06
  -23.8831997        -4.31453918E-06
  -23.7681999        -4.37564131E-06
  -23.6532001        -4.43658564E-06
  -23.5382004        -4.49734307E-06
  -23.4232006        -4.55796999E-06
  -23.3082008        -4.61862555E-06
  -23.1931992        -4.67947439E-06
  -23.0781994        -4.74070976E-06
  -22.9631996        -4.80247309E-06
  -22.8481998        -4.86488216E-06
  -22.7332001        -4.92801064E-06
  -22.6182003        -4.99191538E-06
  -22.5032005        -5.05666276E-06
  -22.3882008        -5.12231918E-06
  -22.2731991        -5.18895786E-06
  -22.1581993        -5.25665064E-06
  -22.0431995        -5.32543390E-06
  -21.9281998        -5.39531993E-06
  -21.8132000        -5.46624369E-06
  -21.6982002        -5.53810196E-06
  -21.5832005        -5.61072147E-06
  -21.4682007        -5.68395217E-06
  -21.3532009        -5.75765080E-06
  -21.2381992        -5.83173096E-06
  -21.1231995        -5.90618947E-06
  -21.0081997        -5.98109682E-06
  -20.8931999        -6.05657260E-06
  -20.7782001        -6.13276688E-06
  -20.6632004        -6.20978608E-06
  -20.5482006        -6.28766475E-06
  -20.4332008        -6.36631785E-06
  -20.3181992        -6.44559032E-06
  -20.2031994        -6.52524523E-06
  -20.0881996        -6.60503338E-06
  -19.9731998        -6.68474831E-06
  -19.8582001        -6.76425816E-06
  -19.7432003        -6.84358292E-06
  -19.6282005        -6.92286676E-06
  -19.5132008        -7.00235705E-06
  -19.3981991        -7.08233301E-06
  -19.2831993        -7.16309660E-06
  -19.1681995        -7.24487518E-06
  -19.0531998        -7.32783337E-06
  -18.9382000        -7.41205440E-06
  -18.8232002        -7.49753553E-06
  -18.7082005        -7.58427541E-06
  -18.5932007        -7.67225174E-06
  -18.4782009        -7.76144589E-06
  -18.3631992        -7.85185148E-06
  -18.2481995        -7.94342486E-06
  -18.1331997        -8.03609419E-06
  -18.0181999        -8.12969847E-06
  -17.9032001        -8.22403945E-06
  -17.7882004        -8.31884881E-06
  -17.6732006        -8.41388010E-06
  -17.5582008        -8.50896322E-06
  -17.4431992        -8.60406271E-06
  -17.3281994        -8.69928135E-06
  -17.2131996        -8.79489289E-06
  -17.0981998        -8.89126659E-06
  -16.9832001        -8.98883172E-06
  -16.8682003        -9.08795573E-06
  -16.7532005        -9.18890328E-06
  -16.6382008        -9.29178623E-06
  -16.5231991        -9.39652364E-06
  -16.4081993        -9.50291269E-06
  -16.2931995        -9.61065689E-06
  -16.1781998        -9.71940608E-06
  -16.0632000        -9.82884285E-06
  -15.9482002        -9.93871254E-06
  -15.8332005        -1.00488405E-05
  -15.7181997        -1.01591277E-05
  -15.6032000        -1.02695149E-05
  -15.4882002        -1.03799557E-05
  -15.3732004        -1.04904129E-05
  -15.2581997        -1.06008738E-05
  -15.1431999        -1.07113556E-05
  -15.0282001        -1.08219419E-05
  -14.9132004        -1.09327420E-05
  -14.7981997        -1.10439587E-05
  -14.6831999        -1.11558538E-05
  -14.5682001        -1.12686721E-05
  -14.4532003        -1.13826591E-05
  -14.3381996        -1.14979648E-05
  -14.2231998        -1.16146484E-05
  -14.1082001        -1.17326490E-05
  -13.9932003        -1.18517810E-05
  -13.8781996        -1.19718397E-05
  -13.7631998        -1.20925724E-05
  -13.6482000        -1.22138108E-05
  -13.5332003        -1.23354694E-05
  -13.4181995        -1.24575581E-05
  -13.3031998        -1.25802271E-05
  -13.1882000        -1.27036610E-05
  -13.0732002        -1.28280608E-05
  -12.9582005        -1.29536484E-05
  -12.8431997        -1.30805165E-05
  -12.7282000        -1.32087034E-05
  -12.6132002        -1.33381591E-05
  -12.4982004        -1.34687289E-05
  -12.3831997        -1.36002554E-05
  -12.2681999        -1.37326278E-05
  -12.1532001        -1.38657415E-05
  -12.0382004        -1.39995582E-05
  -11.9231997        -1.41341116E-05
  -11.8081999        -1.42694944E-05
  -11.6932001        -1.44058031E-05
  -11.5782003        -1.45430940E-05
  -11.4631996        -1.46813709E-05
  -11.3481998        -1.48206309E-05
  -11.2332001        -1.49608286E-05
  -11.1182003        -1.51019467E-05
  -11.0031996        -1.52439598E-05
  -10.8881998        -1.53869150E-05
  -10.7732000        -1.55308462E-05
  -10.6582003        -1.56758379E-05
  -10.5431995        -1.58218863E-05
  -10.4281998        -1.59689098E-05
  -10.3132000        -1.61167172E-05
  -10.1982002        -1.62650431E-05
  -10.0832005        -1.64135854E-05
  -9.96819973        -1.65619676E-05
  -9.85319996        -1.67099606E-05
  -9.73820019        -1.68574570E-05
  -9.62320042        -1.70044768E-05
  -9.50819969        -1.71513202E-05
  -9.39319992        -1.72983528E-05
  -9.27820015        -1.74460274E-05
  -9.16320038        -1.75947825E-05
  -9.04819965        -1.77449529E-05
  -8.93319988        -1.78967457E-05
  -8.81820011        -1.80501866E-05
  -8.70320034        -1.82052154E-05
  -8.58819962        -1.83616703E-05
  -8.47319984        -1.85193312E-05
  -8.35820007        -1.86780380E-05
  -8.24320030        -1.88375998E-05
  -8.12819958        -1.89978909E-05
  -8.01319981        -1.91587551E-05
  -7.89820004        -1.93199921E-05
  -7.78319979        -1.94814093E-05
  -7.66820002        -1.96427445E-05
  -7.55320024        -1.98037869E-05
  -7.43820000        -1.99643619E-05
  -7.32320023        -2.01244584E-05
  -7.20819998        -2.02842002E-05
  -7.09320021        -2.04438711E-05
  -6.97819996        -2.06038421E-05
  -6.86320019        -2.07644844E-05
  -6.74819994        -2.09261671E-05
  -6.63320017        -2.10891158E-05
  -6.51819992        -2.12534105E-05
  -6.40320015        -2.14189422E-05
  -6.28819990        -2.15854798E-05
  -6.17320013        -2.17527031E-05
  -6.05819988        -2.19203685E-05
  -5.94320011        -2.20882139E-05
  -5.82819986        -2.22561230E-05
  -5.71320009        -2.24240775E-05
  -5.59819984        -2.25921376E-05
  -5.48320007        -2.27604487E-05
  -5.36819983        -2.29291036E-05
  -5.25320005        -2.30981786E-05
  -5.13819981        -2.32677594E-05
  -5.02320004        -2.34379058E-05
  -4.90819979        -2.36086235E-05
  -4.79320002        -2.37799577E-05
  -4.67820024        -2.39519832E-05
  -4.56320000        -2.41248108E-05
  -4.44820023        -2.42985661E-05
  -4.33319998        -2.44733783E-05
  -4.21820021        -2.46493455E-05
  -4.10319996        -2.48264769E-05
  -3.98819995        -2.50047142E-05
  -3.87319994        -2.51839283E-05
  -3.75819993        -2.53639482E-05
  -3.64319992        -2.55446048E-05
  -3.52819991        -2.57257343E-05
  -3.41319990        -2.59072349E-05
  -3.29820013        -2.60890993E-05
  -3.18320012        -2.62713602E-05
  -3.06820011        -2.64541522E-05
  -2.95320010        -2.66375300E-05
  -2.83820009        -2.68215099E-05
  -2.72320008        -2.70060827E-05
  -2.60820007        -2.71910922E-05
  -2.49320006        -2.73762798E-05
  -2.37820005        -2.75613293E-05
  -2.26320004        -2.77459985E-05
  -2.14820004        -2.79300821E-05
  -2.03320003        -2.81135708E-05
  -1.91820002        -2.82964520E-05
  -1.80320001        -2.84789476E-05
  -1.68820000        -2.86613576E-05
  -1.57319999        -2.88439551E-05
  -1.45819998        -2.90269600E-05
  -1.34319997        -2.92105469E-05
  -1.22819996        -2.93948087E-05
  -1.11320007        -2.95797854E-05
 -0.998199999        -2.97654187E-05
 -0.883199990        -2.99516669E-05
 -0.768200040        -3.01385771E-05
 -0.653200030        -3.03261240E-05
 -0.538200021        -3.05142694E-05
 -0.423200011        -3.07029695E-05
 -0.308200002        -3.08921735E-05
 -0.193200007        -3.10816104E-05
  -7.82000124E-02    -3.12710217E-05
   3.67999896E-02    -3.14600875E-05
  0.151799992        -3.16484802E-05
  0.266799986        -3.18360326E-05
  0.381799996        -3.20227264E-05
  0.496799976        -3.22087035E-05
  0.611800015        -3.23943350E-05
  0.726799965        -3.25800247E-05
  0.841799974        -3.27662055E-05
  0.956799984        -3.29532668E-05
   1.07179999        -3.31414594E-05
   1.18680000        -3.33307980E-05
   1.30180001        -3.35212717E-05
   1.41680002        -3.37126585E-05
   1.53180003        -3.39047256E-05
   1.64680004        -3.40972765E-05
   1.76179993        -3.42901585E-05
   1.87679994        -3.44832479E-05
   1.99179995        -3.46764646E-05
   2.10680008        -3.48697613E-05
   2.22180009        -3.50629962E-05
   2.33680010        -3.52559982E-05
   2.45179987        -3.54485601E-05
   2.56679988        -3.56404089E-05
   2.68179989        -3.58313810E-05
   2.79679990        -3.60213962E-05
   2.91179991        -3.62105420E-05
   3.02679992        -3.63988911E-05
   3.14179993        -3.65867272E-05
   3.25679994        -3.67743523E-05
   3.37179995        -3.69620211E-05
   3.48679996        -3.71498645E-05
   3.60179996        -3.73379407E-05
   3.71679997        -3.75262134E-05
   3.83179998        -3.77145298E-05
   3.94679999        -3.79027369E-05
   4.06180000        -3.80906822E-05
   4.17679977        -3.82783146E-05
   4.29180002        -3.84657433E-05
   4.40679979        -3.86530155E-05
   4.52180004        -3.88402477E-05
   4.63679981        -3.90276109E-05
   4.75180006        -3.92151196E-05
   4.86679983        -3.94026792E-05
   4.98180008        -3.95902316E-05
   5.09679985        -3.97775111E-05
   5.21180010        -3.99643613E-05
   5.32679987        -4.01506040E-05
   5.44180012        -4.03360500E-05
   5.55679989        -4.05206665E-05
   5.67180014        -4.07044608E-05
   5.78679991        -4.08875349E-05
   5.90180016        -4.10700668E-05
   6.01679993        -4.12521294E-05
   6.13180017        -4.14337665E-05
   6.24679995        -4.16149851E-05
   6.36180019        -4.17957890E-05
   6.47679996        -4.19761200E-05
   6.59180021        -4.21559344E-05
   6.70679998        -4.23351848E-05
   6.82179976        -4.25139224E-05
   6.93680000        -4.26921724E-05
   7.05179977        -4.28700587E-05
   7.16680002        -4.30476684E-05
   7.28179979        -4.32249835E-05
   7.39680004        -4.34019566E-05
   7.51179981        -4.35783513E-05
   7.62680006        -4.37538911E-05
   7.74179983        -4.39282703E-05
   7.85680008        -4.41013290E-05
   7.97179985        -4.42729615E-05
   8.08679962        -4.44432335E-05
   8.20180035        -4.46123267E-05
   8.31680012        -4.47805178E-05
   8.43179989        -4.49482104E-05
   8.54679966        -4.51157212E-05
   8.66180038        -4.52832574E-05
   8.77680016        -4.54508663E-05
   8.89179993        -4.56186099E-05
   9.00679970        -4.57863534E-05
   9.12180042        -4.59539879E-05
   9.23680019        -4.61214513E-05
   9.35179996        -4.62886237E-05
   9.46679974        -4.64555451E-05
   9.58180046        -4.66221791E-05
   9.69680023        -4.67884965E-05
   9.81180000        -4.69544211E-05
   9.92679977        -4.71197491E-05
   10.0417995        -4.72842185E-05
   10.1568003        -4.74474909E-05
   10.2718000        -4.76092973E-05
   10.3867998        -4.77694412E-05
   10.5017996        -4.79278351E-05
   10.6168003        -4.80845847E-05
   10.7318001        -4.82398937E-05
   10.8467999        -4.83940166E-05
   10.9617996        -4.85472192E-05
   11.0768003        -4.86996978E-05
   11.1918001        -4.88516016E-05
   11.3067999        -4.90030034E-05
   11.4217997        -4.91538340E-05
   11.5368004        -4.93039661E-05
   11.6518002        -4.94533233E-05
   11.7667999        -4.96018438E-05
   11.8817997        -4.97496112E-05
   11.9968004        -4.98966183E-05
   12.1118002        -5.00430688E-05
   12.2268000        -5.01889772E-05
   12.3417997        -5.03342490E-05
   12.4568005        -5.04787458E-05
   12.5718002        -5.06222859E-05
   12.6868000        -5.07644363E-05
   12.8017998        -5.09050551E-05
   12.9167995        -5.10439204E-05
   13.0318003        -5.11809849E-05
   13.1468000        -5.13162231E-05
   13.2617998        -5.14497624E-05
   13.3767996        -5.15818356E-05
   13.4918003        -5.17126318E-05
   13.6068001        -5.18423476E-05
   13.7217999        -5.19712521E-05
   13.8367996        -5.20994654E-05
   13.9518003        -5.22270639E-05
   14.0668001        -5.23541348E-05
   14.1817999        -5.24806564E-05
   14.2967997        -5.26067233E-05
   14.4118004        -5.27323464E-05
   14.5268002        -5.28576129E-05
   14.6417999        -5.29826102E-05
   14.7567997        -5.31072183E-05
   14.8718004        -5.32313425E-05
   14.9868002        -5.33547973E-05
   15.1018000        -5.34772589E-05
   15.2167997        -5.35984364E-05
   15.3318005        -5.37180313E-05
   15.4468002        -5.38358145E-05
   15.5618000        -5.39515568E-05
   15.6767998        -5.40653637E-05
   15.7917995        -5.41773006E-05
   15.9068003        -5.42875860E-05
   16.0217991        -5.43963797E-05
   16.1368008        -5.45039620E-05
   16.2518005        -5.46104820E-05
   16.3668003        -5.47161180E-05
   16.4818001        -5.48207754E-05
   16.5967999        -5.49244687E-05
   16.7117996        -5.50270706E-05
   16.8267994        -5.51285993E-05
   16.9417992        -5.52290076E-05
   17.0568008        -5.53283280E-05
   17.1718006        -5.54266117E-05
   17.2868004        -5.55238585E-05
   17.4018002        -5.56200903E-05
   17.5167999        -5.57153107E-05
   17.6317997        -5.58093307E-05
   17.7467995        -5.59020737E-05
   17.8617992        -5.59933687E-05