  -37.8452110         0.00000000    
  -37.7264595        -1.76449632E-12
  -37.6077118        -3.91617901E-12
  -37.4889603        -3.98220736E-12
  -37.3702126         9.24905226E-13
  -37.2514610         1.32534443E-11
  -37.1327095         3.41854565E-11
  -37.0139618         6.30341404E-11
  -36.8952103         9.70182684E-11
  -36.7764626         1.31486794E-10
  -36.6577110         1.60572583E-10
  -36.5389595         1.78163456E-10
  -36.4202118         1.79020118E-10
  -36.3014603         1.59845984E-10
  -36.1827126         1.20132695E-10
  -36.0639610         6.26606197E-11
  -35.9452095        -6.39384682E-12
  -35.8264618        -7.77281781E-11
  -35.7077103        -1.39487019E-10
  -35.5889626        -1.78042428E-10
  -35.4702110        -1.78889722E-10
  -35.3514595        -1.27576325E-10
  -35.2327118        -1.06010591E-11
  -35.1139603         1.83781837E-10
  -34.9952126         4.64894290E-10
  -34.8764610         8.39234793E-10
  -34.7577095         1.31037203E-09
  -34.6389618         1.87925009E-09
  -34.5202103         2.54490273E-09
  -34.4014626         3.30550343E-09
  -34.2827110         4.15963619E-09
  -34.1639595         5.10751175E-09
  -34.0452118         6.15190920E-09
  -33.9264603         7.29866834E-09
  -33.8077126         8.55661053E-09
  -33.6889610         9.93699167E-09
  -33.5702095         1.14527081E-08
  -33.4514618         1.31175808E-08
  -33.3327103         1.49460124E-08
  -33.2139626         1.69532548E-08
  -33.0952110         1.91562712E-08
  -32.9764595         2.15750262E-08
  -32.8577118         2.42337528E-08
  -32.7389603         2.71618301E-08
  -32.6202126         3.03937533E-08
  -32.5014610         3.39679112E-08
  -32.3827095         3.79243552E-08
  -32.2639618         4.23015756E-08
  -32.1452103         4.71328825E-08
  -32.0264626         5.24429389E-08
  -31.9077110         5.82449147E-08
  -31.7889614         6.45386322E-08
  -31.6702118         7.13101329E-08
  -31.5514603         7.85325440E-08
  -31.4327106         8.61682494E-08
  -31.3139610         9.41723428E-08
  -31.1952114         1.02497062E-07
  -31.0764618         1.11097066E-07
  -30.9577103         1.19935322E-07
  -30.8389606         1.28988788E-07
  -30.7202110         1.38253711E-07
  -30.6014614         1.47749262E-07
  -30.4827118         1.57519352E-07
  -30.3639603         1.67631299E-07
  -30.2452106         1.78171575E-07
  -30.1264610         1.89238690E-07
  -30.0077114         2.00933727E-07
  -29.8889618         2.13349992E-07
  -29.7702103         2.26562776E-07
  -29.6514606         2.40621091E-07
  -29.5327110         2.55542290E-07
  -29.4139614         2.71310398E-07
  -29.2952118         2.87878777E-07
  -29.1764603         3.05176059E-07
  -29.0577106         3.23115415E-07
  -28.9389610         3.41605471E-07
  -28.8202114         3.60561899E-07
  -28.7014618         3.79918305E-07
  -28.5827103         3.99635468E-07
  -28.4639606         4.19707220E-07
  -28.3452110         4.40163973E-07
  -28.2264614         4.61071153E-07
  -28.1077118         4.82524570E-07
  -27.9889603         5.04642401E-07
  -27.8702106         5.27553937E-07
  -27.7514610         5.51387643E-07
  -27.6327114         5.76258458E-07
  -27.5139618         6.02257671E-07
  -27.3952103         6.29444855E-07
  -27.2764606         6.57843430E-07
  -27.1577110         6.87441911E-07
  -27.0389614         7.18198578E-07
  -26.9202118         7.50050503E-07
  -26.8014603         7.82925042E-07
  -26.6827106         8.16752618E-07
  -26.5639610         8.51479172E-07
  -26.4452114         8.87076737E-07
  -26.3264618         9.23550431E-07
  -26.2077103         9.60940156E-07
  -26.0889606         9.99320832E-07
  -25.9702110         1.03879415E-06
  -25.8514614         1.07948108E-06
  -25.7327118         1.12150781E-06
  -25.6139603         1.16499666E-06
  -25.4952106         1.21005269E-06
  -25.3764610         1.25675740E-06
  -25.2577114         1.30516287E-06
  -25.1389618         1.35529126E-06
  -25.0202103         1.40713848E-06
  -24.9014606         1.46067987E-06
  -24.7827110         1.51587778E-06
  -24.6639614         1.57269153E-06
  -24.5452118         1.63108621E-06
  -24.4264603         1.69104078E-06
  -24.3077106         1.75255298E-06
  -24.1889610         1.81564371E-06
  -24.0702114         1.88035699E-06
  -23.9514618         1.94675818E-06
  -23.8327103         2.01492685E-06
  -23.7139606         2.08495203E-06
  -23.5952110         2.15692307E-06
  -23.4764614         2.23092184E-06
  -23.3577118         2.30701812E-06
  -23.2389603         2.38526536E-06
  -23.1202106         2.46570062E-06
  -23.0014610         2.54835140E-06
  -22.8827114         2.63324000E-06
  -22.7639618         2.72039347E-06
  -22.6452103         2.80985319E-06
  -22.5264606         2.90167941E-06
  -22.4077110         2.99595763E-06
  -22.2889614         3.09279790E-06
  -22.1702118         3.19232890E-06
  -22.0514603         3.29469435E-06
  -21.9327106         3.40004181E-06
  -21.8139610         3.50851337E-06
  -21.6952114         3.62023775E-06
  -21.5764618         3.73532316E-06
  -21.4577103         3.85385465E-06
  -21.3389606         3.97588883E-06
  -21.2202110         4.10146367E-06
  -21.1014614         4.23059555E-06
  -20.9827118         4.36329583E-06
  -20.8639603         4.49957406E-06
  -20.7452106         4.63945116E-06
  -20.6264610         4.78297034E-06
  -20.5077114         4.93020616E-06
  -20.3889618         5.08126504E-06
  -20.2702103         5.23629160E-06
  -20.1514606         5.39546045E-06
  -20.0327110         5.55896850E-06
  -19.9139614         5.72702265E-06
  -19.7952118         5.89982619E-06
  -19.6764603         6.07756692E-06
  -19.5577106         6.26040128E-06
  -19.4389610         6.44845341E-06
  -19.3202114         6.64180834E-06
  -19.2014618         6.84051611E-06
  -19.0827103         7.04459990E-06
  -18.9639606         7.25406471E-06
  -18.8452110         7.46891419E-06
  -18.7264614         7.68916107E-06
  -18.6077118         7.91483762E-06
  -18.4889603         8.14600935E-06
  -18.3702106         8.38277811E-06
  -18.2514610         8.62527850E-06
  -18.1327114         8.87368242E-06
  -18.0139618         9.12818996E-06
  -17.8952103         9.38901303E-06
  -17.7764606         9.65637264E-06
  -17.6577110         9.93048070E-06
  -17.5389614         1.02115391E-05
  -17.4202118         1.04997280E-05
  -17.3014603         1.07952055E-05
  -17.1827106         1.10981155E-05
  -17.0639610         1.14085824E-05
  -16.9452114         1.17267300E-05
  -16.8264618         1.20526774E-05
  -16.7077103         1.23865630E-05
  -16.5889606         1.27285311E-05
  -16.4702110         1.30787566E-05
  -16.3514614         1.34374304E-05
  -16.2327118         1.38047608E-05
  -16.1139603         1.41809678E-05
  -15.9952106         1.45662852E-05
  -15.8764610         1.49609250E-05
  -15.7577114         1.53650999E-05
  -15.6389608         1.57789927E-05
  -15.5202112         1.62027627E-05
  -15.4014606         1.66365353E-05
  -15.2827110         1.70804215E-05
  -15.1639614         1.75345176E-05
  -15.0452108         1.79989165E-05
  -14.9264612         1.84737200E-05
  -14.8077106         1.89590519E-05
  -14.6889610         1.94550685E-05
  -14.5702114         1.99619517E-05
  -14.4514608         2.04799107E-05
  -14.3327112         2.10091839E-05
  -14.2139606         2.15500168E-05
  -14.0952110         2.21026512E-05
  -13.9764614         2.26673219E-05
  -13.8577108         2.32442308E-05
  -13.7389612         2.38335560E-05
  -13.6202106         2.44354287E-05
  -13.5014610         2.50499434E-05
  -13.3827114         2.56771582E-05
  -13.2639608         2.63171041E-05
  -13.1452112         2.69698066E-05
  -13.0264606         2.76352948E-05
  -12.9077110         2.83136123E-05
  -12.7889614         2.90048556E-05
  -12.6702108         2.97091665E-05
  -12.5514612         3.04267560E-05
  -12.4327106         3.11578879E-05
  -12.3139610         3.19028877E-05
  -12.1952114         3.26621011E-05
  -12.0764608         3.34359174E-05
  -11.9577112         3.42246931E-05
  -11.8389606         3.50287737E-05
  -11.7202110         3.58484613E-05
  -11.6014614         3.66840031E-05
  -11.4827108         3.75355776E-05
  -11.3639612         3.84033156E-05
  -11.2452106         3.92872862E-05
  -11.1264610         4.01875295E-05
  -11.0077114         4.11040564E-05
  -10.8889608         4.20368960E-05
  -10.7702112         4.29860884E-05
  -10.6514606         4.39517098E-05
  -10.5327110         4.49338986E-05
  -10.4139614         4.59328403E-05
  -10.2952108         4.69487750E-05
  -10.1764612         4.79820192E-05
  -10.0577106         4.90329076E-05
  -9.93896103         5.01017930E-05
  -9.82021141         5.11890321E-05
  -9.70146084         5.22949522E-05
  -9.58271122         5.34198625E-05
  -9.46396065         5.45640105E-05
  -9.34521103         5.57275780E-05
  -9.22646141         5.69107178E-05
  -9.10771084         5.81135282E-05
  -8.98896122         5.93360310E-05
  -8.87021065         6.05783025E-05
  -8.75146103         6.18403574E-05
  -8.63271141         6.31222501E-05
  -8.51396084         6.44240281E-05
  -8.39521122         6.57458004E-05
  -8.27646065         6.70877052E-05
  -8.15771103         6.84498737E-05
  -8.03896141         6.98325166E-05
  -7.92021084         7.12358087E-05
  -7.80146122         7.26599610E-05
  -7.68271112         7.41051626E-05
  -7.56396103         7.55716028E-05
  -7.44521093         7.70594343E-05
  -7.32646084         7.85687953E-05
  -7.20771122         8.00997877E-05
  -7.08896112         8.16525062E-05
  -6.97021103         8.32270453E-05
  -6.85146093         8.48234631E-05
  -6.73271084         8.64418616E-05
  -6.61396122         8.80823281E-05
  -6.49521112         8.97449572E-05
  -6.37646103         9.14298435E-05
  -6.25771093         9.31371178E-05
  -6.13896084         9.48669112E-05
  -6.02021122         9.66193475E-05
  -5.90146112         9.83945210E-05
  -5.78271103         1.00192548E-04
  -5.66396093         1.02013502E-04
  -5.54521084         1.03857419E-04
  -5.42646122         1.05724364E-04
  -5.30771112         1.07614323E-04
  -5.18896103         1.09527275E-04
  -5.07021093         1.11463247E-04
  -4.95146084         1.13422284E-04
  -4.83271122         1.15404378E-04
  -4.71396112         1.17409603E-04
  -4.59521103         1.19438031E-04
  -4.47646093         1.21489786E-04
  -4.35771084         1.23564954E-04
  -4.23896122         1.25663661E-04
  -4.12021112         1.27785956E-04
  -4.00146103         1.29931926E-04
  -3.88271117         1.32101603E-04
  -3.76396108         1.34294896E-04
  -3.64521098         1.36511764E-04
  -3.52646112         1.38752017E-04
  -3.40771103         1.41015509E-04
  -3.28896117         1.43302008E-04
  -3.17021108         1.45611310E-04
  -3.05146098         1.47943138E-04
  -2.93271112         1.50297288E-04
  -2.81396103         1.52673558E-04
  -2.69521117         1.55071786E-04
  -2.57646108         1.57491842E-04
  -2.45771098         1.59933654E-04
  -2.33896112         1.62397162E-04
  -2.22021103         1.64882353E-04
  -2.10146117         1.67389197E-04
  -1.98271108         1.69917650E-04
  -1.86396110         1.72467655E-04
  -1.74521101         1.75039066E-04
  -1.62646103         1.77631751E-04
  -1.50771105         1.80245435E-04
  -1.38896108         1.82879856E-04
  -1.27021110         1.85534707E-04
  -1.15146101         1.88209684E-04
  -1.03271103         1.90904364E-04
 -0.913961053         1.93618514E-04
 -0.795211077         1.96351772E-04
 -0.676461041         1.99103830E-04
 -0.557711065         2.01874456E-04
 -0.438961059         2.04663404E-04
 -0.320211053         2.07470410E-04
 -0.201461062         2.10295344E-04
  -8.27110559E-02     2.13138032E-04
   3.60389426E-02     2.15998283E-04
  0.154788941         2.18875924E-04
  0.273538947         2.21770679E-04
  0.392288953         2.24682299E-04
  0.511038959         2.27610493E-04
  0.629788935         2.30554957E-04
  0.748538971         2.33515253E-04
  0.867288947         2.36491134E-04
  0.986038923         2.39482135E-04
   1.10478890         2.42487949E-04
   1.22353899         2.45508330E-04
   1.34228897         2.48542783E-04
   1.46103895         2.51591031E-04
   1.57978892         2.54652812E-04
   1.69853890         2.57727777E-04
   1.81728899         2.60815519E-04
   1.93603897         2.63915717E-04
   2.05478883         2.67028023E-04
   2.17353892         2.70151882E-04
   2.29228902         2.73286802E-04
   2.41103888         2.76432285E-04
   2.52978897         2.79587723E-04
   2.64853883         2.82752531E-04
   2.76728892         2.85926013E-04
   2.88603902         2.89107615E-04
   3.00478888         2.92296667E-04
   3.12353897         2.95492675E-04
   3.24228883         2.98695086E-04
   3.36103892         3.01903376E-04
   3.47978902         3.05117108E-04
   3.59853888         3.08335846E-04
   3.71728897         3.11559124E-04
   3.83603883         3.14786565E-04
   3.95478892         3.18017614E-04
   4.07353878         3.21251777E-04
   4.19228888         3.24488617E-04
   4.31103897         3.27727466E-04
   4.42978907         3.30967800E-04
   4.54853916         3.34208948E-04
   4.66728878         3.37450241E-04
   4.78603888         3.40690982E-04
   4.90478897         3.43930587E-04
   5.02353907         3.47168359E-04
   5.14228916         3.50403745E-04
   5.26103878         3.53636191E-04
   5.37978888         3.56865203E-04
   5.49853897         3.60090373E-04
   5.61728907         3.63311294E-04
   5.73603916         3.66527529E-04
   5.85478878         3.69738787E-04
   5.97353888         3.72944691E-04
   6.09228897         3.76144861E-04
   6.21103907         3.79338861E-04
   6.32978916         3.82526167E-04
   6.44853878         3.85706255E-04
   6.56728888         3.88878601E-04
   6.68603897         3.92042508E-04
   6.80478907         3.95197421E-04
   6.92353916         3.98342527E-04
   7.04228878         4.01477271E-04
   7.16103888         4.04600840E-04
   7.27978897         4.07712592E-04
   7.39853907         4.10811917E-04
   7.51728916         4.13898204E-04
   7.63603878         4.16970812E-04
   7.75478888         4.20029159E-04
   7.87353897         4.23072866E-04
   7.99228907         4.26101411E-04
   8.11103916         4.29114240E-04
   8.22978878         4.32111003E-04
   8.34853935         4.35091002E-04
   8.46728897         4.38053918E-04
   8.58603859         4.40999196E-04
   8.70478916         4.43926285E-04
   8.82353878         4.46834631E-04
   8.94228935         4.49723593E-04
   9.06103897         4.52592736E-04
   9.17978859         4.55441332E-04
   9.29853916         4.58268856E-04
   9.41728878         4.61074669E-04
   9.53603935         4.63858218E-04
   9.65478897         4.66618774E-04
   9.77353859         4.69355757E-04
   9.89228916         4.72068758E-04
   10.0110388         4.74757107E-04
   10.1297894         4.77420195E-04
   10.2485390         4.80057643E-04
   10.3672886         4.82668838E-04
   10.4860392         4.85253404E-04
   10.6047888         4.87810874E-04
   10.7235394         4.90340695E-04
   10.8422890         4.92842635E-04
   10.9610386         4.95316344E-04
   11.0797892         4.97761415E-04
   11.1985388         5.00177499E-04
   11.3172894         5.02564362E-04
   11.4360390         5.04921656E-04
   11.5547886         5.07249089E-04
   11.6735392         5.09546313E-04
   11.7922888         5.11813036E-04
   11.9110394         5.14048908E-04
   12.0297890         5.16253582E-04
   12.1485386         5.18426648E-04
   12.2672892         5.20567643E-04
   12.3860388         5.22676331E-04
   12.5047894         5.24752191E-04
   12.6235390         5.26794873E-04
   12.7422886         5.28804143E-04
   12.8610392         5.30779478E-04
   12.9797888         5.32720878E-04
   13.0985394         5.34627936E-04
   13.2172890         5.36500709E-04
   13.3360386         5.38338907E-04
   13.4547892         5.40142646E-04
   13.5735388         5.41911635E-04
   13.6922894         5.43645932E-04
   13.8110390         5.45345305E-04
   13.9297886         5.47009695E-04
   14.0485392         5.48639044E-04
   14.1672888         5.50233119E-04
   14.2860394         5.51791629E-04
   14.4047890         5.53314341E-04
   14.5235386         5.54801023E-04
   14.6422892         5.56251325E-04
   14.7610388         5.57665306E-04
   14.8797894         5.59042615E-04
   14.9985390         5.60383080E-04
   15.1172886         5.61686698E-04
   15.2360392         5.62953297E-04
   15.3547888         5.64182992E-04
   15.4735394         5.65376016E-04
   15.5922890         5.66532370E-04
   15.7110386         5.67652169E-04
   15.8297892         5.68735704E-04
   15.9485388         5.69783093E-04
   16.0672894         5.70794335E-04
   16.1860390         5.71769662E-04
   16.3047886         5.72709192E-04
   16.4235382         5.73613041E-04
   16.5422897         5.74481266E-04
   16.6610394         5.75313927E-04
   16.7797890         5.76111081E-04
   16.8985386         5.76872844E-04
   17.0172882         5.77599159E-04
   17.1360397         5.78290375E-04
   17.2547894         5.78946667E-04
   17.3735390         5.79567975E-04
   17.4922886         5.80154825E-04
   17.6110382         5.80707216E-04
   17.7297897         5.81225613E-04
   17.8485394         5.81710134E-04
   17.9672890         5.82161127E-04
   18.0860386         5.82578999E-04
   18.2047882         5.82963927E-04
   18.3235397         5.83316316E-04
   18.4422894         5.83636458E-04
   18.5610390         5.83924819E-04
   18.6797886         5.84181747E-04
   18.7985382         5.84407419E-04
   18.9172897         5.84602414E-04
   19.0360394         5.84767200E-04
   19.1547890         5.84901951E-04
   19.2735386         5.85007248E-04
   19.3922882         5.85083500E-04
   19.5110397         5.85131056E-04
   19.6297894         5.85150497E-04
   19.7485390         5.85142232E-04
   19.8672886         5.85106551E-04
   19.9860382         5.85043803E-04
   20.1047897         5.84954396E-04
   20.2235394         5.84838563E-04
   20.3422890         5.84696769E-04
   20.4610386         5.84529189E-04
   20.5797882         5.84336114E-04
   20.6985397         5.84118068E-04
   20.8172894         5.83875226E-04
   20.9360390         5.83608227E-04
   21.0547886         5.83317247E-04
   21.1735382         5.83002926E-04
   21.2922897         5.82665612E-04
   21.4110394         5.82305947E-04
   21.5297890         5.81924338E-04
   21.6485386         5.81521483E-04
   21.7672882         5.81097847E-04
   21.8860397         5.80654014E-04
   22.0047894         5.80190623E-04
   22.1235390         5.79708198E-04
   22.2422886         5.79207204E-04
   22.3610382         5.78688283E-04
   22.4797897         5.78151841E-04
   22.5985394         5.77598519E-04
   22.7172890         5.77028724E-04
   22.8360386         5.76443097E-04
   22.9547882         5.75842336E-04
   23.0735397         5.75226964E-04
   23.1922894         5.74597507E-04
   23.3110390         5.73954603E-04
   23.4297886         5.73298894E-04
   23.5485382         5.72631136E-04
   23.6672897         5.71951794E-04
   23.7860394         5.71261568E-04
   23.9047890         5.70561155E-04
   24.0235386         5.69851079E-04
   24.1422882         5.69131982E-04
   24.2610397         5.68404503E-04
   24.3797894         5.67669224E-04
   24.4985390         5.66926610E-04
   24.6172886         5.66177245E-04
   24.7360382         5.65421768E-04
   24.8547897         5.64660411E-04
   24.9735394         5.63893875E-04
   25.0922890         5.63122565E-04
   25.2110386         5.62346890E-04
   25.3297882         5.61567373E-04
   25.4485397         5.60784538E-04
   25.5672894         5.59998734E-04
   25.6860390         5.59210428E-04
   25.8047886         5.58419968E-04
   25.9235382         5.57628053E-04
   26.0422897         5.56834857E-04
   26.1610394         5.56041079E-04
   26.2797890         5.55247127E-04
   26.3985386         5.54453523E-04
   26.5172882         5.53660619E-04
   26.6360397         5.52869169E-04
   26.7547894         5.52079466E-04
   26.8735390         5.51292091E-04
   26.9922886         5.50507684E-04
   27.1110382         5.49726654E-04
   27.2297897         5.48949349E-04
   27.3485394         5.48176293E-04
   27.4672890         5.47407719E-04
   27.5860386         5.46644034E-04
   27.7047882         5.45885589E-04
   27.8235397         5.45132440E-04
   27.9422894         5.44385053E-04
   28.0610390         5.43643488E-04
   28.1797886         5.42908092E-04
   28.2985382         5.42178925E-04
   28.4172897         5.41456568E-04
   28.5360394         5.40741195E-04
   28.6547890         5.40033274E-04
   28.7735386         5.39333152E-04
   28.8922882         5.38641296E-04
   29.0110397         5.37958345E-04
   29.1297894         5.37284650E-04
   29.2485390         5.36620850E-04
   29.3672886         5.35967469E-04
   29.4860382         5.35325031E-04
   29.6047897         5.34693827E-04
   29.7235394         5.34074381E-04
   29.8422890         5.33467042E-04
   29.9610386         5.32871985E-04
   30.0797882         5.32289443E-04
   30.1985397         5.31719357E-04
   30.3172894         5.31162077E-04
   30.4360390         5.30617486E-04
   30.5547886         5.30085759E-04
   30.6735382         5.29566954E-04
   30.7922897         5.29061188E-04
   30.9110394         5.28568518E-04
   31.0297890         5.28089236E-04
   31.1485386         5.27623517E-04
   31.2672882         5.27171767E-04
   31.3860397         5.26734046E-04
   31.5047894         5.26310934E-04
   31.6235390         5.25902316E-04
   31.7422886         5.25508600E-04
   31.8610382         5.25130075E-04
   31.9797897         5.24766801E-04
   32.0985374         5.24418836E-04
   32.2172890         5.24086237E-04
   32.3360405         5.23769122E-04
   32.4547882         5.23467432E-04
   32.5735397         5.23181050E-04
   32.6922874         5.22909977E-04
   32.8110390         5.22654096E-04
   32.9297905         5.22413349E-04
   33.0485382         5.22187736E-04
   33.1672897         5.21977199E-04
   33.2860374         5.21781738E-04
   33.4047890         5.21601352E-04
   33.5235405         5.21436101E-04
   33.6422882         5.21285867E-04
   33.7610397         5.21150825E-04
   33.8797874         5.21030859E-04
   33.9985390         5.20925969E-04
   34.1172905         5.20836096E-04
   34.2360382         5.20761299E-04
   34.3547897         5.20701287E-04
   34.4735374         5.20656118E-04
   34.5922890         5.20625443E-04
   34.7110405         5.20609203E-04
   34.8297882         5.20607282E-04
   34.9485397         5.20619273E-04
   35.0672874         5.20645059E-04
   35.1860390         5.20684291E-04
   35.3047905         5.20736794E-04
   35.4235382         5.20802510E-04
   35.5422897         5.20880974E-04
   35.6610374         5.20971953E-04
   35.7797890         5.21075446E-04
   35.8985405         5.21191163E-04
   36.0172882         5.21318987E-04
   36.1360397         5.21458685E-04
   36.2547874         5.21610258E-04
   36.3735390         5.21773589E-04
   36.4922905         5.21948677E-04
   36.6110382         5.22135466E-04
   36.7297897         5.22333779E-04
   36.8485374         5.22543793E-04
   36.9672890         5.22765215E-04
   37.0860405         5.22998162E-04
   37.2047882         5.23242517E-04
   37.3235397         5.23498049E-04
   37.4422874         5.23764582E-04
   37.5610390         5.24041709E-04
   37.6797905         5.24329254E-04
   37.7985382         5.24626754E-04
   37.9172897         5.24933916E-04
   38.0360374         5.25250332E-04
   38.1547890         5.25575480E-04
   38.2735405         5.25909069E-04
   38.3922882         5.26250631E-04
   38.5110397         5.26599993E-04
   38.6297874         5.26956690E-04
   38.7485390         5.27320663E-04
   38.8672905         5.27691620E-04
   38.9860382         5.28069329E-04
   39.1047897         5.28453733E-04
   39.2235374         5.28844714E-04
   39.3422890         5.29242039E-04
   39.4610405         5.29645593E-04
   39.5797882         5.30055142E-04
   39.6985397         5.30470628E-04
   39.8172874         5.30891528E-04
   39.9360390         5.31317841E-04
   40.0547905         5.31749276E-04
   40.1735382         5.32185368E-04
   40.2922897         5.32625942E-04
   40.4110374         5.33070706E-04
   40.5297890         5.33519313E-04
   40.6485405         5.33971586E-04
   40.7672882         5.34427352E-04
   40.8860397         5.34886378E-04
   41.0047874         5.35348547E-04
   41.1235390         5.35813626E-04
   41.2422905         5.36281557E-04
   41.3610382         5.36751992E-04
   41.4797897         5.37224929E-04
   41.5985374         5.37700078E-04
   41.7172890         5.38177264E-04
   41.8360405         5.38656197E-04
   41.9547882         5.39136701E-04
   42.0735397         5.39618370E-04
   42.1922874         5.40101202E-04
   42.3110390         5.40584733E-04
   42.4297905         5.41068788E-04
   42.5485382         5.41553251E-04
   42.6672897         5.42037771E-04
   42.7860374         5.42522292E-04
   42.9047890         5.43006696E-04
   43.0235405         5.43490751E-04
   43.1422882         5.43974282E-04
   43.2610397         5.44457173E-04
   43.3797874         5.44939248E-04
   43.4985390         5.45420218E-04
   43.6172905         5.45900024E-04
   43.7360382         5.46378316E-04
   43.8547897         5.46854921E-04
   43.9735374         5.47329488E-04
   44.0922890         5.47801726E-04
   44.2110405         5.48271462E-04
   44.3297882         5.48738521E-04
   44.4485397         5.49202494E-04
   44.5672874         5.49663382E-04
   44.6860390         5.50121127E-04
   44.8047905         5.50575496E-04
   44.9235382         5.51026373E-04
   45.0422897         5.51473699E-04
   45.1610374         5.51917474E-04
   45.2797890         5.52357698E-04
   45.3985405         5.52793965E-04
   45.5172882         5.53226273E-04
   45.6360397         5.53654565E-04
   45.7547874         5.54078666E-04
   45.8735390         5.54498285E-04
   45.9922905         5.54913364E-04
   46.1110382         5.55323553E-04
   46.2297897         5.55728795E-04
   46.3485374         5.56129089E-04
   46.4672890         5.56524086E-04
   46.5860405         5.56914019E-04
   46.7047882         5.57298714E-04
   46.8235397         5.57678461E-04
   46.9422874         5.58053143E-04
   47.0610390         5.58423053E-04
   47.1797905         5.58788481E-04
   47.2985382         5.59149426E-04
   47.4172897         5.59506065E-04
   47.5360374         5.59858512E-04
   47.6547890         5.60206827E-04
   47.7735405         5.60551067E-04
   47.8922882         5.60891000E-04
   48.0110397         5.61226683E-04
   48.1297874         5.61557710E-04
   48.2485390         5.61884139E-04
   48.3672905         5.62205736E-04
   48.4860382         5.62522095E-04
   48.6047897         5.62833331E-04
   48.7235374         5.63139096E-04
   48.8422890         5.63439273E-04
   48.9610405         5.63733862E-04
   49.0797882         5.64022688E-04
   49.1985397         5.64305868E-04
   49.3172874         5.64583170E-04
   49.4360390         5.64854709E-04
   49.5547905         5.65120485E-04
   49.6735382         5.65380440E-04
   49.7922897         5.65634633E-04
   49.9110374         5.65883121E-04
   50.0297890         5.66125964E-04
   50.1485405         5.66363102E-04
   50.2672882         5.66594710E-04
   50.3860397         5.66820614E-04
   50.5047874         5.67040930E-04
   50.6235390         5.67255542E-04
   50.7422905         5.67464507E-04
   50.8610382         5.67667768E-04
   50.9797897         5.67865442E-04
   51.0985374         5.68057178E-04
   51.2172890         5.68243209E-04
   51.3360405         5.68423071E-04
   51.4547882         5.68596879E-04
   51.5735397         5.68764459E-04
   51.6922874         5.68925578E-04
   51.8110390         5.69080235E-04
   51.9297905         5.69228199E-04
   52.0485382         5.69369586E-04
   52.1672897         5.69504220E-04
   52.2860374         5.69632335E-04
   52.4047890         5.69753873E-04
   52.5235405         5.69869007E-04
   52.6422882         5.69977856E-04
   52.7610397         5.70080651E-04
   52.8797874         5.70177508E-04
   52.9985390         5.70268545E-04
   53.1172905         5.70353935E-04
   53.2360382         5.70433622E-04
   53.3547897         5.70507720E-04
   53.4735374         5.70576231E-04
   53.5922890         5.70639037E-04
   53.7110405         5.70695964E-04
   53.8297882         5.70747012E-04
   53.9485397         5.70792123E-04
   54.0672874         5.70831180E-04
   54.1860390         5.70864242E-04
   54.3047905         5.70891483E-04
   54.4235382         5.70912904E-04
   54.5422897         5.70928678E-04
   54.6610374         5.70938981E-04
   54.7797890         5.70944278E-04
   54.8985405         5.70944627E-04
   55.0172882         5.70940378E-04
   55.1360397         5.70931705E-04
   55.2547874         5.70918783E-04
   55.3735390         5.70901495E-04
   55.4922905         5.70880016E-04
   55.6110382         5.70854172E-04
   55.7297897         5.70823671E-04
   55.8485374         5.70788456E-04
   55.9672890         5.70748176E-04
   56.0860405         5.70702541E-04
   56.2047882         5.70651318E-04
   56.3235397         5.70594217E-04
   56.4422874         5.70531236E-04
   56.5610390         5.70462260E-04
   56.6797905         5.70387288E-04
   56.7985382         5.70306322E-04
   56.9172897         5.70219418E-04
   57.0360374         5.70126809E-04
   57.1547890         5.70028555E-04
   57.2735405         5.69924945E-04
   57.3922882         5.69815980E-04
   57.5110397         5.69701893E-04
   57.6297874         5.69582684E-04
   57.7485390         5.69458643E-04
   57.8672905         5.69329481E-04
   57.9860382         5.69195196E-04
   58.1047897         5.69055614E-04
   58.2235374         5.68910793E-04