  -37.8452110         0.00000000    
  -37.7302094         6.71822624E-12
  -37.6152115         2.25553361E-11
  -37.5002098         5.13998080E-11
  -37.3852119         9.73742753E-11
  -37.2702103         1.63270120E-10
  -37.1552124         2.49040039E-10
  -37.0402107         3.50730806E-10
  -36.9252129         4.60168265E-10
  -36.8102112         5.65563596E-10
  -36.6952095         6.53024801E-10
  -36.5802116         7.08766101E-10
  -36.4652100         7.21649351E-10
  -36.3502121         6.85607293E-10
  -36.2352104         6.01501904E-10
  -36.1202126         4.78063200E-10
  -36.0052109         3.31712297E-10
  -35.8902092         1.85263249E-10
  -35.7752113         6.56683319E-11
  -35.6602097         1.10568108E-12
  -35.5452118         1.77718344E-11
  -35.4302101         1.36747599E-10
  -35.3152122         3.71266046E-10
  -35.2002106         7.24651061E-10
  -35.0852127         1.18913390E-09
  -34.9702110         1.74570747E-09
  -34.8552094         2.36511211E-09
  -34.7402115         3.00999936E-09
  -34.6252098         3.63818176E-09
  -34.5102119         4.20677804E-09
  -34.3952103         4.67688022E-09
  -34.2802124         5.01819253E-09
  -34.1652107         5.21303845E-09
  -34.0502129         5.25907407E-09
  -33.9352112         5.17019938E-09
  -33.8202095         4.97533170E-09
  -33.7052116         4.71507811E-09
  -33.5902100         4.43661685E-09
  -33.4752121         4.18747970E-09
  -33.3602104         4.00900824E-09
  -33.2452126         3.93045285E-09
  -33.1302109         3.96445143E-09
  -33.0152092         4.10457224E-09
  -32.9002113         4.32512559E-09
  -32.7852097         4.58329463E-09
  -32.6702118         4.82324936E-09
  -32.5552101         4.98164487E-09
  -32.4402122         4.99386577E-09
  -32.3252106         4.80023177E-09
  -32.2102127         4.35151515E-09
  -32.0952110         3.61312313E-09
  -31.9802113         2.56758237E-09
  -31.8652115         1.21516186E-09
  -31.7502117        -4.27380076E-10
  -31.6352119        -2.32968933E-09
  -31.5202103        -4.45195214E-09
  -31.4052105        -6.74976164E-09
  -31.2902107        -9.17929821E-09
  -31.1752110        -1.17020917E-08
  -31.0602112        -1.42891832E-08
  -30.9452114        -1.69242238E-08
  -30.8302116        -1.96051460E-08
  -30.7152119        -2.23447572E-08
  -30.6002102        -2.51697045E-08
  -30.4852104        -2.81183485E-08
  -30.3702106        -3.12375832E-08
  -30.2552109        -3.45788749E-08
  -30.1402111        -3.81940666E-08
  -30.0252113        -4.21312549E-08
  -29.9102116        -4.64315661E-08
  -29.7952118        -5.11265448E-08
  -29.6802101        -5.62371056E-08
  -29.5652103        -6.17736262E-08
  -29.4502106        -6.77371403E-08
  -29.3352108        -7.41212034E-08
  -29.2202110        -8.09142193E-08
  -29.1052113        -8.81014302E-08
  -28.9902115        -9.56666710E-08
  -28.8752117        -1.03593436E-07
  -28.7602119        -1.11865944E-07
  -28.6452103        -1.20469522E-07
  -28.5302105        -1.29392177E-07
  -28.4152107        -1.38625623E-07
  -28.3002110        -1.48167629E-07
  -28.1852112        -1.58024577E-07
  -28.0702114        -1.68213745E-07
  -27.9552116        -1.78765077E-07
  -27.8402119        -1.89722215E-07
  -27.7252102        -2.01141731E-07
  -27.6102104        -2.13090814E-07
  -27.4952106        -2.25643788E-07
  -27.3802109        -2.38877192E-07
  -27.2652111        -2.52864112E-07
  -27.1502113        -2.67668526E-07
  -27.0352116        -2.83340597E-07
  -26.9202118        -2.99912529E-07
  -26.8052101        -3.17395802E-07
  -26.6902103        -3.35780442E-07
  -26.5752106        -3.55035894E-07
  -26.4602108        -3.75115008E-07
  -26.3452110        -3.95957898E-07
  -26.2302113        -4.17499621E-07
  -26.1152115        -4.39677763E-07
  -26.0002117        -4.62440624E-07
  -25.8852119        -4.85754413E-07
  -25.7702103        -5.09610572E-07
  -25.6552105        -5.34029084E-07
  -25.5402107        -5.59059629E-07
  -25.4252110        -5.84780366E-07
  -25.3102112        -6.11292080E-07
  -25.1952114        -6.38710276E-07
  -25.0802116        -6.67155973E-07
  -24.9652119        -6.96743712E-07
  -24.8502102        -7.27572115E-07
  -24.7352104        -7.59713259E-07
  -24.6202106        -7.93207164E-07
  -24.5052109        -8.28057296E-07
  -24.3902111        -8.64232732E-07
  -24.2752113        -9.01671456E-07
  -24.1602116        -9.40290192E-07
  -24.0452118        -9.79994866E-07
  -23.9302101        -1.02069430E-06
  -23.8152103        -1.06231209E-06
  -23.7002106        -1.10479925E-06
  -23.5852108        -1.14814054E-06
  -23.4702110        -1.19236108E-06
  -23.3552113        -1.23752454E-06
  -23.2402115        -1.28373074E-06
  -23.1252117        -1.33110780E-06
  -23.0102119        -1.37980135E-06
  -22.8952103        -1.42996475E-06
  -22.7802105        -1.48174843E-06
  -22.6652107        -1.53528856E-06
  -22.5502110        -1.59069987E-06
  -22.4352112        -1.64806829E-06
  -22.3202114        -1.70745113E-06
  -22.2052116        -1.76887409E-06
  -22.0902119        -1.83233806E-06
  -21.9752102        -1.89782213E-06
  -21.8602104        -1.96529550E-06
  -21.7452106        -2.03472541E-06
  -21.6302109        -2.10608846E-06
  -21.5152111        -2.17937713E-06
  -21.4002113        -2.25460940E-06
  -21.2852116        -2.33183118E-06
  -21.1702118        -2.41111456E-06
  -21.0552101        -2.49255459E-06
  -20.9402103        -2.57626471E-06
  -20.8252106        -2.66236589E-06
  -20.7102108        -2.75098114E-06
  -20.5952110        -2.84222710E-06
  -20.4802113        -2.93621042E-06
  -20.3652115        -3.03302318E-06
  -20.2502117        -3.13273813E-06
  -20.1352119        -3.23541440E-06
  -20.0202103        -3.34110018E-06
  -19.9052105        -3.44983073E-06
  -19.7902107        -3.56163696E-06
  -19.6752110        -3.67654548E-06
  -19.5602112        -3.79458425E-06
  -19.4452114        -3.91578124E-06
  -19.3302116        -4.04016919E-06
  -19.2152119        -4.16778676E-06
  -19.1002102        -4.29867714E-06
  -18.9852104        -4.43288991E-06
  -18.8702106        -4.57047781E-06
  -18.7552109        -4.71149906E-06
  -18.6402111        -4.85601549E-06
  -18.5252113        -5.00409487E-06
  -18.4102116        -5.15581178E-06
  -18.2952118        -5.31124806E-06
  -18.1802101        -5.47050195E-06
  -18.0652103        -5.63368394E-06
  -17.9502106        -5.80092319E-06
  -17.8352108        -5.97236613E-06
  -17.7202110        -6.14817600E-06
  -17.6052113        -6.32853062E-06
  -17.4902115        -6.51362279E-06
  -17.3752117        -6.70364716E-06
  -17.2602119        -6.89880017E-06
  -17.1452103        -7.09927554E-06
  -17.0302105        -7.30526062E-06
  -16.9152107        -7.51692869E-06
  -16.8002110        -7.73444208E-06
  -16.6852112        -7.95794404E-06
  -16.5702114        -8.18757235E-06
  -16.4552116        -8.42345526E-06
  -16.3402119        -8.66571918E-06
  -16.2252102        -8.91450054E-06
  -16.1102104        -9.16995123E-06
  -15.9952106        -9.43223495E-06
  -15.8802109        -9.70154724E-06
  -15.7652111        -9.97809730E-06
  -15.6502113        -1.02621161E-05
  -15.5352106        -1.05538456E-05
  -15.4202108        -1.08535296E-05
  -15.3052111        -1.11614008E-05
  -15.1902113        -1.14776785E-05
  -15.0752115        -1.18025509E-05
  -14.9602108        -1.21361763E-05
  -14.8452110        -1.24786793E-05
  -14.7302113        -1.28301544E-05
  -14.6152115        -1.31906654E-05
  -14.5002108        -1.35602595E-05
  -14.3852110        -1.39389640E-05
  -14.2702112        -1.43268180E-05
  -14.1552114        -1.47238625E-05
  -14.0402107        -1.51301601E-05
  -13.9252110        -1.55457983E-05
  -13.8102112        -1.59708961E-05
  -13.6952114        -1.64056055E-05
  -13.5802107        -1.68501047E-05
  -13.4652109        -1.73045919E-05
  -13.3502111        -1.77692818E-05
  -13.2352114        -1.82443819E-05
  -13.1202106        -1.87300848E-05
  -13.0052109        -1.92265652E-05
  -12.8902111        -1.97339705E-05
  -12.7752113        -2.02524243E-05
  -12.6602106        -2.07820194E-05
  -12.5452108        -2.13228486E-05
  -12.4302111        -2.18750083E-05
  -12.3152113        -2.24385967E-05
  -12.2002115        -2.30137557E-05
  -12.0852108        -2.36006490E-05
  -11.9702110        -2.41995094E-05
  -11.8552113        -2.48105989E-05
  -11.7402115        -2.54342503E-05
  -11.6252108        -2.60708239E-05
  -11.5102110        -2.67207106E-05
  -11.3952112        -2.73843179E-05
  -11.2802114        -2.80620588E-05
  -11.1652107        -2.87543171E-05
  -11.0502110        -2.94614456E-05
  -10.9352112        -3.01837445E-05
  -10.8202114        -3.09214702E-05
  -10.7052107        -3.16748083E-05
  -10.5902109        -3.24439206E-05
  -10.4752111        -3.32289164E-05
  -10.3602114        -3.40299011E-05
  -10.2452106        -3.48469839E-05
  -10.1302109        -3.56802921E-05
  -10.0152111        -3.65300111E-05
  -9.90021133        -3.73963521E-05
  -9.78521061        -3.82795988E-05
  -9.67021084        -3.91800822E-05
  -9.55521107        -4.00981808E-05
  -9.44021130        -4.10342873E-05
  -9.32521152        -4.19888311E-05
  -9.21021080        -4.29622160E-05
  -9.09521103        -4.39548239E-05
  -8.98021126        -4.49669933E-05
  -8.86521149        -4.59990006E-05
  -8.75021076        -4.70510677E-05
  -8.63521099        -4.81233255E-05
  -8.52021122        -4.92158688E-05
  -8.40521145        -5.03287301E-05
  -8.29021072        -5.14619314E-05
  -8.17521095        -5.26154799E-05
  -8.06021118        -5.37893939E-05
  -7.94521093        -5.49837387E-05
  -7.83021116        -5.61986089E-05
  -7.71521091        -5.74341720E-05
  -7.60021114        -5.86906535E-05
  -7.48521090        -5.99683299E-05
  -7.37021112        -6.12675140E-05
  -7.25521088        -6.25885659E-05
  -7.14021111        -6.39318459E-05
  -7.02521086        -6.52977396E-05
  -6.91021109        -6.66865817E-05
  -6.79521084        -6.80987068E-05
  -6.68021107        -6.95344061E-05
  -6.56521130        -7.09939268E-05
  -6.45021105        -7.24775164E-05
  -6.33521128        -7.39853422E-05
  -6.22021103        -7.55175497E-05
  -6.10521126        -7.70742772E-05
  -5.99021101        -7.86557212E-05
  -5.87521124        -8.02619907E-05
  -5.76021099        -8.18932749E-05
  -5.64521122        -8.35497412E-05
  -5.53021097        -8.52316298E-05
  -5.41521120        -8.69391661E-05
  -5.30021095        -8.86726193E-05
  -5.18521118        -9.04322587E-05
  -5.07021093        -9.22183535E-05
  -4.95521116        -9.40312093E-05
  -4.84021091        -9.58711244E-05
  -4.72521114        -9.77383970E-05
  -4.61021090        -9.96333038E-05
  -4.49521112        -1.01556136E-04
  -4.38021088        -1.03507162E-04
  -4.26521111        -1.05486666E-04
  -4.15021086        -1.07494910E-04
  -4.03521109        -1.09532128E-04
  -3.92021108        -1.11598529E-04
  -3.80521107        -1.13694339E-04
  -3.69021106        -1.15819705E-04
  -3.57521105        -1.17974821E-04
  -3.46021104        -1.20159828E-04
  -3.34521103        -1.22374797E-04
  -3.23021102        -1.24619837E-04
  -3.11521101        -1.26895015E-04
  -3.00021100        -1.29200402E-04
  -2.88521099        -1.31535984E-04
  -2.77021098        -1.33901878E-04
  -2.65521097        -1.36298142E-04
  -2.54021096        -1.38724892E-04
  -2.42521095        -1.41182303E-04
  -2.31021094        -1.43670579E-04
  -2.19521117        -1.46189952E-04
  -2.08021116        -1.48740743E-04
  -1.96521103        -1.51323227E-04
  -1.85021102        -1.53937726E-04
  -1.73521101        -1.56584574E-04
  -1.62021101        -1.59263989E-04
  -1.50521111        -1.61976190E-04
  -1.39021111        -1.64721321E-04
  -1.27521110        -1.67499456E-04
  -1.16021109        -1.70310566E-04
  -1.04521108        -1.73154636E-04
 -0.930211067        -1.76031579E-04
 -0.815211058        -1.78941162E-04
 -0.700211048        -1.81883268E-04
 -0.585211039        -1.84857723E-04
 -0.470211059        -1.87864382E-04
 -0.355211049        -1.90903142E-04
 -0.240211055        -1.93973989E-04
 -0.125211060        -1.97076966E-04
  -1.02110580E-02    -2.00212235E-04
  0.104788944        -2.03379983E-04
  0.219788939        -2.06580429E-04
  0.334788948        -2.09813850E-04
  0.449788928        -2.13080479E-04
  0.564788938        -2.16380591E-04
  0.679788947        -2.19714391E-04
  0.794788957        -2.23081937E-04
  0.909788966        -2.26483273E-04
   1.02478898        -2.29918383E-04
   1.13978899        -2.33387138E-04
   1.25478899        -2.36889362E-04
   1.36978889        -2.40424808E-04
   1.48478889        -2.43993243E-04
   1.59978890        -2.47594318E-04
   1.71478891        -2.51227844E-04
   1.82978892        -2.54893617E-04
   1.94478893        -2.58591492E-04
   2.05978894        -2.62321351E-04
   2.17478895        -2.66083196E-04
   2.28978896        -2.69877026E-04
   2.40478897        -2.73702870E-04
   2.51978898        -2.77560728E-04
   2.63478899        -2.81450659E-04
   2.74978900        -2.85372633E-04
   2.86478901        -2.89326505E-04
   2.97978902        -2.93312070E-04
   3.09478903        -2.97329185E-04
   3.20978904        -3.01377528E-04
   3.32478905        -3.05456633E-04
   3.43978906        -3.09566094E-04
   3.55478883        -3.13705445E-04
   3.66978884        -3.17874219E-04
   3.78478885        -3.22071952E-04
   3.89978886        -3.26298177E-04
   4.01478910        -3.30552633E-04
   4.12978888        -3.34834913E-04
   4.24478912        -3.39144841E-04
   4.35978889        -3.43482272E-04
   4.47478914        -3.47847090E-04
   4.58978891        -3.52239149E-04
   4.70478916        -3.56658449E-04
   4.81978893        -3.61104845E-04
   4.93478870        -3.65578278E-04
   5.04978895        -3.70078575E-04
   5.16478872        -3.74605588E-04
   5.27978897        -3.79159028E-04
   5.39478874        -3.83738603E-04
   5.50978899        -3.88343993E-04
   5.62478876        -3.92974791E-04
   5.73978901        -3.97630734E-04
   5.85478878        -4.02311329E-04
   5.96978903        -4.07016283E-04
   6.08478880        -4.11745248E-04
   6.19978905        -4.16497991E-04
   6.31478882        -4.21274162E-04
   6.42978907        -4.26073442E-04
   6.54478884        -4.30895656E-04
   6.65978909        -4.35740483E-04
   6.77478886        -4.40607750E-04
   6.88978910        -4.45497077E-04
   7.00478888        -4.50408232E-04
   7.11978912        -4.55340865E-04
   7.23478889        -4.60294599E-04
   7.34978914        -4.65268997E-04
   7.46478891        -4.70263505E-04
   7.57978916        -4.75277659E-04
   7.69478893        -4.80310817E-04
   7.80978870        -4.85362631E-04
   7.92478895        -4.90432431E-04
   8.03978920        -4.95519605E-04
   8.15478897        -5.00623719E-04
   8.26978874        -5.05744072E-04
   8.38478851        -5.10880316E-04
   8.49978924        -5.16031811E-04
   8.61478901        -5.21198031E-04
   8.72978878        -5.26378513E-04
   8.84478855        -5.31572732E-04
   8.95978928        -5.36780048E-04
   9.07478905        -5.41999936E-04
   9.18978882        -5.47231873E-04
   9.30478859        -5.52475161E-04
   9.41978931        -5.57729392E-04
   9.53478909        -5.62993751E-04
   9.64978886        -5.68267831E-04
   9.76478863        -5.73550875E-04
   9.87978935        -5.78842359E-04
   9.99478912        -5.84141642E-04
   10.1097889        -5.89448202E-04
   10.2247887        -5.94761281E-04
   10.3397894        -6.00080471E-04
   10.4547892        -6.05405192E-04
   10.5697889        -6.10734918E-04
   10.6847887        -6.16069126E-04
   10.7997885        -6.21407409E-04
   10.9147892        -6.26749184E-04
   11.0297890        -6.32093986E-04
   11.1447887        -6.37441466E-04
   11.2597885        -6.42791158E-04
   11.3747892        -6.48142712E-04
   11.4897890        -6.53495779E-04
   11.6047888        -6.58850011E-04
   11.7197886        -6.64204883E-04
   11.8347893        -6.69560221E-04
   11.9497890        -6.74915500E-04
   12.0647888        -6.80270372E-04
   12.1797886        -6.85624429E-04
   12.2947893        -6.90977147E-04
   12.4097891        -6.96327945E-04
   12.5247889        -7.01676297E-04
   12.6397886        -7.07021449E-04
   12.7547894        -7.12362700E-04
   12.8697891        -7.17699237E-04
   12.9847889        -7.23030360E-04
   13.0997887        -7.28355255E-04
   13.2147894        -7.33673223E-04
   13.3297892        -7.38983334E-04
   13.4447889        -7.44285120E-04
   13.5597887        -7.49577710E-04
   13.6747885        -7.54860695E-04
   13.7897892        -7.60133320E-04
   13.9047890        -7.65395234E-04
   14.0197887        -7.70645973E-04
   14.1347885        -7.75884895E-04
   14.2497892        -7.81111652E-04
   14.3647890        -7.86325778E-04
   14.4797888        -7.91526632E-04
   14.5947886        -7.96713692E-04
   14.7097893        -8.01886199E-04
   14.8247890        -8.07043514E-04
   14.9397888        -8.12184880E-04
   15.0547886        -8.17309425E-04
   15.1697893        -8.22416507E-04
   15.2847891        -8.27505311E-04
   15.3997889        -8.32575024E-04
   15.5147886        -8.37625121E-04
   15.6297894        -8.42654845E-04
   15.7447891        -8.47663905E-04
   15.8597889        -8.52651661E-04
   15.9747887        -8.57617939E-04
   16.0897884        -8.62562330E-04
   16.2047882        -8.67484719E-04
   16.3197899        -8.72384757E-04
   16.4347897        -8.77262093E-04
   16.5497894        -8.82116437E-04
   16.6647892        -8.86947440E-04
   16.7797890        -8.91754637E-04
   16.8947887        -8.96537502E-04
   17.0097885        -9.01295338E-04
   17.1247883        -9.06027562E-04
   17.2397881        -9.10733244E-04
   17.3547897        -9.15411743E-04
   17.4697895        -9.20062128E-04
   17.5847893        -9.24683758E-04
   17.6997890        -9.29275877E-04
   17.8147888        -9.33837902E-04
   17.9297886        -9.38369310E-04
   18.0447884        -9.42869636E-04
   18.1597881        -9.47338704E-04
   18.2747898        -9.51776165E-04
   18.3897896        -9.56181902E-04
   18.5047894        -9.60555742E-04
   18.6197891        -9.64897627E-04
   18.7347889        -9.69207380E-04
   18.8497887        -9.73485061E-04
   18.9647884        -9.77730262E-04
   19.0797882        -9.81942751E-04
   19.1947899        -9.86122061E-04
   19.3097897        -9.90267610E-04
   19.4247894        -9.94378934E-04
   19.5397892        -9.98455449E-04
   19.6547890        -1.00249646E-03
   19.7697887        -1.00650126E-03
   19.8847885        -1.01046928E-03
   19.9997883        -1.01439981E-03
   20.1147881        -1.01829250E-03
   20.2297897        -1.02214690E-03
   20.3447895        -1.02596241E-03
   20.4597893        -1.02973916E-03
   20.5747890        -1.03347679E-03
   20.6897888        -1.03717507E-03
   20.8047886        -1.04083412E-03
   20.9197884        -1.04445394E-03
   21.0347881        -1.04803417E-03
   21.1497898        -1.05157506E-03
   21.2647896        -1.05507625E-03
   21.3797894        -1.05853763E-03
   21.4947891        -1.06195896E-03
   21.6097889        -1.06534001E-03
   21.7247887        -1.06868031E-03
   21.8397884        -1.07197952E-03
   21.9547882        -1.07523717E-03
   22.0697899        -1.07845280E-03
   22.1847897        -1.08162605E-03
   22.2997894        -1.08475669E-03
   22.4147892        -1.08784426E-03
   22.5297890        -1.09088852E-03
   22.6447887        -1.09388947E-03
   22.7597885        -1.09684700E-03
   22.8747883        -1.09976076E-03
   22.9897881        -1.10263086E-03
   23.1047897        -1.10545743E-03
   23.2197895        -1.10824010E-03
   23.3347893        -1.11097912E-03
   23.4497890        -1.11367437E-03
   23.5647888        -1.11632585E-03
   23.6797886        -1.11893343E-03
   23.7947884        -1.12149690E-03
   23.9097881        -1.12401613E-03
   24.0247898        -1.12649100E-03
   24.1397896        -1.12892105E-03
   24.2547894        -1.13130617E-03
   24.3697891        -1.13364600E-03
   24.4847889        -1.13594031E-03
   24.5997887        -1.13818899E-03
   24.7147884        -1.14039169E-03
   24.8297882        -1.14254840E-03
   24.9447899        -1.14465877E-03
   25.0597897        -1.14672293E-03
   25.1747894        -1.14874099E-03
   25.2897892        -1.15071249E-03
   25.4047890        -1.15263788E-03
   25.5197887        -1.15451682E-03
   25.6347885        -1.15634967E-03
   25.7497883        -1.15813641E-03
   25.8647881        -1.15987728E-03
   25.9797897        -1.16157217E-03
   26.0947895        -1.16322131E-03
   26.2097893        -1.16482435E-03
   26.3247890        -1.16638176E-03
   26.4397888        -1.16789318E-03
   26.5547886        -1.16935861E-03
   26.6697884        -1.17077806E-03
   26.7847881        -1.17215130E-03
   26.8997898        -1.17347809E-03
   27.0147896        -1.17475830E-03
   27.1297894        -1.17599196E-03
   27.2447891        -1.17717881E-03
   27.3597889        -1.17831875E-03
   27.4747887        -1.17941177E-03
   27.5897884        -1.18045788E-03
   27.7047882        -1.18145742E-03
   27.8197899        -1.18241028E-03
   27.9347897        -1.18331669E-03
   28.0497894        -1.18417712E-03
   28.1647892        -1.18499191E-03
   28.2797890        -1.18576118E-03
   28.3947887        -1.18648552E-03
   28.5097885        -1.18716515E-03
   28.6247883        -1.18780020E-03
   28.7397881        -1.18839124E-03
   28.8547897        -1.18893827E-03
   28.9697895        -1.18944165E-03
   29.0847893        -1.18990149E-03
   29.1997890        -1.19031791E-03
   29.3147888        -1.19069102E-03
   29.4297886        -1.19102106E-03
   29.5447884        -1.19130791E-03
   29.6597881        -1.19155203E-03
   29.7747898        -1.19175354E-03
   29.8897896        -1.19191280E-03
   30.0047894        -1.19203003E-03
   30.1197891        -1.19210570E-03
   30.2347889        -1.19214004E-03
   30.3497887        -1.19213352E-03
   30.4647884        -1.19208661E-03
   30.5797882        -1.19199930E-03
   30.6947899        -1.19187194E-03
   30.8097897        -1.19170488E-03
   30.9247894        -1.19149813E-03
   31.0397892        -1.19125191E-03
   31.1547890        -1.19096611E-03
   31.2697887        -1.19064096E-03
   31.3847885        -1.19027623E-03
   31.4997883        -1.18987227E-03
   31.6147881        -1.18942908E-03
   31.7297897        -1.18894689E-03
   31.8447895        -1.18842605E-03
   31.9597893        -1.18786679E-03
   32.0747871        -1.18726946E-03
   32.1897888        -1.18663500E-03
   32.3047905        -1.18596363E-03
   32.4197884        -1.18525594E-03
   32.5347900        -1.18451286E-03
   32.6497879        -1.18373462E-03
   32.7647896        -1.18292170E-03
   32.8797874        -1.18207501E-03
   32.9947891        -1.18119456E-03
   33.1097908        -1.18028081E-03
   33.2247887        -1.17933401E-03
   33.3397903        -1.17835449E-03
   33.4547882        -1.17734249E-03
   33.5697899        -1.17629813E-03
   33.6847878        -1.17522187E-03
   33.7997894        -1.17411395E-03
   33.9147873        -1.17297482E-03
   34.0297890        -1.17180485E-03
   34.1447906        -1.17060461E-03
   34.2597885        -1.16937491E-03
   34.3747902        -1.16811611E-03
   34.4897881        -1.16682902E-03
   34.6047897        -1.16551435E-03
   34.7197876        -1.16417289E-03
   34.8347893        -1.16280513E-03
   34.9497871        -1.16141164E-03
   35.0647888        -1.15999300E-03
   35.1797905        -1.15854968E-03
   35.2947884        -1.15708192E-03
   35.4097900        -1.15558994E-03
   35.5247879        -1.15407410E-03
   35.6397896        -1.15253450E-03
   35.7547874        -1.15097139E-03
   35.8697891        -1.14938512E-03
   35.9847908        -1.14777603E-03
   36.0997887        -1.14614458E-03
   36.2147903        -1.14449114E-03
   36.3297882        -1.14281650E-03
   36.4447899        -1.14112126E-03
   36.5597878        -1.13940588E-03
   36.6747894        -1.13767141E-03
   36.7897873        -1.13591843E-03
   36.9047890        -1.13414787E-03
   37.0197906        -1.13236008E-03
   37.1347885        -1.13055576E-03
   37.2497902        -1.12873572E-03
   37.3647881        -1.12690032E-03
   37.4797897        -1.12504978E-03
   37.5947876        -1.12318480E-03
   37.7097893        -1.12130528E-03
   37.8247871        -1.11941190E-03
   37.9397888        -1.11750467E-03
   38.0547905        -1.11558393E-03
   38.1697884        -1.11365004E-03
   38.2847900        -1.11170334E-03
   38.3997879        -1.10974431E-03
   38.5147896        -1.10777339E-03
   38.6297874        -1.10579119E-03
   38.7447891        -1.10379863E-03
   38.8597908        -1.10179605E-03
   38.9747887        -1.09978439E-03
   39.0897903        -1.09776435E-03
   39.2047882        -1.09573663E-03
   39.3197899        -1.09370204E-03
   39.4347878        -1.09166105E-03
   39.5497894        -1.08961458E-03
   39.6647873        -1.08756311E-03
   39.7797890        -1.08550710E-03
   39.8947906        -1.08344725E-03
   40.0097885        -1.08138379E-03
   40.1247902        -1.07931718E-03
   40.2397881        -1.07724767E-03
   40.3547897        -1.07517559E-03
   40.4697876        -1.07310107E-03
   40.5847893        -1.07102434E-03
   40.6997871        -1.06894574E-03
   40.8147888        -1.06686528E-03
   40.9297905        -1.06478331E-03
   41.0447884        -1.06270018E-03
   41.1597900        -1.06061623E-03
   41.2747879        -1.05853193E-03
   41.3897896        -1.05644763E-03
   41.5047874        -1.05436391E-03
   41.6197891        -1.05228135E-03
   41.7347908        -1.05020066E-03
   41.8497887        -1.04812242E-03
   41.9647903        -1.04604708E-03
   42.0797882        -1.04397547E-03
   42.1947899        -1.04190793E-03
   42.3097878        -1.03984517E-03
   42.4247894        -1.03778765E-03
   42.5397873        -1.03573559E-03
   42.6547890        -1.03368936E-03
   42.7697906        -1.03164918E-03
   42.8847885        -1.02961517E-03
   42.9997902        -1.02758757E-03
   43.1147881        -1.02556648E-03
   43.2297897        -1.02355215E-03
   43.3447876        -1.02154503E-03
   43.4597893        -1.01954537E-03
   43.5747871        -1.01755373E-03
   43.6897888        -1.01557060E-03
   43.8047905        -1.01359678E-03
   43.9197884        -1.01163296E-03
   44.0347900        -1.00967987E-03
   44.1497879        -1.00773841E-03
   44.2647896        -1.00580906E-03
   44.3797874        -1.00389263E-03
   44.4947891        -1.00198959E-03
   44.6097908        -1.00010028E-03
   44.7247887        -9.98225063E-04
   44.8397903        -9.96363931E-04
   44.9547882        -9.94516886E-04
   45.0697899        -9.92683927E-04
   45.1847878        -9.90864821E-04
   45.2997894        -9.89059452E-04
   45.4147873        -9.87267704E-04
   45.5297890        -9.85489576E-04
   45.6447906        -9.83725186E-04
   45.7597885        -9.81974648E-04
   45.8747902        -9.80238197E-04
   45.9897881        -9.78516415E-04
   46.1047897        -9.76809883E-04
   46.2197876        -9.75119008E-04
   46.3347893        -9.73444607E-04
   46.4497871        -9.71787260E-04
   46.5647888        -9.70147608E-04
   46.6797905        -9.68525943E-04
   46.7947884        -9.66922729E-04
   46.9097900        -9.65338142E-04
   47.0247879        -9.63772298E-04
   47.1397896        -9.62225255E-04
   47.2547874        -9.60696838E-04
   47.3697891        -9.59186873E-04
   47.4847908        -9.57695302E-04
   47.5997887        -9.56221891E-04
   47.7147903        -9.54766641E-04
   47.8297882        -9.53329436E-04
   47.9447899        -9.51910333E-04
   48.0597878        -9.50509508E-04
   48.1747894        -9.49127192E-04
   48.2897873        -9.47763619E-04
   48.4047890        -9.46419139E-04
   48.5197906        -9.45094100E-04
   48.6347885        -9.43788793E-04
   48.7497902        -9.42503626E-04
   48.8647881        -9.41238599E-04
   48.9797897        -9.39994061E-04
   49.0947876        -9.38770070E-04
   49.2097893        -9.37566685E-04
   49.3247871        -9.36383673E-04
   49.4397888        -9.35221033E-04
   49.5547905        -9.34078649E-04
   49.6697884        -9.32956289E-04
   49.7847900        -9.31853894E-04
   49.8997879        -9.30771406E-04
   50.0147896        -9.29708709E-04
   50.1297874        -9.28665977E-04
   50.2447891        -9.27643152E-04
   50.3597908        -9.26640409E-04
   50.4747887        -9.25657863E-04
   50.5897903        -9.24695749E-04
   50.7047882        -9.23754007E-04
   50.8197899        -9.22832929E-04
   50.9347878        -9.21932515E-04
   51.0497894        -9.21052939E-04
   51.1647873        -9.20194085E-04
   51.2797890        -9.19355953E-04
   51.3947906        -9.18538659E-04
   51.5097885        -9.17741971E-04
   51.6247902        -9.16965713E-04
   51.7397881        -9.16209770E-04
   51.8547897        -9.15474142E-04
   51.9697876        -9.14758421E-04
   52.0847893        -9.14062548E-04
   52.1997871        -9.13386291E-04
   52.3147888        -9.12729534E-04
   52.4297905        -9.12092160E-04
   52.5447884        -9.11473879E-04
   52.6597900        -9.10874864E-04
   52.7747879        -9.10294882E-04
   52.8897896        -9.09733819E-04
   53.0047874        -9.09191731E-04
   53.1197891        -9.08668444E-04
   53.2347908        -9.08164075E-04
   53.3497887        -9.07678623E-04
   53.4647903        -9.07212088E-04
   53.5797882        -9.06764413E-04
   53.6947899        -9.06335714E-04
   53.8097878        -9.05925990E-04
   53.9247894        -9.05535126E-04
   54.0397873        -9.05163120E-04
   54.1547890        -9.04809742E-04
   54.2697906        -9.04474931E-04
   54.3847885        -9.04158398E-04
   54.4997902        -9.03859851E-04
   54.6147881        -9.03578941E-04
   54.7297897        -9.03315376E-04
   54.8447876        -9.03068751E-04
   54.9597893        -9.02838947E-04
   55.0747871        -9.02625499E-04
   55.1897888        -9.02428292E-04