  -75.1732025         0.00000000    
  -75.0581970        -1.65370300E-12
  -74.9431992        -3.71930525E-12
  -74.8282013        -3.99437644E-12
  -74.7132034         9.97674979E-14
  -74.5981979         1.07902645E-11
  -74.4832001         2.92418138E-11
  -74.3682022         5.50223235E-11
  -74.2531967         8.58729129E-11
  -74.1381989         1.17848550E-10
  -74.0232010         1.45820286E-10
  -73.9082031         1.64262867E-10
  -73.7931976         1.68196457E-10
  -73.6781998         1.54121882E-10
  -73.5632019         1.20805213E-10
  -73.4481964         6.97936778E-11
  -73.3331985         5.60383380E-12
  -73.2182007        -6.44180542E-11
  -73.1032028        -1.30520567E-10
  -72.9881973        -1.81179863E-10
  -72.8731995        -2.03859443E-10
  -72.7582016        -1.85819096E-10
  -72.6432037        -1.14918353E-10
  -72.5281982         1.96426000E-11
  -72.4132004         2.26683020E-10
  -72.2982025         5.12563936E-10
  -72.1831970         8.80936768E-10
  -72.0681992         1.33277056E-09
  -71.9532013         1.86672278E-09
  -71.8382034         2.47982856E-09
  -71.7231979         3.16845750E-09
  -71.6082001         3.92939992E-09
  -71.4932022         4.76088902E-09
  -71.3781967         5.66338576E-09
  -71.2631989         6.63994770E-09
  -71.1482010         7.69615038E-09
  -71.0332031         8.83960460E-09
  -70.9181976         1.00792477E-08
  -70.8031998         1.14246701E-08
  -70.6882019         1.28857307E-08
  -70.5731964         1.44726346E-08
  -70.4581985         1.61965179E-08
  -70.3432007         1.80704394E-08
  -70.2282028         2.01104502E-08
  -70.1131973         2.23364278E-08
  -69.9981995         2.47722536E-08
  -69.8832016         2.74451466E-08
  -69.7682037         3.03840366E-08
  -69.6531982         3.36171233E-08
  -69.5382004         3.71688849E-08
  -69.4232025         4.10570706E-08
  -69.3081970         4.52900046E-08
  -69.1931992         4.98646529E-08
  -69.0782013         5.47656853E-08
  -68.9632034         5.99657355E-08
  -68.8481979         6.54266827E-08
  -68.7332001         7.11021002E-08
  -68.6182022         7.69406157E-08
  -68.5031967         8.28899829E-08
  -68.3881989         8.89017215E-08
  -68.2732010         9.49360128E-08
  -68.1582031         1.00966489E-07
  -68.0431976         1.06984274E-07
  -67.9281998         1.13000738E-07
  -67.8132019         1.19048465E-07
  -67.6981964         1.25179781E-07
  -67.5831985         1.31462855E-07
  -67.4682007         1.37975476E-07
  -67.3532028         1.44796871E-07
  -67.2381973         1.51998933E-07
  -67.1231995         1.59637409E-07
  -67.0082016         1.67744787E-07
  -66.8932037         1.76325372E-07
  -66.7781982         1.85353557E-07
  -66.6632004         1.94775595E-07
  -66.5482025         2.04514265E-07
  -66.4331970         2.14476373E-07
  -66.3181992         2.24562058E-07
  -66.2032013         2.34674630E-07
  -66.0882034         2.44730188E-07
  -65.9731979         2.54666418E-07
  -65.8582001         2.64448460E-07
  -65.7432022         2.74072590E-07
  -65.6281967         2.83566948E-07
  -65.5131989         2.92988517E-07
  -65.3982010         3.02417277E-07
  -65.2832031         3.11948213E-07
  -65.1681976         3.21680943E-07
  -65.0531998         3.31709145E-07
  -64.9382019         3.42110440E-07
  -64.8231964         3.52937548E-07
  -64.7081985         3.64212980E-07
  -64.5932007         3.75926277E-07
  -64.4782028         3.88035829E-07
  -64.3631973         4.00473766E-07
  -64.2481995         4.13154055E-07
  -64.1332016         4.25983217E-07
  -64.0182037         4.38870870E-07
  -63.9031982         4.51740874E-07
  -63.7882004         4.64539454E-07
  -63.6731987         4.77242054E-07
  -63.5582008         4.89854926E-07
  -63.4431992         5.02414309E-07
  -63.3282013         5.14980911E-07
  -63.2131996         5.27632494E-07
  -63.0982018         5.40453414E-07
  -62.9832001         5.53524671E-07
  -62.8681984         5.66913911E-07
  -62.7532005         5.80667802E-07
  -62.6381989         5.94806977E-07
  -62.5232010         6.09324161E-07
  -62.4081993         6.24186100E-07
  -62.2932014         6.39337998E-07
  -62.1781998         6.54709709E-07
  -62.0632019         6.70223926E-07
  -61.9482002         6.85804082E-07
  -61.8331985         7.01382078E-07
  -61.7182007         7.16903912E-07
  -61.6031990         7.32334001E-07
  -61.4882011         7.47657225E-07
  -61.3731995         7.62877960E-07
  -61.2582016         7.78017181E-07
  -61.1431999         7.93107517E-07
  -61.0281982         8.08186712E-07
  -60.9132004         8.23291032E-07
  -60.7981987         8.38448443E-07
  -60.6832008         8.53674237E-07
  -60.5681992         8.68968300E-07
  -60.4532013         8.84316535E-07
  -60.3381996         8.99693305E-07
  -60.2232018         9.15068370E-07
  -60.1082001         9.30413705E-07
  -59.9931984         9.45711520E-07
  -59.8782005         9.60960051E-07
  -59.7631989         9.76177716E-07
  -59.6482010         9.91402771E-07
  -59.5331993         1.00669104E-06
  -59.4182014         1.02211027E-06
  -59.3031998         1.03773300E-06
  -59.1882019         1.05362778E-06
  -59.0732002         1.06985181E-06
  -58.9581985         1.08644417E-06
  -58.8432007         1.10342194E-06
  -58.7281990         1.12077851E-06
  -58.6132011         1.13848421E-06
  -58.4981995         1.15649061E-06
  -58.3832016         1.17473633E-06
  -58.2681999         1.19315484E-06
  -58.1531982         1.21168341E-06
  -58.0382004         1.23027223E-06
  -57.9231987         1.24889266E-06
  -57.8082008         1.26754264E-06
  -57.6931992         1.28625004E-06
  -57.5782013         1.30507192E-06
  -57.4631996         1.32408923E-06
  -57.3482018         1.34339871E-06
  -57.2332001         1.36310257E-06
  -57.1181984         1.38329574E-06
  -57.0032005         1.40405507E-06
  -56.8881989         1.42542990E-06
  -56.7732010         1.44743615E-06
  -56.6581993         1.47005483E-06
  -56.5432014         1.49323432E-06
  -56.4281998         1.51689699E-06
  -56.3132019         1.54094869E-06
  -56.1982002         1.56529029E-06
  -56.0831985         1.58982868E-06
  -55.9682007         1.61448736E-06
  -55.8531990         1.63921504E-06
  -55.7382011         1.66399116E-06
  -55.6231995         1.68882639E-06
  -55.5082016         1.71376155E-06
  -55.3931999         1.73886235E-06
  -55.2781982         1.76421077E-06
  -55.1632004         1.78989524E-06
  -55.0481987         1.81600217E-06
  -54.9332008         1.84260693E-06
  -54.8181992         1.86976661E-06
  -54.7032013         1.89751825E-06
  -54.5881996         1.92587777E-06
  -54.4732018         1.95484449E-06
  -54.3582001         1.98440512E-06
  -54.2431984         2.01454213E-06
  -54.1282005         2.04524008E-06
  -54.0131989         2.07649214E-06
  -53.8982010         2.10830626E-06
  -53.7831993         2.14070769E-06
  -53.6682014         2.17373736E-06
  -53.5531998         2.20745005E-06
  -53.4382019         2.24190967E-06
  -53.3232002         2.27718033E-06
  -53.2081985         2.31331933E-06
  -53.0932007         2.35036964E-06
  -52.9781990         2.38835219E-06
  -52.8632011         2.42726469E-06
  -52.7481995         2.46707941E-06
  -52.6332016         2.50774769E-06
  -52.5181999         2.54920610E-06
  -52.4031982         2.59138642E-06
  -52.2882004         2.63422612E-06
  -52.1731987         2.67767837E-06
  -52.0582008         2.72171746E-06
  -51.9431992         2.76634546E-06
  -51.8282013         2.81158873E-06
  -51.7131996         2.85749661E-06
  -51.5982018         2.90413004E-06
  -51.4832001         2.95155473E-06
  -51.3681984         2.99982821E-06
  -51.2532005         3.04898981E-06
  -51.1381989         3.09905181E-06
  -51.0232010         3.14999261E-06
  -50.9081993         3.20175695E-06
  -50.7932014         3.25425412E-06
  -50.6781998         3.30736634E-06
  -50.5632019         3.36095786E-06
  -50.4482002         3.41488931E-06
  -50.3331985         3.46902834E-06
  -50.2182007         3.52327106E-06
  -50.1031990         3.57755061E-06
  -49.9882011         3.63184813E-06
  -49.8731995         3.68620158E-06
  -49.7582016         3.74069850E-06
  -49.6431999         3.79547350E-06
  -49.5281982         3.85069325E-06
  -49.4132004         3.90653713E-06
  -49.2981987         3.96318092E-06
  -49.1832008         4.02077967E-06
  -49.0681992         4.07944708E-06
  -48.9532013         4.13925045E-06
  -48.8381996         4.20020069E-06
  -48.7232018         4.26225597E-06
  -48.6082001         4.32532897E-06
  -48.4931984         4.38929692E-06
  -48.3782005         4.45401702E-06
  -48.2631989         4.51934511E-06
  -48.1482010         4.58514842E-06
  -48.0331993         4.65132689E-06
  -47.9182014         4.71782414E-06
  -47.8031998         4.78463471E-06
  -47.6882019         4.85180635E-06
  -47.5732002         4.91944002E-06
  -47.4581985         4.98767622E-06
  -47.3432007         5.05668322E-06
  -47.2281990         5.12664155E-06
  -47.1132011         5.19772402E-06
  -46.9981995         5.27007796E-06
  -46.8832016         5.34381479E-06
  -46.7681999         5.41899954E-06
  -46.6531982         5.49565038E-06
  -46.5382004         5.57373914E-06
  -46.4231987         5.65319760E-06
  -46.3082008         5.73393254E-06
  -46.1931992         5.81583618E-06
  -46.0782013         5.89880119E-06
  -45.9631996         5.98273073E-06
  -45.8482018         6.06755248E-06
  -45.7332001         6.15322415E-06
  -45.6181984         6.23973574E-06
  -45.5032005         6.32710726E-06
  -45.3881989         6.41538418E-06
  -45.2732010         6.50463562E-06
  -45.1581993         6.59493799E-06
  -45.0432014         6.68636585E-06
  -44.9281998         6.77898515E-06
  -44.8132019         6.87284637E-06
  -44.6982002         6.96798315E-06
  -44.5831985         7.06441097E-06
  -44.4682007         7.16212617E-06
  -44.3531990         7.26111966E-06
  -44.2382011         7.36137463E-06
  -44.1231995         7.46288060E-06
  -44.0082016         7.56563531E-06
  -43.8931999         7.66964786E-06
  -43.7781982         7.77494006E-06
  -43.6632004         7.88155194E-06
  -43.5481987         7.98952988E-06
  -43.4332008         8.09892663E-06
  -43.3181992         8.20980040E-06
  -43.2032013         8.32220394E-06
  -43.0881996         8.43617727E-06
  -42.9732018         8.55174858E-06
  -42.8582001         8.66892969E-06
  -42.7431984         8.78771607E-06
  -42.6282005         8.90809861E-06
  -42.5131989         9.03005912E-06
  -42.3982010         9.15358760E-06
  -42.2831993         9.27868587E-06
  -42.1682014         9.40538212E-06
  -42.0531998         9.53372455E-06
  -41.9382019         9.66379230E-06
  -41.8232002         9.79568267E-06
  -41.7081985         9.92950936E-06
  -41.5932007         1.00653879E-05
  -41.4781990         1.02034246E-05
  -41.3632011         1.03437051E-05
  -41.2481995         1.04862847E-05
  -41.1332016         1.06311836E-05
  -41.0181999         1.07783826E-05
  -40.9031982         1.09278226E-05
  -40.7882004         1.10794099E-05
  -40.6731987         1.12330290E-05
  -40.5582008         1.13885444E-05
  -40.4431992         1.15458251E-05
  -40.3282013         1.17047475E-05
  -40.2131996         1.18652097E-05
  -40.0982018         1.20271534E-05
  -39.9832001         1.21905541E-05
  -39.8681984         1.23554410E-05
  -39.7532005         1.25218776E-05
  -39.6381989         1.26899640E-05
  -39.5232010         1.28598231E-05
  -39.4081993         1.30315811E-05
  -39.2932014         1.32053519E-05
  -39.1781998         1.33812273E-05
  -39.0632019         1.35592582E-05
  -38.9482002         1.37394627E-05
  -38.8331985         1.39218091E-05
  -38.7182007         1.41062346E-05
  -38.6031990         1.42926519E-05
  -38.4882011         1.44809637E-05
  -38.3731995         1.46710663E-05
  -38.2582016         1.48628751E-05
  -38.1431999         1.50563210E-05
  -38.0281982         1.52513767E-05
  -37.9132004         1.54480404E-05
  -37.7981987         1.56463557E-05
  -37.6832008         1.58463881E-05
  -37.5681992         1.60482414E-05
  -37.4532013         1.62520228E-05
  -37.3381996         1.64578523E-05
  -37.2232018         1.66658483E-05
  -37.1082001         1.68761035E-05
  -36.9931984         1.70886942E-05
  -36.8782005         1.73036788E-05
  -36.7631989         1.75210862E-05
  -36.6482010         1.77409274E-05
  -36.5331993         1.79632025E-05
  -36.4182014         1.81879168E-05
  -36.3031998         1.84150704E-05
  -36.1882019         1.86446869E-05
  -36.0732002         1.88767935E-05
  -35.9581985         1.91114468E-05
  -35.8432007         1.93487067E-05
  -35.7281990         1.95886514E-05
  -35.6132011         1.98313537E-05
  -35.4981995         2.00768809E-05
  -35.3832016         2.03252857E-05
  -35.2681999         2.05765846E-05
  -35.1531982         2.08307683E-05
  -35.0382004         2.10877915E-05
  -34.9231987         2.13475741E-05
  -34.8082008         2.16100016E-05
  -34.6931992         2.18749519E-05
  -34.5782013         2.21422961E-05
  -34.4631996         2.24119121E-05
  -34.3482018         2.26836946E-05
  -34.2332001         2.29575817E-05
  -34.1181984         2.32335333E-05
  -34.0032005         2.35115585E-05
  -33.8881989         2.37916865E-05
  -33.7732010         2.40739864E-05
  -33.6581993         2.43585382E-05
  -33.5432014         2.46454219E-05
  -33.4281998         2.49347195E-05
  -33.3132019         2.52264872E-05
  -33.1982002         2.55207724E-05
  -33.0831985         2.58175824E-05
  -32.9682007         2.61169007E-05
  -32.8531990         2.64186765E-05
  -32.7382011         2.67228406E-05
  -32.6231995         2.70293185E-05
  -32.5082016         2.73380356E-05
  -32.3931999         2.76489172E-05
  -32.2781982         2.79619380E-05
  -32.1632004         2.82771089E-05
  -32.0481987         2.85944807E-05
  -31.9332008         2.89141717E-05
  -31.8181992         2.92363311E-05
  -31.7031994         2.95611499E-05
  -31.5881996         2.98888408E-05
  -31.4731998         3.02196149E-05
  -31.3582001         3.05536778E-05
  -31.2432003         3.08912095E-05
  -31.1282005         3.12323536E-05
  -31.0132008         3.15772159E-05
  -30.8981991         3.19258470E-05
  -30.7831993         3.22782580E-05
  -30.6681995         3.26344343E-05
  -30.5531998         3.29943177E-05
  -30.4382000         3.33578246E-05
  -30.3232002         3.37248603E-05
  -30.2082005         3.40953411E-05
  -30.0932007         3.44691907E-05
  -29.9782009         3.48463363E-05
  -29.8631992         3.52267598E-05
  -29.7481995         3.56104538E-05
  -29.6331997         3.59974401E-05
  -29.5181999         3.63877916E-05
  -29.4032001         3.67815628E-05
  -29.2882004         3.71788374E-05
  -29.1732006         3.75797063E-05
  -29.0582008         3.79842459E-05
  -28.9431992         3.83925180E-05
  -28.8281994         3.88045555E-05
  -28.7131996         3.92203910E-05
  -28.5981998         3.96400283E-05
  -28.4832001         4.00634563E-05
  -28.3682003         4.04906496E-05
  -28.2532005         4.09215681E-05
  -28.1382008         4.13561756E-05
  -28.0231991         4.17944102E-05
  -27.9081993         4.22362173E-05
  -27.7931995         4.26815568E-05
  -27.6781998         4.31303488E-05
  -27.5632000         4.35825496E-05
  -27.4482002         4.40380973E-05
  -27.3332005         4.44969482E-05
  -27.2182007         4.49590480E-05
  -27.1032009         4.54243709E-05
  -26.9881992         4.58928771E-05
  -26.8731995         4.63645592E-05
  -26.7581997         4.68394246E-05
  -26.6431999         4.73174914E-05
  -26.5282001         4.77988069E-05
  -26.4132004         4.82834294E-05
  -26.2982006         4.87714569E-05
  -26.1832008         4.92629806E-05
  -26.0681992         4.97581132E-05
  -25.9531994         5.02569492E-05
  -25.8381996         5.07596087E-05
  -25.7231998         5.12661718E-05
  -25.6082001         5.17766930E-05
  -25.4932003         5.22912269E-05
  -25.3782005         5.28097844E-05
  -25.2632008         5.33323619E-05
  -25.1481991         5.38589047E-05
  -25.0331993         5.43893475E-05
  -24.9181995         5.49236356E-05
  -24.8031998         5.54616781E-05
  -24.6882000         5.60034241E-05
  -24.5732002         5.65488299E-05
  -24.4582005         5.70978737E-05
  -24.3432007         5.76505845E-05
  -24.2282009         5.82070134E-05
  -24.1131992         5.87672439E-05
  -23.9981995         5.93313889E-05
  -23.8831997         5.98995757E-05
  -23.7681999         6.04719280E-05
  -23.6532001         6.10485513E-05
  -23.5382004         6.16295511E-05
  -23.4232006         6.22149309E-05
  -23.3082008         6.28047492E-05
  -23.1931992         6.33989475E-05
  -23.0781994         6.39974751E-05
  -22.9631996         6.46002445E-05
  -22.8481998         6.52071321E-05
  -22.7332001         6.58180070E-05
  -22.6182003         6.64327235E-05
  -22.5032005         6.70511945E-05
  -22.3882008         6.76733107E-05
  -22.2731991         6.82990139E-05
  -22.1581993         6.89282897E-05
  -22.0431995         6.95611598E-05
  -21.9281998         7.01977115E-05
  -21.8132000         7.08380321E-05
  -21.6982002         7.14822527E-05
  -21.5832005         7.21304968E-05
  -21.4682007         7.27829101E-05
  -21.3532009         7.34396017E-05
  -21.2381992         7.41006661E-05
  -21.1231995         7.47661470E-05
  -21.0081997         7.54360954E-05
  -20.8931999         7.61104820E-05
  -20.7782001         7.67892852E-05
  -20.6632004         7.74724685E-05
  -20.5482006         7.81599811E-05
  -20.4332008         7.88517427E-05
  -20.3181992         7.95477099E-05
  -20.2031994         8.02478316E-05
  -20.0881996         8.09520934E-05
  -19.9731998         8.16604734E-05
  -19.8582001         8.23729570E-05
  -19.7432003         8.30895733E-05
  -19.6282005         8.38103660E-05
  -19.5132008         8.45353643E-05
  -19.3981991         8.52646117E-05
  -19.2831993         8.59981665E-05
  -19.1681995         8.67360795E-05
  -19.0531998         8.74783873E-05
  -18.9382000         8.82251406E-05
  -18.8232002         8.89763687E-05
  -18.7082005         8.97321515E-05
  -18.5932007         9.04925037E-05
  -18.4782009         9.12574760E-05
  -18.3631992         9.20271268E-05
  -18.2481995         9.28014924E-05
  -18.1331997         9.35806311E-05
  -18.0181999         9.43645791E-05
  -17.9032001         9.51533802E-05
  -17.7882004         9.59470417E-05
  -17.6732006         9.67455708E-05
  -17.5582008         9.75489238E-05
  -17.4431992         9.83570499E-05
  -17.3281994         9.91698689E-05
  -17.2131996         9.99872791E-05
  -17.0981998         1.00809142E-04
  -16.9832001         1.01635334E-04
  -16.8682003         1.02465725E-04
  -16.7532005         1.03300175E-04
  -16.6382008         1.04138591E-04
  -16.5231991         1.04980849E-04
  -16.4081993         1.05826912E-04
  -16.2931995         1.06676744E-04
  -16.1781998         1.07530330E-04
  -16.0632000         1.08387656E-04
  -15.9482002         1.09248766E-04
  -15.8332005         1.10113637E-04
  -15.7181997         1.10982350E-04
  -15.6032000         1.11854933E-04
  -15.4882002         1.12731417E-04
  -15.3732004         1.13611793E-04
  -15.2581997         1.14496113E-04
  -15.1431999         1.15384340E-04
  -15.0282001         1.16276482E-04
  -14.9132004         1.17172494E-04
  -14.7981997         1.18072392E-04
  -14.6831999         1.18976139E-04
  -14.5682001         1.19883698E-04
  -14.4532003         1.20795128E-04
  -14.3381996         1.21710400E-04
  -14.2231998         1.22629586E-04
  -14.1082001         1.23552745E-04
  -13.9932003         1.24479964E-04
  -13.8781996         1.25411330E-04
  -13.7631998         1.26346931E-04
  -13.6482000         1.27286869E-04
  -13.5332003         1.28231186E-04
  -13.4181995         1.29179942E-04
  -13.3031998         1.30133194E-04
  -13.1882000         1.31090943E-04
  -13.0732002         1.32053159E-04
  -12.9582005         1.33019843E-04
  -12.8431997         1.33990950E-04
  -12.7282000         1.34966453E-04
  -12.6132002         1.35946306E-04
  -12.4982004         1.36930408E-04
  -12.3831997         1.37918672E-04
  -12.2681999         1.38911084E-04
  -12.1532001         1.39907512E-04
  -12.0382004         1.40907898E-04
  -11.9231997         1.41912096E-04
  -11.8081999         1.42920064E-04
  -11.6932001         1.43931728E-04
  -11.5782003         1.44947029E-04
  -11.4631996         1.45965867E-04
  -11.3481998         1.46988197E-04
  -11.2332001         1.48013933E-04
  -11.1182003         1.49043117E-04
  -11.0031996         1.50075648E-04
  -10.8881998         1.51111526E-04
  -10.7732000         1.52150751E-04
  -10.6582003         1.53193338E-04
  -10.5431995         1.54239271E-04
  -10.4281998         1.55288595E-04
  -10.3132000         1.56341281E-04
  -10.1982002         1.57397357E-04
  -10.0832005         1.58456809E-04
  -9.96819973         1.59519564E-04
  -9.85319996         1.60585550E-04
  -9.73820019         1.61654680E-04
  -9.62320042         1.62726763E-04
  -9.50819969         1.63801669E-04
  -9.39319992         1.64879239E-04
  -9.27820015         1.65959311E-04
  -9.16320038         1.67041726E-04
  -9.04819965         1.68126411E-04
  -8.93319988         1.69213221E-04
  -8.81820011         1.70302097E-04
  -8.70320034         1.71393127E-04
  -8.58819962         1.72486325E-04
  -8.47319984         1.73581822E-04
  -8.35820007         1.74679721E-04
  -8.24320030         1.75780195E-04
  -8.12819958         1.76883463E-04
  -8.01319981         1.77989670E-04
  -7.89820004         1.79098992E-04
  -7.78319979         1.80211558E-04
  -7.66820002         1.81327501E-04
  -7.55320024         1.82446820E-04
  -7.43820000         1.83569558E-04
  -7.32320023         1.84695600E-04
  -7.20819998         1.85824858E-04
  -7.09320021         1.86957244E-04
  -6.97819996         1.88092614E-04
  -6.86320019         1.89230777E-04
  -6.74819994         1.90371575E-04
  -6.63320017         1.91514933E-04
  -6.51819992         1.92660795E-04
  -6.40320015         1.93809072E-04
  -6.28819990         1.94959794E-04
  -6.17320013         1.96112975E-04
  -6.05819988         1.97268761E-04
  -5.94320011         1.98427180E-04
  -5.82819986         1.99588336E-04
  -5.71320009         2.00752314E-04
  -5.59819984         2.01919174E-04
  -5.48320007         2.03088974E-04
  -5.36819983         2.04261742E-04
  -5.25320005         2.05437347E-04
  -5.13819981         2.06615834E-04
  -5.02320004         2.07797129E-04
  -4.90819979         2.08981102E-04
  -4.79320002         2.10167651E-04
  -4.67820024         2.11356702E-04
  -4.56320000         2.12548068E-04
  -4.44820023         2.13741674E-04
  -4.33319998         2.14937420E-04
  -4.21820021         2.16135275E-04
  -4.10319996         2.17335139E-04
  -3.98819995         2.18536996E-04
  -3.87319994         2.19740803E-04
  -3.75819993         2.20946618E-04
  -3.64319992         2.22154442E-04
  -3.52819991         2.23364274E-04
  -3.41319990         2.24576084E-04
  -3.29820013         2.25789860E-04
  -3.18320012         2.27005556E-04
  -3.06820011         2.28223158E-04
  -2.95320010         2.29442594E-04
  -2.83820009         2.30663689E-04
  -2.72320008         2.31886443E-04
  -2.60820007         2.33110710E-04
  -2.49320006         2.34336476E-04
  -2.37820005         2.35563508E-04
  -2.26320004         2.36791777E-04
  -2.14820004         2.38021094E-04
  -2.03320003         2.39251429E-04
  -1.91820002         2.40482565E-04
  -1.80320001         2.41714442E-04
  -1.68820000         2.42947019E-04
  -1.57319999         2.44180235E-04
  -1.45819998         2.45413918E-04
  -1.34319997         2.46648066E-04
  -1.22819996         2.47882708E-04
  -1.11320007         2.49117846E-04
 -0.998199999         2.50353507E-04
 -0.883199990         2.51589692E-04
 -0.768200040         2.52826634E-04
 -0.653200030         2.54064333E-04
 -0.538200021         2.55302875E-04
 -0.423200011         2.56542407E-04
 -0.308200002         2.57783104E-04
 -0.193200007         2.59024964E-04
  -7.82000124E-02     2.60268105E-04
   3.67999896E-02     2.61512498E-04
  0.151799992         2.62758054E-04
  0.266799986         2.64004688E-04
  0.381799996         2.65252282E-04
  0.496799976         2.66500603E-04
  0.611800015         2.67749507E-04
  0.726799965         2.68998818E-04
  0.841799974         2.70248216E-04
  0.956799984         2.71497614E-04
   1.07179999         2.72746838E-04
   1.18680000         2.73995684E-04
   1.30180001         2.75244180E-04
   1.41680002         2.76492181E-04
   1.53180003         2.77739775E-04
   1.64680004         2.78986903E-04
   1.76179993         2.80233682E-04
   1.87679994         2.81480141E-04
   1.99179995         2.82726367E-04
   2.10680008         2.83972418E-04
   2.22180009         2.85218295E-04
   2.33680010         2.86463997E-04
   2.45179987         2.87709554E-04
   2.56679988         2.88954849E-04
   2.68179989         2.90199852E-04
   2.79679990         2.91444507E-04
   2.91179991         2.92688783E-04
   3.02679992         2.93932535E-04
   3.14179993         2.95175705E-04
   3.25679994         2.96418235E-04
   3.37179995         2.97660095E-04
   3.48679996         2.98901257E-04
   3.60179996         3.00141779E-04
   3.71679997         3.01381631E-04
   3.83179998         3.02620843E-04
   3.94679999         3.03859386E-04
   4.06180000         3.05097346E-04
   4.17679977         3.06334696E-04
   4.29180002         3.07571434E-04
   4.40679979         3.08807503E-04
   4.52180004         3.10042815E-04
   4.63679981         3.11277312E-04
   4.75180006         3.12510965E-04
   4.86679983         3.13743600E-04
   4.98180008         3.14975216E-04
   5.09679985         3.16205726E-04
   5.21180010         3.17435130E-04
   5.32679987         3.18663369E-04
   5.44180012         3.19890416E-04
   5.55679989         3.21116211E-04
   5.67180014         3.22340755E-04
   5.78679991         3.23564076E-04
   5.90180016         3.24786088E-04
   6.01679993         3.26006790E-04
   6.13180017         3.27226036E-04
   6.24679995         3.28443828E-04
   6.36180019         3.29660019E-04
   6.47679996         3.30874551E-04
   6.59180021         3.32087307E-04
   6.70679998         3.33298114E-04
   6.82179976         3.34506884E-04
   6.93680000         3.35713441E-04
   7.05179977         3.36917670E-04
   7.16680002         3.38119688E-04
   7.28179979         3.39319289E-04
   7.39680004         3.40516621E-04
   7.51179981         3.41711595E-04
   7.62680006         3.42904299E-04
   7.74179983         3.44094675E-04
   7.85680008         3.45282839E-04
   7.97179985         3.46468703E-04
   8.08679962         3.47652240E-04
   8.20180035         3.48833448E-04
   8.31680012         3.50012124E-04
   8.43179989         3.51188268E-04
   8.54679966         3.52361763E-04
   8.66180038         3.53532436E-04
   8.77680016         3.54700169E-04
   8.89179993         3.55864962E-04
   9.00679970         3.57026613E-04
   9.12180042         3.58185207E-04
   9.23680019         3.59340745E-04
   9.35179996         3.60493315E-04
   9.46679974         3.61643033E-04
   9.58180046         3.62790044E-04
   9.69680023         3.63934552E-04
   9.81180000         3.65076645E-04
   9.92679977         3.66216671E-04
   10.0417995         3.67354689E-04
   10.1568003         3.68490902E-04
   10.2718000         3.69625312E-04
   10.3867998         3.70758004E-04
   10.5017996         3.71888862E-04
   10.6168003         3.73017829E-04
   10.7318001         3.74144845E-04
   10.8467999         3.75269767E-04
   10.9617996         3.76392272E-04
   11.0768003         3.77512246E-04
   11.1918001         3.78629484E-04
   11.3067999         3.79743811E-04
   11.4217997         3.80855141E-04
   11.5368004         3.81963328E-04
   11.6518002         3.83068196E-04
   11.7667999         3.84169689E-04
   11.8817997         3.85267864E-04
   11.9968004         3.86362546E-04
   12.1118002         3.87453911E-04
   12.2268000         3.88542016E-04
   12.3417997         3.89626599E-04
   12.4568005         3.90707777E-04
   12.5718002         3.91785637E-04
   12.6868000         3.92859918E-04
   12.8017998         3.93930939E-04
   12.9167995         3.94998526E-04
   13.0318003         3.96062736E-04
   13.1468000         3.97123542E-04
   13.2617998         3.98180942E-04
   13.3767996         3.99234938E-04
   13.4918003         4.00285353E-04
   13.6068001         4.01332072E-04
   13.7217999         4.02375124E-04
   13.8367996         4.03414393E-04
   13.9518003         4.04449704E-04
   14.0668001         4.05481056E-04
   14.1817999         4.06508101E-04
   14.2967997         4.07530810E-04
   14.4118004         4.08549036E-04
   14.5268002         4.09562635E-04
   14.6417999         4.10571636E-04
   14.7567997         4.11575893E-04
   14.8718004         4.12575435E-04
   14.9868002         4.13570378E-04
   15.1018000         4.14560724E-04
   15.2167997         4.15546616E-04
   15.3318005         4.16528201E-04
   15.4468002         4.17505769E-04
   15.5618000         4.18479089E-04
   15.6767998         4.19448508E-04
   15.7917995         4.20414028E-04
   15.9068003         4.21375706E-04
   16.0217991         4.22333309E-04
   16.1368008         4.23286983E-04
   16.2518005         4.24236525E-04
   16.3668003         4.25182021E-04
   16.4818001         4.26123122E-04
   16.5967999         4.27059917E-04
   16.7117996         4.27992287E-04
   16.8267994         4.28920292E-04
   16.9417992         4.29843931E-04
   17.0568008         4.30763263E-04
   17.1718006         4.31678491E-04
   17.2868004         4.32589673E-04
   17.4018002         4.33497102E-04
   17.5167999         4.34401009E-04
   17.6317997         4.35301510E-04
   17.7467995         4.36198869E-04
   17.8617992         4.37093142E-04