  -75.1732025       0.00000000    
  -75.0581970      -3.51765318E-11
  -74.9431992      -9.33346386E-11
  -74.8282013      -1.53393853E-10
  -74.7132034      -1.92422800E-10
  -74.5981979      -1.93576905E-10
  -74.4832001      -1.52474089E-10
  -74.3682022      -7.99372374E-11
  -74.2531967      -4.32523348E-14
  -74.1381989       5.62260551E-11
  -74.0232010       6.01173625E-11
  -73.9082031      -5.49155556E-12
  -73.7931976      -1.39149844E-10
  -73.6781998      -3.18519655E-10
  -73.5632019      -5.03648012E-10
  -73.4481964      -6.45246523E-10
  -73.3331985      -6.95967450E-10
  -73.2182007      -6.21729723E-10
  -73.1032028      -4.10024958E-10
  -72.9881973      -7.28603011E-11
  -72.8731995       3.56592811E-10
  -72.7582016       8.32843461E-10
  -72.6432037       1.31008338E-09
  -72.5281982       1.75407511E-09
  -72.4132004       2.15065876E-09
  -72.2982025       2.50852961E-09
  -72.1831970       2.85554558E-09
  -72.0681992       3.22968430E-09
  -71.9532013       3.66735442E-09
  -71.8382034       4.19246948E-09
  -71.7231979       4.80956119E-09
  -71.6082001       5.50294788E-09
  -71.4932022       6.24216367E-09
  -71.3781967       6.99195457E-09
  -71.2631989       7.72374431E-09
  -71.1482010       8.42496028E-09
  -71.0332031       9.10330833E-09
  -70.9181976       9.78452963E-09
  -70.8031998       1.05042526E-08
  -70.6882019       1.12965202E-08
  -70.5731964       1.21825225E-08
  -70.4581985       1.31631612E-08
  -70.3432007       1.42180969E-08
  -70.2282028       1.53116009E-08
  -70.1131973       1.64038951E-08
  -69.9981995       1.74643269E-08
  -69.8832016       1.84824493E-08
  -69.7682037       1.94733811E-08
  -69.6531982       2.04754631E-08
  -69.5382004       2.15406253E-08
  -69.4232025       2.27200889E-08
  -69.3081970       2.40494842E-08
  -69.1931992       2.55378314E-08
  -69.0782013       2.71637930E-08
  -68.9632034       2.88803150E-08
  -68.8481979       3.06267403E-08
  -68.7332001       3.23446052E-08
  -68.6182022       3.39927304E-08
  -68.5031967       3.55571963E-08
  -68.3881989       3.70533151E-08
  -68.2732010       3.85188876E-08
  -68.1582031       4.00011970E-08
  -68.0431976       4.15413162E-08
  -67.9281998       4.31606182E-08
  -67.8132019       4.48536142E-08
  -67.6981964       4.65889407E-08
  -67.5831985       4.83184692E-08
  -67.4682007       4.99913213E-08
  -67.3532028       5.15686658E-08
  -67.2381973       5.30345936E-08
  -67.1231995       5.43997984E-08
  -67.0082016       5.56967130E-08
  -66.8932037       5.69680729E-08
  -66.7781982       5.82519313E-08
  -66.6632004       5.95683964E-08
  -66.5482025       6.09122210E-08
  -66.4331970       6.22535907E-08
  -66.3181992       6.35473967E-08
  -66.2032013       6.47478302E-08
  -66.0882034       6.58244446E-08
  -65.9731979       6.67738362E-08
  -65.8582001       6.76236454E-08
  -65.7432022       6.84268642E-08
  -65.6281967       6.92477613E-08
  -65.5131989       7.01437486E-08
  -65.3982010       7.11482571E-08
  -65.2832031       7.22598088E-08
  -65.1681976       7.34410506E-08
  -65.0531998       7.46282041E-08
  -64.9382019       7.57484955E-08
  -64.8231964       7.67401005E-08
  -64.7081985       7.75692470E-08
  -64.5932007       7.82390543E-08
  -64.4782028       7.87874725E-08
  -64.3631973       7.92746491E-08
  -64.2481995       7.97643054E-08
  -64.1332016       8.03041615E-08
  -64.0182037       8.09118674E-08
  -63.9031982       8.15705903E-08
  -63.7882004       8.22354664E-08
  -63.6731987       8.28489846E-08
  -63.5582008       8.33601703E-08
  -63.4431992       8.37406731E-08
  -63.3282013       8.39933421E-08
  -63.2131996       8.41497751E-08
  -63.0982018       8.42574792E-08
  -62.9832001       8.43611616E-08
  -62.8681984       8.44837516E-08
  -62.7532005       8.46144204E-08
  -62.6381989       8.47071249E-08
  -62.5232010       8.46906048E-08
  -62.4081993       8.44880432E-08
  -62.2932014       8.40390939E-08
  -62.1781998       8.33181062E-08
  -62.0632019       8.23424102E-08
  -61.9482002       8.11674710E-08
  -61.8331985       7.98708086E-08
  -61.7182007       7.85287497E-08
  -61.6031990       7.71936328E-08
  -61.4882011       7.58784395E-08
  -61.3731995       7.45539097E-08
  -61.2582016       7.31588941E-08
  -61.1431999       7.16207822E-08
  -61.0281982       6.98799738E-08
  -60.9132004       6.79107899E-08
  -60.7981987       6.57313848E-08
  -60.6832008       6.34015720E-08
  -60.5681992       6.10070572E-08
  -60.4532013       5.86364735E-08
  -60.3381996       5.63583278E-08
  -60.2232018       5.42042677E-08
  -60.1082001       5.21642889E-08
  -59.9931984       5.01951796E-08
  -59.8782005       4.82384941E-08
  -59.7631989       4.62427714E-08
  -59.6482010       4.41823538E-08
  -59.5331993       4.20672173E-08
  -59.4182014       3.99394011E-08
  -59.3031998       3.78587650E-08
  -59.1882019       3.58813814E-08
  -59.0732002       3.40390613E-08
  -58.9581985       3.23254419E-08
  -58.8432007       3.06946468E-08
  -58.7281990       2.90725790E-08
  -58.6132011       2.73788174E-08
  -58.4981995       2.55511807E-08
  -58.3832016       2.35661552E-08
  -58.2681999       2.14486580E-08
  -58.1531982       1.92676666E-08
  -58.0382004       1.71181203E-08
  -57.9231987       1.50950505E-08
  -57.8082008       1.32668880E-08
  -57.6931992       1.16564358E-08
  -57.5782013       1.02347979E-08
  -57.4631996       8.93169005E-09
  -57.3482018       7.65705899E-09
  -57.2332001       6.32934061E-09
  -57.1181984       4.90122698E-09
  -57.0032005       3.37529338E-09
  -56.8881989       1.80441995E-09
  -56.7732010       2.76647344E-10
  -56.6581993      -1.10947607E-09
  -56.5432014      -2.27425700E-09
  -56.4281998      -3.17836379E-09
  -56.3132019      -3.83241394E-09
  -56.1982002      -4.29146052E-09
  -56.0831985      -4.63437777E-09
  -55.9682007      -4.93667818E-09
  -55.8531990      -5.24544053E-09
  -55.7382011      -5.56366686E-09
  -55.6231995      -5.84995918E-09
  -55.5082016      -6.03428241E-09
  -55.3931999      -6.04448580E-09
  -55.2781982      -5.83471493E-09
  -55.1632004      -5.40640865E-09
  -55.0481987      -4.81497375E-09
  -54.9332008      -4.15859391E-09
  -54.8181992      -3.55098817E-09
  -54.7032013      -3.08875081E-09
  -54.5881996      -2.82057977E-09
  -54.4732018      -2.73008660E-09
  -54.3582001      -2.73771295E-09
  -54.2431984      -2.72195533E-09
  -54.1282005      -2.55403432E-09
  -54.0131989      -2.13459850E-09
  -53.8982010      -1.42397050E-09
  -53.7831993      -4.53606680E-10
  -53.6682014       6.83272716E-10
  -53.5531998       1.85840221E-09
  -53.4382019       2.94605984E-09
  -53.3232002       3.85772259E-09
  -53.2081985       4.56528504E-09
  -53.0932007       5.10379694E-09
  -52.9781990       5.55530422E-09
  -52.8632011       6.01714234E-09
  -52.7481995       6.56737553E-09
  -52.6332016       7.23741511E-09
  -52.5181999       7.99993050E-09
  -52.4031982       8.77941719E-09
  -52.2882004       9.47677936E-09
  -52.1731987       1.00049391E-08
  -52.0582008       1.03205444E-08
  -51.9431992       1.04412878E-08
  -51.8282013       1.04454907E-08
  -51.7131996       1.04503011E-08
  -51.5982018       1.05774358E-08
  -51.4832001       1.09143814E-08
  -51.3681984       1.14876082E-08
  -51.2532005       1.22506378E-08
  -51.1381989       1.30956028E-08
  -51.0232010       1.38830485E-08
  -50.9081993       1.44787400E-08
  -50.7932014       1.47925716E-08
  -50.6781998       1.48010448E-08
  -50.5632019       1.45502259E-08
  -50.4482002       1.41377292E-08
  -50.3331985       1.36793110E-08
  -50.2182007       1.32698013E-08
  -50.1031990       1.29504230E-08
  -49.9882011       1.26933717E-08
  -49.8731995       1.24084973E-08
  -49.7582016       1.19676118E-08
  -49.6431999       1.12423635E-08
  -49.5281982       1.01413518E-08
  -49.4132004       8.63806182E-09
  -49.2981987       6.77774503E-09
  -49.1832008       4.66531613E-09
  -49.0681992       2.43514631E-09
  -48.9532013       2.12677861E-10
  -48.8381996      -1.91771110E-09
  -48.7232018      -3.93113009E-09
  -48.6082001      -5.86297499E-09
  -48.4931984      -7.78521780E-09
  -48.3782005      -9.77467529E-09
  -48.2631989      -1.18753665E-08
  -48.1482010      -1.40750247E-08
  -48.0331993      -1.62950968E-08
  -47.9182014      -1.84090219E-08
  -47.8031998      -2.02726529E-08
  -47.6882019      -2.17648140E-08
  -47.5732002      -2.28269101E-08
  -47.4581985      -2.34803395E-08
  -47.3432007      -2.38270363E-08
  -47.2281990      -2.40205207E-08
  -47.1132011      -2.42252867E-08
  -46.9981995      -2.45734846E-08
  -46.8832016      -2.51233434E-08
  -46.7681999      -2.58499551E-08
  -46.6531982      -2.66506905E-08
  -46.5382004      -2.73805689E-08
  -46.4231987      -2.78988406E-08
  -46.3082008      -2.81078218E-08
  -46.1931992      -2.79852888E-08
  -46.0782013      -2.75881007E-08
  -45.9631996      -2.70342113E-08
  -45.8482018      -2.64651518E-08
  -45.7332001      -2.60023860E-08
  -45.6181984      -2.57140940E-08
  -45.5032005      -2.55965276E-08
  -45.3881989      -2.55852086E-08
  -45.2732010      -2.55826720E-08
  -45.1581993      -2.55019383E-08
  -45.0432014      -2.53017802E-08
  -44.9281998      -2.50084327E-08
  -44.8132019      -2.47162113E-08
  -44.6982002      -2.45599505E-08
  -44.5831985      -2.46754635E-08
  -44.4682007      -2.51537671E-08
  -44.3531990      -2.60099480E-08
  -44.2382011      -2.71729110E-08
  -44.1231995      -2.84975812E-08
  -44.0082016      -2.98078859E-08
  -43.8931999      -3.09390948E-08
  -43.7781982      -3.17836353E-08
  -43.6632004      -3.23189511E-08
  -43.5481987      -3.26100924E-08
  -43.4332008      -3.27858309E-08
  -43.3181992      -3.29982406E-08
  -43.2032013      -3.33770593E-08
  -43.0881996      -3.39936257E-08
  -42.9732018      -3.48427136E-08
  -42.8582001      -3.58514356E-08
  -42.7431984      -3.69073980E-08
  -42.6282005      -3.78958802E-08
  -42.5131989      -3.87412484E-08
  -42.3982010      -3.94290893E-08
  -42.2831993      -4.00099260E-08
  -42.1682014      -4.05796534E-08
  -42.0531998      -4.12475210E-08
  -41.9382019      -4.20975645E-08
  -41.8232002      -4.31602203E-08
  -41.7081985      -4.43985009E-08
  -41.5932007      -4.57178686E-08
  -41.4781990      -4.69935664E-08
  -41.3632011      -4.81092783E-08
  -41.2481995      -4.89931367E-08
  -41.1332016      -4.96418373E-08
  -41.0181999      -5.01260473E-08
  -40.9031982      -5.05695823E-08
  -40.7882004      -5.11206117E-08
  -40.6731987      -5.19055483E-08
  -40.5582008      -5.30062501E-08
  -40.4431992      -5.44399086E-08
  -40.3282013      -5.61588216E-08
  -40.2131996      -5.80799124E-08
  -40.0982018      -6.01178556E-08
  -39.9832001      -6.22255314E-08
  -39.8681984      -6.44160636E-08
  -39.7532005      -6.67711006E-08
  -39.6381989      -6.94232369E-08
  -39.5232010      -7.25223330E-08
  -39.4081993      -7.61958461E-08
  -39.2932014      -8.05077178E-08
  -39.1781998      -8.54388773E-08
  -39.0632019      -9.08884914E-08
  -38.9482002      -9.66958567E-08
  -38.8331985      -1.02683501E-07
  -38.7182007      -1.08694344E-07
  -38.6031990      -1.14626957E-07
  -38.4882011      -1.20453009E-07
  -38.3731995      -1.26204554E-07
  -38.2582016      -1.31952589E-07
  -38.1431999      -1.37766833E-07
  -38.0281982      -1.43689888E-07
  -37.9132004      -1.49712193E-07
  -37.7981987      -1.55780683E-07
  -37.6832008      -1.61816502E-07
  -37.5681992      -1.67758643E-07
  -37.4532013      -1.73596376E-07
  -37.3381996      -1.79397361E-07
  -37.2232018      -1.85306888E-07
  -37.1082001      -1.91523284E-07
  -36.9931984      -1.98265695E-07
  -36.8782005      -2.05714912E-07
  -36.7631989      -2.13975639E-07
  -36.6482010      -2.23057569E-07
  -36.5331993      -2.32875394E-07
  -36.4182014      -2.43274627E-07
  -36.3031998      -2.54085194E-07
  -36.1882019      -2.65158405E-07
  -36.0732002      -2.76404677E-07
  -35.9581985      -2.87812327E-07
  -35.8432007      -2.99430667E-07
  -35.7281990      -3.11336947E-07
  -35.6132011      -3.23600432E-07
  -35.4981995      -3.36248092E-07
  -35.3832016      -3.49246960E-07
  -35.2681999      -3.62511940E-07
  -35.1531982      -3.75934519E-07
  -35.0382004      -3.89410616E-07
  -34.9231987      -4.02884922E-07
  -34.8082008      -4.16364088E-07
  -34.6931992      -4.29921812E-07
  -34.5782013      -4.43676754E-07
  -34.4631996      -4.57745870E-07
  -34.3482018      -4.72214765E-07
  -34.2332001      -4.87096941E-07
  -34.1181984      -5.02333705E-07
  -34.0032005      -5.17792841E-07
  -33.8881989      -5.33308878E-07
  -33.7732010      -5.48723278E-07
  -33.6581993      -5.63935885E-07
  -33.5432014      -5.78913955E-07
  -33.4281998      -5.93707284E-07
  -33.3132019      -6.08431321E-07
  -33.1982002      -6.23230846E-07
  -33.0831985      -6.38247172E-07
  -32.9682007      -6.53568293E-07
  -32.8531990      -6.69227063E-07
  -32.7382011      -6.85196028E-07
  -32.6231995      -7.01403735E-07
  -32.5082016      -7.17777596E-07
  -32.3931999      -7.34262130E-07
  -32.2781982      -7.50845629E-07
  -32.1632004      -7.67575557E-07
  -32.0481987      -7.84534848E-07
  -31.9332008      -8.01821102E-07
  -31.8181992      -8.19504976E-07
  -31.7031994      -8.37609946E-07
  -31.5881996      -8.56104634E-07
  -31.4731998      -8.74898262E-07
  -31.3582001      -8.93861170E-07
  -31.2432003      -9.12865403E-07
  -31.1282005      -9.31813361E-07
  -31.0132008      -9.50669062E-07
  -30.8981991      -9.69457801E-07
  -30.7831993      -9.88258762E-07
  -30.6681995      -1.00718216E-06
  -30.5531998      -1.02632032E-06
  -30.4382000      -1.04572746E-06
  -30.3232002      -1.06538937E-06
  -30.2082005      -1.08523147E-06
  -30.0932007      -1.10513179E-06
  -29.9782009      -1.12497617E-06
  -29.8631992      -1.14467855E-06
  -29.7481995      -1.16422473E-06
  -29.6331997      -1.18368143E-06
  -29.5181999      -1.20318327E-06
  -29.4032001      -1.22290191E-06
  -29.2882004      -1.24300402E-06
  -29.1732006      -1.26361169E-06
  -29.0582008      -1.28476552E-06
  -28.9431992      -1.30642775E-06
  -28.8281994      -1.32849050E-06
  -28.7131996      -1.35081609E-06
  -28.5981998      -1.37327334E-06
  -28.4832001      -1.39578947E-06
  -28.3682003      -1.41834050E-06
  -28.2532005      -1.44097828E-06
  -28.1382008      -1.46378079E-06
  -28.0231991      -1.48682682E-06
  -27.9081993      -1.51016548E-06
  -27.7931995      -1.53380290E-06
  -27.6781998      -1.55769419E-06
  -27.5632000      -1.58178273E-06
  -27.4482002      -1.60602360E-06
  -27.3332005      -1.63043308E-06
  -27.2182007      -1.65510869E-06
  -27.1032009      -1.68021563E-06
  -26.9881992      -1.70598446E-06
  -26.8731995      -1.73265232E-06
  -26.7581997      -1.76041021E-06
  -26.6431999      -1.78938296E-06
  -26.5282001      -1.81956045E-06
  -26.4132004      -1.85083707E-06
  -26.2982006      -1.88301556E-06
  -26.1832008      -1.91587333E-06
  -26.0681992      -1.94919608E-06
  -25.9531994      -1.98283146E-06
  -25.8381996      -2.01668286E-06
  -25.7231998      -2.05073002E-06
  -25.6082001      -2.08501001E-06
  -25.4932003      -2.11955717E-06
  -25.3782005      -2.15439741E-06
  -25.2632008      -2.18950413E-06
  -25.1481991      -2.22483936E-06
  -25.0331993      -2.26033785E-06
  -24.9181995      -2.29594866E-06
  -24.8031998      -2.33165292E-06
  -24.6882000      -2.36748565E-06
  -24.5732002      -2.40354871E-06
  -24.4582005      -2.43996055E-06
  -24.3432007      -2.47684079E-06
  -24.2282009      -2.51429492E-06
  -24.1131992      -2.55235568E-06
  -23.9981995      -2.59099215E-06
  -23.8831997      -2.63011339E-06
  -23.7681999      -2.66960478E-06
  -23.6532001      -2.70934811E-06
  -23.5382004      -2.74925924E-06
  -23.4232006      -2.78931725E-06
  -23.3082008      -2.82955489E-06
  -23.1931992      -2.87007106E-06
  -23.0781994      -2.91100173E-06
  -22.9631996      -2.95248287E-06
  -22.8481998      -2.99461385E-06
  -22.7332001      -3.03743741E-06
  -22.6182003      -3.08094081E-06
  -22.5032005      -3.12505540E-06
  -22.3882008      -3.16968863E-06
  -22.2731991      -3.21474226E-06
  -22.1581993      -3.26014606E-06
  -22.0431995      -3.30587045E-06
  -21.9281998      -3.35194795E-06
  -21.8132000      -3.39843564E-06
  -21.6982002      -3.44541195E-06
  -21.5832005      -3.49293396E-06
  -21.4682007      -3.54102986E-06
  -21.3532009      -3.58968919E-06
  -21.2381992      -3.63886420E-06
  -21.1231995      -3.68848873E-06
  -21.0081997      -3.73851685E-06
  -20.8931999      -3.78890672E-06
  -20.7782001      -3.83967017E-06
  -20.6632004      -3.89082334E-06
  -20.5482006      -3.94240396E-06
  -20.4332008      -3.99443843E-06
  -20.3181992      -4.04690263E-06
  -20.2031994      -4.09974018E-06
  -20.0881996      -4.15283102E-06
  -19.9731998      -4.20604874E-06
  -19.8582001      -4.25927192E-06
  -19.7432003      -4.31240869E-06
  -19.6282005      -4.36546770E-06
  -19.5132008      -4.41853808E-06
  -19.3981991      -4.47180264E-06
  -19.2831993      -4.52548466E-06
  -19.1681995      -4.57981332E-06
  -19.0531998      -4.63500692E-06
  -18.9382000      -4.69120096E-06
  -18.8232002      -4.74845001E-06
  -18.7082005      -4.80673316E-06
  -18.5932007      -4.86596855E-06
  -18.4782009      -4.92604431E-06
  -18.3631992      -4.98685949E-06
  -18.2481995      -5.04830723E-06
  -18.1331997      -5.11029839E-06
  -18.0181999      -5.17276521E-06
  -17.9032001      -5.23563176E-06
  -17.7882004      -5.29881299E-06
  -17.6732006      -5.36222387E-06
  -17.5582008      -5.42579301E-06
  -17.4431992      -5.48944945E-06
  -17.3281994      -5.55318638E-06
  -17.2131996      -5.61706793E-06
  -17.0981998      -5.68120231E-06
  -16.9832001      -5.74576370E-06
  -16.8682003      -5.81091672E-06
  -16.7532005      -5.87682825E-06
  -16.6382008      -5.94360699E-06
  -16.5231991      -6.01128386E-06
  -16.4081993      -6.07977199E-06
  -16.2931995      -6.14894680E-06
  -16.1781998      -6.21862091E-06
  -16.0632000      -6.28861289E-06
  -15.9482002      -6.35872493E-06
  -15.8332005      -6.42883424E-06
  -15.7181997      -6.49885169E-06
  -15.6032000      -6.56874727E-06
  -15.4882002      -6.63855826E-06
  -15.3732004      -6.70833788E-06
  -15.2581997      -6.77820026E-06
  -15.1431999      -6.84822135E-06
  -15.0282001      -6.91853029E-06
  -14.9132004      -6.98923259E-06
  -14.7981997      -7.06045103E-06
  -14.6831999      -7.13230111E-06
  -14.5682001      -7.20490698E-06
  -14.4532003      -7.27835550E-06
  -14.3381996      -7.35270123E-06
  -14.2231998      -7.42800421E-06
  -14.1082001      -7.50422896E-06
  -13.9932003      -7.58133001E-06
  -13.8781996      -7.65921868E-06
  -13.7631998      -7.73782722E-06
  -13.6482000      -7.81709059E-06
  -13.5332003      -7.89694695E-06
  -13.4181995      -7.97739176E-06
  -13.3031998      -8.05844411E-06
  -13.1882000      -8.14016676E-06
  -13.0732002      -8.22262518E-06
  -12.9582005      -8.30590943E-06
  -12.8431997      -8.39007680E-06
  -12.7282000      -8.47514002E-06
  -12.6132002      -8.56107090E-06
  -12.4982004      -8.64779486E-06
  -12.3831997      -8.73522731E-06
  -12.2681999      -8.82325003E-06
  -12.1532001      -8.91177297E-06
  -12.0382004      -9.00073246E-06
  -11.9231997      -9.09009486E-06
  -11.8081999      -9.17987745E-06
  -11.6932001      -9.27009842E-06
  -11.5782003      -9.36085416E-06
  -11.4631996      -9.45223564E-06
  -11.3481998      -9.54431925E-06
  -11.2332001      -9.63717684E-06
  -11.1182003      -9.73085480E-06
  -11.0031996      -9.82538222E-06
  -10.8881998      -9.92079640E-06
  -10.7732000      -1.00170710E-05
  -10.6582003      -1.01141795E-05
  -10.5431995      -1.02120548E-05
  -10.4281998      -1.03106122E-05
  -10.3132000      -1.04096862E-05
  -10.1982002      -1.05090876E-05
  -10.0832005      -1.06085918E-05
  -9.96819973      -1.07079695E-05
  -9.85319996      -1.08070590E-05
  -9.73820019      -1.09057855E-05
  -9.62320042      -1.10041346E-05
  -9.50819969      -1.11022282E-05
  -9.39319992      -1.12002508E-05
  -9.27820015      -1.12984353E-05
  -9.16320038      -1.13970464E-05
  -9.04819965      -1.14963150E-05
  -8.93319988      -1.15963931E-05
  -8.81820011      -1.16973779E-05
  -8.70320034      -1.17992613E-05
  -8.58819962      -1.19020106E-05
  -8.47319984      -1.20055238E-05
  -8.35820007      -1.21096882E-05
  -8.24320030      -1.22143601E-05
  -8.12819958      -1.23194031E-05
  -8.01319981      -1.24246744E-05
  -7.89820004      -1.25300230E-05
  -7.78319979      -1.26353034E-05
  -7.66820002      -1.27403800E-05
  -7.55320024      -1.28451347E-05
  -7.43820000      -1.29495056E-05
  -7.32320023      -1.30535245E-05
  -7.20819998      -1.31572906E-05
  -7.09320021      -1.32609557E-05
  -6.97819996      -1.33647563E-05
  -6.86320019      -1.34688707E-05
  -6.74819994      -1.35734772E-05
  -6.63320017      -1.36786930E-05
  -6.51819992      -1.37845091E-05
  -6.40320015      -1.38908354E-05
  -6.28819990      -1.39975145E-05
  -6.17320013      -1.41044029E-05
  -6.05819988      -1.42113004E-05
  -5.94320011      -1.43181478E-05
  -5.82819986      -1.44248570E-05
  -5.71320009      -1.45314780E-05
  -5.59819984      -1.46380789E-05
  -5.48320007      -1.47447308E-05
  -5.36819983      -1.48515865E-05
  -5.25320005      -1.49587268E-05
  -5.13819981      -1.50662499E-05
  -5.02320004      -1.51741851E-05
  -4.90819979      -1.52826724E-05
  -4.79320002      -1.53917517E-05
  -4.67820024      -1.55015077E-05
  -4.56320000      -1.56119950E-05
  -4.44820023      -1.57232244E-05
  -4.33319998      -1.58351468E-05
  -4.21820021      -1.59476858E-05
  -4.10319996      -1.60607124E-05
  -3.98819995      -1.61740445E-05
  -3.87319994      -1.62875185E-05
  -3.75819993      -1.64010198E-05
  -3.64319992      -1.65144338E-05
  -3.52819991      -1.66277387E-05
  -3.41319990      -1.67409671E-05
  -3.29820013      -1.68541756E-05
  -3.18320012      -1.69674568E-05
  -3.06820011      -1.70809290E-05
  -2.95320010      -1.71945776E-05
  -2.83820009      -1.73084391E-05
  -2.72320008      -1.74224533E-05
  -2.60820007      -1.75364894E-05
  -2.49320006      -1.76504145E-05
  -2.37820005      -1.77640686E-05
  -2.26320004      -1.78773062E-05
  -2.14820004      -1.79900144E-05
  -2.03320003      -1.81021187E-05
  -1.91820002      -1.82136500E-05
  -1.80320001      -1.83246975E-05
  -1.68820000      -1.84353721E-05
  -1.57319999      -1.85458448E-05
  -1.45819998      -1.86563211E-05
  -1.34319997      -1.87669848E-05
  -1.22819996      -1.88780159E-05
  -1.11320007      -1.89895491E-05
 -0.998199999      -1.91017407E-05
 -0.883199990      -1.92146836E-05
 -0.768200040      -1.93284704E-05
 -0.653200030      -1.94430868E-05
 -0.538200021      -1.95584762E-05
 -0.423200011      -1.96745150E-05
 -0.308200002      -1.97909758E-05
 -0.193200007      -1.99075839E-05
  -7.82000124E-02  -2.00239592E-05
   3.67999896E-02  -2.01398198E-05
  0.151799992      -2.02549363E-05
  0.266799986      -2.03691598E-05
  0.381799996      -2.04825064E-05
  0.496799976      -2.05951164E-05
  0.611800015      -2.07072244E-05
  0.726799965      -2.08190959E-05
  0.841799974      -2.09310183E-05
  0.956799984      -2.10432045E-05
   1.07179999      -2.11558145E-05
   1.18680000      -2.12688683E-05
   1.30180001      -2.13823714E-05
   1.41680002      -2.14962347E-05
   1.53180003      -2.16104218E-05
   1.64680004      -2.17248344E-05
   1.76179993      -2.18394252E-05
   1.87679994      -2.19541525E-05
   1.99179995      -2.20689235E-05
   2.10680008      -2.21836108E-05
   2.22180009      -2.22981089E-05
   2.33680010      -2.24121904E-05
   2.45179987      -2.25256936E-05
   2.56679988      -2.26384818E-05
   2.68179989      -2.27505152E-05
   2.79679990      -2.28618828E-05
   2.91179991      -2.29727721E-05
   3.02679992      -2.30833593E-05
   3.14179993      -2.31938557E-05
   3.25679994      -2.33044429E-05
   3.37179995      -2.34152085E-05
   3.48679996      -2.35260777E-05
   3.60179996      -2.36369324E-05
   3.71679997      -2.37476161E-05
   3.83179998      -2.38579141E-05
   3.94679999      -2.39676519E-05
   4.06180000      -2.40768568E-05
   4.17679977      -2.41855869E-05
   4.29180002      -2.42939841E-05
   4.40679979      -2.44022394E-05
   4.52180004      -2.45104893E-05
   4.63679981      -2.46189265E-05
   4.75180006      -2.47275311E-05
   4.86679983      -2.48362685E-05
   4.98180008      -2.49450568E-05
   5.09679985      -2.50536905E-05
   5.21180010      -2.51620750E-05
   5.32679987      -2.52701520E-05
   5.44180012      -2.53779272E-05
   5.55679989      -2.54853549E-05
   5.67180014      -2.55925006E-05
   5.78679991      -2.56993098E-05
   5.90180016      -2.58057717E-05
   6.01679993      -2.59116932E-05
   6.13180017      -2.60169982E-05
   6.24679995      -2.61215300E-05
   6.36180019      -2.62251979E-05
   6.47679996      -2.63279762E-05
   6.59180021      -2.64299379E-05
   6.70679998      -2.65312628E-05
   6.82179976      -2.66321913E-05
   6.93680000      -2.67328815E-05
   7.05179977      -2.68334916E-05
   7.16680002      -2.69340817E-05
   7.28179979      -2.70344844E-05
   7.39680004      -2.71344670E-05
   7.51179981      -2.72337456E-05
   7.62680006      -2.73319874E-05
   7.74179983      -2.74289141E-05
   7.85680008      -2.75243819E-05
   7.97179985      -2.76183564E-05
   8.08679962      -2.77110212E-05
   8.20180035      -2.78025800E-05
   8.31680012      -2.78932439E-05
   8.43179989      -2.79833002E-05
   8.54679966      -2.80729291E-05
   8.66180038      -2.81622015E-05
   8.77680016      -2.82511846E-05
   8.89179993      -2.83399040E-05
   9.00679970      -2.84283124E-05
   9.12180042      -2.85164733E-05
   9.23680019      -2.86044433E-05
   9.35179996      -2.86923369E-05
   9.46679974      -2.87802031E-05
   9.58180046      -2.88680385E-05
   9.69680023      -2.89557938E-05
   9.81180000      -2.90431635E-05
   9.92679977      -2.91298111E-05
   10.0417995      -2.92153236E-05
   10.1568003      -2.92993118E-05
   10.2718000      -2.93815592E-05
   10.3867998      -2.94619877E-05
   10.5017996      -2.95406735E-05
   10.6168003      -2.96179569E-05
   10.7318001      -2.96941289E-05
   10.8467999      -2.97696006E-05
   10.9617996      -2.98445502E-05
   11.0768003      -2.99191906E-05
   11.1918001      -2.99934145E-05
   11.3067999      -3.00670999E-05
   11.4217997      -3.01400669E-05
   11.5368004      -3.02121171E-05
   11.6518002      -3.02831977E-05
   11.7667999      -3.03533834E-05
   11.8817997      -3.04227979E-05
   11.9968004      -3.04916939E-05
   12.1118002      -3.05601679E-05
   12.2268000      -3.06283036E-05
   12.3417997      -3.06959955E-05
   12.4568005      -3.07630835E-05
   12.5718002      -3.08293565E-05
   12.6868000      -3.08945855E-05
   12.8017998      -3.09585776E-05
   12.9167995      -3.10214164E-05
   13.0318003      -3.10831711E-05
   13.1468000      -3.11440781E-05
   13.2617998      -3.12044976E-05
   13.3767996      -3.12646007E-05
   13.4918003      -3.13245255E-05
   13.6068001      -3.13841811E-05
   13.7217999      -3.14433892E-05
   13.8367996      -3.15019170E-05
   13.9518003      -3.15594443E-05
   14.0668001      -3.16159167E-05
   14.1817999      -3.16712722E-05
   14.2967997      -3.17256308E-05
   14.4118004      -3.17793092E-05
   14.5268002      -3.18324892E-05
   14.6417999      -3.18854072E-05
   14.7567997      -3.19381579E-05
   14.8718004      -3.19906685E-05
   14.9868002      -3.20427098E-05
   15.1018000      -3.20939653E-05
   15.2167997      -3.21440348E-05
   15.3318005      -3.21926891E-05
   15.4468002      -3.22396882E-05
   15.5618000      -3.22850756E-05
   15.6767998      -3.23289787E-05
   15.7917995      -3.23715831E-05
   15.9068003      -3.24131361E-05
   16.0217991      -3.24537323E-05
   16.1368008      -3.24933353E-05
   16.2518005      -3.25318979E-05
   16.3668003      -3.25693072E-05
   16.4818001      -3.26053814E-05
   16.5967999      -3.26400805E-05
   16.7117996      -3.26734553E-05
   16.8267994      -3.27057351E-05
   16.9417992      -3.27373018E-05
   17.0568008      -3.27684320E-05
   17.1718006      -3.27993221E-05
   17.2868004      -3.28301612E-05
   17.4018002      -3.28608367E-05
   17.5167999      -3.28910719E-05
   17.6317997      -3.29205250E-05
   17.7467995      -3.29488321E-05
   17.8617992      -3.29756840E-05
   17.9768009      -3.30008806E-05
   18.0918007      -3.30245093E-05
   18.2068005      -3.30467301E-05
   18.3218002      -3.30677758E-05
   18.4368000      -3.30879047E-05
   18.5517998      -3.31072733E-05
   18.6667995      -3.31259107E-05
   18.7817993      -3.31436167E-05
   18.8967991      -3.31602496E-05
   19.0118008      -3.31754854E-05
   19.1268005      -3.31892224E-05
   19.2418003      -3.32014715E-05
   19.3568001      -3.32123855E-05
   19.4717999      -3.32222444E-05
   19.5867996      -3.32314485E-05
   19.7017994      -3.32402524E-05
   19.8167992      -3.32488053E-05
   19.9318008      -3.32570271E-05
   20.0468006      -3.32646669E-05
   20.1618004      -3.32714444E-05
   20.2768002      -3.32770032E-05
   20.3917999      -3.32810159E-05
   20.5067997      -3.32834024E-05
   20.6217995      -3.32842792E-05
   20.7367992      -3.32838426E-05
   20.8518009      -3.32824675E-05
   20.9668007      -3.32804775E-05
   21.0818005      -3.32779855E-05
   21.1968002      -3.32749260E-05
   21.3118000      -3.32712370E-05
   21.4267998      -3.32665913E-05
   21.5417995      -3.32607342E-05
   21.6567993      -3.32535674E-05
   21.7717991      -3.32451164E-05
   21.8868008      -3.32355339E-05
   22.0018005      -3.32252202E-05
   22.1168003      -3.32145246E-05
   22.2318001      -3.32036761E-05
   22.3467999      -3.31927440E-05
   22.4617996      -3.31816009E-05
   22.5767994      -3.31699739E-05
   22.6917992      -3.31574738E-05
   22.8068008      -3.31436167E-05
   22.9218006      -3.31282390E-05
   23.0368004      -3.31112933E-05
   23.1518002      -3.30928342E-05
   23.2667999      -3.30732073E-05