  -75.1732025       0.00000000    
  -75.0581970      -2.79722131E-11
  -74.9431992      -7.97284044E-11
  -74.8282013      -1.47233628E-10
  -74.7132034      -2.20276644E-10
  -74.5981979      -2.88571639E-10
  -74.4832001      -3.43845119E-10
  -74.3682022      -3.81469412E-10
  -74.2531967      -4.01301437E-10
  -74.1381989      -4.07539669E-10
  -74.0232010      -4.07614248E-10
  -73.9082031      -4.10291801E-10
  -73.7931976      -4.23327234E-10
  -73.6781998      -4.51053778E-10
  -73.5632019      -4.92305863E-10
  -73.4481964      -5.39016443E-10
  -73.3331985      -5.75710868E-10
  -73.2182007      -5.79996717E-10
  -73.1032028      -5.24014332E-10
  -72.9881973      -3.76681381E-10
  -72.8731995      -1.06481012E-10
  -72.7582016       3.15546284E-10
  -72.6432037       9.12960152E-10
  -72.5281982       1.70158831E-09
  -72.4132004       2.68801004E-09
  -72.2982025       3.86908061E-09
  -72.1831970       5.23260058E-09
  -72.0681992       6.75908440E-09
  -71.9532013       8.42444781E-09
  -71.8382034       1.02032995E-08
  -71.7231979       1.20723813E-08
  -71.6082001       1.40137395E-08
  -71.4932022       1.60170863E-08
  -71.3781967       1.80810318E-08
  -71.2631989       2.02128945E-08
  -71.1482010       2.24270149E-08
  -71.0332031       2.47416985E-08
  -70.9181976       2.71751759E-08
  -70.8031998       2.97410310E-08
  -70.6882019       3.24437899E-08
  -70.5731964       3.52753133E-08
  -70.4581985       3.82126188E-08
  -70.3432007       4.12175787E-08
  -70.2282028       4.42386217E-08
  -70.1131973       4.72143888E-08
  -69.9981995       5.00788602E-08
  -69.8832016       5.27673159E-08
  -69.7682037       5.52222090E-08
  -69.6531982       5.73983492E-08
  -69.5382004       5.92664691E-08
  -69.4232025       6.08149904E-08
  -69.3081970       6.20496863E-08
  -69.1931992       6.29916670E-08
  -69.0782013       6.36739514E-08
  -68.9632034       6.41372822E-08
  -68.8481979       6.44258691E-08
  -68.7332001       6.45831406E-08
  -68.6182022       6.46484963E-08
  -68.5031967       6.46542802E-08
  -68.3881989       6.46239400E-08
  -68.2732010       6.45705498E-08
  -68.1582031       6.44962839E-08
  -68.0431976       6.43923386E-08
  -67.9281998       6.42398490E-08
  -67.8132019       6.40111608E-08
  -67.6981964       6.36721182E-08
  -67.5831985       6.31846362E-08
  -67.4682007       6.25093008E-08
  -67.3532028       6.16080982E-08
  -67.2381973       6.04462969E-08
  -67.1231995       5.89937308E-08
  -67.0082016       5.72254280E-08
  -66.8932037       5.51216068E-08
  -66.7781982       5.26675485E-08
  -66.6632004       4.98538313E-08
  -66.5482025       4.66769237E-08
  -66.4331970       4.31406946E-08
  -66.3181992       3.92577668E-08
  -66.2032013       3.50509310E-08
  -66.0882034       3.05535970E-08
  -65.9731979       2.58087081E-08
  -65.8582001       2.08657909E-08
  -65.7432022       1.57761804E-08
  -65.6281967       1.05866098E-08
  -65.5131989       5.33257793E-09
  -65.3982010       3.18896923E-11
  -65.2832031      -5.31982947E-09
  -65.1681976      -1.07514246E-08
  -65.0531998      -1.63151430E-08
  -64.9382019      -2.20829737E-08
  -64.8231964      -2.81395920E-08
  -64.7081985      -3.45740965E-08
  -64.5932007      -4.14704537E-08
  -64.4782028      -4.88978706E-08
  -64.3631973      -5.69025715E-08
  -64.2481995      -6.55014247E-08
  -64.1332016      -7.46778923E-08
  -64.0182037      -8.43811847E-08
  -63.9031982      -9.45287866E-08
  -63.7882004      -1.05012106E-07
  -63.6731987      -1.15705312E-07
  -63.5582008      -1.26476181E-07
  -63.4431992      -1.37199251E-07
  -63.3282013      -1.47768418E-07
  -63.2131996      -1.58109444E-07
  -63.0982018      -1.68188507E-07
  -62.9832001      -1.78018055E-07
  -62.8681984      -1.87656909E-07
  -62.7532005      -1.97205125E-07
  -62.6381989      -2.06793331E-07
  -62.5232010      -2.16568779E-07
  -62.4081993      -2.26677798E-07
  -62.2932014      -2.37247775E-07
  -62.1781998      -2.48371521E-07
  -62.0632019      -2.60094680E-07
  -61.9482002      -2.72408670E-07
  -61.8331985      -2.85249570E-07
  -61.7182007      -2.98503721E-07
  -61.6031990      -3.12018557E-07
  -61.4882011      -3.25617862E-07
  -61.3731995      -3.39119083E-07
  -61.2582016      -3.52351094E-07
  -61.1431999      -3.65170450E-07
  -61.0281982      -3.77474407E-07
  -60.9132004      -3.89209589E-07
  -60.7981987      -4.00375626E-07
  -60.6832008      -4.11024104E-07
  -60.5681992      -4.21251968E-07
  -60.4532013      -4.31191324E-07
  -60.3381996      -4.40995194E-07
  -60.2232018      -4.50822114E-07
  -60.1082001      -4.60819223E-07
  -59.9931984      -4.71106688E-07
  -59.8782005      -4.81764403E-07
  -59.7631989      -4.92823119E-07
  -59.6482010      -5.04260299E-07
  -59.5331993      -5.16002558E-07
  -59.4182014      -5.27934105E-07
  -59.3031998      -5.39909877E-07
  -59.1882019      -5.51771791E-07
  -59.0732002      -5.63366655E-07
  -58.9581985      -5.74562364E-07
  -58.8432007      -5.85260807E-07
  -58.7281990      -5.95406391E-07
  -58.6132011      -6.04988429E-07
  -58.4981995      -6.14038925E-07
  -58.3832016      -6.22626033E-07
  -58.2681999      -6.30845420E-07
  -58.1531982      -6.38809752E-07
  -58.0382004      -6.46639080E-07
  -57.9231987      -6.54451128E-07
  -57.8082008      -6.62354466E-07
  -57.6931992      -6.70441466E-07
  -57.5782013      -6.78784716E-07
  -57.4631996      -6.87432077E-07
  -57.3482018      -6.96405209E-07
  -57.2332001      -7.05699222E-07
  -57.1181984      -7.15284045E-07
  -57.0032005      -7.25108237E-07
  -56.8881989      -7.35104607E-07
  -56.7732010      -7.45197326E-07
  -56.6581993      -7.55309486E-07
  -56.5432014      -7.65370658E-07
  -56.4281998      -7.75321837E-07
  -56.3132019      -7.85119312E-07
  -56.1982002      -7.94736536E-07
  -56.0831985      -8.04163449E-07
  -55.9682007      -8.13404768E-07
  -55.8531990      -8.22479308E-07
  -55.7382011      -8.31418561E-07
  -55.6231995      -8.40266978E-07
  -55.5082016      -8.49082255E-07
  -55.3931999      -8.57935618E-07
  -55.2781982      -8.66910113E-07
  -55.1632004      -8.76099250E-07
  -55.0481987      -8.85601366E-07
  -54.9332008      -8.95512017E-07
  -54.8181992      -9.05916181E-07
  -54.7032013      -9.16879401E-07
  -54.5881996      -9.28441352E-07
  -54.4732018      -9.40610846E-07
  -54.3582001      -9.53367589E-07
  -54.2431984      -9.66665993E-07
  -54.1282005      -9.80443815E-07
  -54.0131989      -9.94635229E-07
  -53.8982010      -1.00918260E-06
  -53.7831993      -1.02405136E-06
  -53.6682014      -1.03923890E-06
  -53.5531998      -1.05478341E-06
  -53.4382019      -1.07076653E-06
  -53.3232002      -1.08731115E-06
  -53.2081985      -1.10457586E-06
  -53.0932007      -1.12274302E-06
  -52.9781990      -1.14200600E-06
  -52.8632011      -1.16255455E-06
  -52.7481995      -1.18455682E-06
  -52.6332016      -1.20814423E-06
  -52.5181999      -1.23339760E-06
  -52.4031982      -1.26033660E-06
  -52.2882004      -1.28891350E-06
  -52.1731987      -1.31901311E-06
  -52.0582008      -1.35045991E-06
  -51.9431992      -1.38303142E-06
  -51.8282013      -1.41647683E-06
  -51.7131996      -1.45054298E-06
  -51.5982018      -1.48499851E-06
  -51.4832001      -1.51965889E-06
  -51.3681984      -1.55440591E-06
  -51.2532005      -1.58919818E-06
  -51.1381989      -1.62407264E-06
  -51.0232010      -1.65913775E-06
  -50.9081993      -1.69455086E-06
  -50.7932014      -1.73049591E-06
  -50.6781998      -1.76715537E-06
  -50.5632019      -1.80467975E-06
  -50.4482002      -1.84316809E-06
  -50.3331985      -1.88265005E-06
  -50.2182007      -1.92308289E-06
  -50.1031990      -1.96435303E-06
  -49.9882011      -2.00628938E-06
  -49.8731995      -2.04868320E-06
  -49.7582016      -2.09130894E-06
  -49.6431999      -2.13395037E-06
  -49.5281982      -2.17642878E-06
  -49.4132004      -2.21861956E-06
  -49.2981987      -2.26047382E-06
  -49.1832008      -2.30202613E-06
  -49.0681992      -2.34339768E-06
  -48.9532013      -2.38479083E-06
  -48.8381996      -2.42647184E-06
  -48.7232018      -2.46874720E-06
  -48.6082001      -2.51193228E-06
  -48.4931984      -2.55632131E-06
  -48.3782005      -2.60215279E-06
  -48.2631989      -2.64958499E-06
  -48.1482010      -2.69868087E-06
  -48.0331993      -2.74940339E-06
  -47.9182014      -2.80162453E-06
  -47.8031998      -2.85514784E-06
  -47.6882019      -2.90973344E-06
  -47.5732002      -2.96513713E-06
  -47.4581985      -3.02113745E-06
  -47.3432007      -3.07757045E-06
  -47.2281990      -3.13434407E-06
  -47.1132011      -3.19144760E-06
  -46.9981995      -3.24895382E-06
  -46.8832016      -3.30700368E-06
  -46.7681999      -3.36578682E-06
  -46.6531982      -3.42551948E-06
  -46.5382004      -3.48641424E-06
  -46.4231987      -3.54865620E-06
  -46.3082008      -3.61237949E-06
  -46.1931992      -3.67764869E-06
  -46.0782013      -3.74444926E-06
  -45.9631996      -3.81268615E-06
  -45.8482018      -3.88218814E-06
  -45.7332001      -3.95272264E-06
  -45.6181984      -4.02401383E-06
  -45.5032005      -4.09577206E-06
  -45.3881989      -4.16771491E-06
  -45.2732010      -4.23959818E-06
  -45.1581993      -4.31123590E-06
  -45.0432014      -4.38251482E-06
  -44.9281998      -4.45340629E-06
  -44.8132019      -4.52395989E-06
  -44.6982002      -4.59429202E-06
  -44.5831985      -4.66457550E-06
  -44.4682007      -4.73501132E-06
  -44.3531990      -4.80580820E-06
  -44.2382011      -4.87716488E-06
  -44.1231995      -4.94924689E-06
  -44.0082016      -5.02218518E-06
  -43.8931999      -5.09606571E-06
  -43.7781982      -5.17093804E-06
  -43.6632004      -5.24681991E-06
  -43.5481987      -5.32370859E-06
  -43.4332008      -5.40158862E-06
  -43.3181992      -5.48044409E-06
  -43.2032013      -5.56025998E-06
  -43.0881996      -5.64102902E-06
  -42.9732018      -5.72274712E-06
  -42.8582001      -5.80542246E-06
  -42.7431984      -5.88906641E-06
  -42.6282005      -5.97369808E-06
  -42.5131989      -6.05934247E-06
  -42.3982010      -6.14603778E-06
  -42.2831993      -6.23383039E-06
  -42.1682014      -6.32277579E-06
  -42.0531998      -6.41294173E-06
  -41.9382019      -6.50440370E-06
  -41.8232002      -6.59724265E-06
  -41.7081985      -6.69154269E-06
  -41.5932007      -6.78739025E-06
  -41.4781990      -6.88486489E-06
  -41.3632011      -6.98403846E-06
  -41.2481995      -7.08497600E-06
  -41.1332016      -7.18772390E-06
  -41.0181999      -7.29230260E-06
  -40.9031982      -7.39871030E-06
  -40.7882004      -7.50690697E-06
  -40.6731987      -7.61681531E-06
  -40.5582008      -7.72832664E-06
  -40.4431992      -7.84130589E-06
  -40.3282013      -7.95560391E-06
  -40.2131996      -8.07108700E-06
  -40.0982018      -8.18764511E-06
  -39.9832001      -8.30522913E-06
  -39.8681984      -8.42385816E-06
  -39.7532005      -8.54363952E-06
  -39.6381989      -8.66475511E-06
  -39.5232010      -8.78747142E-06
  -39.4081993      -8.91210220E-06
  -39.2932014      -9.03899945E-06
  -39.1781998      -9.16850240E-06
  -39.0632019      -9.30092210E-06
  -38.9482002      -9.43649411E-06
  -38.8331985      -9.57536940E-06
  -38.7182007      -9.71758800E-06
  -38.6031990      -9.86307532E-06
  -38.4882011      -1.00116422E-05
  -38.3731995      -1.01630021E-05
  -38.2582016      -1.03167940E-05
  -38.1431999      -1.04726169E-05
  -38.0281982      -1.06300668E-05
  -37.9132004      -1.07887690E-05
  -37.7981987      -1.09484326E-05
  -37.6832008      -1.11088675E-05
  -37.5681992      -1.12700136E-05
  -37.4532013      -1.14319446E-05
  -37.3381996      -1.15948696E-05
  -37.2232018      -1.17591062E-05
  -37.1082001      -1.19250481E-05
  -36.9931984      -1.20931209E-05
  -36.8782005      -1.22637448E-05
  -36.7631989      -1.24372791E-05
  -36.6482010      -1.26139876E-05
  -36.5331993      -1.27940139E-05
  -36.4182014      -1.29773616E-05
  -36.3031998      -1.31639035E-05
  -36.1882019      -1.33533904E-05
  -36.0732002      -1.35454929E-05
  -35.9581985      -1.37398338E-05
  -35.8432007      -1.39360318E-05
  -35.7281990      -1.41337432E-05
  -35.6132011      -1.43327024E-05
  -35.4981995      -1.45327585E-05
  -35.3832016      -1.47338787E-05
  -35.2681999      -1.49361640E-05
  -35.1531982      -1.51398335E-05
  -35.0382004      -1.53452002E-05
  -34.9231987      -1.55526395E-05
  -34.8082008      -1.57625527E-05
  -34.6931992      -1.59753181E-05
  -34.5782013      -1.61912594E-05
  -34.4631996      -1.64105913E-05
  -34.3482018      -1.66334230E-05
  -34.2332001      -1.68597144E-05
  -34.1181984      -1.70892999E-05
  -34.0032005      -1.73219014E-05
  -33.8881989      -1.75571458E-05
  -33.7732010      -1.77946295E-05
  -33.6581993      -1.80339375E-05
  -33.5432014      -1.82746990E-05
  -33.4281998      -1.85166355E-05
  -33.3132019      -1.87595815E-05
  -33.1982002      -1.90034916E-05
  -33.0831985      -1.92484567E-05
  -32.9682007      -1.94946806E-05
  -32.8531990      -1.97424688E-05
  -32.7382011      -1.99921815E-05
  -32.6231995      -2.02442116E-05
  -32.5082016      -2.04989392E-05
  -32.3931999      -2.07567118E-05
  -32.2781982      -2.10178059E-05
  -32.1632004      -2.12824161E-05
  -32.0481987      -2.15506498E-05
  -31.9332008      -2.18225068E-05
  -31.8181992      -2.20979182E-05
  -31.7031994      -2.23767256E-05
  -31.5881996      -2.26587345E-05
  -31.4731998      -2.29437228E-05
  -31.3582001      -2.32314869E-05
  -31.2432003      -2.35218540E-05
  -31.1282005      -2.38147113E-05
  -31.0132008      -2.41100206E-05
  -30.8981991      -2.44078346E-05
  -30.7831993      -2.47082680E-05
  -30.6681995      -2.50115118E-05
  -30.5531998      -2.53178041E-05
  -30.4382000      -2.56274016E-05
  -30.3232002      -2.59405679E-05
  -30.2082005      -2.62575541E-05
  -30.0932007      -2.65785784E-05
  -29.9782009      -2.69038173E-05
  -29.8631992      -2.72334037E-05
  -29.7481995      -2.75674374E-05
  -29.6331997      -2.79059605E-05
  -29.5181999      -2.82489709E-05
  -29.4032001      -2.85964434E-05
  -29.2882004      -2.89482923E-05
  -29.1732006      -2.93044213E-05
  -29.0582008      -2.96646995E-05
  -28.9431992      -3.00289848E-05
  -28.8281994      -3.03971356E-05
  -28.7131996      -3.07690061E-05
  -28.5981998      -3.11444601E-05
  -28.4832001      -3.15233956E-05
  -28.3682003      -3.19057253E-05
  -28.2532005      -3.22914166E-05
  -28.1382008      -3.26804584E-05
  -28.0231991      -3.30728726E-05
  -27.9081993      -3.34687211E-05
  -27.7931995      -3.38680838E-05
  -27.6781998      -3.42710664E-05
  -27.5632000      -3.46777888E-05
  -27.4482002      -3.50883638E-05
  -27.3332005      -3.55029042E-05
  -27.2182007      -3.59215119E-05
  -27.1032009      -3.63442523E-05
  -26.9881992      -3.67711727E-05
  -26.8731995      -3.72022987E-05
  -26.7581997      -3.76376302E-05
  -26.6431999      -3.80771417E-05
  -26.5282001      -3.85208077E-05
  -26.4132004      -3.89686065E-05
  -26.2982006      -3.94205417E-05
  -26.1832008      -3.98766679E-05
  -26.0681992      -4.03370868E-05
  -25.9531994      -4.08019841E-05
  -25.8381996      -4.12715963E-05
  -25.7231998      -4.17462434E-05
  -25.6082001      -4.22262892E-05
  -25.4932003      -4.27121267E-05
  -25.3782005      -4.32041415E-05
  -25.2632008      -4.37026683E-05
  -25.1481991      -4.42079872E-05
  -25.0331993      -4.47202619E-05
  -24.9181995      -4.52395398E-05
  -24.8031998      -4.57657516E-05
  -24.6882000      -4.62987045E-05
  -24.5732002      -4.68381004E-05
  -24.4582005      -4.73835535E-05
  -24.3432007      -4.79346600E-05
  -24.2282009      -4.84909797E-05
  -24.1131992      -4.90521124E-05
  -23.9981995      -4.96177345E-05
  -23.8831997      -5.01875802E-05
  -23.7681999      -5.07615150E-05
  -23.6532001      -5.13395171E-05
  -23.5382004      -5.19216919E-05
  -23.4232006      -5.25082360E-05
  -23.3082008      -5.30994257E-05
  -23.1931992      -5.36955777E-05
  -23.0781994      -5.42970156E-05
  -22.9631996      -5.49040233E-05
  -22.8481998      -5.55168117E-05
  -22.7332001      -5.61354718E-05
  -22.6182003      -5.67599818E-05
  -22.5032005      -5.73902071E-05
  -22.3882008      -5.80259111E-05
  -22.2731991      -5.86667920E-05
  -22.1581993      -5.93124969E-05
  -22.0431995      -5.99627019E-05
  -21.9281998      -6.06171234E-05
  -21.8132000      -6.12755684E-05
  -21.6982002      -6.19379716E-05
  -21.5832005      -6.26043693E-05
  -21.4682007      -6.32749070E-05
  -21.3532009      -6.39498685E-05
  -21.2381992      -6.46296248E-05
  -21.1231995      -6.53145762E-05
  -21.0081997      -6.60051519E-05
  -20.8931999      -6.67017739E-05
  -20.7782001      -6.74047551E-05
  -20.6632004      -6.81143429E-05
  -20.5482006      -6.88306391E-05
  -20.4332008      -6.95536146E-05
  -20.3181992      -7.02831167E-05
  -20.2031994      -7.10188615E-05
  -20.0881996      -7.17604635E-05
  -19.9731998      -7.25075006E-05
  -19.8582001      -7.32595581E-05
  -19.7432003      -7.40162141E-05
  -19.6282005      -7.47771919E-05
  -19.5132008      -7.55422880E-05
  -19.3981991      -7.63114294E-05
  -19.2831993      -7.70847328E-05
  -19.1681995      -7.78623944E-05
  -19.0531998      -7.86447708E-05
  -18.9382000      -7.94322768E-05
  -18.8232002      -8.02253926E-05
  -18.7082005      -8.10245838E-05
  -18.5932007      -8.18302724E-05
  -18.4782009      -8.26428077E-05
  -18.3631992      -8.34624152E-05
  -18.2481995      -8.42891823E-05
  -18.1331997      -8.51230943E-05
  -18.0181999      -8.59639767E-05
  -17.9032001      -8.68115749E-05
  -17.7882004      -8.76655249E-05
  -17.6732006      -8.85254485E-05
  -17.5582008      -8.93909528E-05
  -17.4431992      -9.02616885E-05
  -17.3281994      -9.11373791E-05
  -17.2131996      -9.20178791E-05
  -17.0981998      -9.29031376E-05
  -16.9832001      -9.37932564E-05
  -16.8682003      -9.46884829E-05
  -16.7532005      -9.55891519E-05
  -16.6382008      -9.64957289E-05
  -16.5231991      -9.74086870E-05
  -16.4081993      -9.83285354E-05
  -16.2931995      -9.92557543E-05
  -16.1781998      -1.00190780E-04
  -16.0632000      -1.01133941E-04
  -15.9482002      -1.02085418E-04
  -15.8332005      -1.03045284E-04
  -15.7181997      -1.04013488E-04
  -15.6032000      -1.04989893E-04
  -15.4882002      -1.05974250E-04
  -15.3732004      -1.06966276E-04
  -15.2581997      -1.07965621E-04
  -15.1431999      -1.08971988E-04
  -15.0282001      -1.09985092E-04
  -14.9132004      -1.11004731E-04
  -14.7981997      -1.12030735E-04
  -14.6831999      -1.13063099E-04
  -14.5682001      -1.14101844E-04
  -14.4532003      -1.15147130E-04
  -14.3381996      -1.16199197E-04
  -14.2231998      -1.17258307E-04
  -14.1082001      -1.18324780E-04
  -13.9932003      -1.19398923E-04
  -13.8781996      -1.20480981E-04
  -13.7631998      -1.21571167E-04
  -13.6482000      -1.22669604E-04
  -13.5332003      -1.23776292E-04
  -13.4181995      -1.24891172E-04
  -13.3031998      -1.26014085E-04
  -13.1882000      -1.27144827E-04
  -13.0732002      -1.28283078E-04
  -12.9582005      -1.29428532E-04
  -12.8431997      -1.30580884E-04
  -12.7282000      -1.31739827E-04
  -12.6132002      -1.32905101E-04
  -12.4982004      -1.34076559E-04
  -12.3831997      -1.35254115E-04
  -12.2681999      -1.36437797E-04
  -12.1532001      -1.37627721E-04
  -12.0382004      -1.38824122E-04
  -11.9231997      -1.40027274E-04
  -11.8081999      -1.41237557E-04
  -11.6932001      -1.42455305E-04
  -11.5782003      -1.43680882E-04
  -11.4631996      -1.44914593E-04
  -11.3481998      -1.46156657E-04
  -11.2332001      -1.47407191E-04
  -11.1182003      -1.48666193E-04
  -11.0031996      -1.49933578E-04
  -10.8881998      -1.51209068E-04
  -10.7732000      -1.52492314E-04
  -10.6582003      -1.53782879E-04
  -10.5431995      -1.55080328E-04
  -10.4281998      -1.56384165E-04
  -10.3132000      -1.57693910E-04
  -10.1982002      -1.59009229E-04
  -10.0832005      -1.60329771E-04
  -9.96819973      -1.61655407E-04
  -9.85319996      -1.62986122E-04
  -9.73820019      -1.64322089E-04
  -9.62320042      -1.65663543E-04
  -9.50819969      -1.67010920E-04
  -9.39319992      -1.68364684E-04
  -9.27820015      -1.69725288E-04
  -9.16320038      -1.71093241E-04
  -9.04819965      -1.72468979E-04
  -8.93319988      -1.73852794E-04
  -8.81820011      -1.75244902E-04
  -8.70320034      -1.76645408E-04
  -8.58819962      -1.78054237E-04
  -8.47319984      -1.79471172E-04
  -8.35820007      -1.80895935E-04
  -8.24320030      -1.82328120E-04
  -8.12819958      -1.83767319E-04
  -8.01319981      -1.85213183E-04
  -7.89820004      -1.86665362E-04
  -7.78319979      -1.88123609E-04
  -7.66820002      -1.89587779E-04
  -7.55320024      -1.91057930E-04
  -7.43820000      -1.92534164E-04
  -7.32320023      -1.94016742E-04
  -7.20819998      -1.95505971E-04
  -7.09320021      -1.97002184E-04
  -6.97819996      -1.98505775E-04
  -6.86320019      -2.00017021E-04
  -6.74819994      -2.01536124E-04
  -6.63320017      -2.03063202E-04
  -6.51819992      -2.04598153E-04
  -6.40320015      -2.06140801E-04
  -6.28819990      -2.07690842E-04
  -6.17320013      -2.09247839E-04
  -6.05819988      -2.10811253E-04
  -5.94320011      -2.12380604E-04
  -5.82819986      -2.13955354E-04
  -5.71320009      -2.15535096E-04
  -5.59819984      -2.17119508E-04
  -5.48320007      -2.18708417E-04
  -5.36819983      -2.20301794E-04
  -5.25320005      -2.21899812E-04
  -5.13819981      -2.23502764E-04
  -5.02320004      -2.25111042E-04
  -4.90819979      -2.26725024E-04
  -4.79320002      -2.28345234E-04
  -4.67820024      -2.29972124E-04
  -4.56320000      -2.31606100E-04
  -4.44820023      -2.33247367E-04
  -4.33319998      -2.34896143E-04
  -4.21820021      -2.36552412E-04
  -4.10319996      -2.38216046E-04
  -3.98819995      -2.39886809E-04
  -3.87319994      -2.41564354E-04
  -3.75819993      -2.43248345E-04
  -3.64319992      -2.44938361E-04
  -3.52819991      -2.46634037E-04
  -3.41319990      -2.48335098E-04
  -3.29820013      -2.50041368E-04
  -3.18320012      -2.51752877E-04
  -3.06820011      -2.53469625E-04
  -2.95320010      -2.55191873E-04
  -2.83820009      -2.56919884E-04
  -2.72320008      -2.58654065E-04
  -2.60820007      -2.60394794E-04
  -2.49320006      -2.62142421E-04
  -2.37820005      -2.63897266E-04
  -2.26320004      -2.65659502E-04
  -2.14820004      -2.67429190E-04
  -2.03320003      -2.69206415E-04
  -1.91820002      -2.70990946E-04
  -1.80320001      -2.72782490E-04
  -1.68820000      -2.74580700E-04
  -1.57319999      -2.76385195E-04
  -1.45819998      -2.78195454E-04
  -1.34319997      -2.80011096E-04
  -1.22819996      -2.81831744E-04
  -1.11320007      -2.83657078E-04
 -0.998199999      -2.85486894E-04
 -0.883199990      -2.87321134E-04
 -0.768200040      -2.89159885E-04
 -0.653200030      -2.91003264E-04
 -0.538200021      -2.92851444E-04
 -0.423200011      -2.94704747E-04
 -0.308200002      -2.96563405E-04
 -0.193200007      -2.98427651E-04
  -7.82000124E-02  -3.00297659E-04
   3.67999896E-02  -3.02173605E-04
  0.151799992      -3.04055371E-04
  0.266799986      -3.05942987E-04
  0.381799996      -3.07836221E-04
  0.496799976      -3.09734838E-04
  0.611800015      -3.11638520E-04
  0.726799965      -3.13546974E-04
  0.841799974      -3.15459882E-04
  0.956799984      -3.17376893E-04
   1.07179999      -3.19297833E-04
   1.18680000      -3.21222498E-04
   1.30180001      -3.23150831E-04
   1.41680002      -3.25082889E-04
   1.53180003      -3.27018788E-04
   1.64680004      -3.28958704E-04
   1.76179993      -3.30902927E-04
   1.87679994      -3.32851778E-04
   1.99179995      -3.34805518E-04
   2.10680008      -3.36764439E-04
   2.22180009      -3.38728743E-04
   2.33680010      -3.40698578E-04
   2.45179987      -3.42673971E-04
   2.56679988      -3.44654836E-04
   2.68179989      -3.46640998E-04
   2.79679990      -3.48632137E-04
   2.91179991      -3.50627815E-04
   3.02679992      -3.52627569E-04
   3.14179993      -3.54630844E-04
   3.25679994      -3.56637145E-04
   3.37179995      -3.58645950E-04
   3.48679996      -3.60656762E-04
   3.60179996      -3.62669234E-04
   3.71679997      -3.64683074E-04
   3.83179998      -3.66698107E-04
   3.94679999      -3.68714303E-04
   4.06180000      -3.70731752E-04
   4.17679977      -3.72750626E-04
   4.29180002      -3.74771218E-04
   4.40679979      -3.76793789E-04
   4.52180004      -3.78818688E-04
   4.63679981      -3.80846235E-04
   4.75180006      -3.82876606E-04
   4.86679983      -3.84909974E-04
   4.98180008      -3.86946340E-04
   5.09679985      -3.88985558E-04
   5.21180010      -3.91027395E-04
   5.32679987      -3.93071474E-04
   5.44180012      -3.95117357E-04
   5.55679989      -3.97164578E-04
   5.67180014      -3.99212731E-04
   5.78679991      -4.01261350E-04
   5.90180016      -4.03310201E-04
   6.01679993      -4.05359082E-04
   6.13180017      -4.07408050E-04
   6.24679995      -4.09457192E-04
   6.36180019      -4.11506800E-04
   6.47679996      -4.13557282E-04
   6.59180021      -4.15609160E-04
   6.70679998      -4.17662959E-04
   6.82179976      -4.19719232E-04
   6.93680000      -4.21778328E-04
   7.05179977      -4.23840625E-04
   7.16680002      -4.25906241E-04
   7.28179979      -4.27975145E-04
   7.39680004      -4.30047017E-04
   7.51179981      -4.32121364E-04
   7.62680006      -4.34197660E-04
   7.74179983      -4.36275121E-04
   7.85680008      -4.38353076E-04
   7.97179985      -4.40430740E-04
   8.08679962      -4.42507560E-04
   8.20180035      -4.44583100E-04
   8.31680012      -4.46657126E-04
   8.43179989      -4.48729523E-04
   8.54679966      -4.50800580E-04
   8.66180038      -4.52870503E-04
   8.77680016      -4.54939873E-04
   8.89179993      -4.57009213E-04
   9.00679970      -4.59079223E-04
   9.12180042      -4.61150368E-04
   9.23680019      -4.63223143E-04
   9.35179996      -4.65297926E-04
   9.46679974      -4.67374775E-04
   9.58180046      -4.69453633E-04
   9.69680023      -4.71534207E-04
   9.81180000      -4.73615946E-04
   9.92679977      -4.75698296E-04
   10.0417995      -4.77780501E-04
   10.1568003      -4.79861803E-04
   10.2718000      -4.81941534E-04
   10.3867998      -4.84019023E-04
   10.5017996      -4.86093923E-04
   10.6168003      -4.88165912E-04
   10.7318001      -4.90234990E-04
   10.8467999      -4.92301246E-04
   10.9617996      -4.94364940E-04
   11.0768003      -4.96426481E-04
   11.1918001      -4.98486334E-04
   11.3067999      -5.00544964E-04
   11.4217997      -5.02602779E-04
   11.5368004      -5.04660071E-04
   11.6518002      -5.06717071E-04
   11.7667999      -5.08773781E-04
   11.8817997      -5.10830141E-04
   11.9968004      -5.12885919E-04
   12.1118002      -5.14940592E-04
   12.2268000      -5.16993809E-04
   12.3417997      -5.19045047E-04
   12.4568005      -5.21093723E-04
   12.5718002      -5.23139373E-04
   12.6868000      -5.25181647E-04
   12.8017998      -5.27220196E-04
   12.9167995      -5.29254961E-04
   13.0318003      -5.31285885E-04
   13.1468000      -5.33313025E-04
   13.2617998      -5.35336789E-04
   13.3767996      -5.37357351E-04
   13.4918003      -5.39375120E-04
   13.6068001      -5.41390444E-04
   13.7217999      -5.43403788E-04
   13.8367996      -5.45415271E-04
   13.9518003      -5.47425123E-04
   14.0668001      -5.49433345E-04
   14.1817999      -5.51439996E-04
   14.2967997      -5.53444668E-04
   14.4118004      -5.55447128E-04
   14.5268002      -5.57446969E-04
   14.6417999      -5.59443608E-04
   14.7567997      -5.61436696E-04
   14.8718004      -5.63425652E-04
   14.9868002      -5.65410010E-04
   15.1018000      -5.67389419E-04
   15.2167997      -5.69363416E-04
   15.3318005      -5.71331941E-04
   15.4468002      -5.73294936E-04
   15.5618000      -5.75252343E-04
   15.6767998      -5.77204453E-04
   15.7917995      -5.79151441E-04
   15.9068003      -5.81093715E-04
   16.0217991      -5.83031506E-04
   16.1368008      -5.84965281E-04
   16.2518005      -5.86895272E-04
   16.3668003      -5.88821655E-04
   16.4818001      -5.90744487E-04
   16.5967999      -5.92663710E-04
   16.7117996      -5.94579033E-04
   16.8267994      -5.96490223E-04
   16.9417992      -5.98396873E-04
   17.0568008      -6.00298343E-04
   17.1718006      -6.02194283E-04
   17.2868004      -6.04083936E-04
   17.4018002      -6.05967012E-04
   17.5167999      -6.07842929E-04
   17.6317997      -6.09711395E-04
   17.7467995      -6.11572235E-04
   17.8617992      -6.13425334E-04
   17.9768009      -6.15270808E-04
   18.0918007      -6.17108890E-04
   18.2068005      -6.18939870E-04
   18.3218002      -6.20764156E-04
   18.4368000      -6.22582098E-04
   18.5517998      -6.24394102E-04
   18.6667995      -6.26200519E-04
   18.7817993      -6.28001464E-04
   18.8967991      -6.29796996E-04
   19.0118008      -6.31586998E-04
   19.1268005      -6.33371179E-04
   19.2418003      -6.35149190E-04
   19.3568001      -6.36920682E-04
   19.4717999      -6.38685073E-04
   19.5867996      -6.40441955E-04
   19.7017994      -6.42191037E-04
   19.8167992      -6.43931970E-04
   19.9318008      -6.45664637E-04
   20.0468006      -6.47389039E-04
   20.1618004      -6.49105466E-04
   20.2768002      -6.50814152E-04
   20.3917999      -6.52515504E-04
   20.5067997      -6.54209987E-04
   20.6217995      -6.55898009E-04
   20.7367992      -6.57579920E-04
   20.8518009      -6.59256068E-04
   20.9668007      -6.60926511E-04
   21.0818005      -6.62591250E-04
   21.1968002      -6.64249994E-04
   21.3118000      -6.65902393E-04
   21.4267998      -6.67547865E-04
   21.5417995      -6.69185829E-04
   21.6567993      -6.70815527E-04
   21.7717991      -6.72436261E-04
   21.8868008      -6.74047449E-04
   22.0018005      -6.75648800E-04
   22.1168003      -6.77239965E-04
   22.2318001      -6.78821001E-04
   22.3467999      -6.80392026E-04
   22.4617996      -6.81953388E-04
   22.5767994      -6.83505787E-04
   22.6917992      -6.85049628E-04
   22.8068008      -6.86585612E-04
   22.9218006      -6.88114262E-04
   23.0368004      -6.89636217E-04
   23.1518002      -6.91151596E-04
   23.2667999      -6.92660746E-04