  -37.8452110         0.00000000    
  -37.7264595         1.18427898E-11
  -37.6077118         3.34464158E-11
  -37.4889603         6.07655801E-11
  -37.3702126         8.89053414E-11
  -37.2514610         1.13457653E-10
  -37.1327095         1.31685621E-10
  -37.0139618         1.43207460E-10
  -36.8952103         1.49960031E-10
  -36.7764626         1.55422369E-10
  -36.6577110         1.63302677E-10
  -36.5389595         1.76084536E-10
  -36.4202118         1.93918590E-10
  -36.3014603         2.14307169E-10
  -36.1827126         2.32842357E-10
  -36.0639610         2.44967630E-10
  -35.9452095         2.48406712E-10
  -35.8264618         2.45640036E-10
  -35.7077103         2.45693271E-10
  -35.5889626         2.64600591E-10
  -35.4702110         3.24196364E-10
  -35.3514595         4.49320386E-10
  -35.2327118         6.63984312E-10
  -35.1139603         9.87380400E-10
  -34.9952126         1.43070034E-09
  -34.8764610         1.99561456E-09
  -34.7577095         2.67476574E-09
  -34.6389618         3.45412809E-09
  -34.5202103         4.31658842E-09
  -34.4014626         5.24567767E-09
  -34.2827110         6.22853102E-09
  -34.1639595         7.25723259E-09
  -34.0452118         8.32845615E-09
  -33.9264603         9.44174428E-09
  -33.8077126         1.05972573E-08
  -33.6889610         1.17939596E-08
  -33.5702095         1.30291005E-08
  -33.4514618         1.42992560E-08
  -33.3327103         1.56026534E-08
  -33.2139626         1.69420318E-08
  -33.0952110         1.83268352E-08
  -32.9764595         1.97738963E-08
  -32.8577118         2.13060218E-08
  -32.7389603         2.29486901E-08
  -32.6202126         2.47255212E-08
  -32.5014610         2.66537850E-08
  -32.3827095         2.87411623E-08
  -32.2639618         3.09846335E-08
  -32.1452103         3.33718475E-08
  -32.0264626         3.58844296E-08
  -31.9077110         3.85023640E-08
  -31.7889614         4.12081995E-08
  -31.6702118         4.39898642E-08
  -31.5514603         4.68416559E-08
  -31.4327106         4.97628072E-08
  -31.3139610         5.27550519E-08
  -31.1952114         5.58192461E-08
  -31.0764618         5.89530522E-08
  -30.9577103         6.21497023E-08
  -30.8389606         6.53988934E-08
  -30.7202110         6.86891326E-08
  -30.6014614         7.20113817E-08
  -30.4827118         7.53621592E-08
  -30.3639603         7.87459697E-08
  -30.2452106         8.21755322E-08
  -30.1264610         8.56698747E-08
  -30.0077114         8.92506691E-08
  -29.8889618         9.29374409E-08
  -29.7702103         9.67428377E-08
  -29.6514606         1.00669496E-07
  -29.5327110         1.04709279E-07
  -29.4139614         1.08844716E-07
  -29.2952118         1.13053247E-07
  -29.1764603         1.17312496E-07
  -29.0577106         1.21605368E-07
  -28.9389610         1.25923535E-07
  -28.8202114         1.30268234E-07
  -28.7014618         1.34648374E-07
  -28.5827103         1.39076533E-07
  -28.4639606         1.43563838E-07
  -28.3452110         1.48116172E-07
  -28.2264614         1.52732568E-07
  -28.1077118         1.57407428E-07
  -27.9889603         1.62134342E-07
  -27.8702106         1.66912244E-07
  -27.7514610         1.71750600E-07
  -27.6327114         1.76671378E-07
  -27.5139618         1.81707989E-07
  -27.3952103         1.86899655E-07
  -27.2764606         1.92283551E-07
  -27.1577110         1.97886337E-07
  -27.0389614         2.03719893E-07
  -26.9202118         2.09778989E-07
  -26.8014603         2.16045962E-07
  -26.6827106         2.22498230E-07
  -26.5639610         2.29117276E-07
  -26.4452114         2.35896010E-07
  -26.3264618         2.42841963E-07
  -26.2077103         2.49975102E-07
  -26.0889606         2.57319954E-07
  -25.9702110         2.64896897E-07
  -25.8514614         2.72711958E-07
  -25.7327118         2.80753540E-07
  -25.6139603         2.88991231E-07
  -25.4952106         2.97382854E-07
  -25.3764610         3.05884782E-07
  -25.2577114         3.14461062E-07
  -25.1389618         3.23091939E-07
  -25.0202103         3.31775794E-07
  -24.9014606         3.40525503E-07
  -24.7827110         3.49359595E-07
  -24.6639614         3.58293335E-07
  -24.5452118         3.67329847E-07
  -24.4264603         3.76456114E-07
  -24.3077106         3.85645905E-07
  -24.1889610         3.94866078E-07
  -24.0702114         4.04086080E-07
  -23.9514618         4.13287580E-07
  -23.8327103         4.22470833E-07
  -23.7139606         4.31655195E-07
  -23.5952110         4.40875027E-07
  -23.4764614         4.50171910E-07
  -23.3577118         4.59587255E-07
  -23.2389603         4.69155424E-07
  -23.1202106         4.78902905E-07
  -23.0014610         4.88849366E-07
  -22.8827114         4.99015471E-07
  -22.7639618         5.09427707E-07
  -22.6452103         5.20127685E-07
  -22.5264606         5.31171395E-07
  -22.4077110         5.42625685E-07
  -22.2889614         5.54561211E-07
  -22.1702118         5.67041695E-07
  -22.0514603         5.80110679E-07
  -21.9327106         5.93786297E-07
  -21.8139610         6.08055757E-07
  -21.6952114         6.22879156E-07
  -21.5764618         6.38199651E-07
  -21.4577103         6.53954942E-07
  -21.3389606         6.70089662E-07
  -21.2202110         6.86565443E-07
  -21.1014614         7.03365515E-07
  -20.9827118         7.20492551E-07
  -20.8639603         7.37962580E-07
  -20.7452106         7.55795270E-07
  -20.6264610         7.74006139E-07
  -20.5077114         7.92600360E-07
  -20.3889618         8.11574125E-07
  -20.2702103         8.30919305E-07
  -20.1514606         8.50632148E-07
  -20.0327110         8.70721351E-07
  -19.9139614         8.91210902E-07
  -19.7952118         9.12140024E-07
  -19.6764603         9.33558454E-07
  -19.5577106         9.55511950E-07
  -19.4389610         9.78029789E-07
  -19.3202114         1.00111390E-06
  -19.2014618         1.02474053E-06
  -19.0827103         1.04886158E-06
  -18.9639606         1.07341805E-06
  -18.8452110         1.09835582E-06
  -18.7264614         1.12363944E-06
  -18.6077118         1.14925899E-06
  -18.4889603         1.17522518E-06
  -18.3702106         1.20156358E-06
  -18.2514610         1.22829738E-06
  -18.1327114         1.25543363E-06
  -18.0139618         1.28295505E-06
  -17.8952103         1.31082072E-06
  -17.7764606         1.33897277E-06
  -17.6577110         1.36735628E-06
  -17.5389614         1.39593396E-06
  -17.4202118         1.42470026E-06
  -17.3014603         1.45368358E-06
  -17.1827106         1.48294157E-06
  -17.0639610         1.51254665E-06
  -16.9452114         1.54256600E-06
  -16.8264618         1.57305067E-06
  -16.7077103         1.60402033E-06
  -16.5889606         1.63547088E-06
  -16.4702110         1.66738130E-06
  -16.3514614         1.69972373E-06
  -16.2327118         1.73247622E-06
  -16.1139603         1.76562639E-06
  -15.9952106         1.79916685E-06
  -15.8764610         1.83309533E-06
  -15.7577114         1.86739203E-06
  -15.6389608         1.90201172E-06
  -15.5202112         1.93688561E-06
  -15.4014606         1.97192026E-06
  -15.2827110         2.00701584E-06
  -15.1639614         2.04208004E-06
  -15.0452108         2.07705489E-06
  -14.9264612         2.11192332E-06
  -14.8077106         2.14671104E-06
  -14.6889610         2.18148261E-06
  -14.5702114         2.21632990E-06
  -14.4514608         2.25134454E-06
  -14.3327112         2.28660269E-06
  -14.2139606         2.32215416E-06
  -14.0952110         2.35801758E-06
  -13.9764614         2.39417614E-06
  -13.8577108         2.43059367E-06
  -13.7389612         2.46721856E-06
  -13.6202106         2.50400285E-06
  -13.5014610         2.54089309E-06
  -13.3827114         2.57784018E-06
  -13.2639608         2.61479227E-06
  -13.1452112         2.65170002E-06
  -13.0264606         2.68849158E-06
  -12.9077110         2.72510147E-06
  -12.7889614         2.76144510E-06
  -12.6702108         2.79746246E-06
  -12.5514612         2.83309373E-06
  -12.4327106         2.86831073E-06
  -12.3139610         2.90310072E-06
  -12.1952114         2.93747735E-06
  -12.0764608         2.97145993E-06
  -11.9577112         3.00505644E-06
  -11.8389606         3.03824504E-06
  -11.7202110         3.07097730E-06
  -11.6014614         3.10316022E-06
  -11.4827108         3.13466967E-06
  -11.3639612         3.16536398E-06
  -11.2452106         3.19510082E-06
  -11.1264610         3.22376741E-06
  -11.0077114         3.25128644E-06
  -10.8889608         3.27763314E-06
  -10.7702112         3.30281500E-06
  -10.6514606         3.32686886E-06
  -10.5327110         3.34983838E-06
  -10.4139614         3.37175379E-06
  -10.2952108         3.39262510E-06
  -10.1764612         3.41244322E-06
  -10.0577106         3.43118722E-06
  -9.93896103         3.44884393E-06
  -9.82021141         3.46538945E-06
  -9.70146084         3.48082858E-06
  -9.58271122         3.49517109E-06
  -9.46396065         3.50842697E-06
  -9.34521103         3.52059442E-06
  -9.22646141         3.53163773E-06
  -9.10771084         3.54149233E-06
  -8.98896122         3.55008456E-06
  -8.87021065         3.55729912E-06
  -8.75146103         3.56303212E-06
  -8.63271141         3.56720989E-06
  -8.51396084         3.56978944E-06
  -8.39521122         3.57073213E-06
  -8.27646065         3.57000636E-06
  -8.15771103         3.56758687E-06
  -8.03896141         3.56337432E-06
  -7.92021084         3.55723978E-06
  -7.80146122         3.54900567E-06
  -7.68271112         3.53843393E-06
  -7.56396103         3.52529560E-06
  -7.44521093         3.50939922E-06
  -7.32646084         3.49059792E-06
  -7.20771122         3.46880915E-06
  -7.08896112         3.44402451E-06
  -6.97021103         3.41627469E-06
  -6.85146093         3.38561108E-06
  -6.73271084         3.35208665E-06
  -6.61396122         3.31572687E-06
  -6.49521112         3.27652742E-06
  -6.37646103         3.23445761E-06
  -6.25771093         3.18947264E-06
  -6.13896084         3.14150043E-06
  -6.02021122         3.09047505E-06
  -5.90146112         3.03633010E-06
  -5.78271103         2.97893894E-06
  -5.66396093         2.91816968E-06
  -5.54521084         2.85386136E-06
  -5.42646122         2.78577227E-06
  -5.30771112         2.71367594E-06
  -5.18896103         2.63734273E-06
  -5.07021093         2.55656141E-06
  -4.95146084         2.47118760E-06
  -4.83271122         2.38117786E-06
  -4.71396112         2.28651675E-06
  -4.59521103         2.18728769E-06
  -4.47646093         2.08360325E-06
  -4.35771084         1.97556437E-06
  -4.23896122         1.86322814E-06
  -4.12021112         1.74661420E-06
  -4.00146103         1.62569415E-06
  -3.88271117         1.50033759E-06
  -3.76396108         1.37039956E-06
  -3.64521098         1.23573352E-06
  -3.52646112         1.09613518E-06
  -3.40771103         9.51473510E-07
  -3.28896117         8.01553085E-07
  -3.17021108         6.46233786E-07
  -3.05146098         4.85393855E-07
  -2.93271112         3.18885327E-07
  -2.81396103         1.46573214E-07
  -2.69521117        -3.17076712E-08
  -2.57646108        -2.16087557E-07
  -2.45771098        -4.06690049E-07
  -2.33896112        -6.03667559E-07
  -2.22021103        -8.07111746E-07
  -2.10146117        -1.01709213E-06
  -1.98271108        -1.23364396E-06
  -1.86396110        -1.45682918E-06
  -1.74521101        -1.68665940E-06
  -1.62646103        -1.92322818E-06
  -1.50771105        -2.16667286E-06
  -1.38896108        -2.41713929E-06
  -1.27021110        -2.67478731E-06
  -1.15146101        -2.93976586E-06
  -1.03271103        -3.21212406E-06
 -0.913961053        -3.49187894E-06
 -0.795211077        -3.77895299E-06
 -0.676461041        -4.07325115E-06
 -0.557711065        -4.37466042E-06
 -0.438961059        -4.68310373E-06
 -0.320211053        -4.99856333E-06
 -0.201461062        -5.32113927E-06
  -8.27110559E-02    -5.65097389E-06
   3.60389426E-02    -5.98827410E-06
  0.154788941        -6.33329182E-06
  0.273538947        -6.68618441E-06
  0.392288953        -7.04708827E-06
  0.511038959        -7.41610984E-06
  0.629788935        -7.79333823E-06
  0.748538971        -8.17875025E-06
  0.867288947        -8.57243958E-06
  0.986038923        -8.97446535E-06
   1.10478890        -9.38492849E-06
   1.22353899        -9.80394179E-06
   1.34228897        -1.02314507E-05
   1.46103895        -1.06674288E-05
   1.57978892        -1.11118325E-05
   1.69853890        -1.15645589E-05
   1.81728899        -1.20254372E-05
   1.93603897        -1.24944809E-05
   2.05478883        -1.29717155E-05
   2.17353892        -1.34572183E-05
   2.29228902        -1.39512413E-05
   2.41103888        -1.44539936E-05
   2.52978897        -1.49657299E-05
   2.64853883        -1.54866138E-05
   2.76728892        -1.60166765E-05
   2.88603902        -1.65558704E-05
   3.00478888        -1.71040556E-05
   3.12353897        -1.76609810E-05
   3.24228883        -1.82264539E-05
   3.36103892        -1.88001140E-05
   3.47978902        -1.93817577E-05
   3.59853888        -1.99711594E-05
   3.71728897        -2.05682190E-05
   3.83603883        -2.11728511E-05
   3.95478892        -2.17849338E-05
   4.07353878        -2.24044707E-05
   4.19228888        -2.30314581E-05
   4.31103897        -2.36659016E-05
   4.42978907        -2.43078739E-05
   4.54853916        -2.49574750E-05
   4.66728878        -2.56148942E-05
   4.78603888        -2.62802623E-05
   4.90478897        -2.69537868E-05
   5.02353907        -2.76355877E-05
   5.14228916        -2.83257596E-05
   5.26103878        -2.90241442E-05
   5.37978888        -2.97306306E-05
   5.49853897        -3.04449841E-05
   5.61728907        -3.11669210E-05
   5.73603916        -3.18961247E-05
   5.85478878        -3.26324116E-05
   5.97353888        -3.33756107E-05
   6.09228897        -3.41256018E-05
   6.21103907        -3.48823814E-05
   6.32978916        -3.56459350E-05
   6.44853878        -3.64161860E-05
   6.56728888        -3.71931492E-05
   6.68603897        -3.79767444E-05
   6.80478907        -3.87668733E-05
   6.92353916        -3.95633142E-05
   7.04228878        -4.03659360E-05
   7.16103888        -4.11745059E-05
   7.27978897        -4.19888056E-05
   7.39853907        -4.28086860E-05
   7.51728916        -4.36340597E-05
   7.63603878        -4.44647485E-05
   7.75478888        -4.53006178E-05
   7.87353897        -4.61416494E-05
   7.99228907        -4.69876722E-05
   8.11103916        -4.78385336E-05
   8.22978878        -4.86941171E-05
   8.34853935        -4.95541644E-05
   8.46728897        -5.04185809E-05
   8.58603859        -5.12871848E-05
   8.70478916        -5.21597649E-05
   8.82353878        -5.30362013E-05
   8.94228935        -5.39162174E-05
   9.06103897        -5.47995951E-05
   9.17978859        -5.56860105E-05
   9.29853916        -5.65750415E-05
   9.41728878        -5.74662408E-05
   9.53603935        -5.83591391E-05
   9.65478897        -5.92533652E-05
   9.77353859        -6.01486245E-05
   9.89228916        -6.10449424E-05
   10.0110388        -6.19422281E-05
   10.1297894        -6.28405687E-05
   10.2485390        -6.37401390E-05
   10.3672886        -6.46410408E-05
   10.4860392        -6.55432887E-05
   10.6047888        -6.64468462E-05
   10.7235394        -6.73515024E-05
   10.8422890        -6.82569662E-05
   10.9610386        -6.91629612E-05
   11.0797892        -7.00690725E-05
   11.1985388        -7.09747983E-05
   11.3172894        -7.18798110E-05
   11.4360390        -7.27836450E-05
   11.5547886        -7.36859220E-05
   11.6735392        -7.45862926E-05
   11.7922888        -7.54843131E-05
   11.9110394        -7.63796852E-05
   12.0297890        -7.72720450E-05
   12.1485386        -7.81611598E-05
   12.2672892        -7.90467893E-05
   12.3860388        -7.99289264E-05
   12.5047894        -8.08074910E-05
   12.6235390        -8.16823595E-05
   12.7422886        -8.25535681E-05
   12.8610392        -8.34208986E-05
   12.9797888        -8.42841764E-05
   13.0985394        -8.51429795E-05
   13.2172890        -8.59969077E-05
   13.3360386        -8.68453717E-05
   13.4547892        -8.76878112E-05
   13.5735388        -8.85236004E-05
   13.6922894        -8.93522883E-05
   13.8110390        -9.01735330E-05
   13.9297886        -9.09871087E-05
   14.0485392        -9.17929428E-05
   14.1672888        -9.25909117E-05
   14.2860394        -9.33809060E-05
   14.4047890        -9.41628823E-05
   14.5235386        -9.49367241E-05
   14.6422892        -9.57022203E-05
   14.7610388        -9.64593200E-05
   14.8797894        -9.72077250E-05
   14.9985390        -9.79472024E-05
   15.1172886        -9.86775049E-05
   15.2360392        -9.93983995E-05
   15.3547888        -1.00109712E-04
   15.4735394        -1.00811129E-04
   15.5922890        -1.01502359E-04
   15.7110386        -1.02182974E-04
   15.8297892        -1.02852609E-04
   15.9485388        -1.03510974E-04
   16.0672894        -1.04157698E-04
   16.1860390        -1.04792540E-04
   16.3047886        -1.05415304E-04
   16.4235382        -1.06025902E-04
   16.5422897        -1.06624131E-04
   16.6610394        -1.07209889E-04
   16.7797890        -1.07782951E-04
   16.8985386        -1.08343032E-04
   17.0172882        -1.08889733E-04
   17.1360397        -1.09422668E-04
   17.2547894        -1.09941495E-04
   17.3735390        -1.10445646E-04
   17.4922886        -1.10934896E-04
   17.6110382        -1.11409012E-04
   17.7297897        -1.11867979E-04
   17.8485394        -1.12311689E-04
   17.9672890        -1.12740374E-04
   18.0860386        -1.13154143E-04
   18.2047882        -1.13553026E-04
   18.3235397        -1.13937167E-04
   18.4422894        -1.14306546E-04
   18.5610390        -1.14661132E-04
   18.6797886        -1.15000752E-04
   18.7985382        -1.15325180E-04
   18.9172897        -1.15634124E-04
   19.0360394        -1.15927447E-04
   19.1547890        -1.16204785E-04
   19.2735386        -1.16465904E-04
   19.3922882        -1.16710500E-04
   19.5110397        -1.16938245E-04
   19.6297894        -1.17149008E-04
   19.7485390        -1.17342548E-04
   19.8672886        -1.17518677E-04
   19.9860382        -1.17677344E-04
   20.1047897        -1.17818679E-04
   20.2235394        -1.17942960E-04
   20.3422890        -1.18050593E-04
   20.4610386        -1.18141725E-04
   20.5797882        -1.18216725E-04
   20.6985397        -1.18275711E-04
   20.8172894        -1.18318676E-04
   20.9360390        -1.18345502E-04
   21.0547886        -1.18355827E-04
   21.1735382        -1.18349293E-04
   21.2922897        -1.18325435E-04
   21.4110394        -1.18283941E-04
   21.5297890        -1.18224540E-04
   21.6485386        -1.18147145E-04
   21.7672882        -1.18051677E-04
   21.8860397        -1.17938238E-04
   22.0047894        -1.17806892E-04
   22.1235390        -1.17657735E-04
   22.2422886        -1.17490941E-04
   22.3610382        -1.17306590E-04
   22.4797897        -1.17104952E-04
   22.5985394        -1.16886200E-04
   22.7172890        -1.16650692E-04
   22.8360386        -1.16398645E-04
   22.9547882        -1.16130424E-04
   23.0735397        -1.15846189E-04
   23.1922894        -1.15545983E-04
   23.3110390        -1.15229850E-04
   23.4297886        -1.14897775E-04
   23.5485382        -1.14549664E-04
   23.6672897        -1.14185343E-04
   23.7860394        -1.13804861E-04
   23.9047890        -1.13408467E-04
   24.0235386        -1.12996291E-04
   24.1422882        -1.12568792E-04
   24.2610397        -1.12126276E-04
   24.3797894        -1.11669164E-04
   24.4985390        -1.11197827E-04
   24.6172886        -1.10712404E-04
   24.7360382        -1.10213135E-04
   24.8547897        -1.09699839E-04
   24.9735394        -1.09172732E-04
   25.0922890        -1.08631808E-04
   25.2110386        -1.08077096E-04
   25.3297882        -1.07509004E-04
   25.4485397        -1.06927750E-04
   25.5672894        -1.06333660E-04
   25.6860390        -1.05726998E-04
   25.8047886        -1.05108105E-04
   25.9235382        -1.04477258E-04
   26.0422897        -1.03834624E-04
   26.1610394        -1.03180486E-04
   26.2797890        -1.02515020E-04
   26.3985386        -1.01838596E-04
   26.5172882        -1.01151469E-04
   26.6360397        -1.00454090E-04
   26.7547894        -9.97467359E-05
   26.8735390        -9.90295739E-05
   26.9922886        -9.83027348E-05
   27.1110382        -9.75661678E-05
   27.2297897        -9.68197346E-05
   27.3485394        -9.60633624E-05
   27.4672890        -9.52970950E-05
   27.5860386        -9.45210850E-05
   27.7047882        -9.37358491E-05
   27.8235397        -9.29418602E-05
   27.9422894        -9.21399260E-05
   28.0610390        -9.13307595E-05
   28.1797886        -9.05151246E-05
   28.2985382        -8.96936472E-05
   28.4172897        -8.88669238E-05
   28.5360394        -8.80352527E-05
   28.6547890        -8.71988887E-05
   28.7735386        -8.63579917E-05
   28.8922882        -8.55126782E-05
   29.0110397        -8.46631519E-05
   29.1297894        -8.38095293E-05
   29.2485390        -8.29519413E-05
   29.3672886        -8.20905625E-05
   29.4860382        -8.12254657E-05
   29.6047897        -8.03567091E-05
   29.7235394        -7.94844163E-05
   29.8422890        -7.86087039E-05
   29.9610386        -7.77298483E-05
   30.0797882        -7.68482350E-05
   30.1985397        -7.59643808E-05
   30.3172894        -7.50790059E-05
   30.4360390        -7.41928234E-05
   30.5547886        -7.33065535E-05
   30.6735382        -7.24208658E-05
   30.7922897        -7.15361966E-05
   30.9110394        -7.06526916E-05
   31.0297890        -6.97705254E-05
   31.1485386        -6.88896980E-05
   31.2672882        -6.80102530E-05
   31.3860397        -6.71321686E-05
   31.5047894        -6.62557068E-05
   31.6235390        -6.53810202E-05
   31.7422886        -6.45086038E-05
   31.8610382        -6.36389159E-05
   31.9797897        -6.27725312E-05
   32.0985374        -6.19097336E-05
   32.2172890        -6.10509887E-05
   32.3360405        -6.01966203E-05
   32.4547882        -5.93468976E-05
   32.5735397        -5.85021735E-05
   32.6922874        -5.76627353E-05
   32.8110390        -5.68290416E-05
   32.9297905        -5.60014923E-05
   33.0485382        -5.51804878E-05
   33.1672897        -5.43664682E-05
   33.2860374        -5.35597428E-05
   33.4047890        -5.27604170E-05
   33.5235405        -5.19686146E-05
   33.6422882        -5.11843682E-05
   33.7610397        -5.04077470E-05
   33.8797874        -4.96388457E-05
   33.9985390        -4.88779078E-05
   34.1172905        -4.81252209E-05
   34.2360382        -4.73812215E-05
   34.3547897        -4.66462334E-05
   34.4735374        -4.59206058E-05
   34.5922890        -4.52044551E-05
   34.7110405        -4.44978141E-05
   34.8297882        -4.38006427E-05
   34.9485397        -4.31127301E-05
   35.0672874        -4.24339996E-05
   35.1860390        -4.17643132E-05
   35.3047905        -4.11038491E-05
   35.4235382        -4.04530438E-05
   35.5422897        -3.98122320E-05
   35.6610374        -3.91819012E-05
   35.7797890        -3.85625426E-05
   35.8985405        -3.79544981E-05
   36.0172882        -3.73580915E-05
   36.1360397        -3.67734428E-05
   36.2547874        -3.62007413E-05
   36.3735390        -3.56401324E-05
   36.4922905        -3.50917544E-05
   36.6110382        -3.45557564E-05
   36.7297897        -3.40321822E-05
   36.8485374        -3.35212862E-05
   36.9672890        -3.30229050E-05
   37.0860405        -3.25370165E-05
   37.2047882        -3.20634463E-05
   37.3235397        -3.16019141E-05
   37.4422874        -3.11520453E-05
   37.5610390        -3.07137343E-05
   37.6797905        -3.02869721E-05
   37.7985382        -2.98719842E-05
   37.9172897        -2.94691836E-05
   38.0360374        -2.90790758E-05
   38.1547890        -2.87021285E-05
   38.2735405        -2.83389072E-05
   38.3922882        -2.79896340E-05
   38.5110397        -2.76544961E-05
   38.6297874        -2.73333935E-05
   38.7485390        -2.70261808E-05
   38.8672905        -2.67325522E-05
   38.9860382        -2.64522187E-05
   39.1047897        -2.61850673E-05
   39.2235374        -2.59310291E-05
   39.3422890        -2.56899129E-05
   39.4610405        -2.54617589E-05
   39.5797882        -2.52463469E-05
   39.6985397        -2.50435041E-05
   39.8172874        -2.48528886E-05
   39.9360390        -2.46742438E-05
   40.0547905        -2.45073825E-05
   40.1735382        -2.43520517E-05
   40.2922897        -2.42083152E-05
   40.4110374        -2.40763584E-05
   40.5297890        -2.39563487E-05
   40.6485405        -2.38485918E-05
   40.7672882        -2.37532695E-05
   40.8860397        -2.36703763E-05
   41.0047874        -2.35998614E-05
   41.1235390        -2.35413827E-05
   41.2422905        -2.34945692E-05
   41.3610382        -2.34591316E-05
   41.4797897        -2.34349754E-05
   41.5985374        -2.34219642E-05
   41.7172890        -2.34201489E-05
   41.8360405        -2.34296331E-05
   41.9547882        -2.34504696E-05
   42.0735397        -2.34826530E-05
   42.1922874        -2.35259631E-05
   42.3110390        -2.35800744E-05
   42.4297905        -2.36445412E-05
   42.5485382        -2.37188942E-05
   42.6672897        -2.38027005E-05
   42.7860374        -2.38957546E-05
   42.9047890        -2.39979181E-05
   43.0235405        -2.41090966E-05
   43.1422882        -2.42293718E-05
   43.2610397        -2.43586837E-05
   43.3797874        -2.44970088E-05
   43.4985390        -2.46441923E-05
   43.6172905        -2.47999378E-05
   43.7360382        -2.49639397E-05
   43.8547897        -2.51359306E-05
   43.9735374        -2.53156031E-05
   44.0922890        -2.55028499E-05
   44.2110405        -2.56976291E-05
   44.3297882        -2.58999844E-05
   44.4485397        -2.61098285E-05
   44.5672874        -2.63270194E-05
   44.6860390        -2.65513190E-05
   44.8047905        -2.67822652E-05
   44.9235382        -2.70192741E-05
   45.0422897        -2.72617362E-05
   45.1610374        -2.75092625E-05
   45.2797890        -2.77615291E-05
   45.3985405        -2.80182976E-05
   45.5172882        -2.82797319E-05
   45.6360397        -2.85460465E-05
   45.7547874        -2.88174178E-05
   45.8735390        -2.90940297E-05
   45.9922905        -2.93758949E-05
   46.1110382        -2.96627968E-05
   46.2297897        -2.99544172E-05
   46.3485374        -3.02504432E-05
   46.4672890        -3.05504218E-05
   46.5860405        -3.08541748E-05
   46.7047882        -3.11614676E-05
   46.8235397        -3.14722129E-05
   46.9422874        -3.17862905E-05
   47.0610390        -3.21035550E-05
   47.1797905        -3.24237080E-05
   47.2985382        -3.27461967E-05
   47.4172897        -3.30704024E-05
   47.5360374        -3.33956923E-05
   47.6547890        -3.37215242E-05
   47.7735405        -3.40475053E-05
   47.8922882        -3.43734246E-05
   48.0110397        -3.46993183E-05
   48.1297874        -3.50253722E-05
   48.2485390        -3.53518735E-05
   48.3672905        -3.56789969E-05
   48.4860382        -3.60066588E-05
   48.6047897        -3.63347535E-05
   48.7235374        -3.66628410E-05
   48.8422890        -3.69905392E-05
   48.9610405        -3.73174371E-05
   49.0797882        -3.76433127E-05
   49.1985397        -3.79680314E-05
   49.3172874        -3.82916296E-05
   49.4360390        -3.86141910E-05
   49.5547905        -3.89357156E-05
   49.6735382        -3.92560542E-05
   49.7922897        -3.95748393E-05
   49.9110374        -3.98915618E-05
   50.0297890        -4.02056139E-05
   50.1485405        -4.05163482E-05
   50.2672882        -4.08233609E-05
   50.3860397        -4.11262808E-05
   50.5047874        -4.14251917E-05
   50.6235390        -4.17201190E-05
   50.7422905        -4.20114084E-05
   50.8610382        -4.22993835E-05
   50.9797897        -4.25842190E-05
   51.0985374        -4.28657841E-05
   51.2172890        -4.31440421E-05
   51.3360405        -4.34186441E-05
   51.4547882        -4.36893970E-05
   51.5735397        -4.39561991E-05
   51.6922874        -4.42189448E-05
   51.8110390        -4.44778416E-05
   51.9297905        -4.47329876E-05
   52.0485382        -4.49844083E-05
   52.1672897        -4.52320164E-05
   52.2860374        -4.54755937E-05
   52.4047890        -4.57145798E-05
   52.5235405        -4.59483053E-05
   52.6422882        -4.61761374E-05
   52.7610397        -4.63975302E-05
   52.8797874        -4.66121892E-05
   52.9985390        -4.68200997E-05
   53.1172905        -4.70215273E-05
   53.2360382        -4.72167740E-05
   53.3547897        -4.74061635E-05
   53.4735374        -4.75899396E-05
   53.5922890        -4.77681751E-05
   53.7110405        -4.79405717E-05
   53.8297882        -4.81069983E-05
   53.9485397        -4.82670730E-05
   54.0672874        -4.84205957E-05
   54.1860390        -4.85675337E-05
   54.3047905        -4.87080761E-05
   54.4235382        -4.88423429E-05
   54.5422897        -4.89704980E-05
   54.6610374        -4.90927196E-05
   54.7797890        -4.92089202E-05
   54.8985405        -4.93188782E-05
   55.0172882        -4.94222331E-05
   55.1360397        -4.95185996E-05
   55.2547874        -4.96076864E-05
   55.3735390        -4.96892280E-05
   55.4922905        -4.97632827E-05
   55.6110382        -4.98301160E-05
   55.7297897        -4.98899317E-05
   55.8485374        -4.99431007E-05
   55.9672890        -4.99896960E-05
   56.0860405        -5.00296956E-05
   56.2047882        -5.00628776E-05
   56.3235397        -5.00889219E-05
   56.4422874        -5.01076320E-05
   56.5610390        -5.01188842E-05
   56.6797905        -5.01226859E-05
   56.7985382        -5.01191935E-05
   56.9172897        -5.01087525E-05
   57.0360374        -5.00917522E-05
   57.1547890        -5.00684691E-05
   57.2735405        -5.00390670E-05
   57.3922882        -5.00034148E-05
   57.5110397        -4.99613816E-05
   57.6297874        -4.99125163E-05
   57.7485390        -4.98565205E-05
   57.8672905        -4.97930851E-05
   57.9860382        -4.97220462E-05
   58.1047897        -4.96435350E-05
   58.2235374        -4.95577588E-05