  -37.8452110         0.00000000    
  -37.7302094         0.00000000    
  -37.6152115         0.00000000    
  -37.5002098         0.00000000    
  -37.3852119         0.00000000    
  -37.2702103         0.00000000    
  -37.1552124         2.01388822E-29
  -37.0402107         2.44749801E-28
  -36.9252129         1.58530776E-27
  -36.8102112         7.25377401E-27
  -36.6952095         2.62644706E-26
  -36.5802116         7.99317688E-26
  -36.4652100         2.12171832E-25
  -36.3502121         5.03496389E-25
  -36.2352104         1.08693072E-24
  -36.1202126         2.16188830E-24
  -36.0052109         3.99982258E-24
  -35.8902092         6.93409367E-24
  -35.7752113         1.13268988E-23
  -35.6602097         1.75091007E-23
  -35.5452118         2.56947064E-23
  -35.4302101         3.58800004E-23
  -35.3152122         4.77465163E-23
  -35.2002106         6.05948169E-23
  -35.0852127         7.33395716E-23
  -34.9702110         8.45931773E-23
  -34.8552094         9.28533020E-23
  -34.7402115         9.67894592E-23
  -34.6252098         9.55973073E-23
  -34.5102119         8.93608822E-23
  -34.3952103         7.93404113E-23
  -34.2802124         6.80914315E-23
  -34.1652107         5.93292694E-23
  -34.0502129         5.74839281E-23
  -33.9352112         6.69441816E-23
  -33.8202095         9.10636732E-23
  -33.7052116         1.31080877E-22
  -33.5902100         1.85179594E-22
  -33.4752121         2.47963090E-22
  -33.3602104         3.10617705E-22
  -33.2452126         3.61989312E-22
  -33.1302109         3.90675172E-22
  -33.0152092         3.88059486E-22
  -32.9002113         3.52003266E-22
  -32.7852097         2.90677396E-22
  -32.6702118         2.25837422E-22
  -32.5552101         1.94730049E-22
  -32.4402122         2.49835177E-22
  -32.3252106         4.55811051E-22
  -32.2102127         8.83338421E-22
  -32.0952110         1.60002156E-21
  -31.9802113         2.65906477E-21
  -31.8652115         4.08701136E-21
  -31.7502117         5.87232198E-21
  -31.6352119         7.95687003E-21
  -31.5202103         1.02324520E-20
  -31.4052105         1.25440874E-20
  -31.2902107         1.47011983E-20
  -31.1752110         1.64967538E-20
  -31.0602112         1.77331658E-20
  -30.9452114         1.82524915E-20
  -30.8302116         1.79672176E-20
  -30.7152119         1.68870845E-20
  -30.6002102         1.51370708E-20
  -30.4852104         1.29620616E-20
  -30.3702106         1.07148485E-20
  -30.2552109         8.82605429E-21
  -30.1402111         7.75704533E-21
  -30.0252113         7.93979004E-21
  -29.9102116         9.71037661E-21
  -29.7952118         1.32452869E-20
  -29.6802101         1.85108917E-20
  -29.5652103         2.52366763E-20
  -29.4502106         3.29211809E-20
  -29.3352108         4.08761769E-20
  -29.2202110         4.83097938E-20
  -29.1052113         5.44430440E-20
  -28.9902115         5.86475061E-20
  -28.8752117         6.05858811E-20
  -28.7602119         6.03322339E-20
  -28.6452103         5.84468114E-20
  -28.5302105         5.59822785E-20
  -28.4152107         5.44037464E-20
  -28.3002110         5.54159958E-20
  -28.1852112         6.07050080E-20
  -28.0702114         7.16181699E-20
  -27.9552116         8.88238562E-20
  -27.8402119         1.12005606E-19
  -27.7252102         1.39654505E-19
  -27.6102104         1.69023191E-19
  -27.4952106         1.96293307E-19
  -27.3802109         2.16985114E-19
  -27.2652111         2.26603906E-19
  -27.1502113         2.21474430E-19
  -27.0352116         1.99669613E-19
  -26.9202118         1.61897444E-19
  -26.8052101         1.12180309E-19
  -26.6902103         5.81509457E-20
  -26.5752106         1.08055104E-20
  -26.4602108        -1.63973176E-20
  -26.3452110        -9.12532404E-21
  -26.2302113         4.56203517E-20
  -26.1152115         1.56869142E-19
  -26.0002117         3.26923259E-19
  -25.8852119         5.48886656E-19
  -25.7702103         8.04949048E-19
  -25.6552105         1.06589997E-18
  -25.5402107         1.29227811E-18
  -25.4252110         1.43742060E-18
  -25.3102112         1.45245471E-18
  -25.1952114         1.29300345E-18
  -25.0802116         9.27066704E-19
  -24.9652119         3.43240017E-19
  -24.8502102        -4.41813140E-19
  -24.7352104        -1.37787693E-18
  -24.6202106        -2.37894104E-18
  -24.5052109        -3.32530204E-18
  -24.3902111        -4.07076921E-18
  -24.2752113        -4.45523407E-18
  -24.1602116        -4.32220027E-18
  -24.0452118        -3.54013036E-18
  -23.9302101        -2.02573844E-18
  -23.8152103         2.33323223E-19
  -23.7002106         3.15937892E-18
  -23.5852108         6.57243511E-18
  -23.4702110         1.01876755E-17
  -23.3552113         1.36251801E-17
  -23.2402115         1.64332763E-17
  -23.1252117         1.81255803E-17
  -23.0102119         1.82301740E-17
  -22.8952103         1.63475837E-17
  -22.7802105         1.22125549E-17
  -22.6652107         5.75318592E-18
  -22.5502110        -2.85988184E-18
  -22.4352112        -1.31818841E-17
  -22.3202114        -2.44868887E-17
  -22.2052116        -3.57908776E-17
  -22.0902119        -4.59080244E-17
  -21.9752102        -5.35402114E-17
  -21.8602104        -5.73959716E-17
  -21.7452106        -5.63312710E-17
  -21.6302109        -4.95006121E-17
  -21.5152111        -3.65039503E-17
  -21.4002113        -1.75126113E-17
  -21.2852116         6.64287574E-18
  -21.1702118         3.44393141E-17
  -21.0552101         6.36946608E-17
  -20.9402103         9.16770361E-17
  -20.8252106         1.15290184E-16
  -20.7102108         1.31328832E-16
  -20.5952110         1.36788423E-16
  -20.4802113         1.29206194E-16
  -20.3652115         1.07002807E-16
  -20.2502117         6.97893739E-17
  -20.1352119         1.86024929E-17
  -20.0202103        -4.39683520E-17
  -19.9052105        -1.13791081E-16
  -19.7902107        -1.85359462E-16
  -19.6752110        -2.52126742E-16
  -19.5602112        -3.06996080E-16
  -19.4452114        -3.42942200E-16
  -19.3302116        -3.53720906E-16
  -19.2152119        -3.34608931E-16
  -19.1002102        -2.83104775E-16
  -18.9852104        -1.99515077E-16
  -18.8702106        -8.73529991E-17
  -18.7552109         4.65182620E-17
  -18.6402111         1.92045424E-16
  -18.5252113         3.36476136E-16
  -18.4102116         4.65177630E-16
  -18.2952118         5.62749685E-16
  -18.1802101         6.14364220E-16
  -18.0652103         6.07234214E-16
  -17.9502106         5.32090480E-16
  -17.8352108         3.84528076E-16
  -17.7202110         1.66083415E-16
  -17.6052113        -1.15092680E-16
  -17.4902115        -4.44072084E-16
  -17.3752117        -7.99573427E-16
  -17.2602119        -1.15499719E-15
  -17.1452103        -1.48004714E-15
  -17.0302105        -1.74285404E-15
  -16.9152107        -1.91246466E-15
  -16.8002110        -1.96150977E-15
  -16.6852112        -1.86883801E-15
  -16.5702114        -1.62187317E-15
  -16.4552116        -1.21847436E-15
  -16.3402119        -6.68086226E-16
  -16.2252102         7.97523706E-18
  -16.1102104         7.77194234E-16
  -15.9952106         1.59749800E-15
  -15.8802109         2.41980118E-15
  -15.7652111         3.19129277E-15
  -15.6502113         3.85923373E-15
  -15.5352106         4.37496456E-15
  -15.4202108         4.69780227E-15
  -15.3052111         4.79847383E-15
  -15.1902113         4.66176949E-15
  -15.0752115         4.28815681E-15
  -14.9602108         3.69415293E-15
  -14.8452110         2.91138226E-15
  -14.7302113         1.98433773E-15
  -14.6152115         9.66999071E-16
  -14.5002108        -8.14412914E-17
  -14.3852110        -1.10139112E-15
  -14.2702112        -2.03780055E-15
  -14.1552114        -2.84479446E-15
  -14.0402107        -3.48955763E-15
  -13.9252110        -3.95510642E-15
  -13.8102112        -4.24164454E-15
  -13.6952114        -4.36634261E-15
  -13.5802107        -4.36150436E-15
  -13.4652109        -4.27124114E-15
  -13.3502111        -4.14691491E-15
  -13.2352114        -4.04172909E-15
  -13.1202106        -4.00495727E-15
  -13.0052109        -4.07632192E-15
  -12.8902111        -4.28106418E-15
  -12.7752113        -4.62618860E-15
  -12.6602106        -5.09827776E-15
  -12.5452108        -5.66313481E-15
  -12.4302111        -6.26735263E-15
  -12.3152113        -6.84174473E-15
  -12.2002115        -7.30637661E-15
  -12.0852108        -7.57680627E-15
  -11.9702110        -7.57100410E-15
  -11.8552113        -7.21635140E-15
  -11.7402115        -6.45608767E-15
  -11.6252108        -5.25463199E-15
  -11.5102110        -3.60125841E-15
  -11.3952112        -1.51175741E-15
  -11.2802114         9.72066763E-16
  -11.1652107         3.78512046E-15
  -11.0502110         6.84370815E-15
  -10.9352112         1.00518264E-14
  -10.8202114         1.33085004E-14
  -10.7052107         1.65155416E-14
  -10.5902109         1.95849959E-14
  -10.4752111         2.24456226E-14
  -10.3602114         2.50477756E-14
  -10.2452106         2.73662200E-14
  -10.1302109         2.94005678E-14
  -10.0152111         3.11732587E-14
  -9.90021133         3.27251925E-14
  -9.78521061         3.41093798E-14
  -9.67021084         3.53831107E-14
  -9.55521107         3.65993789E-14
  -9.44021130         3.77982320E-14
  -9.32521152         3.89989622E-14
  -9.21021080         4.01937395E-14
  -9.09521103         4.13435054E-14
  -8.98021126         4.23764044E-14
  -8.86521149         4.31891834E-14
  -8.75021076         4.36514973E-14
  -8.63521099         4.36128997E-14
  -8.52021122         4.29121223E-14
  -8.40521145         4.13879915E-14
  -8.29021072         3.88911281E-14
  -8.17521095         3.52956630E-14
  -8.06021118         3.05099777E-14
  -7.94521093         2.44856710E-14
  -7.83021116         1.72240762E-14
  -7.71521091         8.77969809E-15
  -7.60021114        -7.39664798E-16
  -7.48521090        -1.11761991E-14
  -7.37021112        -2.23286321E-14
  -7.25521088        -3.39615387E-14
  -7.14021111        -4.58168863E-14
  -7.02521086        -5.76268837E-14
  -6.91021109        -6.91273685E-14
  -6.79521084        -8.00707902E-14
  -6.68021107        -9.02377877E-14
  -6.56521130        -9.94467705E-14
  -6.45021105        -1.07560675E-13
  -6.33521128        -1.14490652E-13
  -6.22021103        -1.20196306E-13
  -6.10521126        -1.24682843E-13
  -5.99021101        -1.27994959E-13
  -5.87521124        -1.30208466E-13
  -5.76021099        -1.31419954E-13
  -5.64521122        -1.31735416E-13
  -5.53021097        -1.31258706E-13
  -5.41521120        -1.30080598E-13
  -5.30021095        -1.28269249E-13
  -5.18521118        -1.25862740E-13
  -5.07021093        -1.22864094E-13
  -4.95521116        -1.19239159E-13
  -4.84021091        -1.14917380E-13
  -4.72521114        -1.09795365E-13
  -4.61021090        -1.03742820E-13
  -4.49521112        -9.66104909E-14
  -4.38021088        -8.82393862E-14
  -4.26521111        -7.84707111E-14
  -4.15021086        -6.71556723E-14
  -4.03521109        -5.41645958E-14
  -3.92021108        -3.93948112E-14
  -3.80521107        -2.27766872E-14
  -3.69021106        -4.27767859E-15
  -3.57521105         1.60957080E-14
  -3.46021104         3.82981204E-14
  -3.34521103         6.22473671E-14
  -3.23021102         8.78278502E-14
  -3.11521101         1.14895154E-13
  -3.00021100         1.43281139E-13
  -2.88521099         1.72798611E-13
  -2.77021098         2.03245935E-13
  -2.65521097         2.34410473E-13
  -2.54021096         2.66070559E-13
  -2.42521095         2.97996518E-13
  -2.31021094         3.29950043E-13
  -2.19521117         3.61682310E-13
  -2.08021116         3.92931835E-13
  -1.96521103         4.23421254E-13
  -1.85021102         4.52855066E-13
  -1.73521101         4.80917931E-13
  -1.62021101         5.07274236E-13
  -1.50521111         5.31569959E-13
  -1.39021111         5.53436420E-13
  -1.27521110         5.72497074E-13
  -1.16021109         5.88376190E-13
  -1.04521108         6.00710237E-13
 -0.930211067         6.09160996E-13
 -0.815211058         6.13429555E-13
 -0.700211048         6.13271098E-13
 -0.585211039         6.08508632E-13
 -0.470211059         5.99045824E-13
 -0.355211049         5.84876982E-13
 -0.240211055         5.66094101E-13
 -0.125211060         5.42889735E-13
  -1.02110580E-02     5.15556293E-13
  0.104788944         4.84481379E-13
  0.219788939         4.50137838E-13
  0.334788948         4.13071649E-13
  0.449788928         3.73886496E-13
  0.564788938         3.33226421E-13
  0.679788947         2.91758479E-13
  0.794788957         2.50154660E-13
  0.909788966         2.09076381E-13
   1.02478898         1.69159839E-13
   1.13978899         1.31005151E-13
   1.25478899         9.51673432E-14
   1.36978889         6.21505411E-14
   1.48478889         3.24036215E-14
   1.59978890         6.31787984E-15
   1.71478891        -1.57765392E-14
   1.82978892        -3.36143365E-14
   1.94478893        -4.70030238E-14
   2.05978894        -5.58329390E-14
   2.17478895        -6.00945617E-14
   2.28978896        -5.98985312E-14
   2.40478897        -5.55031857E-14
   2.51978898        -4.73461534E-14
   2.63478899        -3.60792329E-14
   2.74978900        -2.26040720E-14
   2.86478901        -8.10810007E-15
   2.97978902         5.90408858E-15
   3.09478903         1.75858982E-14
   3.20978904         2.47345699E-14
   3.32478905         2.47894119E-14
   3.43978906         1.48451570E-14
   3.55478883        -8.31843105E-15
   3.66978884        -4.81885819E-14
   3.78478885        -1.08454918E-13
   3.89978886        -1.92929819E-13
   4.01478910        -3.05454338E-13
   4.12978888        -4.49793984E-13
   4.24478912        -6.29530445E-13
   4.35978889        -8.47950182E-13
   4.47478914        -1.10793742E-12
   4.58978891        -1.41187507E-12
   4.70478916        -1.76155867E-12
   4.81978893        -2.15812741E-12
   4.93478870        -2.60201236E-12
   5.04978895        -3.09290918E-12
   5.16478872        -3.62976901E-12
   5.27978897        -4.21081269E-12
   5.39478874        -4.83356064E-12
   5.50978899        -5.49488580E-12
   5.62478876        -6.19107630E-12
   5.73978901        -6.91790548E-12
   5.85478878        -7.67071302E-12
   5.96978903        -8.44448643E-12
   6.08478880        -9.23393913E-12
   6.19978905        -1.00335868E-11
   6.31478882        -1.08378202E-11
   6.42978907        -1.16409686E-11
   6.54478884        -1.24373558E-11
   6.65978909        -1.32213563E-11
   6.77478886        -1.39874431E-11
   6.88978910        -1.47302257E-11
   7.00478888        -1.54445068E-11
   7.11978912        -1.61253198E-11
   7.23478889        -1.67679811E-11
   7.34978914        -1.73681469E-11
   7.46478891        -1.79218723E-11
   7.57978916        -1.84256707E-11
   7.69478893        -1.88765878E-11
   7.80978870        -1.92722678E-11
   7.92478895        -1.96110211E-11
   8.03978920        -1.98918920E-11
   8.15478897        -2.01147085E-11
   8.26978874        -2.02801335E-11
   8.38478851        -2.03896917E-11
   8.49978924        -2.04457701E-11
   8.61478901        -2.04516161E-11
   8.72978878        -2.04112994E-11
   8.84478855        -2.03296407E-11
   8.95978928        -2.02121323E-11
   9.07478905        -2.00648317E-11
   9.18978882        -1.98942200E-11
   9.30478859        -1.97070537E-11
   9.41978931        -1.95102094E-11
   9.53478909        -1.93105046E-11
   9.64978886        -1.91145207E-11
   9.76478863        -1.89284456E-11
   9.87978935        -1.87578980E-11
   9.99478912        -1.86077855E-11
   10.1097889        -1.84821863E-11
   10.2247887        -1.83842403E-11
   10.3397894        -1.83160830E-11
   10.4547892        -1.82788021E-11
   10.5697889        -1.82724304E-11
   10.6847887        -1.82959706E-11
   10.7997885        -1.83474538E-11
   10.9147892        -1.84240158E-11
   11.0297890        -1.85220103E-11
   11.1447887        -1.86371283E-11
   11.2597885        -1.87645437E-11
   11.3747892        -1.88990629E-11
   11.4897890        -1.90352734E-11
   11.6047888        -1.91676935E-11
   11.7197886        -1.92909109E-11
   11.8347893        -1.93997093E-11
   11.9497890        -1.94891932E-11
   12.0647888        -1.95548681E-11
   12.1797886        -1.95927233E-11
   12.2947893        -1.95992927E-11
   12.4097891        -1.95716863E-11
   12.5247889        -1.95076316E-11
   12.6397886        -1.94054651E-11
   12.7547894        -1.92641545E-11
   12.8697891        -1.90832818E-11
   12.9847889        -1.88630344E-11
   13.0997887        -1.86041980E-11
   13.2147894        -1.83081484E-11
   13.3297892        -1.79768422E-11
   13.4447889        -1.76128105E-11
   13.5597887        -1.72191515E-11
   13.6747885        -1.67995340E-11
   13.7897892        -1.63581874E-11
   13.9047890        -1.58999012E-11
   14.0197887        -1.54300097E-11
   14.1347885        -1.49543763E-11
   14.2497892        -1.44793726E-11
   14.3647890        -1.40118360E-11
   14.4797888        -1.35590332E-11
   14.5947886        -1.31286006E-11
   14.7097893        -1.27284849E-11
   14.8247890        -1.23668714E-11
   14.9397888        -1.20521032E-11
   15.0547886        -1.17926008E-11
   15.1697893        -1.15967774E-11
   15.2847891        -1.14729502E-11
   15.3997889        -1.14292568E-11
   15.5147886        -1.14735738E-11
   15.6297894        -1.16134350E-11
   15.7447891        -1.18559502E-11
   15.8597889        -1.22077426E-11
   15.9747887        -1.26748664E-11
   16.0897884        -1.32627433E-11
   16.2047882        -1.39760998E-11
   16.3197899        -1.48188926E-11
   16.4347897        -1.57942548E-11
   16.5497894        -1.69044188E-11
   16.6647892        -1.81506685E-11
   16.7797890        -1.95332708E-11
   16.8947887        -2.10514332E-11
   17.0097885        -2.27032542E-11
   17.1247883        -2.44856878E-11
   17.2397881        -2.63945324E-11
   17.3547897        -2.84244208E-11
   17.4697895        -3.05688357E-11
   17.5847893        -3.28201424E-11
   17.6997890        -3.51696484E-11
   17.8147888        -3.76076670E-11
   17.9297886        -4.01236058E-11
   18.0447884        -4.27060783E-11
   18.1597881        -4.53430175E-11
   18.2747898        -4.80217983E-11
   18.3897896        -5.07293686E-11
   18.5047894        -5.34523606E-11
   18.6197891        -5.61772365E-11
   18.7347889        -5.88903856E-11
   18.8497887        -6.15782633E-11
   18.9647884        -6.42274428E-11
   19.0797882        -6.68247610E-11
   19.1947899        -6.93573740E-11
   19.3097897        -7.18128612E-11
   19.4247894        -7.41793085E-11
   19.5397892        -7.64453917E-11
   19.6547890        -7.86005150E-11
   19.7697887        -8.06348877E-11
   19.8847885        -8.25396557E-11
   19.9997883        -8.43070821E-11
   20.1147881        -8.59306445E-11
   20.2297897        -8.74052150E-11
   20.3447895        -8.87272270E-11
   20.4597893        -8.98947861E-11
   20.5747890        -9.09078299E-11
   20.6897888        -9.17681972E-11
   20.8047886        -9.24797183E-11
   20.9197884        -9.30482011E-11
   21.0347881        -9.34813962E-11
   21.1497898        -9.37889003E-11
   21.2647896        -9.39819958E-11
   21.3797894        -9.40734018E-11
   21.4947891        -9.40770378E-11
   21.6097889        -9.40076628E-11
   21.7247887        -9.38805006E-11
   21.8397884        -9.37109002E-11
   21.9547882        -9.35139119E-11
   22.0697899        -9.33038716E-11
   22.1847897        -9.30941088E-11
   22.2997894        -9.28965516E-11
   22.4147892        -9.27215041E-11
   22.5297890        -9.25773971E-11
   22.6447887        -9.24706492E-11
   22.7597885        -9.24056109E-11
   22.8747883        -9.23844820E-11
   22.9897881        -9.24074289E-11
   23.1047897        -9.24726198E-11
   23.2197895        -9.25763979E-11
   23.3347893        -9.27133925E-11
   23.4497890        -9.28767271E-11
   23.5647888        -9.30581931E-11
   23.6797886        -9.32483882E-11
   23.7947884        -9.34368902E-11
   23.9097881        -9.36123817E-11
   24.0247898        -9.37627198E-11
   24.1397896        -9.38750536E-11
   24.2547894        -9.39358383E-11
   24.3697891        -9.39309117E-11
   24.4847889        -9.38455078E-11
   24.5997887        -9.36643194E-11
   24.7147884        -9.33715535E-11
   24.8297882        -9.29509941E-11
   24.9447899        -9.23861543E-11
   25.0597897        -9.16603946E-11
   25.1747894        -9.07571379E-11
   25.2897892        -8.96601057E-11
   25.4047890        -8.83536092E-11
   25.5197887        -8.68228128E-11
   25.6347885        -8.50540888E-11
   25.7497883        -8.30353286E-11
   25.8647881        -8.07562489E-11
   25.9797897        -7.82087103E-11
   26.0947895        -7.53869953E-11
   26.2097893        -7.22879465E-11
   26.3247890        -6.89112101E-11
   26.4397888        -6.52592563E-11
   26.5547886        -6.13374213E-11
   26.6697884        -5.71538337E-11
   26.7847881        -5.27192803E-11
   26.8997898        -4.80469449E-11
   27.0147896        -4.31522318E-11
   27.1297894        -3.80523391E-11
   27.2447891        -3.27659636E-11
   27.3597889        -2.73128430E-11
   27.4747887        -2.17133828E-11
   27.5897884        -1.59882593E-11
   27.7047882        -1.01579656E-11
   27.8197899        -4.24244927E-12
   27.9347897         1.73921999E-12
   28.0497894         7.76920542E-12
   28.1647892         1.38311211E-11
   28.2797890         1.99103008E-11
   28.3947887         2.59939396E-11
   28.5097885         3.20712797E-11
   28.6247883         3.81336490E-11
   28.7397881         4.41745737E-11
   28.8547897         5.01897135E-11
   28.9697895         5.61770248E-11
   29.0847893         6.21365459E-11
   29.1997890         6.80705006E-11
   29.3147888         7.39831529E-11
   29.4297886         7.98808450E-11
   29.5447884         8.57718133E-11
   29.6597881         9.16662579E-11
   29.7747898         9.75760514E-11
   29.8897896         1.03514780E-10
   30.0047894         1.09497557E-10
   30.1197891         1.15540848E-10
   30.2347889         1.21662319E-10
   30.3497887         1.27880581E-10
   30.4647884         1.34214986E-10
   30.5797882         1.40685283E-10
   30.6947899         1.47311247E-10
   30.8097897         1.54112431E-10
   30.9247894         1.61107613E-10
   31.0397892         1.68314473E-10
   31.1547890         1.75749124E-10
   31.2697887         1.83425677E-10
   31.3847885         1.91355862E-10
   31.4997883         1.99548572E-10
   31.6147881         2.08009610E-10
   31.7297897         2.16741305E-10
   31.8447895         2.25742425E-10
   31.9597893         2.35007930E-10
   32.0747871         2.44529119E-10
   32.1897888         2.54293475E-10
   32.3047905         2.64285038E-10
   32.4197884         2.74484657E-10
   32.5347900         2.84870183E-10
   32.6497879         2.95417052E-10
   32.7647896         3.06098924E-10
   32.8797874         3.16888016E-10
   32.9947891         3.27755822E-10
   33.1097908         3.38673811E-10
   33.2247887         3.49614004E-10
   33.3397903         3.60549590E-10
   33.4547882         3.71455533E-10
   33.5697899         3.82309212E-10
   33.6847878         3.93090810E-10
   33.7997894         4.03783756E-10
   33.9147873         4.14375201E-10
   34.0297890         4.24856261E-10
   34.1447906         4.35222081E-10
   34.2597885         4.45472131E-10
   34.3747902         4.55610022E-10
   34.4897881         4.65643579E-10
   34.6047897         4.75584461E-10
   34.7197876         4.85448071E-10
   34.8347893         4.95253061E-10
   34.9497871         5.05020636E-10
   35.0647888         5.14774501E-10
   35.1797905         5.24539634E-10
   35.2947884         5.34341793E-10
   35.4097900         5.44206902E-10
   35.5247879         5.54159718E-10
   35.6397896         5.64223557E-10
   35.7547874         5.74419012E-10
   35.8697891         5.84763293E-10
   35.9847908         5.95269334E-10
   36.0997887         6.05945183E-10
   36.2147903         6.16793339E-10
   36.3297882         6.27810248E-10
   36.4447899         6.38985809E-10
   36.5597878         6.50303422E-10
   36.6747894         6.61739552E-10
   36.7897873         6.73264167E-10
   36.9047890         6.84840684E-10
   37.0197906         6.96426639E-10
   37.1347885         7.07973902E-10
   37.2497902         7.19429571E-10
   37.3647881         7.30736582E-10
   37.4797897         7.41834538E-10
   37.5947876         7.52660601E-10
   37.7097893         7.63150543E-10
   37.8247871         7.73239306E-10
   37.9397888         7.82862442E-10
   38.0547905         7.91956722E-10
   38.1697884         8.00461253E-10
   38.2847900         8.08318301E-10
   38.3997879         8.15474133E-10
   38.5147896         8.21879953E-10
   38.6297874         8.27492519E-10
   38.7447891         8.32275027E-10
   38.8597908         8.36197556E-10
   38.9747887         8.39238012E-10
   39.0897903         8.41382186E-10
   39.2047882         8.42624470E-10
   39.3197899         8.42967973E-10
   39.4347878         8.42424686E-10
   39.5497894         8.41015646E-10
   39.6647873         8.38770386E-10
   39.7797890         8.35727043E-10
   39.8947906         8.31931579E-10
   40.0097885         8.27437396E-10
   40.1247902         8.22304003E-10
   40.2397881         8.16596679E-10
   40.3547897         8.10384759E-10
   40.4697876         8.03741018E-10
   40.5847893         7.96739674E-10
   40.6997871         7.89455668E-10
   40.8147888         7.81962772E-10
   40.9297905         7.74332543E-10
   41.0447884         7.66632924E-10
   41.1597900         7.58926866E-10
   41.2747879         7.51271267E-10
   41.3897896         7.43716033E-10
   41.5047874         7.36303074E-10
   41.6197891         7.29065586E-10
   41.7347908         7.22027604E-10
   41.8497887         7.15203397E-10
   41.9647903         7.08597514E-10
   42.0797882         7.02204628E-10
   42.1947899         6.96009361E-10
   42.3097878         6.89986734E-10
   42.4247894         6.84102441E-10
   42.5397873         6.78313294E-10
   42.6547890         6.72567668E-10
   42.7697906         6.66806166E-10
   42.8847885         6.60962340E-10
   42.9997902         6.54963417E-10
   43.1147881         6.48730902E-10
   43.2297897         6.42181974E-10
   43.3447876         6.35229869E-10
   43.4597893         6.27785157E-10
   43.5747871         6.19756690E-10
   43.6897888         6.11052819E-10
   43.8047905         6.01582339E-10
   43.9197884         5.91255711E-10
   44.0347900         5.79986503E-10
   44.1497879         5.67692060E-10
   44.2647896         5.54295665E-10
   44.3797874         5.39726486E-10
   44.4947891         5.23921795E-10
   44.6097908         5.06827191E-10
   44.7247887         4.88398155E-10
   44.8397903         4.68600658E-10
   44.9547882         4.47411802E-10
   45.0697899         4.24820318E-10
   45.1847878         4.00826761E-10
   45.2997894         3.75443815E-10
   45.4147873         3.48695961E-10
   45.5297890         3.20619253E-10
   45.6447906         2.91260543E-10
   45.7597885         2.60676758E-10
   45.8747902         2.28933872E-10
   45.9897881         1.96105576E-10
   46.1047897         1.62272029E-10
   46.2197876         1.27518204E-10
   46.3347893         9.19327392E-11
   46.4497871         5.56058047E-11
   46.5647888         1.86276168E-11
   46.6797905        -1.89129025E-11
   46.7947884        -5.69299365E-11
   46.9097900        -9.53421647E-11
   47.0247879        -1.34074085E-10
   47.1397896        -1.73056625E-10
   47.2547874        -2.12229193E-10
   47.3697891        -2.51539622E-10
   47.4847908        -2.90944907E-10
   47.5997887        -3.30411615E-10
   47.7147903        -3.69916153E-10
   47.8297882        -4.09445172E-10
   47.9447899        -4.48994508E-10
   48.0597878        -4.88569352E-10
   48.1747894        -5.28183997E-10
   48.2897873        -5.67860703E-10
   48.4047890        -6.07629447E-10
   48.5197906        -6.47526421E-10
   48.6347885        -6.87593427E-10
   48.7497902        -7.27876981E-10
   48.8647881        -7.68427044E-10
   48.9797897        -8.09295353E-10
   49.0947876        -8.50534587E-10
   49.2097893        -8.92197261E-10
   49.3247871        -9.34334277E-10
   49.4397888        -9.76993375E-10
   49.5547905        -1.02021847E-09
   49.6697884        -1.06404796E-09
   49.7847900        -1.10851339E-09
   49.8997879        -1.15363918E-09
   50.0147896        -1.19944110E-09
   50.1297874        -1.24592514E-09
   50.2447891        -1.29308741E-09
   50.3597908        -1.34091349E-09
   50.4747887        -1.38937750E-09
   50.5897903        -1.43844203E-09
   50.7047882        -1.48805901E-09
   50.8197899        -1.53816837E-09
   50.9347878        -1.58869917E-09
   51.0497894        -1.63957037E-09
   51.1647873        -1.69069114E-09
   51.2797890        -1.74196146E-09
   51.3947906        -1.79327331E-09
   51.5097885        -1.84451221E-09
   51.6247902        -1.89555793E-09
   51.7397881        -1.94628558E-09
   51.8547897        -1.99656824E-09
   51.9697876        -2.04627715E-09
   52.0847893        -2.09528306E-09
   52.1997871        -2.14345919E-09
   52.3147888        -2.19068119E-09
   52.4297905        -2.23682917E-09
   52.5447884        -2.28178876E-09
   52.6597900        -2.32545316E-09
   52.7747879        -2.36772313E-09
   52.8897896        -2.40850917E-09
   53.0047874        -2.44773202E-09
   53.1197891        -2.48532284E-09
   53.2347908        -2.52122523E-09
   53.3497887        -2.55539501E-09
   53.4647903        -2.58779997E-09
   53.5797882        -2.61842104E-09
   53.6947899        -2.64725197E-09
   53.8097878        -2.67429812E-09
   53.9247894        -2.69957745E-09
   54.0397873        -2.72311884E-09
   54.1547890        -2.74496070E-09
   54.2697906        -2.76515078E-09
   54.3847885        -2.78374479E-09
   54.4997902        -2.80080426E-09
   54.6147881        -2.81639556E-09
   54.7297897        -2.83058776E-09
   54.8447876        -2.84345125E-09
   54.9597893        -2.85505597E-09
   55.0747871        -2.86547053E-09
   55.1897888        -2.87475954E-09