  -37.8452110         0.00000000    
  -37.7264595         0.00000000    
  -37.6077118         0.00000000    
  -37.4889603         0.00000000    
  -37.3702126         0.00000000    
  -37.2514610         0.00000000    
  -37.1327095         2.95955879E-29
  -37.0139618         3.57949247E-28
  -36.8952103         2.30558582E-27
  -36.7764626         1.04846240E-26
  -36.6577110         3.76952068E-26
  -36.5389595         1.13808162E-25
  -36.4202118         2.99412896E-25
  -36.3014603         7.03517101E-25
  -36.1827126         1.50213769E-24
  -36.0639610         2.95164870E-24
  -35.9452095         5.38816414E-24
  -35.8264618         9.20331202E-24
  -35.7077103         1.47887880E-23
  -35.5889626         2.24478859E-23
  -35.4702110         3.22817439E-23
  -35.3514595         4.40697113E-23
  -35.2327118         5.71745811E-23
  -35.1139603         7.05103441E-23
  -34.9952126         8.26091353E-23
  -34.8764610         9.18119362E-23
  -34.7577095         9.65841218E-23
  -34.6389618         9.59236812E-23
  -34.5202103         8.97931906E-23
  -34.4014626         7.94749910E-23
  -34.2827110         6.77319066E-23
  -34.1639595         5.86629407E-23
  -34.0452118         5.71826590E-23
  -33.9264603         6.81215534E-23
  -33.8077126         9.50406050E-23
  -33.6889610         1.38957205E-22
  -33.5702095         1.97273854E-22
  -33.4514618         2.63257273E-22
  -33.3327103         3.26410978E-22
  -33.2139626         3.73999485E-22
  -33.0952110         3.93813147E-22
  -32.9764595         3.78016138E-22
  -32.8577118         3.27636098E-22
  -32.7389603         2.56966530E-22
  -32.6202126         1.96938860E-22
  -32.5014610         1.96429786E-22
  -32.3827095         3.20563209E-22
  -32.2639618         6.45370817E-22
  -32.1452103         1.24868901E-21
  -32.0264626         2.19784453E-21
  -31.9077110         3.53542689E-21
  -31.7889614         5.26514879E-21
  -31.6702118         7.34029170E-21
  -31.5514603         9.65741928E-21
  -31.4327106         1.20577649E-20
  -31.3139610         1.43379739E-20
  -31.1952114         1.62706265E-20
  -31.0764618         1.76334599E-20
  -30.9577103         1.82444361E-20
  -30.8389606         1.79982514E-20
  -30.7202110         1.68986311E-20
  -30.6014614         1.50803217E-20
  -30.4827118         1.28150472E-20
  -30.3639603         1.04971934E-20
  -30.2452106         8.60745889E-21
  -30.1264610         7.65595562E-21
  -30.0077114         8.10998649E-21
  -29.8889618         1.03153348E-20
  -29.7702103         1.44228036E-20
  -29.6514606         2.03333370E-20
  -29.5327110         2.76747717E-20
  -29.4139614         3.58206364E-20
  -29.2952118         4.39565942E-20
  -29.1764603         5.11930934E-20
  -29.0577106         5.67144884E-20
  -28.9389610         5.99462378E-20
  -28.8202114         6.07142815E-20
  -28.7014618         5.93658801E-20
  -28.5827103         5.68206842E-20
  -28.4639606         5.45255876E-20
  -28.3452110         5.42977768E-20
  -28.2264614         5.80570672E-20
  -28.1077118         6.74691611E-20
  -27.9889603         8.35438137E-20
  -27.8702106         1.06252261E-19
  -27.7514610         1.34241823E-19
  -27.6327114         1.64729413E-19
  -27.5139618         1.93644054E-19
  -27.3952103         2.16062381E-19
  -27.2764606         2.26938009E-19
  -27.1577110         2.22071835E-19
  -27.0389614         1.99210398E-19
  -26.9202118         1.59104184E-19
  -26.8014603         1.06317123E-19
  -26.6827106         4.95651890E-20
  -26.5639610         1.38383348E-21
  -26.4452114        -2.30121162E-20
  -26.3264618        -7.70847028E-21
  -26.2077103         6.11950544E-20
  -26.0889606         1.92400013E-19
  -25.9702110         3.86168804E-19
  -25.8514614         6.31564909E-19
  -25.7327118         9.04776565E-19
  -25.6139603         1.16910730E-18
  -25.4952106         1.37709969E-18
  -25.3764610         1.47503746E-18
  -25.2577114         1.40975575E-18
  -25.1389618         1.13730810E-18
  -25.0202103         6.32640450E-19
  -24.9014606        -1.00951843E-19
  -24.7827110        -1.02406955E-18
  -24.6639614        -2.05675812E-18
  -24.5452118        -3.07885744E-18
  -24.4264603        -3.93630934E-18
  -24.3077106        -4.45399082E-18
  -24.1889610        -4.45485233E-18
  -24.0702114        -3.78419621E-18
  -23.9514618        -2.33695666E-18
  -23.8327103        -8.49490255E-20
  -23.7139606         2.89961484E-18
  -23.5952110         6.42835224E-18
  -23.4764614         1.01925162E-17
  -23.3577118         1.37735324E-17
  -23.2389603         1.66701428E-17
  -23.1202106         1.83422735E-17
  -23.0014610         1.82696586E-17
  -22.8827114         1.60209135E-17
  -22.7639618         1.13266304E-17
  -22.6452103         4.14824212E-18
  -22.5264606        -5.26671314E-18
  -22.4077110        -1.63524409E-17
  -22.2889614        -2.82244050E-17
  -22.1702118        -3.97168190E-17
  -22.0514603        -4.94611324E-17
  -21.9327106        -5.60040913E-17
  -21.8139610        -5.79590367E-17
  -21.6952114        -5.41789669E-17
  -21.5764618        -4.39353012E-17
  -21.4577103        -2.70825186E-17
  -21.3389606        -4.18712415E-18
  -21.2202110         2.34003837E-17
  -21.1014614         5.35490656E-17
  -20.9827118         8.34397466E-17
  -20.8639603         1.09750952E-16
  -20.7452106         1.28934019E-16
  -20.6264610         1.37561936E-16
  -20.5077114         1.32725404E-16
  -20.3889618         1.12439852E-16
  -20.2702103         7.60203467E-17
  -20.1514606         2.43771384E-17
  -20.0327110        -3.98134271E-17
  -19.9139614        -1.12102005E-16
  -19.7952118        -1.86450216E-16
  -19.6764603        -2.55616597E-16
  -19.5577106        -3.11733880E-16
  -19.4389610        -3.47046101E-16
  -19.3202114        -3.54750236E-16
  -19.2014618        -3.29869384E-16
  -19.0827103        -2.70068567E-16
  -18.9639606        -1.76318511E-16
  -18.8452110        -5.33149999E-17
  -18.7264614         9.04259155E-17
  -18.6077118         2.42853981E-16
  -18.4889603         3.89076538E-16
  -18.3702106         5.12441328E-16
  -18.2514610         5.95955335E-16
  -18.1327114         6.23939080E-16
  -18.0139618         5.83782360E-16
  -17.8952103         4.67638526E-16
  -17.7764606         2.73878998E-16
  -17.6577110         8.13696493E-18
  -17.5389614        -3.16216563E-16
  -17.4202118        -6.78275344E-16
  -17.3014603        -1.05054161E-15
  -17.1827106        -1.40060233E-15
  -17.0639610        -1.69345847E-15
  -16.9452114        -1.89435552E-15
  -16.8264618        -1.97189927E-15
  -16.7077103        -1.90119001E-15
  -16.5889606        -1.66668418E-15
  -16.4702110        -1.26449165E-15
  -16.3514614        -7.03843510E-16
  -16.2327118        -7.52277092E-18
  -16.1139603         7.88863013E-16
  -15.9952106         1.63879392E-15
  -15.8764610         2.48784546E-15
  -15.7577114         3.27759251E-15
  -15.6389608         3.95011232E-15
  -15.5202112         4.45270990E-15
  -15.4014606         4.74245023E-15
  -15.2827110         4.79006195E-15
  -15.1639614         4.58282899E-15
  -15.0452108         4.12614694E-15
  -14.9264612         3.44353791E-15
  -14.8077106         2.57505787E-15
  -14.6889610         1.57417293E-15
  -14.5702114         5.03344564E-16
  -14.4514608        -5.71315676E-16
  -14.3327112        -1.58584049E-15
  -14.2139606        -2.48411004E-15
  -14.0952110        -3.22292077E-15
  -13.9764614        -3.77589161E-15
  -13.8577108        -4.13580354E-15
  -13.7389612        -4.31507806E-15
  -13.6202106        -4.34429223E-15
  -13.5014610        -4.26881651E-15
  -13.3827114        -4.14383171E-15
  -13.2639608        -4.02817995E-15
  -13.1452112        -3.97761039E-15
  -13.0264606        -4.03808643E-15
  -12.9077110        -4.23981198E-15
  -12.7889614        -4.59260290E-15
  -12.6702108        -5.08312730E-15
  -12.5514612        -5.67433809E-15
  -12.4327106        -6.30725593E-15
  -12.3139610        -6.90500496E-15
  -12.1952114        -7.37879454E-15
  -12.0764608        -7.63533117E-15
  -11.9577112        -7.58500217E-15
  -11.8389606        -7.15006006E-15
  -11.7202110        -6.27203630E-15
  -11.6014614        -4.91764290E-15
  -11.4827108        -3.08258625E-15
  -11.3639612        -7.92857461E-16
  -11.2452106         1.89665818E-15
  -11.1264610         4.90617704E-15
  -11.0077114         8.13728120E-15
  -10.8889608         1.14808963E-14
  -10.7702112         1.48262225E-14
  -10.6514606         1.80697861E-14
  -10.5327110         2.11237430E-14
  -10.4139614         2.39225686E-14
  -10.2952108         2.64275008E-14
  -10.1764612         2.86282161E-14
  -10.0577106         3.05415280E-14
  -9.93896103         3.22071539E-14
  -9.82021141         3.36809167E-14
  -9.70146084         3.50259338E-14
  -9.58271122         3.63026632E-14
  -9.46396065         3.75586674E-14
  -9.34521103         3.88191778E-14
  -9.22646141         4.00793324E-14
  -9.10771084         4.12989548E-14
  -8.98896122         4.24005144E-14
  -8.87021065         4.32705494E-14
  -8.75146103         4.37646711E-14
  -8.63271141         4.37158583E-14
  -8.51396084         4.29454581E-14
  -8.39521122         4.12761324E-14
  -8.27646065         3.85456742E-14
  -8.15771103         3.46206591E-14
  -8.03896141         2.94087806E-14
  -7.92021084         2.28688477E-14
  -7.80146122         1.50176282E-14
  -7.68271112         5.93281782E-15
  -7.56396103        -4.24801846E-15
  -7.44521093        -1.53326652E-14
  -7.32646084        -2.70832178E-14
  -7.20771122        -3.92281659E-14
  -7.08896112        -5.14767502E-14
  -6.97021103        -6.35344845E-14
  -6.85146093        -7.51187442E-14
  -6.73271084        -8.59732749E-14
  -6.61396122        -9.58805179E-14
  -6.49521112        -1.04670924E-13
  -6.37646103        -1.12228660E-13
  -6.25771093        -1.18493269E-13
  -6.13896084        -1.23457342E-13
  -6.02021122        -1.27160354E-13
  -5.90146112        -1.29679389E-13
  -5.78271103        -1.31117393E-13
  -5.66396093        -1.31590051E-13
  -5.54521084        -1.31212139E-13
  -5.42646122        -1.30084623E-13
  -5.30771112        -1.28283302E-13
  -5.18896103        -1.25850014E-13
  -5.07021093        -1.22786709E-13
  -4.95146084        -1.19053205E-13
  -4.83271122        -1.14568131E-13
  -4.71396112        -1.09213474E-13
  -4.59521103        -1.02841841E-13
  -4.47646093        -9.52860837E-14
  -4.35771084        -8.63703030E-14
  -4.23896122        -7.59214943E-14
  -4.12021112        -6.37809101E-14
  -4.00146103        -4.98143803E-14
  -3.88271117        -3.39208676E-14
  -3.76396108        -1.60386942E-14
  -3.64521098         3.85058679E-15
  -3.52646112         2.57211126E-14
  -3.40771103         4.95038547E-14
  -3.28896117         7.50899383E-14
  -3.17021108         1.02335465E-13
  -3.05146098         1.31067114E-13
  -2.93271112         1.61088143E-13
  -2.81396103         1.92183509E-13
  -2.69521117         2.24124660E-13
  -2.57646108         2.56672206E-13
  -2.45771098         2.89577498E-13
  -2.33896112         3.22582049E-13
  -2.22021103         3.55415865E-13
  -2.10146117         3.87794641E-13
  -1.98271108         4.19416265E-13
  -1.86396110         4.49957644E-13
  -1.74521101         4.79072890E-13
  -1.62646103         5.06392617E-13
  -1.50771105         5.31525670E-13
  -1.38896108         5.54064390E-13
  -1.27021110         5.73591901E-13
  -1.15146101         5.89693279E-13
  -1.03271103         6.01968670E-13
 -0.913961053         6.10049121E-13
 -0.795211077         6.13613706E-13
 -0.676461041         6.12406285E-13
 -0.557711065         6.06251811E-13
 -0.438961059         5.95070542E-13
 -0.320211053         5.78888716E-13
 -0.201461062         5.57845599E-13
  -8.27110559E-02     5.32195056E-13
   3.60389426E-02     5.02302898E-13
  0.154788941         4.68638420E-13
  0.273538947         4.31761858E-13
  0.392288953         3.92307660E-13
  0.511038959         3.50965649E-13
  0.629788935         3.08459990E-13
  0.748538971         2.65528566E-13
  0.867288947         2.22903361E-13
  0.986038923         1.81293281E-13
   1.10478890         1.41369907E-13
   1.22353899         1.03757077E-13
   1.34228897         6.90228311E-14
   1.46103895         3.76748159E-14
   1.57978892         1.01569118E-14
   1.69853890        -1.31538728E-14
   1.81728899        -3.19523494E-14
   1.93603897        -4.60127982E-14
   2.05478883        -5.52022315E-14
   2.17353892        -5.94989756E-14
   2.29228902        -5.90188231E-14
   2.41103888        -5.40459164E-14
   2.52978897        -4.50718090E-14
   2.64853883        -3.28361809E-14
   2.76728892        -1.83711011E-14
   2.88603902        -3.04192952E-15
   3.00478888         1.14170360E-14
   3.12353897         2.28751852E-14
   3.24228883         2.87922491E-14
   3.36103892         2.62215566E-14
   3.47978902         1.18320448E-14
   3.59853888        -1.80489880E-14
   3.71728897        -6.73722959E-14
   3.83603883        -1.40280908E-13
   3.95478892        -2.41009280E-13
   4.07353878        -3.73765363E-13
   4.19228888        -5.42605999E-13
   4.31103897        -7.51305702E-13
   4.42978907        -1.00322875E-12
   4.54853916        -1.30120806E-12
   4.66728878        -1.64744054E-12
   4.78603888        -2.04339649E-12
   4.90478897        -2.48975775E-12
   5.02353907        -2.98637395E-12
   5.14228916        -3.53225131E-12
   5.26103878        -4.12556144E-12
   5.37978888        -4.76367860E-12
   5.49853897        -5.44323571E-12
   5.61728907        -6.16019388E-12
   5.73603916        -6.90992966E-12
   5.85478878        -7.68732820E-12
   5.97353888        -8.48687527E-12
   6.09228897        -9.30274868E-12
   6.21103907        -1.01289107E-11
   6.32978916        -1.09591867E-11
   6.44853878        -1.17873419E-11
   6.56728888        -1.26071436E-11
   6.68603897        -1.34124239E-11
   6.80478907        -1.41971322E-11
   6.92353916        -1.49553911E-11
   7.04228878        -1.56815498E-11
   7.16103888        -1.63702333E-11
   7.27978897        -1.70164143E-11
   7.39853907        -1.76154733E-11
   7.51728916        -1.81632712E-11
   7.63603878        -1.86562276E-11
   7.75478888        -1.90914073E-11
   7.87353897        -1.94665985E-11
   7.99228907        -1.97803961E-11
   8.11103916        -2.00322658E-11
   8.22978878        -2.02226031E-11
   8.34853935        -2.03527785E-11
   8.46728897        -2.04251512E-11
   8.58603859        -2.04430622E-11
   8.70478916        -2.04107998E-11
   8.82353878        -2.03335300E-11
   8.94228935        -2.02171977E-11
   9.06103897        -2.00684070E-11
   9.17978859        -1.98942633E-11
   9.29853916        -1.97021947E-11
   9.41728878        -1.94997699E-11
   9.53603935        -1.92944896E-11
   9.65478897        -1.90935878E-11
   9.77353859        -1.89038230E-11
   9.89228916        -1.87312995E-11
   10.0110388        -1.85812893E-11
   10.1297894        -1.84580996E-11
   10.2485390        -1.83649554E-11
   10.3672886        -1.83039226E-11
   10.4860392        -1.82758756E-11
   10.6047888        -1.82804934E-11
   10.7235394        -1.83163051E-11
   10.8422890        -1.83807674E-11
   10.9610386        -1.84703641E-11
   11.0797892        -1.85807533E-11
   11.1985388        -1.87069128E-11
   11.3172894        -1.88433227E-11
   11.4360390        -1.89841320E-11
   11.5547886        -1.91233349E-11
   11.6735392        -1.92549466E-11
   11.7922888        -1.93731524E-11
   11.9110394        -1.94724462E-11
   12.0297890        -1.95477540E-11
   12.1485386        -1.95945257E-11
   12.2672892        -1.96088059E-11
   12.3860388        -1.95872919E-11
   12.5047894        -1.95273572E-11
   12.6235390        -1.94270797E-11
   12.7422886        -1.92852349E-11
   12.8610392        -1.91012952E-11
   12.9797888        -1.88754238E-11
   13.0985394        -1.86084603E-11
   13.2172890        -1.83019103E-11
   13.3360386        -1.79579407E-11
   13.4547892        -1.75793685E-11
   13.5735388        -1.71696581E-11
   13.6922894        -1.67329241E-11
   13.8110390        -1.62739214E-11
   13.9297886        -1.57980365E-11
   14.0485392        -1.53112766E-11
   14.1672888        -1.48202475E-11
   14.2860394        -1.43321180E-11
   14.4047890        -1.38545789E-11
   14.5235386        -1.33957845E-11
   14.6422892        -1.29642850E-11
   14.7610388        -1.25689494E-11
   14.8797894        -1.22188743E-11
   14.9985390        -1.19232931E-11
   15.1172886        -1.16914742E-11
   15.2360392        -1.15326238E-11
   15.3547888        -1.14557860E-11
   15.4735394        -1.14697444E-11
   15.5922890        -1.15829230E-11
   15.7110386        -1.18032979E-11
   15.8297892        -1.21383173E-11
   15.9485388        -1.25948071E-11
   16.0672894        -1.31788981E-11
   16.1860390        -1.38959417E-11
   16.3047886        -1.47504335E-11
   16.4235382        -1.57459375E-11
   16.5422897        -1.68850125E-11
   16.6610394        -1.81691294E-11
   16.7797890        -1.95986144E-11
   16.8985386        -2.11725828E-11
   17.0172882        -2.28888835E-11
   17.1360397        -2.47440644E-11
   17.2547894        -2.67333499E-11
   17.3735390        -2.88506424E-11
   17.4922886        -3.10885415E-11
   17.6110382        -3.34383840E-11
   17.7297897        -3.58903150E-11
   17.8485394        -3.84333884E-11
   17.9672890        -4.10556623E-11
   18.0860386        -4.37443415E-11
   18.2047882        -4.64858985E-11
   18.3235397        -4.92662473E-11
   18.4422894        -5.20708685E-11
   18.5610390        -5.48849612E-11
   18.6797886        -5.76935895E-11
   18.7985382        -6.04818140E-11
   18.9172897        -6.32348063E-11
   19.0360394        -6.59379495E-11
   19.1547890        -6.85769774E-11
   19.2735386        -7.11380468E-11
   19.3922882        -7.36078490E-11
   19.5110397        -7.59737134E-11
   19.6297894        -7.82237400E-11
   19.7485390        -8.03469374E-11
   19.8672886        -8.23333485E-11
   19.9860382        -8.41742231E-11
   20.1047897        -8.58622271E-11
   20.2235394        -8.73915731E-11
   20.3422890        -8.87582646E-11
   20.4610386        -8.99602060E-11
   20.5797882        -9.09974110E-11
   20.6985397        -9.18720724E-11
   20.8172894        -9.25886520E-11
   20.9360390        -9.31538735E-11
   21.0547886        -9.35766742E-11
   21.1735382        -9.38680592E-11
   21.2922897        -9.40408862E-11
   21.4110394        -9.41095743E-11
   21.5297890        -9.40898054E-11
   21.6485386        -9.39980524E-11
   21.7672882        -9.38511838E-11
   21.8860397        -9.36659916E-11
   22.0047894        -9.34587338E-11
   22.1235390        -9.32446967E-11
   22.2422886        -9.30377581E-11
   22.3610382        -9.28500818E-11
   22.4797897        -9.26918264E-11
   22.5985394        -9.25709162E-11
   22.7172890        -9.24929369E-11
   22.8360386        -9.24610943E-11
   22.9547882        -9.24762419E-11
   23.0735397        -9.25369295E-11
   23.1922894        -9.26396321E-11
   23.3110390        -9.27788540E-11
   23.4297886        -9.29473581E-11
   23.5485382        -9.31363667E-11
   23.6672897        -9.33357558E-11
   23.7860394        -9.35341943E-11
   23.9047890        -9.37193448E-11
   24.0235386        -9.38779124E-11
   24.1422882        -9.39957834E-11
   24.2610397        -9.40580600E-11
   24.3797894        -9.40490949E-11
   24.4985390        -9.39525749E-11
   24.6172886        -9.37515343E-11
   24.7360382        -9.34284664E-11
   24.8547897        -9.29653993E-11
   24.9735394        -9.23440352E-11
   25.0922890        -9.15460208E-11
   25.2110386        -9.05531136E-11
   25.3297882        -8.93475155E-11
   25.4485397        -8.79122192E-11
   25.5672894        -8.62313623E-11
   25.6860390        -8.42906023E-11
   25.8047886        -8.20775115E-11
   25.9235382        -7.95819313E-11
   26.0422897        -7.67963124E-11
   26.1610394        -7.37159708E-11
   26.2797890        -7.03393177E-11
   26.3985386        -6.66679975E-11
   26.5172882        -6.27068883E-11
   26.6360397        -5.84640669E-11
   26.7547894        -5.39506599E-11
   26.8735390        -4.91806526E-11
   26.9922886        -4.41705214E-11
   27.1110382        -3.89389077E-11
   27.2297897        -3.35061805E-11
   27.3485394        -2.78939528E-11
   27.4672890        -2.21246216E-11
   27.5860386        -1.62208632E-11
   27.7047882        -1.02052195E-11
   27.8235397        -4.09955360E-12
   27.9422894         2.07526401E-12
   28.0610390         8.29978187E-12
   28.1797886         1.45562416E-11
   28.2985382         2.08288387E-11
   28.4172897         2.71039424E-11
   28.5360394         3.33702233E-11
   28.6547890         3.96187527E-11
   28.7735386         4.58431001E-11
   28.8922882         5.20392653E-11
   29.0110397         5.82058013E-11
   29.1297894         6.43436276E-11
   29.2485390         7.04561479E-11
   29.3672886         7.65490588E-11
   29.4860382         8.26303678E-11
   29.6047897         8.87102128E-11
   29.7235394         9.48008130E-11
   29.8422890         1.00916372E-10
   29.9610386         1.07072858E-10
   30.0797882         1.13287969E-10
   30.1985397         1.19580734E-10
   30.3172894         1.25971442E-10
   30.4360390         1.32481234E-10
   30.5547886         1.39131831E-10
   30.6735382         1.45945117E-10
   30.7922897         1.52942700E-10
   30.9110394         1.60145452E-10
   31.0297890         1.67573039E-10
   31.1485386         1.75243348E-10
   31.2672882         1.83171978E-10
   31.3860397         1.91371849E-10
   31.5047894         1.99852607E-10
   31.6235390         2.08620315E-10
   31.7422886         2.17677112E-10
   31.8610382         2.27020971E-10
   31.9797897         2.36645536E-10
   32.0985374         2.46540316E-10
   32.2172890         2.56690502E-10
   32.3360405         2.67077416E-10
   32.4547882         2.77678852E-10
   32.5735397         2.88469443E-10
   32.6922874         2.99421293E-10
   32.8110390         3.10504622E-10
   32.9297905         3.21688454E-10
   33.0485382         3.32941369E-10
   33.1672897         3.44232115E-10
   33.2860374         3.55530577E-10
   33.4047890         3.66808361E-10
   33.5235405         3.78039405E-10
   33.6422882         3.89200810E-10
   33.7610397         4.00273120E-10
   33.8797874         4.11241041E-10
   33.9985390         4.22093582E-10
   34.1172905         4.32824415E-10
   34.2360382         4.43431930E-10
   34.3547897         4.53919513E-10
   34.4735374         4.64295075E-10
   34.5922890         4.74571160E-10
   34.7110405         4.84764506E-10
   34.8297882         4.94895513E-10
   34.9485397         5.04987774E-10
   35.0672874         5.15067267E-10
   35.1860390         5.25161858E-10
   35.3047905         5.35300027E-10
   35.4235382         5.45510193E-10
   35.5422897         5.55819613E-10
   35.6610374         5.66253489E-10
   35.7797890         5.76833692E-10
   35.8985405         5.87578153E-10
   36.0172882         5.98499528E-10
   36.1360397         6.09604867E-10
   36.2547874         6.20894447E-10
   36.3735390         6.32361663E-10
   36.4922905         6.43992248E-10
   36.6110382         6.55764498E-10
   36.7297897         6.67648825E-10
   36.8485374         6.79608481E-10
   36.9672890         6.91599444E-10
   37.0860405         7.03571368E-10
   37.2047882         7.15467796E-10
   37.3235397         7.27227556E-10
   37.4422874         7.38785200E-10
   37.5610390         7.50072227E-10
   37.6797905         7.61018193E-10
   37.7985382         7.71551600E-10
   37.9172897         7.81601284E-10
   38.0360374         7.91097354E-10
   38.1547890         7.99972366E-10
   38.2735405         8.08162315E-10
   38.3922882         8.15607692E-10
   38.5110397         8.22254431E-10
   38.6297874         8.28054958E-10
   38.7485390         8.32968916E-10
   38.8672905         8.36963943E-10
   38.9860382         8.40016390E-10
   39.1047897         8.42111936E-10
   39.2235374         8.43246029E-10
   39.3422890         8.43423997E-10
   39.4610405         8.42661385E-10
   39.5797882         8.40983949E-10
   39.6985397         8.38427106E-10
   39.8172874         8.35035818E-10
   39.9360390         8.30863822E-10
   40.0547905         8.25972679E-10
   40.1735382         8.20430834E-10
   40.2922897         8.14312506E-10
   40.4110374         8.07695966E-10
   40.5297890         8.00662425E-10
   40.6485405         7.93294153E-10
   40.7672882         7.85673082E-10
   40.8860397         7.77879094E-10
   41.0047874         7.69988351E-10
   41.1235390         7.62072072E-10
   41.2422905         7.54194707E-10
   41.3610382         7.46413209E-10
   41.4797897         7.38775596E-10
   41.5985374         7.31320116E-10
   41.7172890         7.24074689E-10
   41.8360405         7.17056359E-10
   41.9547882         7.10270953E-10
   42.0735397         7.03712977E-10
   42.1922874         6.97365832E-10
   42.3110390         6.91201929E-10
   42.4297905         6.85182966E-10
   42.5485382         6.79260648E-10
   42.6672897         6.73377187E-10
   42.7860374         6.67466027E-10
   42.9047890         6.61452726E-10
   43.0235405         6.55255739E-10
   43.1422882         6.48787468E-10
   43.2610397         6.41955322E-10
   43.3797874         6.34662822E-10
   43.4985390         6.26810659E-10
   43.6172905         6.18298135E-10
   43.7360382         6.09024220E-10
   43.8547897         5.98889216E-10
   43.9735374         5.87795868E-10
   44.0922890         5.75651082E-10
   44.2110405         5.62366820E-10
   44.3297882         5.47862089E-10
   44.4485397         5.32064059E-10
   44.5672874         5.14909282E-10
   44.6860390         4.96344965E-10
   44.8047905         4.76329975E-10
   44.9235382         4.54835641E-10
   45.0422897         4.31846725E-10
   45.1610374         4.07361256E-10
   45.2797890         3.81391085E-10
   45.3985405         3.53961582E-10
   45.5172882         3.25111327E-10
   45.6360397         2.94891334E-10
   45.7547874         2.63364164E-10
   45.8735390         2.30602412E-10
   45.9922905         1.96687736E-10
   46.1110382         1.61709049E-10
   46.2297897         1.25760194E-10
   46.3485374         8.89390506E-11
   46.4672890         5.13449283E-11
   46.5860405         1.30768807E-11
   46.7047882        -2.57680977E-11
   46.8235397        -6.50968446E-11
   46.9422874        -1.04822040E-10
   47.0610390        -1.44862886E-10
   47.1797905        -1.85146815E-10
   47.2985382        -2.25610960E-10
   47.4172897        -2.66202171E-10
   47.5360374        -3.06878245E-10
   47.6547890        -3.47607665E-10
   47.7735405        -3.88370419E-10
   47.8922882        -4.29157349E-10
   48.0110397        -4.69970562E-10
   48.1297874        -5.10821718E-10
   48.2485390        -5.51732382E-10
   48.3672905        -5.92732918E-10
   48.4860382        -6.33861297E-10
   48.6047897        -6.75162370E-10
   48.7235374        -7.16686488E-10
   48.8422890        -7.58487717E-10
   48.9610405        -8.00622957E-10
   49.0797882        -8.43150494E-10
   49.1985397        -8.86128282E-10
   49.3172874        -9.29612443E-10
   49.4360390        -9.73655934E-10
   49.5547905        -1.01830711E-09
   49.6735382        -1.06360798E-09
   49.7922897        -1.10959320E-09
   49.9110374        -1.15628829E-09
   50.0297890        -1.20370969E-09
   50.1485405        -1.25186184E-09
   50.2672882        -1.30073852E-09
   50.3860397        -1.35032063E-09
   50.5047874        -1.40057621E-09
   50.6235390        -1.45146062E-09
   50.7422905        -1.50291612E-09
   50.8610382        -1.55487223E-09
   50.9797897        -1.60724600E-09
   51.0985374        -1.65994329E-09
   51.2172890        -1.71285897E-09
   51.3360405        -1.76587822E-09
   51.4547882        -1.81887838E-09
   51.5735397        -1.87172944E-09
   51.6922874        -1.92429583E-09
   51.8110390        -1.97643857E-09
   51.9297905        -2.02801620E-09
   52.0485382        -2.07888706E-09
   52.1672897        -2.12891060E-09
   52.2860374        -2.17794915E-09
   52.4047890        -2.22586993E-09
   52.5235405        -2.27254593E-09
   52.6422882        -2.31785791E-09
   52.7610397        -2.36169595E-09
   52.8797874        -2.40396036E-09
   52.9985390        -2.44456322E-09
   53.1172905        -2.48342902E-09
   53.2360382        -2.52049559E-09
   53.3547897        -2.55571475E-09
   53.4735374        -2.58905342E-09
   53.5922890        -2.62049182E-09
   53.7110405        -2.65002531E-09
   53.8297882        -2.67766276E-09
   53.9485397        -2.70342726E-09
   54.0672874        -2.72735301E-09
   54.1860390        -2.74948597E-09
   54.3047905        -2.76988210E-09
   54.4235382        -2.78860468E-09
   54.5422897        -2.80572410E-09
   54.6610374        -2.82131429E-09
   54.7797890        -2.83545232E-09
   54.8985405        -2.84821544E-09
   55.0172882        -2.85967960E-09
   55.1360397        -2.86991719E-09
   55.2547874        -2.87899682E-09
   55.3735390        -2.88697999E-09
   55.4922905        -2.89392132E-09
   55.6110382        -2.89986701E-09
   55.7297897        -2.90485436E-09
   55.8485374        -2.90891178E-09
   55.9672890        -2.91205748E-09
   56.0860405        -2.91430080E-09
   56.2047882        -2.91564195E-09
   56.3235397        -2.91607249E-09
   56.4422874        -2.91557645E-09
   56.5610390        -2.91413049E-09
   56.6797905        -2.91170577E-09
   56.7985382        -2.90826785E-09
   56.9172897        -2.90377966E-09
   57.0360374        -2.89820079E-09
   57.1547890        -2.89149060E-09
   57.2735405        -2.88360802E-09
   57.3922882        -2.87451463E-09
   57.5110397        -2.86417512E-09
   57.6297874        -2.85255863E-09
   57.7485390        -2.83964052E-09
   57.8672905        -2.82540391E-09
   57.9860382        -2.80983969E-09
   58.1047897        -2.79295009E-09
   58.2235374        -2.77474621E-09