  -75.1732025         0.00000000    
  -75.0581970         0.00000000    
  -74.9431992         0.00000000    
  -74.8282013         0.00000000    
  -74.7132034         0.00000000    
  -74.5981979         0.00000000    
  -74.4832001         2.01388822E-29
  -74.3682022         2.44349930E-28
  -74.2531967         1.58004179E-27
  -74.1381989         7.21695793E-27
  -74.0232010         2.60830819E-26
  -73.9082031         7.92261574E-26
  -73.7931976         2.09868432E-25
  -73.6781998         4.96945097E-25
  -73.5632019         1.07028250E-24
  -73.4481964         2.12340451E-24
  -73.3331985         3.91782602E-24
  -73.2182007         6.77142739E-24
  -73.1032028         1.10240700E-23
  -72.9881973         1.69767505E-23
  -72.8731995         2.48065910E-23
  -72.7582016         3.44681823E-23
  -72.6432037         4.56008051E-23
  -72.5281982         5.74684728E-23
  -72.4132004         6.89626747E-23
  -72.2982025         7.86938293E-23
  -72.1831970         8.51852016E-23
  -72.0681992         8.71622007E-23
  -71.9532013         8.39036435E-23
  -71.8382034         7.55941172E-23
  -71.7231979         6.35942301E-23
  -71.6082001         5.05364522E-23
  -71.4932022         4.01635908E-23
  -71.3781967         3.68596457E-23
  -71.2631989         4.48788870E-23
  -71.1482010         6.73509877E-23
  -71.0332031         1.05220552E-22
  -70.9181976         1.56348508E-22
  -70.8031998         2.15046108E-22
  -70.6882019         2.72310695E-22
  -70.5731964         3.16971279E-22
  -70.4581985         3.37829695E-22
  -70.3432007         3.26704434E-22
  -70.2282028         2.82068816E-22
  -70.1131973         2.12758336E-22
  -69.9981995         1.41041060E-22
  -69.8832016         1.04252424E-22
  -69.7682037         1.54222395E-22
  -69.6531982         3.53907842E-22
  -69.5382004         7.70977567E-22
  -69.4232025         1.46857426E-21
  -69.3081970         2.49402992E-21
  -69.1931992         3.86687024E-21
  -69.0782013         5.56790457E-21
  -68.9632034         7.53146817E-21
  -68.8481979         9.64286284E-21
  -68.7332001         1.17426641E-20
  -68.6182022         1.36388722E-20
  -68.5031967         1.51267940E-20
  -68.3881989         1.60153427E-20
  -68.2732010         1.61571073E-20
  -68.1582031         1.54784104E-20
  -68.0431976         1.40047882E-20
  -67.9281998         1.18770736E-20
  -67.8132019         9.35376725E-21
  -67.6981964         6.79663452E-21
  -67.5831985         4.63839428E-21
  -67.4682007         3.33399670E-21
  -67.3532028         3.29972383E-21
  -67.2381973         4.84715964E-21
  -67.1231995         8.12122775E-21
  -67.0082016         1.30527461E-20
  -66.8932037         1.93357814E-20
  -66.7781982         2.64382757E-20
  -66.6632004         3.36509158E-20
  -66.5482025         4.01741138E-20
  -66.4331970         4.52367661E-20
  -66.3181992         4.82339904E-20
  -66.2032013         4.88648804E-20
  -66.0882034         4.72471704E-20
  -65.9731979         4.39840334E-20
  -65.8582001         4.01605881E-20
  -65.7432022         3.72540467E-20
  -65.6281967         3.69523487E-20
  -65.5131989         4.08905976E-20
  -65.3982010         5.03310096E-20
  -65.2832031         6.58287134E-20
  -65.1681976         8.69390347E-20
  -65.0531998         1.12029193E-19
  -64.9382019         1.38256079E-19
  -64.8231964         1.61758671E-19
  -64.7081985         1.78089892E-19
  -64.5932007         1.82877226E-19
  -64.4782028         1.72658870E-19
  -64.3631973         1.45797601E-19
  -64.2481995         1.03334019E-19
  -64.1332016         4.96142996E-20
  -64.0182037        -7.47998748E-21
  -63.9031982        -5.68515031E-20
  -63.7882004        -8.51572941E-20
  -63.6731987        -7.84499967E-20
  -63.5582008        -2.44062887E-20
  -63.4431992         8.50591246E-20
  -63.3282013         2.51110553E-19
  -63.2131996         4.65650779E-19
  -63.0982018         7.09787140E-19
  -62.9832001         9.53564091E-19
  -62.8681984         1.15734438E-18
  -62.7532005         1.27507100E-18
  -62.6381989         1.25941350E-18
  -62.5232010         1.06853268E-18
  -62.4081993         6.73886778E-19
  -62.2932014         6.82192201E-20
  -62.1781998        -7.27368347E-19
  -62.0632019        -1.65848513E-18
  -61.9482002        -2.63587988E-18
  -61.8331985        -3.53826714E-18
  -61.7182007        -4.22022958E-18
  -61.6031990        -4.52535003E-18
  -61.4882011        -4.30406144E-18
  -61.3731995        -3.43497379E-18
  -61.2582016        -1.84771862E-18
  -61.1431999         4.55281605E-19
  -61.0281982         3.38110634E-18
  -60.9132004         6.73582809E-18
  -60.7981987         1.02240632E-17
  -60.6832008         1.34608210E-17
  -60.5681992         1.59968343E-17
  -60.4532013         1.73571411E-17
  -60.3381996         1.70910917E-17
  -60.2232018         1.48301870E-17
  -60.1082001         1.03485655E-17
  -59.9931984         3.61960629E-18
  -59.8782005        -5.13865235E-18
  -59.7631989        -1.54367073E-17
  -59.6482010        -2.65120452E-17
  -59.5331993        -3.73579315E-17
  -59.4182014        -4.67850509E-17
  -59.3031998        -5.35153001E-17
  -59.1882019        -5.63033586E-17
  -59.0732002        -5.40777333E-17
  -58.9581985        -4.60893391E-17
  -58.8432007        -3.20528219E-17
  -58.7281990        -1.22639419E-17
  -58.6132011         1.23238207E-17
  -58.4981995         4.00789455E-17
  -58.3832016         6.87396618E-17
  -58.2681999         9.55365219E-17
  -58.1531982         1.17389476E-16
  -58.0382004         1.31171218E-16
  -57.9231987         1.34020147E-16
  -57.8082008         1.23678351E-16
  -57.6931992         9.88235060E-17
  -57.5782013         5.93591425E-17
  -57.4631996         6.62648888E-18
  -57.3482018        -5.64961778E-17
  -57.2332001        -1.25635143E-16
  -57.1181984        -1.95120869E-16
  -57.0032005        -2.58350237E-16
  -56.8881989        -3.08299558E-16
  -56.7732010        -3.38158767E-16
  -56.6581993        -3.42042016E-16
  -56.5432014        -3.15714114E-16
  -56.4281998        -2.57262991E-16
  -56.3132019        -1.67643901E-16
  -56.1982002        -5.10222505E-17
  -56.0831985         8.51460349E-17
  -55.9682007         2.30342431E-16
  -55.8531990         3.71541764E-16
  -55.7382011         4.94087977E-16
  -55.6231995         5.82848083E-16
  -55.5082016         6.23571680E-16
  -55.3931999         6.04353137E-16
  -55.2781982         5.17072427E-16
  -55.1632004         3.58675969E-16
  -55.0481987         1.32159891E-16
  -54.9332008        -1.52872996E-16
  -54.8181992        -4.80182713E-16
  -54.7032013        -8.27452351E-16
  -54.5881996        -1.16745439E-15
  -54.4732018        -1.46978353E-15
  -54.3582001        -1.70306297E-15
  -54.2431984        -1.83747281E-15
  -54.1282005        -1.84741126E-15
  -54.0131989        -1.71406487E-15
  -53.8982010        -1.42765370E-15
  -53.7831993        -9.89125901E-16
  -53.6682014        -4.11105694E-16
  -53.5531998         2.82049901E-16
  -53.4382019         1.05516101E-15
  -53.3232002         1.86409675E-15
  -53.2081985         2.65851921E-15
  -53.0932007         3.38532176E-15
  -52.9781990         3.99251605E-15
  -52.8632011         4.43325610E-15
  -52.7481995         4.66966723E-15
  -52.6332016         4.67613898E-15
  -52.5181999         4.44176581E-15
  -52.4031982         3.97168751E-15
  -52.2882004         3.28715974E-15
  -52.1731987         2.42428919E-15
  -52.0582008         1.43149341E-15
  -51.9431992         3.65852191E-16
  -51.8282013        -7.11365374E-16
  -51.7131996        -1.73963743E-15
  -51.5982018        -2.66415600E-15
  -51.4832001        -3.44038546E-15
  -51.3681984        -4.03778700E-15
  -51.2532005        -4.44234222E-15
  -51.1381989        -4.65760548E-15
  -51.0232010        -4.70414740E-15
  -50.9081993        -4.61738751E-15
  -50.7932014        -4.44395793E-15
  -50.6781998        -4.23690793E-15
  -50.5632019        -4.05013801E-15
  -50.4482002        -3.93256942E-15
  -50.3331985        -3.92258798E-15
  -50.2182007        -4.04329399E-15
  -50.1031990        -4.29901408E-15
  -49.9882011        -4.67347506E-15
  -49.8731995        -5.12984498E-15
  -49.7582016        -5.61272406E-15
  -49.6431999        -6.05196274E-15
  -49.5281982        -6.36802631E-15
  -49.4132004        -6.47846585E-15
  -49.2981987        -6.30495751E-15
  -49.1832008        -5.78027311E-15
  -49.0681992        -4.85457537E-15
  -48.9532013        -3.50043819E-15
  -48.8381996        -1.71612104E-15
  -48.7232018         4.73240272E-16
  -48.6082001         3.01667671E-15
  -48.4931984         5.84061574E-15
  -48.3782005         8.85404980E-15
  -48.2631989         1.19552170E-14
  -48.1482010         1.50392123E-14
  -48.0331993         1.80058656E-14
  -47.9182014         2.07671777E-14
  -47.8031998         2.32536074E-14
  -47.6882019         2.54186727E-14
  -47.5732002         2.72413402E-14
  -47.4581985         2.87260043E-14
  -47.3432007         2.98999818E-14
  -47.2281990         3.08086855E-14
  -47.1132011         3.15089107E-14
  -46.9981995         3.20607595E-14
  -46.8832016         3.25189332E-14
  -46.7681999         3.29241944E-14
  -46.6531982         3.32957471E-14
  -46.5382004         3.36253310E-14
  -46.4231987         3.38735862E-14
  -46.3082008         3.39691620E-14
  -46.1931992         3.38107465E-14
  -46.0782013         3.32720132E-14
  -45.9631996         3.22092037E-14
  -45.8482018         3.04708448E-14
  -45.7332001         2.79089106E-14
  -45.6181984         2.43905915E-14
  -45.5032005         1.98098086E-14
  -45.3881989         1.40975412E-14
  -45.2732010         7.23016736E-15
  -45.1581993        -7.64870222E-16
  -45.0432014        -9.80656376E-15
  -44.9281998        -1.97613041E-14
  -44.8132019        -3.04472227E-14
  -44.6982002        -4.16417694E-14
  -44.5831985        -5.30919370E-14
  -44.4682007        -6.45265159E-14
  -44.3531990        -7.56694986E-14
  -44.2382011        -8.62537513E-14
  -44.1231995        -9.60339664E-14
  -44.0082016        -1.04798027E-13
  -43.8931999        -1.12376092E-13
  -43.7781982        -1.18646670E-13
  -43.6632004        -1.23539471E-13
  -43.5481987        -1.27034830E-13
  -43.4332008        -1.29159731E-13
  -43.3181992        -1.29981014E-13
  -43.2032013        -1.29596041E-13
  -43.0881996        -1.28121878E-13
  -42.9732018        -1.25683359E-13
  -42.8582001        -1.22401438E-13
  -42.7431984        -1.18382192E-13
  -42.6282005        -1.13707573E-13
  -42.5131989        -1.08428261E-13
  -42.3982010        -1.02559393E-13
  -42.2831993        -9.60790624E-14
  -42.1682014        -8.89298536E-14
  -42.0531998        -8.10231128E-14
  -41.9382019        -7.22455881E-14
  -41.8232002        -6.24679480E-14
  -41.7081985        -5.15543859E-14
  -41.5932007        -3.93728222E-14
  -41.4781990        -2.58047656E-14
  -41.3632011        -1.07542691E-14
  -41.2481995         5.84458366E-15
  -41.1332016         2.40219967E-14
  -41.0181999         4.37691265E-14
  -40.9031982         6.50368702E-14
  -40.7882004         8.77367094E-14
  -40.6731987         1.11743568E-13
  -40.5582008         1.36900081E-13
  -40.4431992         1.63021696E-13
  -40.3282013         1.89902402E-13
  -40.2131996         2.17320058E-13
  -40.0982018         2.45041292E-13
  -39.9832001         2.72825274E-13
  -39.8681984         3.00426215E-13
  -39.7532005         3.27594234E-13
  -39.6381989         3.54075276E-13
  -39.5232010         3.79609430E-13
  -39.4081993         4.03928816E-13
  -39.2932014         4.26755175E-13
  -39.1781998         4.47797615E-13
  -39.0632019         4.66751312E-13
  -38.9482002         4.83298026E-13
  -38.8331985         4.97107997E-13
  -38.7182007         5.07844526E-13
  -38.6031990         5.15170697E-13
  -38.4882011         5.18759027E-13
  -38.3731995         5.18302415E-13
  -38.2582016         5.13527155E-13
  -38.1431999         5.04207028E-13
  -38.0281982         4.90176909E-13
  -37.9132004         4.71345781E-13
  -37.7981987         4.47708466E-13
  -37.6832008         4.19353435E-13
  -37.5681992         3.86468825E-13
  -37.4532013         3.49343113E-13
  -37.3381996         3.08362439E-13
  -37.2232018         2.64003365E-13
  -37.1082001         2.16821786E-13
  -36.9931984         1.67438505E-13
  -36.8782005         1.16522392E-13
  -36.7631989         6.47719522E-14
  -36.6482010         1.28964976E-14
  -36.5331993        -3.84020310E-14
  -36.4182014        -8.84454592E-14
  -36.3031998        -1.36593400E-13
  -36.1882019        -1.82254494E-13
  -36.0732002        -2.24894322E-13
  -35.9581985        -2.64040905E-13
  -35.8432007        -2.99287694E-13
  -35.7281990        -3.30295660E-13
  -35.6132011        -3.56795350E-13
  -35.4981995        -3.78589765E-13
  -35.3832016        -3.95560727E-13
  -35.2681999        -4.07678475E-13
  -35.1531982        -4.15015976E-13
  -35.0382004        -4.17768549E-13
  -34.9231987        -4.16278096E-13
  -34.8082008        -4.11061755E-13
  -34.6931992        -4.02843178E-13
  -34.5782013        -3.92584457E-13
  -34.4631996        -3.81516243E-13
  -34.3482018        -3.71163332E-13
  -34.2332001        -3.63362498E-13
  -34.1181984        -3.60270055E-13
  -34.0032005        -3.64355654E-13
  -33.8881989        -3.78381246E-13
  -33.7732010        -4.05363433E-13
  -33.6581993        -4.48518962E-13
  -33.5432014        -5.11193572E-13
  -33.4281998        -5.96776805E-13
  -33.3132019        -7.08604779E-13
  -33.1982002        -8.49854638E-13
  -33.0831985        -1.02343546E-12
  -32.9682007        -1.23188016E-12
  -32.8531990        -1.47724248E-12
  -32.7382011        -1.76100595E-12
  -32.6231995        -2.08400614E-12
  -32.5082016        -2.44637188E-12
  -32.3931999        -2.84748809E-12
  -32.2781982        -3.28597913E-12
  -32.1632004        -3.75971606E-12
  -32.0481987        -4.26584549E-12
  -31.9332008        -4.80083508E-12
  -31.8181992        -5.36054014E-12
  -31.7031994        -5.94027692E-12
  -31.5881996        -6.53491150E-12
  -31.4731998        -7.13894829E-12
  -31.3582001        -7.74661932E-12
  -31.2432003        -8.35197710E-12
  -31.1282005        -8.94897351E-12
  -31.0132008        -9.53153702E-12
  -30.8981991        -1.00936464E-11
  -30.7831993        -1.06293863E-11
  -30.6681995        -1.11330034E-11
  -30.5531998        -1.15989544E-11
  -30.4382000        -1.20219546E-11
  -30.3232002        -1.23970174E-11
  -30.2082005        -1.27195034E-11
  -30.0932007        -1.29851642E-11
  -29.9782009        -1.31901937E-11
  -29.8631992        -1.33312857E-11
  -29.7481995        -1.34056863E-11
  -29.6331997        -1.34112582E-11
  -29.5181999        -1.33465400E-11
  -29.4032001        -1.32108031E-11
  -29.2882004        -1.30041065E-11
  -29.1732006        -1.27273339E-11
  -29.0582008        -1.23822289E-11
  -28.9431992        -1.19714030E-11
  -28.8281994        -1.14983266E-11
  -28.7131996        -1.09673035E-11
  -28.5981998        -1.03834129E-11
  -28.4832001        -9.75243237E-12
  -28.3682003        -9.08073269E-12
  -28.2532005        -8.37515560E-12
  -28.1382008        -7.64286637E-12
  -28.0231991        -6.89119595E-12
  -27.9081993        -6.12746832E-12
  -27.7931995        -5.35883013E-12
  -27.6781998        -4.59206631E-12
  -27.5632000        -3.83344051E-12
  -27.4482002        -3.08853724E-12
  -27.3332005        -2.36212178E-12
  -27.2182007        -1.65803384E-12
  -27.1032009        -9.79097445E-13
  -26.9881992        -3.27069453E-13
  -26.8731995         2.97381125E-13
  -26.7581997         8.94660919E-13
  -26.6431999         1.46620801E-12
  -26.5282001         2.01441728E-12
  -26.4132004         2.54253389E-12
  -26.2982006         3.05453167E-12
  -26.1832008         3.55496795E-12
  -26.0681992         4.04883028E-12
  -25.9531994         4.54137465E-12
  -25.8381996         5.03796614E-12
  -25.7231998         5.54392253E-12
  -25.6082001         6.06437340E-12
  -25.4932003         6.60412610E-12
  -25.3782005         7.16756212E-12
  -25.2632008         7.75854034E-12
  -25.1481991         8.38032768E-12
  -25.0331993         9.03555356E-12
  -24.9181995         9.72616952E-12
  -24.8031998         1.04534437E-11
  -24.6882000         1.12179545E-11
  -24.5732002         1.20196006E-11
  -24.4582005         1.28576195E-11
  -24.3432007         1.37306017E-11
  -24.2282009         1.46365194E-11
  -24.1131992         1.55727462E-11
  -23.9981995         1.65360781E-11
  -23.8831997         1.75227454E-11
  -23.7681999         1.85284305E-11
  -23.6532001         1.95482901E-11
  -23.5382004         2.05769637E-11
  -23.4232006         2.16085917E-11
  -23.3082008         2.26368421E-11
  -23.1931992         2.36549391E-11
  -23.0781994         2.46556959E-11
  -22.9631996         2.56315663E-11
  -22.8481998         2.65746956E-11
  -22.7332001         2.74769929E-11
  -22.6182003         2.83301889E-11
  -22.5032005         2.91259343E-11
  -22.3882008         2.98558643E-11
  -22.2731991         3.05117147E-11
  -22.1581993         3.10853843E-11
  -22.0431995         3.15690321E-11
  -21.9281998         3.19551781E-11
  -21.8132000         3.22367584E-11
  -21.6982002         3.24072297E-11
  -21.5832005         3.24606245E-11
  -21.4682007         3.23916241E-11
  -21.3532009         3.21956246E-11
  -21.2381992         3.18687958E-11
  -21.1231995         3.14081296E-11
  -21.0081997         3.08115061E-11
  -20.8931999         3.00777389E-11
  -20.7782001         2.92066267E-11
  -20.6632004         2.81989883E-11
  -20.5482006         2.70567197E-11
  -20.4332008         2.57828116E-11
  -20.3181992         2.43813789E-11
  -20.2031994         2.28576706E-11
  -20.0881996         2.12180724E-11
  -19.9731998         1.94700749E-11
  -19.8582001         1.76222491E-11
  -19.7432003         1.56841779E-11
  -19.6282005         1.36663831E-11
  -19.5132008         1.15802359E-11
  -19.3981991         9.43783159E-12
  -19.2831993         7.25187922E-12
  -19.1681995         5.03556355E-12
  -19.0531998         2.80239915E-12
  -18.9382000         5.66089981E-13
  -18.8232002        -1.65960225E-12
  -18.7082005        -3.86099703E-12
  -18.5932007        -6.02461874E-12
  -18.4782009        -8.13730767E-12
  -18.3631992        -1.01863301E-11
  -18.2481995        -1.21594687E-11
  -18.1331997        -1.40451080E-11
  -18.0181999        -1.58323285E-11
  -17.9032001        -1.75109788E-11
  -17.7882004        -1.90717719E-11
  -17.6732006        -2.05063761E-11
  -17.5582008        -2.18075245E-11
  -17.4431992        -2.29691179E-11
  -17.3281994        -2.39863632E-11
  -17.2131996        -2.48558917E-11
  -17.0981998        -2.55758990E-11
  -16.9832001        -2.61462674E-11
  -16.8682003        -2.65686900E-11
  -16.7532005        -2.68467523E-11
  -16.6382008        -2.69860020E-11
  -16.5231991        -2.69939678E-11
  -16.4081993        -2.68801301E-11
  -16.2931995        -2.66558390E-11
  -16.1781998        -2.63341692E-11
  -16.0632000        -2.59297150E-11
  -15.9482002        -2.54583299E-11
  -15.8332005        -2.49368148E-11
  -15.7181997        -2.43825602E-11
  -15.6032000        -2.38131615E-11
  -15.4882002        -2.32460128E-11
  -15.3732004        -2.26979130E-11
  -15.2581997        -2.21846725E-11
  -15.1431999        -2.17207554E-11
  -15.0282001        -2.13189796E-11
  -14.9132004        -2.09902581E-11
  -14.7981997        -2.07434070E-11
  -14.6831999        -2.05850406E-11
  -14.5682001        -2.05195114E-11
  -14.4532003        -2.05489376E-11
  -14.3381996        -2.06732791E-11
  -14.2231998        -2.08904699E-11
  -14.1082001        -2.11965757E-11
  -13.9932003        -2.15860073E-11
  -13.8781996        -2.20517025E-11
  -13.7631998        -2.25853485E-11
  -13.6482000        -2.31775606E-11
  -13.5332003        -2.38180621E-11
  -13.4181995        -2.44958255E-11
  -13.3031998        -2.51991934E-11
  -13.1882000        -2.59159690E-11
  -13.0732002        -2.66334958E-11
  -12.9582005        -2.73387060E-11
  -12.8431997        -2.80181833E-11
  -12.7282000        -2.86582095E-11
  -12.6132002        -2.92448496E-11
  -12.4982004        -2.97640350E-11
  -12.3831997        -3.02017023E-11
  -12.2681999        -3.05439597E-11
  -12.1532001        -3.07772696E-11
  -12.0382004        -3.08887117E-11
  -11.9231997        -3.08662297E-11
  -11.8081999        -3.06989469E-11
  -11.6932001        -3.03774471E-11
  -11.5782003        -2.98940976E-11
  -11.4631996        -2.92433334E-11
  -11.3481998        -2.84219193E-11
  -11.2332001        -2.74291718E-11
  -11.1182003        -2.62671256E-11
  -11.0031996        -2.49406294E-11
  -10.8881998        -2.34573853E-11
  -10.7732000        -2.18278885E-11
  -10.6582003        -2.00653088E-11
  -10.5431995        -1.81852918E-11
  -10.4281998        -1.62056861E-11
  -10.3132000        -1.41462207E-11
  -10.1982002        -1.20281250E-11
  -10.0832005        -9.87371556E-12
  -9.96819973        -7.70596954E-12
  -9.85319996        -5.54807112E-12
  -9.73820019        -3.42298325E-12
  -9.62320042        -1.35303238E-12
  -9.50819969         6.40487988E-13
  -9.39319992         2.53765932E-12
  -9.27820015         4.32024425E-12
  -9.16320038         5.97194126E-12
  -9.04819965         7.47858719E-12
  -8.93319988         8.82831221E-12
  -8.81820011         1.00116391E-11
  -8.70320034         1.10215509E-11
  -8.58819962         1.18535034E-11
  -8.47319984         1.25054203E-11
  -8.35820007         1.29776467E-11
  -8.24320030         1.32728949E-11
  -8.12819958         1.33961583E-11
  -8.01319981         1.33546256E-11
  -7.89820004         1.31575757E-11
  -7.78319979         1.28162706E-11
  -7.66820002         1.23438256E-11
  -7.55320024         1.17550839E-11
  -7.43820000         1.10664663E-11
  -7.32320023         1.02957972E-11
  -7.20819998         9.46211772E-12
  -7.09320021         8.58546567E-12
  -6.97819996         7.68662391E-12
  -6.86320019         6.78683715E-12
  -6.74819994         5.90749541E-12
  -6.63320017         5.06978010E-12
  -6.51819992         4.29428715E-12
  -6.40320015         3.60062522E-12
  -6.28819990         3.00699656E-12
  -6.17320013         2.52978324E-12
  -6.05819988         2.18313453E-12
  -5.94320011         1.97858808E-12
  -5.82819986         1.92472275E-12
  -5.71320009         2.02687042E-12
  -5.59819984         2.28689572E-12
  -5.48320007         2.70305414E-12
  -5.36819983         3.26994313E-12
  -5.25320005         3.97855316E-12
  -5.13819981         4.81641073E-12
  -5.02320004         5.76783283E-12
  -4.90819979         6.81426877E-12
  -4.79320002         7.93473360E-12
  -4.67820024         9.10631726E-12
  -4.56320000         1.03047536E-11
  -4.44820023         1.15050391E-11
  -4.33319998         1.26820802E-11
  -4.21820021         1.38113410E-11
  -4.10319996         1.48695032E-11
  -3.98819995         1.58350763E-11
  -3.87319994         1.66889887E-11
  -3.75819993         1.74151023E-11
  -3.64319992         1.80006964E-11
  -3.52819991         1.84368250E-11
  -3.41319990         1.87186325E-11
  -3.29820013         1.88455571E-11
  -3.18320012         1.88214427E-11
  -3.06820011         1.86545605E-11
  -2.95320010         1.83575169E-11
  -2.83820009         1.79470761E-11
  -2.72320008         1.74438675E-11
  -2.60820007         1.68720090E-11
  -2.49320006         1.62586281E-11
  -2.37820005         1.56332950E-11
  -2.26320004         1.50273682E-11
  -2.14820004         1.44732750E-11
  -2.03320003         1.40037287E-11
  -1.91820002         1.36508999E-11
  -1.80320001         1.34455641E-11
  -1.68820000         1.34162403E-11
  -1.57319999         1.35883405E-11
  -1.45819998         1.39833804E-11
  -1.34319997         1.46182302E-11
  -1.22819996         1.55044658E-11
  -1.11320007         1.66478359E-11
 -0.998199999         1.80478514E-11
 -0.883199990         1.96975197E-11
 -0.768200040         2.15832473E-11
 -0.653200030         2.36848718E-11
 -0.538200021         2.59758950E-11
 -0.423200011         2.84238501E-11
 -0.308200002         3.09907967E-11
 -0.193200007         3.36339810E-11
  -7.82000124E-02     3.63065619E-11
   3.67999896E-02     3.89584823E-11
  0.151799992         4.15373465E-11
  0.266799986         4.39893989E-11
  0.381799996         4.62604746E-11
  0.496799976         4.82970122E-11
  0.611800015         5.00470117E-11
  0.726799965         5.14609848E-11
  0.841799974         5.24928781E-11
  0.956799984         5.31009368E-11
   1.07179999         5.32485202E-11
   1.18680000         5.29048680E-11
   1.30180001         5.20457635E-11
   1.41680002         5.06541822E-11
   1.53180003         4.87207982E-11
   1.64680004         4.62444492E-11
   1.76179993         4.32324523E-11
   1.87679994         3.97008398E-11
   1.99179995         3.56744634E-11
   2.10680008         3.11869384E-11
   2.22180009         2.62804743E-11
   2.33680010         2.10054925E-11
   2.45179987         1.54201287E-11
   2.56679988         9.58956352E-12
   2.68179989         3.58515214E-12
   2.79679990        -2.51655012E-12
   2.91179991        -8.63493565E-12
   3.02679992        -1.46865853E-11
   3.14179993        -2.05866036E-11
   3.25679994        -2.62500386E-11
   3.37179995        -3.15933044E-11
   3.48679996        -3.65356044E-11
   3.60179996        -4.10003247E-11
   3.71679997        -4.49163519E-11
   3.83179998        -4.82192897E-11
   3.94679999        -5.08525236E-11
   4.06180000        -5.27681752E-11
   4.17679977        -5.39278656E-11
   4.29180002        -5.43032980E-11
   4.40679979        -5.38766913E-11
   4.52180004        -5.26409923E-11
   4.63679981        -5.05999374E-11
   4.75180006        -4.77679528E-11
   4.86679983        -4.41699004E-11
   4.98180008        -3.98406724E-11
   5.09679985        -3.48246883E-11
   5.21180010        -2.91752733E-11
   5.32679987        -2.29539443E-11
   5.44180012        -1.62296357E-11
   5.55679989        -9.07783657E-12
   5.67180014        -1.57968126E-12
   5.78679991         6.17900349E-12
   5.90180016         1.41087107E-11
   6.01679993         2.21172889E-11
   6.13180017         3.01110387E-11
   6.24679995         3.79958252E-11
   6.36180019         4.56782147E-11
   6.47679996         5.30666691E-11
   6.59180021         6.00727107E-11
   6.70679998         6.66121394E-11
   6.82179976         7.26061780E-11
   6.93680000         7.79826689E-11
   7.05179977         8.26771568E-11
   7.16680002         8.66339084E-11
   7.28179979         8.98068772E-11
   7.39680004         9.21604945E-11
   7.51179981         9.36703423E-11
   7.62680006         9.43236322E-11
   7.74179983         9.41194900E-11
   7.85680008         9.30690594E-11
   7.97179985         9.11953221E-11
   8.08679962         8.85327298E-11
   8.20180035         8.51265933E-11
   8.31680012         8.10322018E-11
   8.43179989         7.63138372E-11
   8.54679966         7.10434489E-11
   8.66180038         6.52993146E-11
   8.77680016         5.91644511E-11
   8.89179993         5.27250153E-11
   9.00679970         4.60685969E-11
   9.12180042         3.92825251E-11
   9.23680019         3.24522041E-11
   9.35179996         2.56595075E-11
   9.46679974         1.89812558E-11
   9.58180046         1.24878536E-11
   9.69680023         6.24207847E-12
   9.81180000         2.98040672E-13
   9.92679977        -5.29964354E-12
   10.0417995        -1.05164983E-11
   10.1568003        -1.53285856E-11
   10.2718000        -1.97227443E-11
   10.3867998        -2.36965950E-11
   10.5017996        -2.72583293E-11
   10.6168003        -3.04263524E-11
   10.7318001        -3.32287566E-11
   10.8467999        -3.57025971E-11
   10.9617996        -3.78930637E-11
   11.0768003        -3.98525310E-11
   11.1918001        -4.16395252E-11
   11.3067999        -4.33175128E-11
   11.4217997        -4.49537386E-11
   11.5368004        -4.66179283E-11
   11.6518002        -4.83810041E-11
   11.7667999        -5.03137289E-11
   11.8817997        -5.24854118E-11
   11.9968004        -5.49625519E-11
   12.1118002        -5.78075678E-11
   12.2268000        -6.10775736E-11
   12.3417997        -6.48231746E-11
   12.4568005        -6.90874302E-11
   12.5718002        -7.39047920E-11
   12.6868000        -7.93003371E-11
   12.8017998        -8.52889703E-11
   12.9167995        -9.18748896E-11
   13.0318003        -9.90511700E-11
   13.1468000        -1.06799534E-10
   13.2617998        -1.15090333E-10
   13.3767996        -1.23882682E-10
   13.4918003        -1.33124844E-10
   13.6068001        -1.42754697E-10
   13.7217999        -1.52700533E-10
   13.8367996        -1.62881875E-10
   13.9518003        -1.73210557E-10
   14.0668001        -1.83591933E-10
   14.1817999        -1.93926070E-10
   14.2967997        -2.04109243E-10
   14.4118004        -2.14035317E-10
   14.5268002        -2.23597238E-10
   14.6417999        -2.32688535E-10
   14.7567997        -2.41204862E-10
   14.8718004        -2.49045451E-10
   14.9868002        -2.56114518E-10
   15.1018000        -2.62322580E-10
   15.2167997        -2.67587869E-10
   15.3318005        -2.71837358E-10
   15.4468002        -2.75007878E-10
   15.5618000        -2.77047024E-10
   15.6767998        -2.77913970E-10
   15.7917995        -2.77580126E-10
   15.9068003        -2.76029505E-10
   16.0217991        -2.73259138E-10
   16.1368008        -2.69278988E-10
   16.2518005        -2.64111982E-10
   16.3668003        -2.57793564E-10
   16.4818001        -2.50371168E-10
   16.5967999        -2.41903414E-10
   16.7117996        -2.32459246E-10
   16.8267994        -2.22116547E-10
   16.9417992        -2.10960832E-10
   17.0568008        -1.99083805E-10
   17.1718006        -1.86581584E-10
   17.2868004        -1.73553089E-10
   17.4018002        -1.60098171E-10
   17.5167999        -1.46315904E-10
   17.6317997        -1.32302905E-10
   17.7467995        -1.18151683E-10
   17.8617992        -1.03949217E-10