  -75.1732025       0.00000000    
  -75.0581970       0.00000000    
  -74.9431992       0.00000000    
  -74.8282013       0.00000000    
  -74.7132034       0.00000000    
  -74.5981979       0.00000000    
  -74.4832001       4.62346597E-29
  -74.3682022       5.68841946E-28
  -74.2531967       3.73645046E-27
  -74.1381989       1.73784270E-26
  -74.0232010       6.40882124E-26
  -73.9082031       1.99066732E-25
  -73.7931976       5.40500424E-25
  -73.6781998       1.31509049E-24
  -73.5632019       2.91819370E-24
  -73.4481964       5.98277317E-24
  -73.3331985       1.14445976E-23
  -73.2182007       2.05842840E-23
  -73.1032028       3.50219848E-23
  -72.9881973       5.66401562E-23
  -72.8731995       8.74157658E-23
  -72.7582016       1.29156498E-22
  -72.6432037       1.83154317E-22
  -72.5281982       2.49791859E-22
  -72.4132004       3.28156216E-22
  -72.2982025       4.15726693E-22
  -72.1831970       5.08199594E-22
  -72.0681992       5.99494151E-22
  -71.9532013       6.81946549E-22
  -71.8382034       7.46648138E-22
  -71.7231979       7.83831582E-22
  -71.6082001       7.83161922E-22
  -71.4932022       7.33768273E-22
  -71.3781967       6.23865131E-22
  -71.2631989       4.39869699E-22
  -71.1482010       1.65026079E-22
  -71.0332031      -2.22312767E-22
  -70.9181976      -7.50435427E-22
  -70.8031998      -1.45559746E-21
  -70.6882019      -2.38236357E-21
  -70.5731964      -3.58238999E-21
  -70.4581985      -5.11116435E-21
  -70.3432007      -7.02244190E-21
  -70.2282028      -9.36046952E-21
  -70.1131973      -1.21505214E-20
  -69.9981995      -1.53887518E-20
  -69.8832016      -1.90327942E-20
  -69.7682037      -2.29948617E-20
  -69.6531982      -2.71391529E-20
  -69.5382004      -3.12851437E-20
  -69.4232025      -3.52178770E-20
  -69.3081970      -3.87054126E-20
  -69.1931992      -4.15225894E-20
  -69.0782013      -4.34790428E-20
  -68.9632034      -4.44482626E-20
  -68.8481979      -4.43936687E-20
  -68.7332001      -4.33871547E-20
  -68.6182022      -4.16158444E-20
  -68.5031967      -3.93735839E-20
  -68.3881989      -3.70352606E-20
  -68.2732010      -3.50142419E-20
  -68.1582031      -3.37056131E-20
  -68.0431976      -3.34206041E-20
  -67.9281998      -3.43196913E-20
  -67.8132019      -3.63536315E-20
  -67.6981964      -3.92221355E-20
  -67.5831985      -4.23590209E-20
  -67.4682007      -4.49507296E-20
  -67.3532028      -4.59912711E-20
  -67.2381973      -4.43721491E-20
  -67.1231995      -3.90004285E-20
  -67.0082016      -2.89328294E-20
  -66.8932037      -1.35094136E-20
  -66.7781982       7.53255627E-21
  -66.6632004       3.39841985E-20
  -66.5482025       6.51472716E-20
  -66.4331970       9.98846633E-20
  -66.3181992       1.36742067E-19
  -66.2032013       1.74133332E-19
  -66.0882034       2.10570289E-19
  -65.9731979       2.44907526E-19
  -65.8582001       2.76564271E-19
  -65.7432022       3.05682553E-19
  -65.6281967       3.33183775E-19
  -65.5131989       3.60695596E-19
  -65.3982010       3.90337794E-19
  -65.2832031       4.24378422E-19
  -65.1681976       4.64796198E-19
  -65.0531998       5.12809018E-19
  -64.9382019       5.68448236E-19
  -64.8231964       6.30264477E-19
  -64.7081985       6.95248458E-19
  -64.5932007       7.59027186E-19
  -64.4782028       8.16359229E-19
  -64.3631973       8.61904207E-19
  -64.2481995       8.91184436E-19
  -64.1332016       9.01603603E-19
  -64.0182037       8.93342240E-19
  -63.9031982       8.69936131E-19
  -63.7882004       8.38346672E-19
  -63.6731987       8.08387845E-19
  -63.5582008       7.91450701E-19
  -63.4431992       7.98585082E-19
  -63.3282013       8.38121731E-19
  -63.2131996       9.13150114E-19
  -63.0982018       1.01926798E-18
  -62.9832001       1.14307520E-18
  -62.8681984       1.26187168E-18
  -62.7532005       1.34492960E-18
  -62.6381989       1.35653319E-18
  -62.5232010       1.26073099E-18
  -62.4081993       1.02744900E-18
  -62.2932014       6.39301994E-19
  -62.1781998       9.81644378E-20
  -62.0632019      -5.69631208E-19
  -61.9482002      -1.31065662E-18
  -61.8331985      -2.04539059E-18
  -61.7182007      -2.67363820E-18
  -61.6031990      -3.08465349E-18
  -61.4882011      -3.17160548E-18
  -61.3731995      -2.84929579E-18
  -61.2582016      -2.07328395E-18
  -61.1431999      -8.57932551E-19
  -61.0281982       7.09544673E-19
  -60.9132004       2.46207394E-18
  -60.7981987       4.15550021E-18
  -60.6832008       5.48316604E-18
  -60.5681992       6.10312922E-18
  -60.4532013       5.67729954E-18
  -60.3381996       3.91996632E-18
  -60.2232018       6.51344245E-19
  -60.1082001      -4.14993825E-18
  -59.9931984      -1.03027049E-17
  -59.8782005      -1.73953155E-17
  -59.7631989      -2.47814477E-17
  -59.6482010      -3.16056779E-17
  -59.5331993      -3.68624338E-17
  -59.4182014      -3.94883815E-17
  -59.3031998      -3.84841677E-17
  -59.1882019      -3.30566420E-17
  -59.0732002      -2.27684971E-17
  -58.9581985      -7.67823290E-18
  -58.8432007       1.15487227E-17
  -58.7281990       3.35776897E-17
  -58.6132011       5.64090789E-17
  -58.4981995       7.74630424E-17
  -58.3832016       9.37510889E-17
  -58.2681999       1.02132447E-16
  -58.1531982       9.96423883E-17
  -58.0382004       8.38687952E-17
  -57.9231987       5.33434483E-17
  -57.8082008       7.90592842E-18
  -57.6931992      -5.10061635E-17
  -57.5782013      -1.20187278E-16
  -57.4631996      -1.94655795E-16
  -57.3482018      -2.67838462E-16
  -57.2332001      -3.31962165E-16
  -57.1181984      -3.78647338E-16
  -57.0032005      -3.99674931E-16
  -56.8881989      -3.87874518E-16
  -56.7732010      -3.38060140E-16
  -56.6581993      -2.47923447E-16
  -56.5432014      -1.18783798E-16
  -56.4281998       4.39057841E-17
  -56.3132019       2.30387032E-16
  -56.1982002       4.26829987E-16
  -56.0831985       6.16009528E-16
  -55.9682007       7.78424126E-16
  -55.8531990       8.93811401E-16
  -55.7382011       9.42967793E-16
  -55.6231995       9.09738373E-16
  -55.5082016       7.83006627E-16
  -55.3931999       5.58492497E-16
  -55.2781982       2.40161237E-16
  -55.1632004      -1.58941630E-16
  -55.0481987      -6.16581858E-16
  -54.9332008      -1.10205466E-15
  -54.8181992      -1.57776573E-15
  -54.7032013      -2.00162928E-15
  -54.5881996      -2.33016096E-15
  -54.4732018      -2.52206347E-15
  -54.3582001      -2.54203037E-15
  -54.2431984      -2.36445541E-15
  -54.1282005      -1.97670237E-15
  -54.0131989      -1.38159957E-15
  -53.8982010      -5.98864311E-16
  -53.7831993       3.34774526E-16
  -53.6682014       1.36688650E-15
  -53.5531998       2.43209968E-15
  -53.4382019       3.45619914E-15
  -53.3232002       4.36132691E-15
  -53.2081985       5.07192910E-15
  -53.0932007       5.52100310E-15
  -52.9781990       5.65613916E-15
  -52.8632011       5.44482985E-15
  -52.7481995       4.87855318E-15
  -52.6332016       3.97520016E-15
  -52.5181999       2.77954179E-15
  -52.4031982       1.36156417E-15
  -52.2882004      -1.87305309E-16
  -52.1731987      -1.75990312E-15
  -52.0582008      -3.24059241E-15
  -51.9431992      -4.51357557E-15
  -51.8282013      -5.47162320E-15
  -51.7131996      -6.02453412E-15
  -51.5982018      -6.10661331E-15
  -51.4832001      -5.68252805E-15
  -51.3681984      -4.75099383E-15
  -51.2532005      -3.34591122E-15
  -51.1381989      -1.53475922E-15
  -51.0232010       5.85714124E-16
  -50.9081993       2.89625933E-15
  -50.7932014       5.26387736E-15
  -50.6781998       7.55192892E-15
  -50.5632019       9.63082814E-15
  -50.4482002       1.13884960E-14
  -50.3331985       1.27397270E-14
  -50.2182007       1.36337229E-14
  -50.1031990       1.40591359E-14
  -49.9882011       1.40461830E-14
  -49.8731995       1.36655900E-14
  -49.7582016       1.30243682E-14
  -49.6431999       1.22586733E-14
  -49.5281982       1.15242238E-14
  -49.4132004       1.09849187E-14
  -49.2981987       1.08004612E-14
  -49.1832008       1.11138575E-14
  -49.0681992       1.20396594E-14
  -48.9532013       1.36537942E-14
  -48.8381996       1.59856869E-14
  -48.7232018       1.90132469E-14
  -48.6082001       2.26610468E-14
  -48.4931984       2.68018961E-14
  -48.3782005       3.12616618E-14
  -48.2631989       3.58271220E-14
  -48.1482010       4.02563352E-14
  -48.0331993       4.42909462E-14
  -47.9182014       4.76696760E-14
  -47.8031998       5.01422702E-14
  -47.6882019       5.14830691E-14
  -47.5732002       5.15034928E-14
  -47.4581985       5.00627372E-14
  -47.3432007       4.70761329E-14
  -47.2281990       4.25207355E-14
  -47.1132011       3.64378564E-14
  -46.9981995       2.89323924E-14
  -46.8832016       2.01690742E-14
  -46.7681999       1.03656682E-14
  -46.6531982      -2.16336370E-16
  -46.5382004      -1.12832429E-14
  -46.4231987      -2.25222063E-14
  -46.3082008      -3.36151971E-14
  -46.1931992      -4.42531516E-14
  -46.0782013      -5.41495458E-14
  -45.9631996      -6.30526989E-14
  -45.8482018      -7.07560976E-14
  -45.7332001      -7.71061139E-14
  -45.6181984      -8.20068094E-14
  -45.5032005      -8.54212805E-14
  -45.3881989      -8.73696189E-14
  -45.2732010      -8.79235988E-14
  -45.1581993      -8.71982133E-14
  -45.0432014      -8.53408056E-14
  -44.9281998      -8.25183495E-14
  -44.8132019      -7.89038363E-14
  -44.6982002      -7.46626678E-14
  -44.5831985      -6.99400661E-14
  -44.4682007      -6.48504281E-14
  -44.3531990      -5.94694920E-14
  -44.2382011      -5.38298417E-14
  -44.1231995      -4.79203096E-14
  -44.0082016      -4.16891897E-14
  -43.8931999      -3.50511720E-14
  -43.7781982      -2.78973232E-14
  -43.6632004      -2.01074407E-14
  -43.5481987      -1.15635015E-14
  -43.4332008      -2.16321161E-15
  -43.3181992       8.16780573E-15
  -43.2032013       1.94662571E-14
  -43.0881996       3.17250126E-14
  -42.9732018       4.48912791E-14
  -42.8582001       5.88695352E-14
  -42.7431984       7.35292903E-14
  -42.6282005       8.87172416E-14
  -42.5131989       1.04273056E-13
  -42.3982010       1.20047445E-13
  -42.2831993       1.35921222E-13
  -42.1682014       1.51823527E-13
  -42.0531998       1.67747570E-13
  -41.9382019       1.83762212E-13
  -41.8232002       2.00018103E-13
  -41.7081985       2.16747220E-13
  -41.5932007       2.34255323E-13
  -41.4781990       2.52907314E-13
  -41.3632011       2.73105946E-13
  -41.2481995       2.95265033E-13
  -41.1332016       3.19778655E-13
  -41.0181999       3.46988253E-13
  -40.9031982       3.77149809E-13
  -40.7882004       4.10403401E-13
  -40.6731987       4.46747077E-13
  -40.5582008       4.86017259E-13
  -40.4431992       5.27877167E-13
  -40.3282013       5.71813701E-13
  -40.2131996       6.17144844E-13
  -40.0982018       6.63035111E-13
  -39.9832001       7.08520699E-13
  -39.8681984       7.52541475E-13
  -39.7532005       7.93978815E-13
  -39.6381989       8.31697395E-13
  -39.5232010       8.64588024E-13
  -39.4081993       8.91610624E-13
  -39.2932014       9.11833760E-13
  -39.1781998       9.24470353E-13
  -39.0632019       9.28907450E-13
  -38.9482002       9.24728501E-13
  -38.8331985       9.11729026E-13
  -38.7182007       8.89923660E-13
  -38.6031990       8.59546971E-13
  -38.4882011       8.21046519E-13
  -38.3731995       7.75070546E-13
  -38.2582016       7.22450203E-13
  -38.1431999       6.64178077E-13
  -38.0281982       6.01383581E-13
  -37.9132004       5.35305903E-13
  -37.7981987       4.67265766E-13
  -37.6832008       3.98635443E-13
  -37.5681992       3.30809029E-13
  -37.4532013       2.65171430E-13
  -37.3381996       2.03067557E-13
  -37.2232018       1.45771334E-13
  -37.1082001       9.44551715E-14
  -36.9931984       5.01595361E-14
  -36.8782005       1.37645243E-14
  -36.7631989      -1.40375907E-14
  -36.6482010      -3.27661889E-14
  -36.5331993      -4.21729742E-14
  -36.4182014      -4.22577046E-14
  -36.3031998      -3.32780610E-14
  -36.1882019      -1.57536473E-14
  -36.0732002       9.53761555E-15
  -35.9581985       4.15694429E-14
  -35.8432007       7.90841730E-14
  -35.7281990       1.20615974E-13
  -35.6132011       1.64518315E-13
  -35.4981995       2.08995066E-13
  -35.3832016       2.52133736E-13
  -35.2681999       2.91937752E-13
  -35.1531982       3.26356780E-13
  -35.0382004       3.53314166E-13
  -34.9231987       3.70729136E-13
  -34.8082008       3.76534226E-13
  -34.6931992       3.68686879E-13
  -34.5782013       3.45177500E-13
  -34.4631996       3.04033437E-13
  -34.3482018       2.43323130E-13
  -34.2332001       1.61160107E-13
  -34.1181984       5.57124639E-14
  -34.0032005      -7.47835292E-14
  -33.8881989      -2.31999099E-13
  -33.7732010      -4.17480910E-13
  -33.6581993      -6.32607844E-13
  -33.5432014      -8.78537315E-13
  -33.4281998      -1.15614365E-12
  -33.3132019      -1.46595062E-12
  -33.1982002      -1.80806151E-12
  -33.0831985      -2.18209045E-12
  -32.9682007      -2.58710197E-12
  -32.8531990      -3.02156217E-12
  -32.7382011      -3.48330327E-12
  -32.6231995      -3.96951439E-12
  -32.5082016      -4.47675057E-12
  -32.3931999      -5.00097056E-12
  -32.2781982      -5.53759642E-12
  -32.1632004      -6.08160137E-12
  -32.0481987      -6.62761209E-12
  -31.9332008      -7.17003193E-12
  -31.8181992      -7.70317143E-12
  -31.7031994      -8.22138538E-12
  -31.5881996      -8.71919724E-12
  -31.4731998      -9.19142887E-12
  -31.3582001      -9.63329676E-12
  -31.2432003      -1.00405032E-11
  -31.1282005      -1.04092889E-11
  -31.0132008      -1.07364725E-11
  -30.8981991      -1.10194562E-11
  -30.7831993      -1.12562086E-11
  -30.6681995      -1.14452345E-11
  -30.5531998      -1.15855207E-11
  -30.4382000      -1.16764801E-11
  -30.3232002      -1.17178914E-11
  -30.2082005      -1.17098397E-11
  -30.0932007      -1.16526693E-11
  -29.9782009      -1.15469509E-11
  -29.8631992      -1.13934582E-11
  -29.7481995      -1.11931714E-11
  -29.6331997      -1.09472908E-11
  -29.5181999      -1.06572659E-11
  -29.4032001      -1.03248382E-11
  -29.2882004      -9.95208863E-12
  -29.1732006      -9.54148566E-12
  -29.0582008      -9.09592800E-12
  -28.9431992      -8.61877323E-12
  -28.8281994      -8.11385594E-12
  -28.7131996      -7.58548346E-12
  -28.5981998      -7.03840458E-12
  -28.4832001      -6.47776017E-12
  -28.3682003      -5.90900592E-12
  -28.2532005      -5.33781699E-12
  -28.1382008      -4.76997261E-12
  -28.0231991      -4.21122425E-12
  -27.9081993      -3.66716379E-12
  -27.7931995      -3.14308106E-12
  -27.6781998      -2.64383133E-12
  -27.5632000      -2.17370653E-12
  -27.4482002      -1.73632842E-12
  -27.3332005      -1.33455269E-12
  -27.2182007      -9.70399650E-13
  -27.1032009      -6.45007973E-13
  -26.9881992      -3.58611876E-13
  -26.8731995      -1.10541737E-13
  -26.7581997       1.00749609E-13
  -26.6431999       2.77642465E-13
  -26.5282001       4.23289469E-13
  -26.4132004       5.41539957E-13
  -26.2982006       6.36853526E-13
  -26.1832008       7.14209833E-13
  -26.0681992       7.79013898E-13
  -25.9531994       8.37006029E-13
  -25.8381996       8.94173190E-13
  -25.7231998       9.56664977E-13
  -25.6082001       1.03072455E-12
  -25.4932003       1.12262142E-12
  -25.3782005       1.23859722E-12
  -25.2632008       1.38481782E-12
  -25.1481991       1.56733784E-12
  -25.0331993       1.79206205E-12
  -24.9181995       2.06471559E-12
  -24.8031998       2.39081086E-12
  -24.6882000       2.77561264E-12
  -24.5732002       3.22409612E-12
  -24.4582005       3.74089475E-12
  -24.3432007       4.33023929E-12
  -24.2282009       4.99587914E-12
  -24.1131992       5.74099579E-12
  -23.9981995       6.56810110E-12
  -23.8831997       7.47892547E-12
  -23.7681999       8.47429245E-12
  -23.6532001       9.55399735E-12
  -23.5382004       1.07166880E-11
  -23.4232006       1.19597370E-11
  -23.3082008       1.32791460E-11
  -23.1931992       1.46694584E-11
  -23.0781994       1.61237013E-11
  -22.9631996       1.76333462E-11
  -22.8481998       1.91883297E-11
  -22.7332001       2.07770866E-11
  -22.6182003       2.23866290E-11
  -22.5032005       2.40026696E-11
  -22.3882008       2.56097799E-11
  -22.2731991       2.71915754E-11
  -22.1581993       2.87309360E-11
  -22.0431995       3.02102440E-11
  -21.9281998       3.16116439E-11
  -21.8132000       3.29172974E-11
  -21.6982002       3.41096561E-11
  -21.5832005       3.51717197E-11
  -21.4682007       3.60872929E-11
  -21.3532009       3.68412106E-11
  -21.2381992       3.74195570E-11
  -21.1231995       3.78098768E-11
  -21.0081997       3.80013278E-11
  -20.8931999       3.79848479E-11
  -20.7782001       3.77532831E-11
  -20.6632004       3.73014813E-11
  -20.5482006       3.66264068E-11
  -20.4332008       3.57271782E-11
  -20.3181992       3.46051451E-11
  -20.2031994       3.32639090E-11
  -20.0881996       3.17093296E-11
  -19.9731998       2.99495186E-11
  -19.8582001       2.79948165E-11
  -19.7432003       2.58577413E-11
  -19.6282005       2.35529027E-11
  -19.5132008       2.10968968E-11
  -19.3981991       1.85081880E-11
  -19.2831993       1.58069339E-11
  -19.1681995       1.30148045E-11
  -19.0531998       1.01547668E-11
  -18.9382000       7.25084576E-12
  -18.8232002       4.32786055E-12
  -18.7082005       1.41114583E-12
  -18.5932007      -1.47373693E-12
  -18.4782009      -4.30130801E-12
  -18.3631992      -7.04646801E-12
  -18.2481995      -9.68481632E-12
  -18.1331997      -1.21929446E-11
  -18.0181999      -1.45487355E-11
  -17.9032001      -1.67316491E-11
  -17.7882004      -1.87229936E-11
  -17.6732006      -2.05061801E-11
  -17.5582008      -2.20669576E-11
  -17.4431992      -2.33936395E-11
  -17.3281994      -2.44772900E-11
  -17.2131996      -2.53118967E-11
  -17.0981998      -2.58945157E-11
  -16.9832001      -2.62253726E-11
  -16.8682003      -2.63079367E-11
  -16.7532005      -2.61489580E-11
  -16.6382008      -2.57584509E-11
  -16.5231991      -2.51496133E-11
  -16.4081993      -2.43387272E-11
  -16.2931995      -2.33449683E-11
  -16.1781998      -2.21901733E-11
  -16.0632000      -2.08985450E-11
  -15.9482002      -1.94963143E-11
  -15.8332005      -1.80113372E-11
  -15.7181997      -1.64726704E-11
  -15.6032000      -1.49100940E-11
  -15.4882002      -1.33536342E-11
  -15.3732004      -1.18330727E-11
  -15.2581997      -1.03774610E-11
  -15.1431999      -9.01465447E-12
  -15.0282001      -7.77088290E-12
  -14.9132004      -6.67035958E-12
  -14.7981997      -5.73494073E-12
  -14.6831999      -4.98384016E-12
  -14.5682001      -4.43340547E-12
  -14.4532003      -4.09694978E-12
  -14.3381996      -3.98463901E-12
  -14.2231998      -4.10342853E-12
  -14.1082001      -4.45704801E-12
  -13.9932003      -5.04601005E-12
  -13.8781996      -5.86765575E-12
  -13.7631998      -6.91621673E-12
  -13.6482000      -8.18288926E-12
  -13.5332003      -9.65591409E-12
  -13.4181995      -1.13206684E-11
  -13.3031998      -1.31597641E-11
  -13.1882000      -1.51531548E-11
  -13.0732002      -1.72782570E-11
  -12.9582005      -1.95101036E-11
  -12.8431997      -2.18215186E-11
  -12.7282000      -2.41833359E-11
  -12.6132002      -2.65646585E-11
  -12.4982004      -2.89331944E-11
  -12.3831997      -3.12556023E-11
  -12.2681999      -3.34979509E-11
  -12.1532001      -3.56261860E-11
  -12.0382004      -3.76066539E-11
  -11.9231997      -3.94066932E-11
  -11.8081999      -4.09951968E-11
  -11.6932001      -4.23432123E-11
  -11.5782003      -4.34245313E-11
  -11.4631996      -4.42162244E-11
  -11.3481998      -4.46991506E-11
  -11.2332001      -4.48583844E-11
  -11.1182003      -4.46835589E-11
  -11.0031996      -4.41691128E-11
  -10.8881998      -4.33144527E-11
  -10.7732000      -4.21239675E-11
  -10.6582003      -4.06069796E-11
  -10.5431995      -3.87775541E-11
  -10.4281998      -3.66542283E-11
  -10.3132000      -3.42596437E-11
  -10.1982002      -3.16201267E-11
  -10.0832005      -2.87651847E-11
  -9.96819973      -2.57269761E-11
  -9.85319996      -2.25397496E-11
  -9.73820019      -1.92392682E-11
  -9.62320042      -1.58622438E-11
  -9.50819969      -1.24457736E-11
  -9.39319992      -9.02680881E-12
  -9.27820015      -5.64165078E-12
  -9.16320038      -2.32547401E-12
  -9.04819965       8.88106158E-13
  -8.93319988       3.96742448E-12
  -8.81820011       6.88313339E-12
  -8.70320034       9.60851364E-12
  -8.58819962       1.21197635E-11
  -8.47319984       1.43962429E-11
  -8.35820007       1.64206773E-11
  -8.24320030       1.81793400E-11
  -8.12819958       1.96621799E-11
  -8.01319981       2.08629242E-11
  -7.89820004       2.17791184E-11
  -7.78319979       2.24121468E-11
  -7.66820002       2.27671718E-11
  -7.55320024       2.28530597E-11
  -7.43820000       2.26822085E-11
  -7.32320023       2.22703592E-11
  -7.20819998       2.16363281E-11
  -7.09320021       2.08016850E-11
  -6.97819996       1.97903881E-11
  -6.86320019       1.86283697E-11
  -6.74819994       1.73430662E-11
  -6.63320017       1.59629306E-11
  -6.51819992       1.45169154E-11
  -6.40320015       1.30339359E-11
  -6.28819990       1.15423400E-11
  -6.17320013       1.00693820E-11
  -6.05819988       8.64072789E-12
  -5.94320011       7.27999258E-12
  -5.82819986       6.00833489E-12
  -5.71320009       4.84410645E-12
  -5.59819984       3.80258412E-12
  -5.48320007       2.89577628E-12
  -5.36819983       2.13232665E-12
  -5.25320005       1.51750086E-12
  -5.13819981       1.05327292E-12
  -5.02320004       7.38497371E-13
  -4.90819979       5.69169657E-13
  -4.79320002       5.38754750E-13
  -4.67820024       6.38580226E-13
  -4.56320000       8.58276015E-13
  -4.44820023       1.18624251E-12
  -4.33319998       1.61013141E-12
  -4.21820021       2.11731956E-12
  -4.10319996       2.69535436E-12
  -3.98819995       3.33236693E-12
  -3.87319994       4.01742181E-12
  -3.75819993       4.74080107E-12
  -3.64319992       5.49422096E-12
  -3.52819991       6.27096682E-12
  -3.41319990       7.06594852E-12
  -3.29820013       7.87568014E-12
  -3.18320012       8.69820882E-12
  -3.06820011       9.53295168E-12
  -2.95320010       1.03805159E-11
  -2.83820009       1.12424653E-11
  -2.72320008       1.21210611E-11
  -2.60820007       1.30189973E-11
  -2.49320006       1.39391250E-11
  -2.37820005       1.48841772E-11
  -2.26320004       1.58565123E-11
  -2.14820004       1.68578675E-11
  -2.03320003       1.78891207E-11
  -1.91820002       1.89500828E-11
  -1.80320001       2.00393053E-11
  -1.68820000       2.11538998E-11
  -1.57319999       2.22893821E-11
  -1.45819998       2.34395420E-11
  -1.34319997       2.45963267E-11
  -1.22819996       2.57497530E-11
  -1.11320007       2.68878600E-11
 -0.998199999       2.79966831E-11
 -0.883199990       2.90603010E-11
 -0.768200040       3.00608843E-11
 -0.653200030       3.09788584E-11
 -0.538200021       3.17930855E-11
 -0.423200011       3.24811289E-11
 -0.308200002       3.30195628E-11
 -0.193200007       3.33843751E-11
  -7.82000124E-02   3.35513978E-11
   3.67999896E-02   3.34967852E-11
  0.151799992       3.31975628E-11
  0.266799986       3.26321574E-11
  0.381799996       3.17809633E-11
  0.496799976       3.06269003E-11
  0.611800015       2.91559415E-11
  0.726799965       2.73576092E-11
  0.841799974       2.52254589E-11
  0.956799984       2.27574383E-11
   1.07179999       1.99562363E-11
   1.18680000       1.68295274E-11
   1.30180001       1.33901562E-11
   1.41680002       9.65621073E-12
   1.53180003       5.65104821E-12
   1.64680004       1.40321500E-12
   1.76179993      -3.05370898E-12
   1.87679994      -7.68134167E-12
   1.99179995      -1.24368025E-11
   2.10680008      -1.72730979E-11
   2.22180009      -2.21395575E-11
   2.33680010      -2.69823521E-11
   2.45179987      -3.17450580E-11
   2.56679988      -3.63692826E-11
   2.68179989      -4.07953428E-11
   2.79679990      -4.49629778E-11
   2.91179991      -4.88121002E-11
   3.02679992      -5.22836045E-11
   3.14179993      -5.53201374E-11
   3.25679994      -5.78669161E-11
   3.37179995      -5.98725722E-11
   3.48679996      -6.12898898E-11
   3.60179996      -6.20766077E-11
   3.71679997      -6.21961163E-11
   3.83179998      -6.16181481E-11
   3.94679999      -6.03193120E-11
   4.06180000      -5.82836418E-11
   4.17679977      -5.55030119E-11
   4.29180002      -5.19774328E-11
   4.40679979      -4.77152554E-11
   4.52180004      -4.27332648E-11
   4.63679981      -3.70566633E-11
   4.75180006      -3.07189378E-11
   4.86679983      -2.37616055E-11
   4.98180008      -1.62338823E-11
   5.09679985      -8.19222034E-12
   5.21180010       3.00190293E-13
   5.32679987       9.17405128E-12
   5.44180012       1.83546199E-11
   5.55679989       2.77624399E-11
   5.67180014       3.73141310E-11
   5.78679991       4.69232049E-11
   5.90180016       5.65009324E-11
   6.01679993       6.59572466E-11
   6.13180017       7.52016435E-11
   6.24679995       8.41441430E-11
   6.36180019       9.26962604E-11
   6.47679996       1.00771981E-10
   6.59180021       1.08288781E-10
   6.70679998       1.15168611E-10
   6.82179976       1.21338925E-10
   6.93680000       1.26733624E-10
   7.05179977       1.31294101E-10
   7.16680002       1.34970035E-10
   7.28179979       1.37720377E-10
   7.39680004       1.39513956E-10
   7.51179981       1.40330220E-10
   7.62680006       1.40159648E-10
   7.74179983       1.39004155E-10
   7.85680008       1.36877204E-10
   7.97179985       1.33803774E-10
   8.08679962       1.29820085E-10
   8.20180035       1.24973185E-10
   8.31680012       1.19320234E-10
   8.43179989       1.12927695E-10
   8.54679966       1.05870271E-10
   8.66180038       9.82297438E-11
   8.77680016       9.00936617E-11
   8.89179993       8.15538956E-11
   9.00679970       7.27052515E-11
   9.12180042       6.36438957E-11
   9.23680019       5.44659075E-11
   9.35179996       4.52658327E-11
   9.46679974       3.61352441E-11
   9.58180046       2.71614588E-11
   9.69680023       1.84262831E-11
   9.81180000       1.00049274E-11
   9.92679977       1.96500151E-12
   10.0417995      -5.63434802E-12
   10.1568003      -1.27431867E-11
   10.2718000      -1.93213969E-11
   10.3867998      -2.53391075E-11
   10.5017996      -3.07770580E-11
   10.6168003      -3.56267724E-11
   10.7318001      -3.98905874E-11
   10.8467999      -4.35815654E-11
   10.9617996      -4.67231948E-11
   11.0768003      -4.93489971E-11
   11.1918001      -5.15019589E-11
   11.3067999      -5.32338028E-11
   11.4217997      -5.46040678E-11
   11.5368004      -5.56791419E-11
   11.6518002      -5.65310541E-11
   11.7667999      -5.72362470E-11
   11.8817997      -5.78741673E-11
   11.9968004      -5.85258370E-11
   12.1118002      -5.92723162E-11
   12.2268000      -6.01932185E-11
   12.3417997      -6.13651283E-11
   12.4568005      -6.28601546E-11
   12.5718002      -6.47444667E-11
   12.6868000      -6.70769343E-11
   12.8017998      -6.99079128E-11
   12.9167995      -7.32781127E-11
   13.0318003      -7.72177322E-11
   13.1468000      -8.17456311E-11
   13.2617998      -8.68688663E-11
   13.3767996      -9.25822821E-11
   13.4918003      -9.88684690E-11
   13.6068001      -1.05697812E-10
   13.7217999      -1.13028920E-10
   13.8367996      -1.20809140E-10
   13.9518003      -1.28975386E-10
   14.0668001      -1.37455089E-10
   14.1817999      -1.46167412E-10
   14.2967997      -1.55024479E-10
   14.4118004      -1.63932867E-10
   14.5268002      -1.72795112E-10
   14.6417999      -1.81511264E-10
   14.7567997      -1.89980406E-10
   14.8718004      -1.98102326E-10
   14.9868002      -2.05778908E-10
   15.1018000      -2.12915616E-10
   15.2167997      -2.19422799E-10
   15.3318005      -2.25216887E-10
   15.4468002      -2.30221439E-10
   15.5618000      -2.34368108E-10
   15.6767998      -2.37597331E-10
   15.7917995      -2.39859022E-10
   15.9068003      -2.41113129E-10
   16.0217991      -2.41329762E-10
   16.1368008      -2.40489711E-10
   16.2518005      -2.38584236E-10
   16.3668003      -2.35615250E-10
   16.4818001      -2.31595076E-10
   16.5967999      -2.26546185E-10
   16.7117996      -2.20500687E-10
   16.8267994      -2.13499926E-10
   16.9417992      -2.05593764E-10
   17.0568008      -1.96839808E-10
   17.1718006      -1.87302451E-10
   17.2868004      -1.77051970E-10
   17.4018002      -1.66163347E-10
   17.5167999      -1.54715157E-10
   17.6317997      -1.42788351E-10
   17.7467995      -1.30465014E-10
   17.8617992      -1.17827206E-10
   17.9768009      -1.04955787E-10
   18.0918007      -9.19292559E-11
   18.2068005      -7.88228718E-11
   18.3218002      -6.57077448E-11
   18.4368000      -5.26501169E-11
   18.5517998      -3.97108353E-11
   18.6667995      -2.69449636E-11
   18.7817993      -1.44014930E-11
   18.8967991      -2.12336897E-12
   19.0118008       9.85250163E-12
   19.1268005       2.14949638E-11
   19.2418003       3.27783599E-11
   19.3568001       4.36820788E-11
   19.4717999       5.41900136E-11
   19.5867996       6.42900455E-11
   19.7017994       7.39734454E-11
   19.8167992       8.32342736E-11
   19.9318008       9.20687415E-11
   20.0468006       1.00474649E-10
   20.1618004       1.08450846E-10
   20.2768002       1.15996615E-10
   20.3917999       1.23111327E-10
   20.5067997       1.29793995E-10
   20.6217995       1.36042885E-10
   20.7367992       1.41855333E-10
   20.8518009       1.47227591E-10
   20.9668007       1.52154664E-10
   21.0818005       1.56630417E-10
   21.1968002       1.60647537E-10
   21.3118000       1.64197822E-10
   21.4267998       1.67272335E-10
   21.5417995       1.69861750E-10
   21.6567993       1.71956643E-10
   21.7717991       1.73547926E-10
   21.8868008       1.74627257E-10
   22.0018005       1.75187448E-10
   22.1168003       1.75222906E-10
   22.2318001       1.74730036E-10
   22.3467999       1.73707659E-10
   22.4617996       1.72157344E-10
   22.5767994       1.70083808E-10
   22.6917992       1.67495129E-10
   22.8068008       1.64402991E-10
   22.9218006       1.60822897E-10
   23.0368004       1.56774232E-10
   23.1518002       1.52280313E-10
   23.2667999       1.47368354E-10