  -37.8452110         0.00000000    
  -37.7264595         0.00000000    
  -37.6077118         0.00000000    
  -37.4889603         0.00000000    
  -37.3702126         0.00000000    
  -37.2514610         0.00000000    
  -37.1327095         1.22776913E-29
  -37.0139618         1.48723921E-28
  -36.8952103         9.63697885E-28
  -36.7764626         4.43327503E-27
  -36.6577110         1.62393334E-26
  -36.5389595         5.03821332E-26
  -36.4202118         1.37546995E-25
  -36.3014603         3.39023180E-25
  -36.1827126         7.68139304E-25
  -36.0639610         1.62079795E-24
  -35.9452095         3.21525703E-24
  -35.8264618         6.03829517E-24
  -35.7077103         1.07900789E-23
  -35.5889626         1.84138626E-23
  -35.4702110         3.00905533E-23
  -35.3514595         4.71745637E-23
  -35.2327118         7.10493948E-23
  -35.1139603         1.02891424E-22
  -34.9952126         1.43349671E-22
  -34.8764610         1.92175718E-22
  -34.7577095         2.47866735E-22
  -34.6389618         3.07407760E-22
  -34.5202103         3.66207256E-22
  -34.4014626         4.18306559E-22
  -34.2827110         4.56901976E-22
  -34.1639595         4.75154475E-22
  -34.0452118         4.67181452E-22
  -33.9264603         4.29044356E-22
  -33.8077126         3.59488332E-22
  -33.6889610         2.60167488E-22
  -33.5702095         1.35125070E-22
  -33.4514618        -1.06059998E-23
  -33.3327103        -1.73261105E-22
  -33.2139626        -3.53244845E-22
  -33.0952110        -5.58251291E-22
  -32.9764595        -8.06002436E-22
  -32.8577118        -1.12589651E-21
  -32.7389603        -1.55886700E-21
  -32.6202126        -2.15489981E-21
  -32.5014610        -2.96795393E-21
  -32.3827095        -4.04846102E-21
  -32.2639618        -5.43407862E-21
  -32.1452103        -7.13988216E-21
  -32.0264626        -9.14957885E-21
  -31.9077110        -1.14095478E-20
  -31.7889614        -1.38274322E-20
  -31.6702118        -1.62766510E-20
  -31.5514603        -1.86074182E-20
  -31.4327106        -2.06640024E-20
  -31.3139610        -2.23067395E-20
  -31.1952114        -2.34363080E-20
  -31.0764618        -2.40168595E-20
  -30.9577103        -2.40940813E-20
  -30.8389606        -2.38043145E-20
  -30.7202110        -2.33714470E-20
  -30.6014614        -2.30895513E-20
  -30.4827118        -2.32911523E-20
  -30.3639603        -2.43031141E-20
  -30.2452106        -2.63946790E-20
  -30.1264610        -2.97244025E-20
  -30.0077114        -3.42945398E-20
  -29.8889618        -3.99222728E-20
  -29.7702103        -4.62367144E-20
  -29.6514606        -5.27085787E-20
  -29.5327110        -5.87155159E-20
  -29.4139614        -6.36407302E-20
  -29.2952118        -6.69955356E-20
  -29.1764603        -6.85497886E-20
  -29.0577106        -6.84473733E-20
  -28.9389610        -6.72804153E-20
  -28.8202114        -6.60954274E-20
  -28.7014618        -6.63099386E-20
  -28.5827103        -6.95288473E-20
  -28.4639606        -7.72661978E-20
  -28.3452110        -9.05983460E-20
  -28.2264614        -1.09795857E-19
  -28.1077118        -1.34000041E-19
  -27.9889603        -1.61020749E-19
  -27.8702106        -1.87331761E-19
  -27.7514610        -2.08324403E-19
  -27.6327114        -2.18848234E-19
  -27.5139618        -2.14022851E-19
  -27.3952103        -1.90249382E-19
  -27.2764606        -1.46294245E-19
  -27.1577110        -8.42691348E-20
  -27.0389614        -1.03021953E-20
  -26.9202118         6.53073505E-20
  -26.8014603         1.28625086E-19
  -26.6827106         1.63412852E-19
  -26.5639610         1.53256974E-19
  -26.4452114         8.43651911E-20
  -26.3264618        -5.12346236E-20
  -26.2077103        -2.52494245E-19
  -26.0889606        -5.06647350E-19
  -25.9702110        -7.87574481E-19
  -25.8514614        -1.05577456E-18
  -25.7327118        -1.26039506E-18
  -25.6139603        -1.34358626E-18
  -25.4952106        -1.24718198E-18
  -25.3764610        -9.21369394E-19
  -25.2577114        -3.34641371E-19
  -25.1389618         5.16047172E-19
  -25.0202103         1.59631879E-18
  -24.9014606         2.82820703E-18
  -24.7827110         4.08843034E-18
  -24.6639614         5.21256714E-18
  -24.5452118         6.00616174E-18
  -24.4264603         6.26312498E-18
  -24.3077106         5.79086275E-18
  -24.1889610         4.44051439E-18
  -24.0702114         2.13956242E-18
  -23.9514618        -1.07695131E-18
  -23.8327103        -5.04116373E-18
  -23.7139606        -9.43795212E-18
  -23.5952110        -1.38060249E-17
  -23.4764614        -1.75583081E-17
  -23.3577118        -2.00237960E-17
  -23.2389603        -2.05107572E-17
  -23.1202106        -1.83883640E-17
  -23.0014610        -1.31807442E-17
  -22.8827114        -4.66447892E-18
  -22.7639618         7.04198625E-18
  -22.6452103         2.14100233E-17
  -22.5264606         3.74671028E-17
  -22.4077110         5.38094951E-17
  -22.2889614         6.86703573E-17
  -22.1702118         8.00469561E-17
  -22.0514603         8.58845285E-17
  -21.9327106         8.43065591E-17
  -21.8139610         7.38736675E-17
  -21.6952114         5.38460267E-17
  -21.5764618         2.44187356E-17
  -21.4577103        -1.31033755E-17
  -21.3389606        -5.62244522E-17
  -21.2202110        -1.01298133E-16
  -21.1014614        -1.43709423E-16
  -20.9827118        -1.78204377E-16
  -20.8639603        -1.99358336E-16
  -20.7452106        -2.02155265E-16
  -20.6264610        -1.82633393E-16
  -20.5077114        -1.38535494E-16
  -20.3889618        -6.98918582E-17
  -20.2702103         2.05422596E-17
  -20.1514606         1.27070189E-16
  -20.0327110         2.41121507E-16
  -19.9139614         3.51646946E-16
  -19.7952118         4.45854003E-16
  -19.6764603         5.10261065E-16
  -19.5577106         5.32010859E-16
  -19.4389610         5.00342838E-16
  -19.3202114         4.08094333E-16
  -19.2014618         2.53072639E-16
  -19.0827103         3.91320387E-17
  -18.9639606        -2.23205225E-16
  -18.8452110        -5.16723291E-16
  -18.7264614        -8.18176229E-16
  -18.6077118        -1.09967842E-15
  -18.4889603        -1.33078882E-15
  -18.3702106        -1.48117676E-15
  -18.2514610        -1.52368289E-15
  -18.1327114        -1.43752005E-15
  -18.0139618        -1.21130878E-15
  -17.8952103        -8.45615438E-16
  -17.7764606        -3.54669318E-16
  -17.6577110         2.33031681E-16
  -17.5389614         8.75438991E-16
  -17.4202118         1.51910690E-15
  -17.3014603         2.10276501E-15
  -17.1827106         2.56215142E-15
  -17.0639610         2.83580638E-15
  -16.9452114         2.87139468E-15
  -16.8264618         2.63202042E-15
  -16.7077103         2.10193746E-15
  -16.5889606         1.29104116E-15
  -16.4702110         2.37575033E-16
  -16.3514614        -9.91421677E-16
  -16.2327118        -2.30223174E-15
  -16.1139603        -3.57924953E-15
  -15.9952106        -4.69233044E-15
  -15.8764610        -5.50632699E-15
  -15.7577114        -5.89222037E-15
  -15.6389608        -5.73904209E-15
  -15.5202112        -4.96564510E-15
  -15.4014606        -3.53130534E-15
  -15.2827110        -1.44413961E-15
  -15.1639614         1.23357273E-15
  -15.0452108         4.38389102E-15
  -14.9264612         7.83599836E-15
  -14.8077106         1.13734138E-14
  -14.6889610         1.47454308E-14
  -14.5702114         1.76821838E-14
  -14.4514608         1.99124690E-14
  -14.3327112         2.11830861E-14
  -14.2139606         2.12783773E-14
  -14.0952110         2.00384600E-14
  -13.9764614         1.73747193E-14
  -13.8577108         1.32812598E-14
  -13.7389612         7.84128977E-15
  -13.6202106         1.22772153E-15
  -13.5014610        -6.30224488E-15
  -13.3827114        -1.44184371E-14
  -13.2639608        -2.27342694E-14
  -13.1452112        -3.08274965E-14
  -13.0264606        -3.82638494E-14
  -12.9077110        -4.46219294E-14
  -12.7889614        -4.95176681E-14
  -12.6702108        -5.26266788E-14
  -12.5514612        -5.37029493E-14
  -12.4327106        -5.25926653E-14
  -12.3139610        -4.92422028E-14
  -12.1952114        -4.36998765E-14
  -12.0764608        -3.61113930E-14
  -11.9577112        -2.67094205E-14
  -11.8389606        -1.57981487E-14
  -11.7202110        -3.73393638E-15
  -11.6014614         9.09656380E-15
  -11.4827108         2.22993248E-14
  -11.3639612         3.54953731E-14
  -11.2452106         4.83414273E-14
  -11.1264610         6.05474601E-14
  -11.0077114         7.18903832E-14
  -10.8889608         8.22231552E-14
  -10.7702112         9.14790569E-14
  -10.6514606         9.96711801E-14
  -10.5327110         1.06887257E-13
  -10.4139614         1.13280574E-13
  -10.2952108         1.19057298E-13
  -10.1764612         1.24461151E-13
  -10.0577106         1.29756096E-13
  -9.93896103         1.35207749E-13
  -9.82021141         1.41064298E-13
  -9.70146084         1.47537568E-13
  -9.58271122         1.54784781E-13
  -9.46396065         1.62891781E-13
  -9.34521103         1.71858215E-13
  -9.22646141         1.81585473E-13
  -9.10771084         1.91867965E-13
  -8.98896122         2.02388562E-13
  -8.87021065         2.12718786E-13
  -8.75146103         2.22324654E-13
  -8.63271141         2.30578631E-13
  -8.51396084         2.36777882E-13
  -8.39521122         2.40169294E-13
  -8.27646065         2.39980345E-13
  -8.15771103         2.35455617E-13
  -8.03896141         2.25897412E-13
  -7.92021084         2.10708539E-13
  -7.80146122         1.89435476E-13
  -7.68271112         1.61808975E-13
  -7.56396103         1.27779542E-13
  -7.44521093         8.75450022E-14
  -7.32646084         4.15673660E-14
  -7.20771122        -9.42290442E-15
  -7.08896112        -6.44369540E-14
  -6.97021103        -1.22252482E-13
  -6.85146093        -1.81453363E-13
  -6.73271084        -2.40482764E-13
  -6.61396122        -2.97707036E-13
  -6.49521112        -3.51487150E-13
  -6.37646103        -4.00253940E-13
  -6.25771093        -4.42581816E-13
  -6.13896084        -4.77256743E-13
  -6.02021122        -5.03333161E-13
  -5.90146112        -5.20176296E-13
  -5.78271103        -5.27485716E-13
  -5.66396093        -5.25299205E-13
  -5.54521084        -5.13974713E-13
  -5.42646122        -4.94152733E-13
  -5.30771112        -4.66700029E-13
  -5.18896103        -4.32640062E-13
  -5.07021093        -3.93073378E-13
  -4.95146084        -3.49095156E-13
  -4.83271122        -3.01715440E-13
  -4.71396112        -2.51788390E-13
  -4.59521103        -1.99956141E-13
  -4.47646093        -1.46611916E-13
  -4.35771084        -9.18852668E-14
  -4.23896122        -3.56510916E-14
  -4.12021112         2.24381586E-14
  -4.00146103         8.28995821E-14
  -3.88271117         1.46350447E-13
  -3.76396108         2.13427786E-13
  -3.64521098         2.84704118E-13
  -3.52646112         3.60606402E-13
  -3.40771103         4.41345447E-13
  -3.28896117         5.26862299E-13
  -3.17021108         6.16797141E-13
  -3.05146098         7.10484460E-13
  -2.93271112         8.06975743E-13
  -2.81396103         9.05089968E-13
  -2.69521117         1.00348701E-12
  -2.57646108         1.10076184E-12
  -2.45771098         1.19554974E-12
  -2.33896112         1.28663660E-12
  -2.22021103         1.37306388E-12
  -2.10146117         1.45422118E-12
  -1.98271108         1.52991617E-12
  -1.86396110         1.60041772E-12
  -1.74521101         1.66646590E-12
  -1.62646103         1.72924609E-12
  -1.50771105         1.79033025E-12
  -1.38896108         1.85158551E-12
  -1.27021110         1.91505687E-12
  -1.15146101         1.98283273E-12
  -1.03271103         2.05690066E-12
 -0.913961053         2.13900642E-12
 -0.795211077         2.23052284E-12
 -0.676461041         2.33234330E-12
 -0.557711065         2.44480434E-12
 -0.438961059         2.56764423E-12
 -0.320211053         2.70000342E-12
 -0.201461062         2.84046528E-12
  -8.27110559E-02     2.98713550E-12
   3.60389426E-02     3.13775503E-12
  0.154788941         3.28983975E-12
  0.273538947         3.44083529E-12
  0.392288953         3.58827768E-12
  0.511038959         3.72994908E-12
  0.629788935         3.86401501E-12
  0.748538971         3.98913584E-12
  0.867288947         4.10454483E-12
  0.986038923         4.21008757E-12
   1.10478890         4.30621728E-12
   1.22353899         4.39395265E-12
   1.34228897         4.47479900E-12
   1.46103895         4.55063895E-12
   1.57978892         4.62360141E-12
   1.69853890         4.69592117E-12
   1.81728899         4.76979567E-12
   1.93603897         4.84725107E-12
   2.05478883         4.93003208E-12
   2.17353892         5.01951041E-12
   2.29228902         5.11663281E-12
   2.41103888         5.22189800E-12
   2.52978897         5.33536973E-12
   2.64853883         5.45672101E-12
   2.76728892         5.58530349E-12
   2.88603902         5.72023418E-12
   3.00478888         5.86049438E-12
   3.12353897         6.00502504E-12
   3.24228883         6.15281654E-12
   3.36103892         6.30298634E-12
   3.47978902         6.45482799E-12
   3.59853888         6.60783971E-12
   3.71728897         6.76172052E-12
   3.83603883         6.91634770E-12
   3.95478892         7.07172255E-12
   4.07353878         7.22790577E-12
   4.19228888         7.38493641E-12
   4.31103897         7.54275288E-12
   4.42978907         7.70112099E-12
   4.54853916         7.85956803E-12
   4.66728878         8.01734373E-12
   4.78603888         8.17340293E-12
   4.90478897         8.32641595E-12
   5.02353907         8.47480766E-12
   5.14228916         8.61681646E-12
   5.26103878         8.75058533E-12
   5.37978888         8.87425810E-12
   5.49853897         8.98608792E-12
   5.61728907         9.08454648E-12
   5.73603916         9.16841863E-12
   5.85478878         9.23688730E-12
   5.97353888         9.28959167E-12
   6.09228897         9.32665317E-12
   6.21103907         9.34867982E-12
   6.32978916         9.35673240E-12
   6.44853878         9.35227069E-12
   6.56728888         9.33706584E-12
   6.68603897         9.31310064E-12
   6.80478907         9.28246542E-12
   6.92353916         9.24724273E-12
   7.04228878         9.20940581E-12
   7.16103888         9.17072928E-12
   7.27978897         9.13272843E-12
   7.39853907         9.09661669E-12
   7.51728916         9.06330132E-12
   7.63603878         9.03340944E-12
   7.75478888         9.00733481E-12
   7.87353897         8.98531857E-12
   7.99228907         8.96754112E-12
   8.11103916         8.95422105E-12
   8.22978878         8.94571743E-12
   8.34853935         8.94261661E-12
   8.46728897         8.94580243E-12
   8.58603859         8.95649700E-12
   8.70478916         8.97627458E-12
   8.82353878         9.00702776E-12
   8.94228935         9.05090326E-12
   9.06103897         9.11020131E-12
   9.17978859         9.18724038E-12
   9.29853916         9.28420275E-12
   9.41728878         9.40296625E-12
   9.53603935         9.54493255E-12
   9.65478897         9.71086666E-12
   9.77353859         9.90076163E-12
   9.89228916         1.01137293E-11
   10.0110388         1.03479447E-11
   10.1297894         1.06006315E-11
   10.2485390         1.08681033E-11
   10.3672886         1.11458577E-11
   10.4860392         1.14287173E-11
   10.6047888         1.17110219E-11
   10.7235394         1.19868421E-11
   10.8422890         1.22502295E-11
   10.9610386         1.24954691E-11
   11.0797892         1.27173307E-11
   11.1985388         1.29112979E-11
   11.3172894         1.30737704E-11
   11.4360390         1.32022240E-11
   11.5547886         1.32953128E-11
   11.6735392         1.33529325E-11
   11.7922888         1.33762021E-11
   11.9110394         1.33674165E-11
   12.0297890         1.33299283E-11
   12.1485386         1.32679935E-11
   12.2672892         1.31865812E-11
   12.3860388         1.30911584E-11
   12.5047894         1.29874661E-11
   12.6235390         1.28812820E-11
   12.7422886         1.27782116E-11
   12.8610392         1.26834827E-11
   12.9797888         1.26017790E-11
   13.0985394         1.25371102E-11
   13.2172890         1.24927169E-11
   13.3360386         1.24710138E-11
   13.4547892         1.24735829E-11
   13.5735388         1.25011997E-11
   13.6922894         1.25538876E-11
   13.8110390         1.26310126E-11
   13.9297886         1.27313932E-11
   14.0485392         1.28534206E-11
   14.1672888         1.29951969E-11
   14.2860394         1.31546683E-11
   14.4047890         1.33297505E-11
   14.5235386         1.35184407E-11
   14.6422892         1.37189054E-11
   14.7610388         1.39295424E-11
   14.8797894         1.41490153E-11
   14.9985390         1.43762389E-11
   15.1172886         1.46103494E-11
   15.2360392         1.48506121E-11
   15.3547888         1.50963148E-11
   15.4735394         1.53466233E-11
   15.5922890         1.56004116E-11
   15.7110386         1.58560838E-11
   15.8297892         1.61113779E-11
   15.9485388         1.63632007E-11
   16.0672894         1.66074533E-11
   16.1860390         1.68389174E-11
   16.3047886         1.70511764E-11
   16.4235382         1.72366062E-11
   16.5422897         1.73864239E-11
   16.6610394         1.74908282E-11
   16.7797890         1.75392045E-11
   16.8985386         1.75204174E-11
   17.0172882         1.74231549E-11
   17.1360397         1.72363339E-11
   17.2547894         1.69495199E-11
   17.3735390         1.65533819E-11
   17.4922886         1.60400963E-11
   17.6110382         1.54037356E-11
   17.7297897         1.46405735E-11
   17.8485394         1.37492830E-11
   17.9672890         1.27310454E-11
   18.0860386         1.15894993E-11
   18.2047882         1.03305585E-11
   18.3235397         8.96211143E-12
   18.4422894         7.49358648E-12
   18.5610390         5.93540451E-12
   18.6797886         4.29837286E-12
   18.7985382         2.59304167E-12
   18.9172897         8.29060941E-13
   19.0360394        -9.85422573E-13
   19.1547890        -2.84427668E-12
   19.2735386        -4.74376007E-12
   19.3922882        -6.68277282E-12
   19.5110397        -8.66291240E-12
   19.6297894        -1.06883460E-11
   19.7485390        -1.27655126E-11
   19.8672886        -1.49026312E-11
   19.9860382        -1.71090954E-11
   20.1047897        -1.93947740E-11
   20.2235394        -2.17691993E-11
   20.3422890        -2.42408350E-11
   20.4610386        -2.68163391E-11
   20.5797882        -2.94999337E-11
   20.6985397        -3.22929739E-11
   20.8172894        -3.51936293E-11
   20.9360390        -3.81968762E-11
   21.0547886        -4.12945997E-11
   21.1735382        -4.44760132E-11
   21.2922897        -4.77282033E-11
   21.4110394        -5.10369039E-11
   21.5297890        -5.43873037E-11
   21.6485386        -5.77650150E-11
   21.7672882        -6.11569337E-11
   21.8860397        -6.45521137E-11
   22.0047894        -6.79424919E-11
   22.1235390        -7.13234263E-11
   22.2422886        -7.46940426E-11
   22.3610382        -7.80573384E-11
   22.4797897        -8.14200582E-11
   22.5985394        -8.47923190E-11
   22.7172890        -8.81869716E-11
   22.8360386        -9.16189208E-11
   22.9547882        -9.51042578E-11
   23.0735397        -9.86593654E-11
   23.1922894        -1.02300030E-10
   23.3110390        -1.06040607E-10
   23.4297886        -1.09893414E-10
   23.5485382        -1.13868179E-10
   23.6672897        -1.17971841E-10
   23.7860394        -1.22208493E-10
   23.9047890        -1.26579511E-10
   24.0235386        -1.31084046E-10
   24.1422882        -1.35719588E-10
   24.2610397        -1.40482612E-10
   24.3797894        -1.45369425E-10
   24.4985390        -1.50376836E-10
   24.6172886        -1.55502916E-10
   24.7360382        -1.60747540E-10
   24.8547897        -1.66112776E-10
   24.9735394        -1.71603051E-10
   25.0922890        -1.77225137E-10
   25.2110386        -1.82987764E-10
   25.3297882        -1.88901200E-10
   25.4485397        -1.94976535E-10
   25.5672894        -2.01224870E-10
   25.6860390        -2.07656350E-10
   25.8047886        -2.14279386E-10
   25.9235382        -2.21099680E-10
   26.0422897        -2.28119662E-10
   26.1610394        -2.35337860E-10
   26.2797890        -2.42748655E-10
   26.3985386        -2.50342275E-10
   26.5172882        -2.58104899E-10
   26.6360397        -2.66019290E-10
   26.7547894        -2.74065354E-10
   26.8735390        -2.82221108E-10
   26.9922886        -2.90463542E-10
   27.1110382        -2.98769676E-10
   27.2297897        -3.07117498E-10
   27.3485394        -3.15486998E-10
   27.4672890        -3.23860744E-10
   27.5860386        -3.32224526E-10
   27.7047882        -3.40567713E-10
   27.8235397        -3.48883200E-10
   27.9422894        -3.57167240E-10
   28.0610390        -3.65419084E-10
   28.1797886        -3.73640369E-10
   28.2985382        -3.81834314E-10
   28.4172897        -3.90005195E-10
   28.5360394        -3.98157313E-10
   28.6547890        -4.06294387E-10
   28.7735386        -4.14418944E-10
   28.8922882        -4.22531871E-10
   29.0110397        -4.30632141E-10
   29.1297894        -4.38716841E-10
   29.2485390        -4.46781195E-10
   29.3672886        -4.54819238E-10
   29.4860382        -4.62824029E-10
   29.6047897        -4.70788464E-10
   29.7235394        -4.78706019E-10
   29.8422890        -4.86571172E-10
   29.9610386        -4.94380370E-10
   30.0797882        -5.02132114E-10
   30.1985397        -5.09827403E-10
   30.3172894        -5.17469900E-10
   30.4360390        -5.25065658E-10
   30.5547886        -5.32622724E-10
   30.6735382        -5.40150702E-10
   30.7922897        -5.47659862E-10
   30.9110394        -5.55160473E-10
   31.0297890        -5.62661584E-10
   31.1485386        -5.70170355E-10
   31.2672882        -5.77691117E-10
   31.3860397        -5.85224424E-10
   31.5047894        -5.92766947E-10
   31.6235390        -6.00310524E-10
   31.7422886        -6.07842554E-10
   31.8610382        -6.15346107E-10
   31.9797897        -6.22800089E-10
   32.0985374        -6.30180130E-10
   32.2172890        -6.37459030E-10
   32.3360405        -6.44608089E-10
   32.4547882        -6.51597831E-10
   32.5735397        -6.58399224E-10
   32.6922874        -6.64984456E-10
   32.8110390        -6.71328049E-10
   32.9297905        -6.77407519E-10
   33.0485382        -6.83203882E-10
   33.1672897        -6.88702373E-10
   33.2860374        -6.93892055E-10
   33.4047890        -6.98766489E-10
   33.5235405        -7.03322789E-10
   33.6422882        -7.07562009E-10
   33.7610397        -7.11488035E-10
   33.8797874        -7.15107307E-10
   33.9985390        -7.18427817E-10
   34.1172905        -7.21459004E-10
   34.2360382        -7.24210469E-10
   34.3547897        -7.26691762E-10
   34.4735374        -7.28911376E-10
   34.5922890        -7.30876637E-10
   34.7110405        -7.32592986E-10
   34.8297882        -7.34063421E-10
   34.9485397        -7.35288497E-10
   35.0672874        -7.36265882E-10
   35.1860390        -7.36990469E-10
   35.3047905        -7.37454153E-10
   35.4235382        -7.37645889E-10
   35.5422897        -7.37551853E-10
   35.6610374        -7.37155725E-10
   35.7797890        -7.36438632E-10
   35.8985405        -7.35379979E-10
   36.0172882        -7.33957506E-10
   36.1360397        -7.32147842E-10
   36.2547874        -7.29927008E-10
   36.3735390        -7.27271576E-10
   36.4922905        -7.24158511E-10
   36.6110382        -7.20566273E-10
   36.7297897        -7.16475046E-10
   36.8485374        -7.11867287E-10
   36.9672890        -7.06727843E-10
   37.0860405        -7.01044056E-10
   37.2047882        -6.94805768E-10
   37.3235397        -6.88005042E-10
   37.4422874        -6.80635492E-10
   37.5610390        -6.72691902E-10
   37.6797905        -6.64169109E-10
   37.7985382        -6.55061394E-10
   37.9172897        -6.45361264E-10
   38.0360374        -6.35058839E-10
   38.1547890        -6.24140462E-10
   38.2735405        -6.12588591E-10
   38.3922882        -6.00380967E-10
   38.5110397        -5.87490501E-10
   38.6297874        -5.73885384E-10
   38.7485390        -5.59529700E-10
   38.8672905        -5.44384537E-10
   38.9860382        -5.28408539E-10
   39.1047897        -5.11559906E-10
   39.2235374        -4.93797503E-10
   39.3422890        -4.75082751E-10
   39.4610405        -4.55381038E-10
   39.5797882        -4.34663416E-10
   39.6985397        -4.12907930E-10
   39.8172874        -3.90100452E-10
   39.9360390        -3.66235736E-10
   40.0547905        -3.41317391E-10
   40.1735382        -3.15357490E-10
   40.2922897        -2.88376129E-10
   40.4110374        -2.60400118E-10
   40.5297890        -2.31461683E-10
   40.6485405        -2.01596601E-10
   40.7672882        -1.70842326E-10
   40.8860397        -1.39236081E-10
   41.0047874        -1.06812725E-10
   41.1235390        -7.36033248E-11
   41.2422905        -3.96334389E-11
   41.3610382        -4.92201375E-12
   41.4797897         3.05190179E-11
   41.5985374         6.66856431E-11
   41.7172890         1.03581303E-10
   41.8360405         1.41216747E-10
   41.9547882         1.79609147E-10
   42.0735397         2.18781077E-10
   42.1922874         2.58759514E-10
   42.3110390         2.99574476E-10
   42.4297905         3.41258105E-10
   42.5485382         3.83843124E-10
   42.6672897         4.27362479E-10
   42.7860374         4.71848560E-10
   42.9047890         5.17332455E-10
   43.0235405         5.63843972E-10
   43.1422882         6.11412365E-10
   43.2610397         6.60065280E-10
   43.3797874         7.09830028E-10
   43.4985390         7.60733088E-10
   43.6172905         8.12800993E-10
   43.7360382         8.66059502E-10
   43.8547897         9.20534149E-10
   43.9735374         9.76249304E-10
   44.0922890         1.03322817E-09
   44.2110405         1.09149101E-09
   44.3297882         1.15105536E-09
   44.4485397         1.21193344E-09
   44.5672874         1.27413191E-09
   44.6860390         1.33764999E-09
   44.8047905         1.40247824E-09
   44.9235382         1.46859869E-09
   45.0422897         1.53598290E-09
   45.1610374         1.60459301E-09
   45.2797890         1.67438152E-09
   45.3985405         1.74529236E-09
   45.5172882         1.81726101E-09
   45.6360397         1.89021754E-09
   45.7547874         1.96408712E-09
   45.8735390         2.03879269E-09
   45.9922905         2.11425699E-09
   46.1110382         2.19040408E-09
   46.2297897         2.26716201E-09
   46.3485374         2.34446373E-09
   46.4672890         2.42224907E-09
   46.5860405         2.50046450E-09
   46.7047882         2.57906496E-09
   46.8235397         2.65801181E-09
   46.9422874         2.73727463E-09
   47.0610390         2.81682810E-09
   47.1797905         2.89665203E-09
   47.2985382         2.97672997E-09
   47.4172897         3.05704839E-09
   47.5360374         3.13759418E-09
   47.6547890         3.21835514E-09
   47.7735405         3.29931837E-09
   47.8922882         3.38046879E-09
   48.0110397         3.46179108E-09
   48.1297874         3.54326746E-09
   48.2485390         3.62487973E-09
   48.3672905         3.70661013E-09
   48.4860382         3.78844289E-09
   48.6047897         3.87036314E-09
   48.7235374         3.95236155E-09
   48.8422890         4.03443279E-09
   48.9610405         4.11657641E-09
   49.0797882         4.19879820E-09
   49.1985397         4.28110836E-09
   49.3172874         4.36352243E-09
   49.4360390         4.44606085E-09
   49.5547905         4.52874804E-09
   49.6735382         4.61160798E-09
   49.7922897         4.69466599E-09
   49.9110374         4.77794249E-09
   50.0297890         4.86145391E-09
   50.1485405         4.94520913E-09
   50.2672882         5.02920683E-09
   50.3860397         5.11343412E-09
   50.5047874         5.19786569E-09
   50.6235390         5.28246025E-09
   50.7422905         5.36716316E-09
   50.8610382         5.45190471E-09
   50.9797897         5.53660007E-09
   51.0985374         5.62115243E-09
   51.2172890         5.70545167E-09
   51.3360405         5.78937742E-09
   51.4547882         5.87280224E-09
   51.5735397         5.95559069E-09
   51.6922874         6.03760508E-09
   51.8110390         6.11870643E-09
   51.9297905         6.19875706E-09
   52.0485382         6.27762375E-09
   52.1672897         6.35517905E-09
   52.2860374         6.43130393E-09
   52.4047890         6.50588827E-09
   52.5235405         6.57883437E-09
   52.6422882         6.65005340E-09
   52.7610397         6.71947253E-09
   52.8797874         6.78702738E-09
   52.9985390         6.85266821E-09
   53.1172905         6.91635726E-09
   53.2360382         6.97806790E-09
   53.3547897         7.03778458E-09
   53.4735374         7.09550108E-09
   53.5922890         7.15121828E-09
   53.7110405         7.20494508E-09
   53.8297882         7.25669302E-09
   53.9485397         7.30647676E-09
   54.0672874         7.35431049E-09
   54.1860390         7.40020889E-09
   54.3047905         7.44418305E-09
   54.4235382         7.48624096E-09
   54.5422897         7.52638663E-09
   54.6610374         7.56461560E-09
   54.7797890         7.60091989E-09
   54.8985405         7.63528174E-09
   55.0172882         7.66767805E-09
   55.1360397         7.69807684E-09
   55.2547874         7.72644171E-09
   55.3735390         7.75272735E-09
   55.4922905         7.77688403E-09
   55.6110382         7.79886022E-09
   55.7297897         7.81859821E-09
   55.8485374         7.83604026E-09
   55.9672890         7.85112420E-09
   56.0860405         7.86378873E-09
   56.2047882         7.87396726E-09
   56.3235397         7.88159493E-09
   56.4422874         7.88660248E-09
   56.5610390         7.88891885E-09
   56.6797905         7.88847121E-09
   56.7985382         7.88518228E-09
   56.9172897         7.87897037E-09
   57.0360374         7.86975107E-09
   57.1547890         7.85743381E-09
   57.2735405         7.84192355E-09
   57.3922882         7.82312348E-09
   57.5110397         7.80092968E-09
   57.6297874         7.77524001E-09
   57.7485390         7.74594966E-09
   57.8672905         7.71295827E-09
   57.9860382         7.67616815E-09
   58.1047897         7.63548602E-09
   58.2235374         7.59082930E-09