  -37.8452110         0.00000000    
  -37.7264595         0.00000000    
  -37.6077118         0.00000000    
  -37.4889603         0.00000000    
  -37.3702126         0.00000000    
  -37.2514610         0.00000000    
  -37.1327095         2.95955879E-29
  -37.0139618         3.57949223E-28
  -36.8952103         2.30558563E-27
  -36.7764626         1.04846232E-26
  -36.6577110         3.76952068E-26
  -36.5389595         1.13808162E-25
  -36.4202118         2.99412871E-25
  -36.3014603         7.03517051E-25
  -36.1827126         1.50213779E-24
  -36.0639610         2.95164890E-24
  -35.9452095         5.38816453E-24
  -35.8264618         9.20331280E-24
  -35.7077103         1.47887880E-23
  -35.5889626         2.24478906E-23
  -35.4702110         3.22817502E-23
  -35.3514595         4.40697145E-23
  -35.2327118         5.71745811E-23
  -35.1139603         7.05103504E-23
  -34.9952126         8.26091353E-23
  -34.8764610         9.18119362E-23
  -34.7577095         9.65841281E-23
  -34.6389618         9.59236875E-23
  -34.5202103         8.97931591E-23
  -34.4014626         7.94749531E-23
  -34.2827110         6.77318498E-23
  -34.1639595         5.86628650E-23
  -34.0452118         5.71825896E-23
  -33.9264603         6.81215092E-23
  -33.8077126         9.50405924E-23
  -33.6889610         1.38957243E-22
  -33.5702095         1.97273955E-22
  -33.4514618         2.63257399E-22
  -33.3327103         3.26411180E-22
  -33.2139626         3.73999839E-22
  -33.0952110         3.93813576E-22
  -32.9764595         3.78016617E-22
  -32.8577118         3.27636577E-22
  -32.7389603         2.56966909E-22
  -32.6202126         1.96939188E-22
  -32.5014610         1.96430026E-22
  -32.3827095         3.20563486E-22
  -32.2639618         6.45371070E-22
  -32.1452103         1.24868942E-21
  -32.0264626         2.19784494E-21
  -31.9077110         3.53542770E-21
  -31.7889614         5.26515000E-21
  -31.6702118         7.34029251E-21
  -31.5514603         9.65741928E-21
  -31.4327106         1.20577641E-20
  -31.3139610         1.43379723E-20
  -31.1952114         1.62706233E-20
  -31.0764618         1.76334566E-20
  -30.9577103         1.82444329E-20
  -30.8389606         1.79982449E-20
  -30.7202110         1.68986230E-20
  -30.6014614         1.50803120E-20
  -30.4827118         1.28150351E-20
  -30.3639603         1.04971797E-20
  -30.2452106         8.60744354E-21
  -30.1264610         7.65593946E-21
  -30.0077114         8.10996953E-21
  -29.8889618         1.03153187E-20
  -29.7702103         1.44227874E-20
  -29.6514606         2.03333241E-20
  -29.5327110         2.76747620E-20
  -29.4139614         3.58206331E-20
  -29.2952118         4.39565910E-20
  -29.1764603         5.11930901E-20
  -29.0577106         5.67144884E-20
  -28.9389610         5.99462443E-20
  -28.8202114         6.07142944E-20
  -28.7014618         5.93658931E-20
  -28.5827103         5.68207036E-20
  -28.4639606         5.45256069E-20
  -28.3452110         5.42977962E-20
  -28.2264614         5.80570801E-20
  -28.1077118         6.74691676E-20
  -27.9889603         8.35438137E-20
  -27.8702106         1.06252254E-19
  -27.7514610         1.34241810E-19
  -27.6327114         1.64729400E-19
  -27.5139618         1.93644080E-19
  -27.3952103         2.16062432E-19
  -27.2764606         2.26938087E-19
  -27.1577110         2.22071964E-19
  -27.0389614         1.99210618E-19
  -26.9202118         1.59104481E-19
  -26.8014603         1.06317460E-19
  -26.6827106         4.95655476E-20
  -26.5639610         1.38418376E-21
  -26.4452114        -2.30118286E-20
  -26.3264618        -7.70830630E-21
  -26.2077103         6.11950091E-20
  -26.0889606         1.92399832E-19
  -25.9702110         3.86168442E-19
  -25.8514614         6.31564444E-19
  -25.7327118         9.04776048E-19
  -25.6139603         1.16910678E-18
  -25.4952106         1.37709938E-18
  -25.3764610         1.47503746E-18
  -25.2577114         1.40975606E-18
  -25.1389618         1.13730882E-18
  -25.0202103         6.32641381E-19
  -24.9014606        -1.00950796E-19
  -24.7827110        -1.02406831E-18
  -24.6639614        -2.05675709E-18
  -24.5452118        -3.07885661E-18
  -24.4264603        -3.93630976E-18
  -24.3077106        -4.45399247E-18
  -24.1889610        -4.45485522E-18
  -24.0702114        -3.78419993E-18
  -23.9514618        -2.33696080E-18
  -23.8327103        -8.49528125E-20
  -23.7139606         2.89961319E-18
  -23.5952110         6.42835224E-18
  -23.4764614         1.01925187E-17
  -23.3577118         1.37735391E-17
  -23.2389603         1.66701527E-17
  -23.1202106         1.83422867E-17
  -23.0014610         1.82696751E-17
  -22.8827114         1.60209284E-17
  -22.7639618         1.13266453E-17
  -22.6452103         4.14825576E-18
  -22.5264606        -5.26670115E-18
  -22.4077110        -1.63524392E-17
  -22.2889614        -2.82244117E-17
  -22.1702118        -3.97168389E-17
  -22.0514603        -4.94611622E-17
  -21.9327106        -5.60041244E-17
  -21.8139610        -5.79590632E-17
  -21.6952114        -5.41789934E-17
  -21.5764618        -4.39353144E-17
  -21.4577103        -2.70825054E-17
  -21.3389606        -4.18707742E-18
  -21.2202110         2.34004498E-17
  -21.1014614         5.35491582E-17
  -20.9827118         8.34398657E-17
  -20.8639603         1.09751085E-16
  -20.7452106         1.28934164E-16
  -20.6264610         1.37562108E-16
  -20.5077114         1.32725563E-16
  -20.3889618         1.12440024E-16
  -20.2702103         7.60204923E-17
  -20.1514606         2.43772658E-17
  -20.0327110        -3.98133444E-17
  -19.9139614        -1.12101939E-16
  -19.7952118        -1.86450176E-16
  -19.6764603        -2.55616597E-16
  -19.5577106        -3.11733906E-16
  -19.4389610        -3.47046101E-16
  -19.3202114        -3.54750263E-16
  -19.2014618        -3.29869384E-16
  -19.0827103        -2.70068567E-16
  -18.9639606        -1.76318484E-16
  -18.8452110        -5.33150893E-17
  -18.7264614         9.04257501E-17
  -18.6077118         2.42853796E-16
  -18.4889603         3.89076326E-16
  -18.3702106         5.12441169E-16
  -18.2514610         5.95955176E-16
  -18.1327114         6.23939027E-16
  -18.0139618         5.83782519E-16
  -17.8952103         4.67638737E-16
  -17.7764606         2.73879395E-16
  -17.6577110         8.13742815E-18
  -17.5389614        -3.16215875E-16
  -17.4202118        -6.78274497E-16
  -17.3014603        -1.05054066E-15
  -17.1827106        -1.40060127E-15
  -17.0639610        -1.69345741E-15
  -16.9452114        -1.89435446E-15
  -16.8264618        -1.97189842E-15
  -16.7077103        -1.90118917E-15
  -16.5889606        -1.66668323E-15
  -16.4702110        -1.26449070E-15
  -16.3514614        -7.03842133E-16
  -16.2327118        -7.52098752E-18
  -16.1139603         7.88865342E-16
  -15.9952106         1.63879668E-15
  -15.8764610         2.48784884E-15
  -15.7577114         3.27759674E-15
  -15.6389608         3.95011697E-15
  -15.5202112         4.45271541E-15
  -15.4014606         4.74245658E-15
  -15.2827110         4.79006915E-15
  -15.1639614         4.58283661E-15
  -15.0452108         4.12615498E-15
  -14.9264612         3.44354617E-15
  -14.8077106         2.57506571E-15
  -14.6889610         1.57418098E-15
  -14.5702114         5.03353193E-16
  -14.4514608        -5.71306465E-16
  -14.3327112        -1.58583065E-15
  -14.2139606        -2.48410072E-15
  -14.0952110        -3.22291166E-15
  -13.9764614        -3.77588441E-15
  -13.8577108        -4.13579803E-15
  -13.7389612        -4.31507425E-15
  -13.6202106        -4.34429180E-15
  -13.5014610        -4.26881990E-15
  -13.3827114        -4.14383976E-15
  -13.2639608        -4.02819097E-15
  -13.1452112        -3.97762691E-15
  -13.0264606        -4.03810845E-15
  -12.9077110        -4.23983866E-15
  -12.7889614        -4.59263551E-15
  -12.6702108        -5.08316457E-15
  -12.5514612        -5.67437959E-15
  -12.4327106        -6.30730167E-15
  -12.3139610        -6.90505367E-15
  -12.1952114        -7.37884536E-15
  -12.0764608        -7.63538199E-15
  -11.9577112        -7.58505214E-15
  -11.8389606        -7.15010919E-15
  -11.7202110        -6.27208162E-15
  -11.6014614        -4.91768398E-15
  -11.4827108        -3.08262310E-15
  -11.3639612        -7.92889913E-16
  -11.2452106         1.89663044E-15
  -11.1264610         4.90615374E-15
  -11.0077114         8.13726511E-15
  -10.8889608         1.14808853E-14
  -10.7702112         1.48262140E-14
  -10.6514606         1.80697827E-14
  -10.5327110         2.11237413E-14
  -10.4139614         2.39225703E-14
  -10.2952108         2.64275076E-14
  -10.1764612         2.86282262E-14
  -10.0577106         3.05415449E-14
  -9.93896103         3.22071776E-14
  -9.82021141         3.36809472E-14
  -9.70146084         3.50259711E-14
  -9.58271122         3.63027106E-14
  -9.46396065         3.75587284E-14
  -9.34521103         3.88192489E-14
  -9.22646141         4.00794137E-14
  -9.10771084         4.12990531E-14
  -8.98896122         4.24006262E-14
  -8.87021065         4.32706747E-14
  -8.75146103         4.37648134E-14
  -8.63271141         4.37160074E-14
  -8.51396084         4.29456174E-14
  -8.39521122         4.12762984E-14
  -8.27646065         3.85458436E-14
  -8.15771103         3.46208217E-14
  -8.03896141         2.94089331E-14
  -7.92021084         2.28689900E-14
  -7.80146122         1.50177502E-14
  -7.68271112         5.93291522E-15
  -7.56396103        -4.24794985E-15
  -7.44521093        -1.53326262E-14
  -7.32646084        -2.70832195E-14
  -7.20771122        -3.92282168E-14
  -7.08896112        -5.14768519E-14
  -6.97021103        -6.35346471E-14
  -6.85146093        -7.51189814E-14
  -6.73271084        -8.59735731E-14
  -6.61396122        -9.58808702E-14
  -6.49521112        -1.04671317E-13
  -6.37646103        -1.12229108E-13
  -6.25771093        -1.18493756E-13
  -6.13896084        -1.23457871E-13
  -6.02021122        -1.27160909E-13
  -5.90146112        -1.29679972E-13
  -5.78271103        -1.31118003E-13
  -5.66396093        -1.31590675E-13
  -5.54521084        -1.31212749E-13
  -5.42646122        -1.30085192E-13
  -5.30771112        -1.28283831E-13
  -5.18896103        -1.25850488E-13
  -5.07021093        -1.22787129E-13
  -4.95146084        -1.19053544E-13
  -4.83271122        -1.14568389E-13
  -4.71396112        -1.09213636E-13
  -4.59521103        -1.02841916E-13
  -4.47646093        -9.52860905E-14
  -4.35771084        -8.63702352E-14
  -4.23896122        -7.59213452E-14
  -4.12021112        -6.37807203E-14
  -4.00146103        -4.98141770E-14
  -3.88271117        -3.39206473E-14
  -3.76396108        -1.60384672E-14
  -3.64521098         3.85078754E-15
  -3.52646112         2.57212600E-14
  -3.40771103         4.95039529E-14
  -3.28896117         7.50899925E-14
  -3.17021108         1.02335471E-13
  -3.05146098         1.31067073E-13
  -2.93271112         1.61088021E-13
  -2.81396103         1.92183373E-13
  -2.69521117         2.24124457E-13
  -2.57646108         2.56671962E-13
  -2.45771098         2.89577173E-13
  -2.33896112         3.22581642E-13
  -2.22021103         3.55415431E-13
  -2.10146117         3.87794099E-13
  -1.98271108         4.19415669E-13
  -1.86396110         4.49956993E-13
  -1.74521101         4.79072131E-13
  -1.62646103         5.06391641E-13
  -1.50771105         5.31524586E-13
  -1.38896108         5.54063197E-13
  -1.27021110         5.73590600E-13
  -1.15146101         5.89691870E-13
  -1.03271103         6.01967098E-13
 -0.913961053         6.10047440E-13
 -0.795211077         6.13611863E-13
 -0.676461041         6.12404441E-13
 -0.557711065         6.06249968E-13
 -0.438961059         5.95068537E-13
 -0.320211053         5.78886765E-13
 -0.201461062         5.57843702E-13
  -8.27110559E-02     5.32193213E-13
   3.60389426E-02     5.02301271E-13
  0.154788941         4.68636848E-13
  0.273538947         4.31760530E-13
  0.392288953         3.92306684E-13
  0.511038959         3.50965107E-13
  0.629788935         3.08459855E-13
  0.748538971         2.65528783E-13
  0.867288947         2.22904011E-13
  0.986038923         1.81294405E-13
   1.10478890         1.41371642E-13
   1.22353899         1.03759422E-13
   1.34228897         6.90257652E-14
   1.46103895         3.76782684E-14
   1.57978892         1.01608641E-14
   1.69853890        -1.31493251E-14
   1.81728899        -3.19472876E-14
   1.93603897        -4.60072620E-14
   2.05478883        -5.51965666E-14
   2.17353892        -5.94931344E-14
   2.29228902        -5.90128396E-14
   2.41103888        -5.40398787E-14
   2.52978897        -4.50659780E-14
   2.64853883        -3.28307768E-14
   2.76728892        -1.83662645E-14
   2.88603902        -3.03754570E-15
   3.00478888         1.14208646E-14
   3.12353897         2.28784615E-14
   3.24228883         2.87947258E-14
   3.36103892         2.62235505E-14
   3.47978902         1.18336025E-14
   3.59853888        -1.80479207E-14
   3.71728897        -6.73712252E-14
   3.83603883        -1.40279566E-13
   3.95478892        -2.41007572E-13
   4.07353878        -3.73763683E-13
   4.19228888        -5.42603831E-13
   4.31103897        -7.51303804E-13
   4.42978907        -1.00322702E-12
   4.54853916        -1.30120751E-12
   4.66728878        -1.64744119E-12
   4.78603888        -2.04339909E-12
   4.90478897        -2.48976295E-12
   5.02353907        -2.98638284E-12
   5.14228916        -3.53226367E-12
   5.26103878        -4.12557705E-12
   5.37978888        -4.76369725E-12
   5.49853897        -5.44325696E-12
   5.61728907        -6.16021643E-12
   5.73603916        -6.90995351E-12
   5.85478878        -7.68735249E-12
   5.97353888        -8.48689868E-12
   6.09228897        -9.30277036E-12
   6.21103907        -1.01289307E-11
   6.32978916        -1.09592040E-11
   6.44853878        -1.17873558E-11
   6.56728888        -1.26071540E-11
   6.68603897        -1.34124309E-11
   6.80478907        -1.41971357E-11
   6.92353916        -1.49553928E-11
   7.04228878        -1.56815498E-11
   7.16103888        -1.63702333E-11
   7.27978897        -1.70164143E-11
   7.39853907        -1.76154733E-11
   7.51728916        -1.81632695E-11
   7.63603878        -1.86562241E-11
   7.75478888        -1.90914021E-11
   7.87353897        -1.94665950E-11
   7.99228907        -1.97803891E-11
   8.11103916        -2.00322554E-11
   8.22978878        -2.02225892E-11
   8.34853935        -2.03527629E-11
   8.46728897        -2.04251303E-11
   8.58603859        -2.04430379E-11
   8.70478916        -2.04107720E-11
   8.82353878        -2.03334970E-11
   8.94228935        -2.02171613E-11
   9.06103897        -2.00683688E-11
   9.17978859        -1.98942200E-11
   9.29853916        -1.97021514E-11
   9.41728878        -1.94997300E-11
   9.53603935        -1.92944532E-11
   9.65478897        -1.90935549E-11
   9.77353859        -1.89037952E-11
   9.89228916        -1.87312769E-11
   10.0110388        -1.85812737E-11
   10.1297894        -1.84580892E-11
   10.2485390        -1.83649485E-11
   10.3672886        -1.83039191E-11
   10.4860392        -1.82758721E-11
   10.6047888        -1.82804900E-11
   10.7235394        -1.83163016E-11
   10.8422890        -1.83807605E-11
   10.9610386        -1.84703555E-11
   11.0797892        -1.85807428E-11
   11.1985388        -1.87069041E-11
   11.3172894        -1.88433175E-11
   11.4360390        -1.89841320E-11
   11.5547886        -1.91233418E-11
   11.6735392        -1.92549622E-11
   11.7922888        -1.93731767E-11
   11.9110394        -1.94724827E-11
   12.0297890        -1.95478026E-11
   12.1485386        -1.95945829E-11
   12.2672892        -1.96088718E-11
   12.3860388        -1.95873612E-11
   12.5047894        -1.95274283E-11
   12.6235390        -1.94271474E-11
   12.7422886        -1.92852938E-11
   12.8610392        -1.91013438E-11
   12.9797888        -1.88754602E-11
   13.0985394        -1.86084845E-11
   13.2172890        -1.83019207E-11
   13.3360386        -1.79579372E-11
   13.4547892        -1.75793529E-11
   13.5735388        -1.71696355E-11
   13.6922894        -1.67328946E-11
   13.8110390        -1.62738868E-11
   13.9297886        -1.57979966E-11
   14.0485392        -1.53112349E-11
   14.1672888        -1.48202058E-11
   14.2860394        -1.43320737E-11
   14.4047890        -1.38545321E-11
   14.5235386        -1.33957342E-11
   14.6422892        -1.29642321E-11
   14.7610388        -1.25688904E-11
   14.8797894        -1.22188093E-11
   14.9985390        -1.19232220E-11
   15.1172886        -1.16913996E-11
   15.2360392        -1.15325492E-11
   15.3547888        -1.14557140E-11
   15.4735394        -1.14696768E-11
   15.5922890        -1.15828631E-11
   15.7110386        -1.18032502E-11
   15.8297892        -1.21382834E-11
   15.9485388        -1.25947915E-11
   16.0672894        -1.31789007E-11
   16.1860390        -1.38959608E-11
   16.3047886        -1.47504699E-11
   16.4235382        -1.57459913E-11
   16.5422897        -1.68850784E-11
   16.6610394        -1.81692075E-11
   16.7797890        -1.95987063E-11
   16.8985386        -2.11726886E-11
   17.0172882        -2.28890015E-11
   17.1360397        -2.47441963E-11
   17.2547894        -2.67334991E-11
   17.3735390        -2.88508106E-11
   17.4922886        -3.10887288E-11
   17.6110382        -3.34385922E-11
   17.7297897        -3.58905509E-11
   17.8485394        -3.84336556E-11
   17.9672890        -4.10559538E-11
   18.0860386        -4.37446572E-11
   18.2047882        -4.64862350E-11
   18.3235397        -4.92665908E-11
   18.4422894        -5.20712119E-11
   18.5610390        -5.48852977E-11
   18.6797886        -5.76939121E-11
   18.7985382        -6.04821054E-11
   18.9172897        -6.32350561E-11
   19.0360394        -6.59381508E-11
   19.1547890        -6.85771231E-11
   19.2735386        -7.11381301E-11
   19.3922882        -7.36078698E-11
   19.5110397        -7.59736787E-11
   19.6297894        -7.82236567E-11
   19.7485390        -8.03468056E-11
   19.8672886        -8.23331750E-11
   19.9860382        -8.41740219E-11
   20.1047897        -8.58620050E-11
   20.2235394        -8.73913372E-11
   20.3422890        -8.87580218E-11
   20.4610386        -8.99599631E-11
   20.5797882        -9.09971612E-11
   20.6985397        -9.18718157E-11
   20.8172894        -9.25883883E-11
   20.9360390        -9.31536098E-11
   21.0547886        -9.35763966E-11
   21.1735382        -9.38677677E-11
   21.2922897        -9.40405739E-11
   21.4110394        -9.41092482E-11
   21.5297890        -9.40894654E-11
   21.6485386        -9.39976916E-11
   21.7672882        -9.38508229E-11
   21.8860397        -9.36656377E-11
   22.0047894        -9.34583938E-11
   22.1235390        -9.32443706E-11
   22.2422886        -9.30374597E-11
   22.3610382        -9.28498320E-11
   22.4797897        -9.26916252E-11
   22.5985394        -9.25707705E-11
   22.7172890        -9.24928537E-11
   22.8360386        -9.24610735E-11
   22.9547882        -9.24762697E-11
   23.0735397        -9.25370128E-11
   23.1922894        -9.26397709E-11
   23.3110390        -9.27790345E-11
   23.4297886        -9.29475802E-11
   23.5485382        -9.31366165E-11
   23.6672897        -9.33360125E-11
   23.7860394        -9.35344510E-11
   23.9047890        -9.37195807E-11
   24.0235386        -9.38781206E-11
   24.1422882        -9.39959430E-11
   24.2610397        -9.40581571E-11
   24.3797894        -9.40491227E-11
   24.4985390        -9.39525263E-11
   24.6172886        -9.37514025E-11
   24.7360382        -9.34282443E-11
   24.8547897        -9.29650662E-11
   24.9735394        -9.23436050E-11
   25.0922890        -9.15454795E-11
   25.2110386        -9.05524683E-11
   25.3297882        -8.93467800E-11
   25.4485397        -8.79114143E-11
   25.5672894        -8.62305019E-11
   25.6860390        -8.42896933E-11
   25.8047886        -8.20765678E-11
   25.9235382        -7.95809668E-11
   26.0422897        -7.67953479E-11
   26.1610394        -7.37150341E-11
   26.2797890        -7.03384226E-11
   26.3985386        -6.66671440E-11
   26.5172882        -6.27060764E-11
   26.6360397        -5.84633036E-11
   26.7547894        -5.39499626E-11
   26.8735390        -4.91800108E-11
   26.9922886        -4.41699559E-11
   27.1110382        -3.89384358E-11
   27.2297897        -3.35058058E-11
   27.3485394        -2.78936839E-11
   27.4672890        -2.21244446E-11
   27.5860386        -1.62207903E-11
   27.7047882        -1.02052264E-11
   27.8235397        -4.09964163E-12
   27.9422894         2.07512263E-12
   28.0610390         8.29959452E-12
   28.1797886         1.45560126E-11
   28.2985382         2.08285854E-11
   28.4172897         2.71036787E-11
   28.5360394         3.33699526E-11
   28.6547890         3.96184613E-11
   28.7735386         4.58427810E-11
   28.8922882         5.20389218E-11
   29.0110397         5.82053780E-11
   29.1297894         6.43431142E-11
   29.2485390         7.04555234E-11
   29.3672886         7.65482816E-11
   29.4860382         8.26293964E-11
   29.6047897         8.87090262E-11
   29.7235394         9.47994114E-11
   29.8422890         1.00914777E-10
   29.9610386         1.07071144E-10
   30.0797882         1.13286158E-10
   30.1985397         1.19578902E-10
   30.3172894         1.25969637E-10
   30.4360390         1.32479555E-10
   30.5547886         1.39130346E-10
   30.6735382         1.45943868E-10
   30.7922897         1.52941756E-10
   30.9110394         1.60144800E-10
   31.0297890         1.67572678E-10
   31.1485386         1.75243250E-10
   31.2672882         1.83172102E-10
   31.3860397         1.91372140E-10
   31.5047894         1.99852981E-10
   31.6235390         2.08620704E-10
   31.7422886         2.17677473E-10
   31.8610382         2.27021249E-10
   31.9797897         2.36645731E-10
   32.0985374         2.46540371E-10
   32.2172890         2.56690391E-10
   32.3360405         2.67077221E-10
   32.4547882         2.77678575E-10
   32.5735397         2.88469110E-10
   32.6922874         2.99420960E-10
   32.8110390         3.10504344E-10
   32.9297905         3.21688232E-10
   33.0485382         3.32941202E-10
   33.1672897         3.44232032E-10
   33.2860374         3.55530522E-10
   33.4047890         3.66808334E-10
   33.5235405         3.78039405E-10
   33.6422882         3.89200810E-10
   33.7610397         4.00273148E-10
   33.8797874         4.11241069E-10
   33.9985390         4.22093638E-10
   34.1172905         4.32824498E-10
   34.2360382         4.43432152E-10
   34.3547897         4.53919846E-10
   34.4735374         4.64295630E-10
   34.5922890         4.74571937E-10
   34.7110405         4.84765450E-10
   34.8297882         4.94896624E-10
   34.9485397         5.04988995E-10
   35.0672874         5.15068654E-10
   35.1860390         5.25163246E-10
   35.3047905         5.35301303E-10
   35.4235382         5.45511303E-10
   35.5422897         5.55820445E-10
   35.6610374         5.66253877E-10
   35.7797890         5.76833636E-10
   35.8985405         5.87577598E-10
   36.0172882         5.98498529E-10
   36.1360397         6.09603423E-10
   36.2547874         6.20892726E-10
   36.3735390         6.32359609E-10
   36.4922905         6.43990028E-10
   36.6110382         6.55762167E-10
   36.7297897         6.67646494E-10
   36.8485374         6.79606260E-10
   36.9672890         6.91597335E-10
   37.0860405         7.03569369E-10
   37.2047882         7.15465909E-10
   37.3235397         7.27225613E-10
   37.4422874         7.38783146E-10
   37.5610390         7.50070006E-10
   37.6797905         7.61015639E-10
   37.7985382         7.71548714E-10
   37.9172897         7.81597953E-10
   38.0360374         7.91093635E-10
   38.1547890         7.99968203E-10
   38.2735405         8.08157818E-10
   38.3922882         8.15602974E-10
   38.5110397         8.22249657E-10
   38.6297874         8.28050295E-10
   38.7485390         8.32964586E-10
   38.8672905         8.36960112E-10
   38.9860382         8.40013281E-10
   39.1047897         8.42109771E-10
   39.2235374         8.43244807E-10
   39.3422890         8.43423775E-10
   39.4610405         8.42662218E-10
   39.5797882         8.40985726E-10
   39.6985397         8.38429770E-10
   39.8172874         8.35039260E-10
   39.9360390         8.30867875E-10
   40.0547905         8.25977287E-10
   40.1735382         8.20435941E-10
   40.2922897         8.14317891E-10
   40.4110374         8.07701572E-10
   40.5297890         8.00668198E-10
   40.6485405         7.93299981E-10
   40.7672882         7.85679022E-10
   40.8860397         7.77885034E-10
   41.0047874         7.69994402E-10
   41.1235390         7.62078123E-10
   41.2422905         7.54200813E-10
   41.3610382         7.46419371E-10
   41.4797897         7.38781814E-10
   41.5985374         7.31326388E-10
   41.7172890         7.24080962E-10
   41.8360405         7.17062631E-10
   41.9547882         7.10277115E-10
   42.0735397         7.03719027E-10
   42.1922874         6.97371716E-10
   42.3110390         6.91207536E-10
   42.4297905         6.85188184E-10
   42.5485382         6.79265366E-10
   42.6672897         6.73381295E-10
   42.7860374         6.67469413E-10
   42.9047890         6.61455335E-10
   43.0235405         6.55257515E-10
   43.1422882         6.48788467E-10
   43.2610397         6.41955600E-10
   43.3797874         6.34662378E-10
   43.4985390         6.26809604E-10
   43.6172905         6.18296525E-10
   43.7360382         6.09022166E-10
   43.8547897         5.98886718E-10
   43.9735374         5.87792981E-10
   44.0922890         5.75647696E-10
   44.2110405         5.62363045E-10
   44.3297882         5.47857870E-10
   44.4485397         5.32059452E-10
   44.5672874         5.14904230E-10
   44.6860390         4.96339636E-10
   44.8047905         4.76324480E-10
   44.9235382         4.54830090E-10
   45.0422897         4.31841285E-10
   45.1610374         4.07356066E-10
   45.2797890         3.81386367E-10
   45.3985405         3.53957724E-10
   45.5172882         3.25108607E-10
   45.6360397         2.94890029E-10
   45.7547874         2.63364580E-10
   45.8735390         2.30604980E-10
   45.9922905         1.96692815E-10
   46.1110382         1.61716557E-10
   46.2297897         1.25770408E-10
   46.3485374         8.89519153E-11
   46.4672890         5.13604298E-11
   46.5860405         1.30948872E-11
   46.7047882        -2.57478032E-11
   46.8235397        -6.50745846E-11
   46.9422874        -1.04797983E-10
   47.0610390        -1.44837420E-10
   47.1797905        -1.85120447E-10
   47.2985382        -2.25583899E-10
   47.4172897        -2.66174943E-10
   47.5360374        -3.06850878E-10
   47.6547890        -3.47580659E-10
   47.7735405        -3.88344079E-10
   47.8922882        -4.29132146E-10
   48.0110397        -4.69946582E-10
   48.1297874        -5.10799403E-10
   48.2485390        -5.51712287E-10
   48.3672905        -5.92715488E-10
   48.4860382        -6.33847141E-10
   48.6047897        -6.75151934E-10
   48.7235374        -7.16679993E-10
   48.8422890        -7.58485608E-10
   48.9610405        -8.00625510E-10
   49.0797882        -8.43158210E-10
   49.1985397        -8.86141271E-10
   49.3172874        -9.29630650E-10
   49.4360390        -9.73679692E-10
   49.5547905        -1.01833619E-09
   49.6735382        -1.06364217E-09
   49.7922897        -1.10963205E-09
   49.9110374        -1.15633159E-09
   50.0297890        -1.20375654E-09
   50.1485405        -1.25191213E-09
   50.2672882        -1.30079181E-09
   50.3860397        -1.35037637E-09
   50.5047874        -1.40063383E-09
   50.6235390        -1.45151968E-09
   50.7422905        -1.50297608E-09
   50.8610382        -1.55493263E-09
   50.9797897        -1.60730640E-09
   51.0985374        -1.66000302E-09
   51.2172890        -1.71291747E-09
   51.3360405        -1.76593540E-09
   51.4547882        -1.81893300E-09
   51.5735397        -1.87178095E-09
   51.6922874        -1.92434313E-09
   51.8110390        -1.97648098E-09
   51.9297905        -2.02805306E-09
   52.0485382        -2.07891726E-09
   52.1672897        -2.12893347E-09
   52.2860374        -2.17796381E-09
   52.4047890        -2.22587593E-09
   52.5235405        -2.27254282E-09
   52.6422882        -2.31784592E-09
   52.7610397        -2.36167530E-09
   52.8797874        -2.40393172E-09
   52.9985390        -2.44452747E-09
   53.1172905        -2.48338705E-09
   53.2360382        -2.52044896E-09
   53.3547897        -2.55566435E-09
   53.4735374        -2.58900035E-09
   53.5922890        -2.62043720E-09
   53.7110405        -2.64997002E-09
   53.8297882        -2.67760791E-09
   53.9485397        -2.70337308E-09
   54.0672874        -2.72730016E-09
   54.1860390        -2.74943468E-09
   54.3047905        -2.76983236E-09
   54.4235382        -2.78855650E-09
   54.5422897        -2.80567769E-09
   54.6610374        -2.82126988E-09
   54.7797890        -2.83541035E-09
   54.8985405        -2.84817614E-09
   55.0172882        -2.85964363E-09
   55.1360397        -2.86988522E-09
   55.2547874        -2.87896951E-09
   55.3735390        -2.88695801E-09
   55.4922905        -2.89390534E-09
   55.6110382        -2.89985769E-09
   55.7297897        -2.90485191E-09
   55.8485374        -2.90891600E-09
   55.9672890        -2.91206770E-09
   56.0860405        -2.91431657E-09
   56.2047882        -2.91566193E-09
   56.3235397        -2.91609537E-09
   56.4422874        -2.91560043E-09
   56.5610390        -2.91415381E-09
   56.6797905        -2.91172708E-09
   56.7985382        -2.90828583E-09
   56.9172897        -2.90379321E-09
   57.0360374        -2.89820901E-09
   57.1547890        -2.89149304E-09
   57.2735405        -2.88360469E-09
   57.3922882        -2.87450574E-09
   57.5110397        -2.86416113E-09
   57.6297874        -2.85254020E-09
   57.7485390        -2.83961810E-09
   57.8672905        -2.82537815E-09
   57.9860382        -2.80981172E-09
   58.1047897        -2.79291945E-09
   58.2235374        -2.77471357E-09