  -37.8452110         0.00000000    
  -37.7264595         0.00000000    
  -37.6077118         0.00000000    
  -37.4889603         0.00000000    
  -37.3702126         0.00000000    
  -37.2514610         0.00000000    
  -37.1327095        -2.77076018E-29
  -37.0139618        -3.35109620E-28
  -36.8952103        -2.15678654E-27
  -36.7764626        -9.80227930E-27
  -36.6577110        -3.52183531E-26
  -36.5389595        -1.06242147E-25
  -36.4202118        -2.79229249E-25
  -36.3014603        -6.55322482E-25
  -36.1827126        -1.39734107E-24
  -36.0639610        -2.74154211E-24
  -35.9452095        -4.99624147E-24
  -35.8264618        -8.51869040E-24
  -35.7077103        -1.36638929E-23
  -35.5889626        -2.07049198E-23
  -35.4702110        -2.97334865E-23
  -35.3514595        -4.05605646E-23
  -35.2327118        -5.26467467E-23
  -35.1139603        -6.50976034E-23
  -34.9952126        -7.67563554E-23
  -34.8764610        -8.64131867E-23
  -34.7577095        -9.31260964E-23
  -34.6389618        -9.66166481E-23
  -34.5202103        -9.76696828E-23
  -34.4014626        -9.84386391E-23
  -34.2827110        -1.02545979E-22
  -34.1639595        -1.14881359E-22
  -34.0452118        -1.41040542E-22
  -33.9264603        -1.86418977E-22
  -33.8077126        -2.55063394E-22
  -33.6889610        -3.48481766E-22
  -33.5702095        -4.64692186E-22
  -33.4514618        -5.97834488E-22
  -33.3327103        -7.38649113E-22
  -33.2139626        -8.76036472E-22
  -33.0952110        -9.99738445E-22
  -32.9764595        -1.10395189E-21
  -32.8577118        -1.19141897E-21
  -32.7389603        -1.27729470E-21
  -32.6202126        -1.39191455E-21
  -32.5014610        -1.58154540E-21
  -32.3827095        -1.90633405E-21
  -32.2639618        -2.43498849E-21
  -32.1452103        -3.23623449E-21
  -32.0264626        -4.36770589E-21
  -31.9077110        -5.86358731E-21
  -31.7889614        -7.72287728E-21
  -31.6702118        -9.90049406E-21
  -31.5514603        -1.23034360E-20
  -31.4327106        -1.47938441E-20
  -31.3139610        -1.71999688E-20
  -31.1952114        -1.93349365E-20
  -31.0764618        -2.10218162E-20
  -30.9577103        -2.21221652E-20
  -30.8389606        -2.25640896E-20
  -30.7202110        -2.23652803E-20
  -30.6014614        -2.16464474E-20
  -30.4827118        -2.06314564E-20
  -30.3639603        -1.96319751E-20
  -30.2452106        -1.90166157E-20
  -30.1264610        -1.91670091E-20
  -30.0077114        -2.04256355E-20
  -29.8889618        -2.30422194E-20
  -29.7702103        -2.71265739E-20
  -29.6514606        -3.26157606E-20
  -29.5327110        -3.92622506E-20
  -29.4139614        -4.66473288E-20
  -29.2952118        -5.42207650E-20
  -29.1764603        -6.13641223E-20
  -29.0577106        -6.74713713E-20
  -28.9389610        -7.20377055E-20
  -28.8202114        -7.47453391E-20
  -28.7014618        -7.55348313E-20
  -28.5827103        -7.46511956E-20
  -28.4639606        -7.26562621E-20
  -28.3452110        -7.04019042E-20
  -28.2264614        -6.89621963E-20
  -28.1077118        -6.95264563E-20
  -27.9889603        -7.32584884E-20
  -27.8702106        -8.11307727E-20
  -27.7514610        -9.37457101E-20
  -27.6327114        -1.11159452E-19
  -27.5139618        -1.32727462E-19
  -27.3952103        -1.56995572E-19
  -27.2764606        -1.81663610E-19
  -27.1577110        -2.03651169E-19
  -27.0389614        -2.19294628E-19
  -26.9202118        -2.24697616E-19
  -26.8014603        -2.16243999E-19
  -26.6827106        -1.91259990E-19
  -26.5639610        -1.48780065E-19
  -26.4452114        -9.03344237E-20
  -26.3264618        -2.06351271E-20
  -26.2077103         5.19970031E-20
  -26.0889606         1.15641504E-19
  -25.9702110         1.55396347E-19
  -25.8514614         1.54738919E-19
  -25.7327118         9.76851448E-20
  -25.6139603        -2.83189257E-20
  -25.4952106        -2.28991252E-19
  -25.3764610        -4.99681455E-19
  -25.2577114        -8.22268917E-19
  -25.1389618        -1.16316411E-18
  -25.0202103        -1.47315077E-18
  -24.9014606        -1.68973188E-18
  -24.7827110        -1.74246878E-18
  -24.6639614        -1.56145799E-18
  -24.5452118        -1.08863028E-18
  -24.4264603        -2.90990559E-19
  -24.3077106         8.25667906E-19
  -24.1889610         2.20458626E-18
  -24.0702114         3.72977972E-18
  -23.9514618         5.22419978E-18
  -23.8327103         6.45655372E-18
  -23.7139606         7.15838959E-18
  -23.5952110         7.05191655E-18
  -23.4764614         5.88758788E-18
  -23.3577118         3.48874756E-18
  -23.2389603        -2.01212447E-19
  -23.1202106        -5.07518650E-18
  -23.0014610        -1.08295057E-17
  -22.8827114        -1.69493907E-17
  -22.7639618        -2.27197067E-17
  -22.6452103        -2.72661180E-17
  -22.5264606        -2.96288651E-17
  -22.4077110        -2.88673692E-17
  -22.2889614        -2.41892063E-17
  -22.1702118        -1.50920790E-17
  -22.0514603        -1.50310463E-18
  -21.9327106         1.61037490E-17
  -21.8139610         3.66325868E-17
  -21.6952114         5.83525233E-17
  -21.5764618         7.89624363E-17
  -21.4577103         9.57427281E-17
  -21.3389606         1.05794051E-16
  -21.2202110         1.06351697E-16
  -21.1014614         9.51524718E-17
  -20.9827118         7.08193659E-17
  -20.8639603         3.32199771E-17
  -20.7452106        -1.62504115E-17
  -20.6264610        -7.45112781E-17
  -20.5077114        -1.36808685E-16
  -20.3889618        -1.96927563E-16
  -20.2702103        -2.47618065E-16
  -20.1514606        -2.81225050E-16
  -20.0327110        -2.90483702E-16
  -19.9139614        -2.69417517E-16
  -19.7952118        -2.14251968E-16
  -19.6764603        -1.24239113E-16
  -19.5577106        -2.28188215E-18
  -19.4389610         1.44748825E-16
  -19.3202114         3.06093223E-16
  -19.2014618         4.67635614E-16
  -19.0827103         6.12904464E-16
  -18.9639606         7.24503543E-16
  -18.8452110         7.85879974E-16
  -18.7264614         7.83284824E-16
  -18.6077118         7.07735626E-16
  -18.4889603         5.56762856E-16
  -18.3702106         3.35712085E-16
  -18.2514610         5.83919963E-17
  -18.1327114        -2.53102180E-16
  -18.0139618        -5.69491908E-16
  -17.8952103        -8.56360845E-16
  -17.7764606        -1.07705872E-15
  -17.6577110        -1.19627310E-15
  -17.5389614        -1.18398551E-15
  -17.4202118        -1.01944566E-15
  -17.3014603        -6.94751988E-16
  -17.1827106        -2.17614212E-16
  -17.0639610         3.87093898E-16
  -16.9452114         1.07729991E-15
  -16.8264618         1.79541677E-15
  -16.7077103         2.47177809E-15
  -16.5889606         3.02969328E-15
  -16.4702110         3.39181808E-15
  -16.3514614         3.48735196E-15
  -16.2327118         3.25946643E-15
  -16.1139603         2.67226888E-15
  -15.9952106         1.71659549E-15
  -15.8764610         4.13961571E-16
  -15.7577114        -1.18185755E-15
  -15.6389608        -2.98599400E-15
  -15.5202112        -4.88651529E-15
  -15.4014606        -6.75118547E-15
  -15.2827110        -8.43654810E-15
  -15.1639614        -9.79867534E-15
  -15.0452108        -1.07047397E-14
  -14.9264612        -1.10444033E-14
  -14.8077106        -1.07400068E-14
  -14.6889610        -9.75458982E-15
  -14.5702114        -8.09691161E-15
  -14.4514608        -5.82288903E-15
  -14.3327112        -3.03319280E-15
  -14.2139606         1.32936143E-16
  -14.0952110         3.50721912E-15
  -13.9764614         6.90445820E-15
  -13.8577108         1.01362290E-14
  -13.7389612         1.30249451E-14
  -13.6202106         1.54170432E-14
  -13.5014610         1.71940760E-14
  -13.3827114         1.82807227E-14
  -13.2639608         1.86489160E-14
  -13.1452112         1.83178007E-14
  -13.0264606         1.73494438E-14
  -12.9077110         1.58408002E-14
  -12.7889614         1.39127237E-14
  -12.6702108         1.16970701E-14
  -12.5514612         9.32322982E-15
  -12.4327106         6.90536156E-15
  -12.3139610         4.53162584E-15
  -12.1952114         2.25639053E-15
  -12.0764608         9.61922312E-17
  -11.9577112        -1.97025920E-15
  -11.8389606        -3.99816831E-15
  -11.7202110        -6.06925238E-15
  -11.6014614        -8.28184940E-15
  -11.4827108        -1.07395443E-14
  -11.3639612        -1.35396717E-14
  -11.2452106        -1.67628566E-14
  -11.1264610        -2.04647717E-14
  -11.0077114        -2.46708680E-14
  -10.8889608        -2.93745402E-14
  -10.7702112        -3.45387984E-14
  -10.6514606        -4.01009792E-14
  -10.5327110        -4.59797538E-14
  -10.4139614        -5.20833681E-14
  -10.2952108        -5.83179135E-14
  -10.1764612        -6.45944141E-14
  -10.0577106        -7.08335978E-14
  -9.93896103        -7.69677020E-14
  -9.82021141        -8.29388506E-14
  -9.70146084        -8.86941684E-14
  -9.58271122        -9.41781240E-14
  -9.46396065        -9.93232528E-14
  -9.34521103        -1.04040481E-13
  -9.22646141        -1.08210614E-13
  -9.10771084        -1.11678536E-13
  -8.98896122        -1.14251355E-13
  -8.87021065        -1.15701543E-13
  -8.75146103        -1.15775607E-13
  -8.63271141        -1.14207783E-13
  -8.51396084        -1.10738431E-13
  -8.39521122        -1.05135457E-13
  -8.27646065        -9.72168919E-14
  -8.15771103        -8.68725732E-14
  -8.03896141        -7.40825316E-14
  -7.92021084        -5.89300676E-14
  -7.80146122        -4.16076780E-14
  -7.68271112        -2.24147025E-14
  -7.56396103        -1.74630930E-15
  -7.44521093         1.99256081E-14
  -7.32646084         4.20785504E-14
  -7.20771122         6.41703352E-14
  -7.08896112         8.56722055E-14
  -6.97021103         1.06101075E-13
  -6.85146093         1.25048016E-13
  -6.73271084         1.42200108E-13
  -6.61396122         1.57353365E-13
  -6.49521112         1.70415358E-13
  -6.37646103         1.81396863E-13
  -6.25771093         1.90393572E-13
  -6.13896084         1.97558929E-13
  -6.02021122         2.03071067E-13
  -5.90146112         2.07096777E-13
  -5.78271103         2.09756176E-13
  -5.66396093         2.11091981E-13
  -5.54521084         2.11046133E-13
  -5.42646122         2.09446989E-13
  -5.30771112         2.06008252E-13
  -5.18896103         2.00340436E-13
  -5.07021093         1.91974000E-13
  -4.95146084         1.80391983E-13
  -4.83271122         1.65069672E-13
  -4.71396112         1.45516737E-13
  -4.59521103         1.21318537E-13
  -4.47646093         9.21715774E-14
  -4.35771084         5.79097791E-14
  -4.23896122         1.85186474E-14
  -4.12021112        -2.58648693E-14
  -4.00146103        -7.49669559E-14
  -3.88271117        -1.28405235E-13
  -3.76396108        -1.85728345E-13
  -3.64521098        -2.46463332E-13
  -3.52646112        -3.10166498E-13
  -3.40771103        -3.76472426E-13
  -3.28896117        -4.45136983E-13
  -3.17021108        -5.16069175E-13
  -3.05146098        -5.89348286E-13
  -2.93271112        -6.65224603E-13
  -2.81396103        -7.44102046E-13
  -2.69521117        -8.26504501E-13
  -2.57646108        -9.13026816E-13
  -2.45771098        -1.00427631E-12
  -2.33896112        -1.10080749E-12
  -2.22021103        -1.20305740E-12
  -2.10146117        -1.31128561E-12
  -1.98271108        -1.42552658E-12
  -1.86396110        -1.54555568E-12
  -1.74521101        -1.67087589E-12
  -1.62646103        -1.80072374E-12
  -1.50771105        -1.93409785E-12
  -1.38896108        -2.06980418E-12
  -1.27021110        -2.20652077E-12
  -1.15146101        -2.34287112E-12
  -1.03271103        -2.47750518E-12
 -0.913961053        -2.60918240E-12
 -0.795211077        -2.73684677E-12
 -0.676461041        -2.85969404E-12
 -0.557711065        -2.97722220E-12
 -0.438961059        -3.08926691E-12
 -0.320211053        -3.19601528E-12
 -0.201461062        -3.29800120E-12
  -8.27110559E-02    -3.39608268E-12
   3.60389426E-02    -3.49140465E-12
  0.154788941        -3.58534903E-12
  0.273538947        -3.67947686E-12
  0.392288953        -3.77546735E-12
  0.511038959        -3.87505869E-12
  0.629788935        -3.97999212E-12
  0.748538971        -4.09196028E-12
  0.867288947        -4.21256953E-12
  0.986038923        -4.34330653E-12
   1.10478890        -4.48551439E-12
   1.22353899        -4.64037619E-12
   1.34228897        -4.80890371E-12
   1.46103895        -4.99193091E-12
   1.57978892        -5.19010182E-12
   1.69853890        -5.40386486E-12
   1.81728899        -5.63345768E-12
   1.93603897        -5.87889156E-12
   2.05478883        -6.13992971E-12
   2.17353892        -6.41606213E-12
   2.29228902        -6.70648042E-12
   2.41103888        -7.01005139E-12
   2.52978897        -7.32529228E-12
   2.64853883        -7.65035431E-12
   2.76728892        -7.98300748E-12
   2.88603902        -8.32064539E-12
   3.00478888        -8.66029123E-12
   3.12353897        -8.99862043E-12
   3.24228883        -9.33199698E-12
   3.36103892        -9.65652211E-12
   3.47978902        -9.96809406E-12
   3.59853888        -1.02624714E-11
   3.71728897        -1.05353582E-11
   3.83603883        -1.07824799E-11
   3.95478892        -1.09996751E-11
   4.07353878        -1.11829816E-11
   4.19228888        -1.13287209E-11
   4.31103897        -1.14335902E-11
   4.42978907        -1.14947401E-11
   4.54853916        -1.15098504E-11
   4.66728878        -1.14772020E-11
   4.78603888        -1.13957333E-11
   4.90478897        -1.12650965E-11
   5.02353907        -1.10856905E-11
   5.14228916        -1.08586881E-11
   5.26103878        -1.05860451E-11
   5.37978888        -1.02704963E-11
   5.49853897        -9.91552500E-12
   5.61728907        -9.52531890E-12
   5.73603916        -9.10471091E-12
   5.85478878        -8.65908994E-12
   5.97353888        -8.19430201E-12
   6.09228897        -7.71653488E-12
   6.21103907        -7.23218967E-12
   6.32978916        -6.74774342E-12
   6.44853878        -6.26961200E-12
   6.56728888        -5.80401222E-12
   6.68603897        -5.35683260E-12
   6.80478907        -4.93351887E-12
   6.92353916        -4.53897120E-12
   7.04228878        -4.17746480E-12
   7.16103888        -3.85259446E-12
   7.27978897        -3.56723592E-12
   7.39853907        -3.32353589E-12
   7.51728916        -3.12291534E-12
   7.63603878        -2.96609764E-12
   7.75478888        -2.85314112E-12
   7.87353897        -2.78348612E-12
   7.99228907        -2.75600549E-12
   8.11103916        -2.76905018E-12
   8.22978878        -2.82050013E-12
   8.34853935        -2.90780356E-12
   8.46728897        -3.02801078E-12
   8.58603859        -3.17781175E-12
   8.70478916        -3.35355983E-12
   8.82353878        -3.55129923E-12
   8.94228935        -3.76679851E-12
   9.06103897        -3.99558728E-12
   9.17978859        -4.23300544E-12
   9.29853916        -4.47426644E-12
   9.41728878        -4.71452781E-12
   9.53603935        -4.94899087E-12
   9.65478897        -5.17299962E-12
   9.77353859        -5.38215783E-12
   9.89228916        -5.57245005E-12
   10.0110388        -5.74036348E-12
   10.1297894        -5.88300459E-12
   10.2485390        -5.99820194E-12
   10.3672886        -6.08459030E-12
   10.4860392        -6.14167311E-12
   10.6047888        -6.16985109E-12
   10.7235394        -6.17042225E-12
   10.8422890        -6.14555238E-12
   10.9610386        -6.09821091E-12
   11.0797892        -6.03207805E-12
   11.1985388        -5.95143032E-12
   11.3172894        -5.86100396E-12
   11.4360390        -5.76584917E-12
   11.5547886        -5.67117403E-12
   11.6735392        -5.58219443E-12
   11.7922888        -5.50397878E-12
   11.9110394        -5.44131710E-12
   12.0297890        -5.39858739E-12
   12.1485386        -5.37965375E-12
   12.2672892        -5.38776922E-12
   12.3860388        -5.42550683E-12
   12.5047894        -5.49469888E-12
   12.6235390        -5.59640008E-12
   12.7422886        -5.73086413E-12
   12.8610392        -5.89753810E-12
   12.9797888        -6.09506976E-12
   13.0985394        -6.32133321E-12
   13.2172890        -6.57346920E-12
   13.3360386        -6.84793541E-12
   13.4547892        -7.14058543E-12
   13.5735388        -7.44674634E-12
   13.6922894        -7.76132457E-12
   13.8110390        -8.07891080E-12
   13.9297886        -8.39390536E-12
   14.0485392        -8.70063917E-12
   14.1672888        -8.99349779E-12
   14.2860394        -9.26703853E-12
   14.4047890        -9.51609277E-12
   14.5235386        -9.73585188E-12
   14.6422892        -9.92192179E-12
   14.7610388        -1.00703603E-11
   14.8797894        -1.01776747E-11
   14.9985390        -1.02407909E-11
   15.1172886        -1.02569975E-11
   15.2360392        -1.02238530E-11
   15.3547888        -1.01391005E-11
   15.4735394        -1.00005403E-11
   15.5922890        -9.80593037E-12
   15.7110386        -9.55288799E-12
   15.8297892        -9.23880503E-12
   15.9485388        -8.86080532E-12
   16.0672894        -8.41571691E-12
   16.1860390        -7.90011199E-12
   16.3047886        -7.31035718E-12
   16.4235382        -6.64271416E-12
   16.5422897        -5.89346584E-12
   16.6610394        -5.05907555E-12
   16.7797890        -4.13633927E-12
   16.8985386        -3.12254866E-12
   17.0172882        -2.01564676E-12
   17.1360397        -8.14341053E-13
   17.2547894         4.81799930E-13
   17.3735390         1.87229399E-12
   17.4922886         3.35574255E-12
   17.6110382         4.92987075E-12
   17.7297897         6.59159229E-12
   17.8485394         8.33712960E-12
   17.9672890         1.01621411E-11
   18.0860386         1.20618576E-11
   18.2047882         1.40312362E-11
   18.3235397         1.60650746E-11
   18.4422894         1.81581052E-11
   18.5610390         2.03050719E-11
   18.6797886         2.25007530E-11
   18.7985382         2.47399479E-11
   18.9172897         2.70174369E-11
   19.0360394         2.93278839E-11
   19.1547890         3.16657672E-11
   19.2735386         3.40252618E-11
   19.3922882         3.64001641E-11
   19.5110397         3.87838234E-11
   19.6297894         4.11691271E-11
   19.7485390         4.35485224E-11
   19.8672886         4.59141059E-11
   19.9860382         4.82577797E-11
   20.1047897         5.05714672E-11
   20.2235394         5.28473515E-11
   20.3422890         5.50782128E-11
   20.4610386         5.72577367E-11
   20.5797882         5.93808683E-11
   20.6985397         6.14441206E-11
   20.8172894         6.34458874E-11
   20.9360390         6.53866752E-11
   21.0547886         6.72692804E-11
   21.1735382         6.90988655E-11
   21.2922897         7.08829870E-11
   21.4110394         7.26315050E-11
   21.5297890         7.43563891E-11
   21.6485386         7.60715241E-11
   21.7672882         7.77923490E-11
   21.8860397         7.95355448E-11
   22.0047894         8.13186324E-11
   22.1235390         8.31595834E-11
   22.2422886         8.50764320E-11
   22.3610382         8.70869488E-11
   22.4797897         8.92083005E-11
   22.5985394         9.14567935E-11
   22.7172890         9.38476588E-11
   22.8360386         9.63948782E-11
   22.9547882         9.91110943E-11
   23.0735397         1.02007541E-10
   23.1922894         1.05093975E-10
   23.3110390         1.08378688E-10
   23.4297886         1.11868459E-10
   23.5485382         1.15568610E-10
   23.6672897         1.19482924E-10
   23.7860394         1.23613675E-10
   23.9047890         1.27961503E-10
   24.0235386         1.32525407E-10
   24.1422882         1.37302669E-10
   24.2610397         1.42288750E-10
   24.3797894         1.47477225E-10
   24.4985390         1.52859711E-10
   24.6172886         1.58425911E-10
   24.7360382         1.64163502E-10
   24.8547897         1.70058329E-10
   24.9735394         1.76094375E-10
   25.0922890         1.82254073E-10
   25.2110386         1.88518409E-10
   25.3297882         1.94867358E-10
   25.4485397         2.01280090E-10
   25.5672894         2.07735440E-10
   25.6860390         2.14212273E-10
   25.8047886         2.20689911E-10
   25.9235382         2.27148633E-10
   26.0422897         2.33569969E-10
   26.1610394         2.39937265E-10
   26.2797890         2.46235865E-10
   26.3985386         2.52453419E-10
   26.5172882         2.58580213E-10
   26.6360397         2.64609223E-10
   26.7547894         2.70536121E-10
   26.8735390         2.76359519E-10
   26.9922886         2.82080581E-10
   27.1110382         2.87703000E-10
   27.2297897         2.93232827E-10
   27.3485394         2.98678027E-10
   27.4672890         3.04048148E-10
   27.5860386         3.09354015E-10
   27.7047882         3.14607368E-10
   27.8235397         3.19820198E-10
   27.9422894         3.25004523E-10
   28.0610390         3.30171890E-10
   28.1797886         3.35332873E-10
   28.2985382         3.40496825E-10
   28.4172897         3.45671575E-10
   28.5360394         3.50862867E-10
   28.6547890         3.56074420E-10
   28.7735386         3.61307512E-10
   28.8922882         3.66560893E-10
   29.0110397         3.71830705E-10
   29.1297894         3.77110371E-10
   29.2485390         3.82390536E-10
   29.3672886         3.87659321E-10
   29.4860382         3.92902016E-10
   29.6047897         3.98101524E-10
   29.7235394         4.03238332E-10
   29.8422890         4.08290651E-10
   29.9610386         4.13234724E-10
   30.0797882         4.18044904E-10
   30.1985397         4.22694157E-10
   30.3172894         4.27154034E-10
   30.4360390         4.31395197E-10
   30.5547886         4.35387892E-10
   30.6735382         4.39102005E-10
   30.7922897         4.42507669E-10
   30.9110394         4.45575687E-10
   31.0297890         4.48277776E-10
   31.1485386         4.50587123E-10
   31.2672882         4.52478915E-10
   31.3860397         4.53930338E-10
   31.5047894         4.54921295E-10
   31.6235390         4.55434357E-10
   31.7422886         4.55455174E-10
   31.8610382         4.54972782E-10
   31.9797897         4.53979188E-10
   32.0985374         4.52469895E-10
   32.2172890         4.50443433E-10
   32.3360405         4.47901244E-10
   32.4547882         4.44847575E-10
   32.5735397         4.41288867E-10
   32.6922874         4.37233666E-10
   32.8110390         4.32691938E-10
   32.9297905         4.27674590E-10
   33.0485382         4.22193031E-10
   33.1672897         4.16258666E-10
   33.2860374         4.09882184E-10
   33.4047890         4.03073241E-10
   33.5235405         3.95839778E-10
   33.6422882         3.88187732E-10
   33.7610397         3.80120407E-10
   33.8797874         3.71638331E-10
   33.9985390         3.62738672E-10
   34.1172905         3.53415130E-10
   34.2360382         3.43657769E-10
   34.3547897         3.33452793E-10
   34.4735374         3.22782689E-10
   34.5922890         3.11626086E-10
   34.7110405         2.99958253E-10
   34.8297882         2.87750962E-10
   34.9485397         2.74973183E-10
   35.0672874         2.61591526E-10
   35.1860390         2.47570714E-10
   35.3047905         2.32874359E-10
   35.4235382         2.17465809E-10
   35.5422897         2.01308845E-10
   35.6610374         1.84368742E-10
   35.7797890         1.66613001E-10
   35.8985405         1.48012352E-10
   36.0172882         1.28541733E-10
   36.1360397         1.08180673E-10
   36.2547874         8.69144964E-11
   36.3735390         6.47346482E-11
   36.4922905         4.16389666E-11
   36.6110382         1.76322412E-11
   36.7297897        -7.27395748E-12
   36.8485374        -3.30612308E-11
   36.9672890        -5.97048314E-11
   37.0860405        -8.71739278E-11
   37.2047882        -1.15432282E-10
   37.3235397        -1.44438975E-10
   37.4422874        -1.74149251E-10
   37.5610390        -2.04515530E-10
   37.6797905        -2.35488323E-10
   37.7985382        -2.67017158E-10
   37.9172897        -2.99051811E-10
   38.0360374        -3.31543265E-10
   38.1547890        -3.64444586E-10
   38.2735405        -3.97711891E-10
   38.3922882        -4.31305214E-10
   38.5110397        -4.65189359E-10
   38.6297874        -4.99334629E-10
   38.7485390        -5.33717459E-10
   38.8672905        -5.68320668E-10
   38.9860382        -6.03134376E-10
   39.1047897        -6.38155973E-10
   39.2235374        -6.73390399E-10
   39.3422890        -7.08850201E-10
   39.4610405        -7.44555417E-10
   39.5797882        -7.80533527E-10
   39.6985397        -8.16818779E-10
   39.8172874        -8.53451809E-10
   39.9360390        -8.90478913E-10
   40.0547905        -9.27951105E-10
   40.1735382        -9.65923341E-10
   40.2922897        -1.00445319E-09
   40.4110374        -1.04359987E-09
   40.5297890        -1.08342291E-09
   40.6485405        -1.12398046E-09
   40.7672882        -1.16532872E-09
   40.8860397        -1.20751997E-09
   41.0047874        -1.25060173E-09
   41.1235390        -1.29461586E-09
   41.2422905        -1.33959677E-09
   41.3610382        -1.38557144E-09
   41.4797897        -1.43255796E-09
   41.5985374        -1.48056534E-09
   41.7172890        -1.52959279E-09
   41.8360405        -1.57962998E-09
   41.9547882        -1.63065661E-09
   42.0735397        -1.68264203E-09
   42.1922874        -1.73554637E-09
   42.3110390        -1.78931991E-09
   42.4297905        -1.84390414E-09
   42.5485382        -1.89923188E-09
   42.6672897        -1.95522798E-09
   42.7860374        -2.01181005E-09
   42.9047890        -2.06888906E-09
   43.0235405        -2.12636997E-09
   43.1422882        -2.18415375E-09
   43.2610397        -2.24213670E-09
   43.3797874        -2.30021246E-09
   43.4985390        -2.35827269E-09
   43.6172905        -2.41620834E-09
   43.7360382        -2.47391085E-09
   43.8547897        -2.53127341E-09
   43.9735374        -2.58819099E-09
   44.0922890        -2.64456346E-09
   44.2110405        -2.70029488E-09
   44.3297882        -2.75529621E-09
   44.4485397        -2.80948464E-09
   44.5672874        -2.86278534E-09
   44.6860390        -2.91513258E-09
   44.8047905        -2.96646929E-09
   44.9235382        -3.01674818E-09
   45.0422897        -3.06593151E-09
   45.1610374        -3.11399218E-09
   45.2797890        -3.16091109E-09
   45.3985405        -3.20667959E-09
   45.5172882        -3.25129657E-09
   45.6360397        -3.29476890E-09
   45.7547874        -3.33710948E-09
   45.8735390        -3.37833672E-09
   45.9922905        -3.41847284E-09
   46.1110382        -3.45754358E-09
   46.2297897        -3.49557427E-09
   46.3485374        -3.53259111E-09
   46.4672890        -3.56861873E-09
   46.5860405        -3.60367824E-09
   46.7047882        -3.63778629E-09
   46.8235397        -3.67095443E-09
   46.9422874        -3.70318753E-09
   47.0610390        -3.73448295E-09
   47.1797905        -3.76482934E-09
   47.2985382        -3.79420717E-09
   47.4172897        -3.82258669E-09
   47.5360374        -3.84992926E-09
   47.6547890        -3.87618604E-09
   47.7735405        -3.90129884E-09
   47.8922882        -3.92519972E-09
   48.0110397        -3.94781186E-09
   48.1297874        -3.96905042E-09
   48.2485390        -3.98882261E-09
   48.3672905        -4.00702893E-09
   48.4860382        -4.02356415E-09
   48.6047897        -4.03831901E-09
   48.7235374        -4.05118028E-09
   48.8422890        -4.06203382E-09
   48.9610405        -4.07076328E-09
   49.0797882        -4.07725631E-09
   49.1985397        -4.08140099E-09
   49.3172874        -4.08309031E-09
   49.4360390        -4.08222256E-09
   49.5547905        -4.07870449E-09
   49.6735382        -4.07245038E-09
   49.7922897        -4.06338341E-09
   49.9110374        -4.05143741E-09
   50.0297890        -4.03655775E-09
   50.1485405        -4.01870093E-09
   50.2672882        -3.99783540E-09
   50.3860397        -3.97394073E-09
   50.5047874        -3.94700894E-09
   50.6235390        -3.91704313E-09
   50.7422905        -3.88405530E-09
   50.8610382        -3.84806809E-09
   50.9797897        -3.80911214E-09
   51.0985374        -3.76722564E-09
   51.2172890        -3.72245190E-09
   51.3360405        -3.67484021E-09
   51.4547882        -3.62444164E-09
   51.5735397        -3.57131036E-09
   51.6922874        -3.51549967E-09
   51.8110390        -3.45706419E-09
   51.9297905        -3.39605499E-09
   52.0485382        -3.33252026E-09
   52.1672897        -3.26650373E-09
   52.2860374        -3.19804561E-09
   52.4047890        -3.12717852E-09
   52.5235405        -3.05393089E-09
   52.6422882        -2.97832248E-09
   52.7610397        -2.90036684E-09
   52.8797874        -2.82006996E-09
   52.9985390        -2.73743028E-09
   53.1172905        -2.65243871E-09
   53.2360382        -2.56507948E-09
   53.3547897        -2.47532861E-09
   53.4735374        -2.38315567E-09
   53.5922890        -2.28852337E-09
   53.7110405        -2.19138996E-09
   53.8297882        -2.09170792E-09
   53.9485397        -1.98942485E-09
   54.0672874        -1.88448657E-09
   54.1860390        -1.77683657E-09
   54.3047905        -1.66641667E-09
   54.4235382        -1.55317004E-09
   54.5422897        -1.43704137E-09
   54.6610374        -1.31797895E-09
   54.7797890        -1.19593468E-09
   54.8985405        -1.07086806E-09
   55.0172882        -9.42745215E-10
   55.1360397        -8.11540390E-10
   55.2547874        -6.77237988E-10
   55.3735390        -5.39832234E-10
   55.4922905        -3.99329653E-10
   55.6110382        -2.55747284E-10
   55.7297897        -1.09115092E-10
   55.8485374         4.05259819E-11
   55.9672890         1.93124336E-10
   56.0860405         3.48615581E-10
   56.2047882         5.06927056E-10
   56.3235397         6.67974620E-10
   56.4422874         8.31666347E-10
   56.5610390         9.97903427E-10
   56.6797905         1.16658072E-09
   56.7985382         1.33758737E-09
   56.9172897         1.51080826E-09
   57.0360374         1.68612690E-09
   57.1547890         1.86342497E-09
   57.2735405         2.04258432E-09
   57.3922882         2.22348895E-09
   57.5110397         2.40602427E-09
   57.6297874         2.59007904E-09
   57.7485390         2.77554713E-09
   57.8672905         2.96232860E-09
   57.9860382         3.15032844E-09
   58.1047897         3.33945982E-09
   58.2235374         3.52964324E-09