  -37.8452110         0.00000000    
  -37.7264595         0.00000000    
  -37.6077118         0.00000000    
  -37.4889603         0.00000000    
  -37.3702126         0.00000000    
  -37.2514610         0.00000000    
  -37.1327095         1.22776853E-29
  -37.0139618         1.48723837E-28
  -36.8952103         9.63697692E-28
  -36.7764626         4.43327349E-27
  -36.6577110         1.62393288E-26
  -36.5389595         5.03821209E-26
  -36.4202118         1.37546971E-25
  -36.3014603         3.39023057E-25
  -36.1827126         7.68139107E-25
  -36.0639610         1.62079756E-24
  -35.9452095         3.21525644E-24
  -35.8264618         6.03829399E-24
  -35.7077103         1.07900773E-23
  -35.5889626         1.84138610E-23
  -35.4702110         3.00905533E-23
  -35.3514595         4.71745637E-23
  -35.2327118         7.10493885E-23
  -35.1139603         1.02891424E-22
  -34.9952126         1.43349671E-22
  -34.8764610         1.92175705E-22
  -34.7577095         2.47866735E-22
  -34.6389618         3.07407786E-22
  -34.5202103         3.66207307E-22
  -34.4014626         4.18306634E-22
  -34.2827110         4.56902026E-22
  -34.1639595         4.75154576E-22
  -34.0452118         4.67181502E-22
  -33.9264603         4.29044356E-22
  -33.8077126         3.59488332E-22
  -33.6889610         2.60167513E-22
  -33.5702095         1.35125032E-22
  -33.4514618        -1.06061718E-23
  -33.3327103        -1.73261383E-22
  -33.2139626        -3.53245173E-22
  -33.0952110        -5.58251594E-22
  -32.9764595        -8.06002638E-22
  -32.8577118        -1.12589672E-21
  -32.7389603        -1.55886740E-21
  -32.6202126        -2.15490021E-21
  -32.5014610        -2.96795453E-21
  -32.3827095        -4.04846183E-21
  -32.2639618        -5.43408024E-21
  -32.1452103        -7.13988377E-21
  -32.0264626        -9.14958046E-21
  -31.9077110        -1.14095470E-20
  -31.7889614        -1.38274322E-20
  -31.6702118        -1.62766494E-20
  -31.5514603        -1.86074166E-20
  -31.4327106        -2.06640024E-20
  -31.3139610        -2.23067395E-20
  -31.1952114        -2.34363063E-20
  -31.0764618        -2.40168530E-20
  -30.9577103        -2.40940716E-20
  -30.8389606        -2.38043032E-20
  -30.7202110        -2.33714324E-20
  -30.6014614        -2.30895367E-20
  -30.4827118        -2.32911394E-20
  -30.3639603        -2.43031044E-20
  -30.2452106        -2.63946726E-20
  -30.1264610        -2.97243960E-20
  -30.0077114        -3.42945366E-20
  -29.8889618        -3.99222664E-20
  -29.7702103        -4.62367079E-20
  -29.6514606        -5.27085690E-20
  -29.5327110        -5.87155094E-20
  -29.4139614        -6.36407302E-20
  -29.2952118        -6.69955421E-20
  -29.1764603        -6.85498080E-20
  -29.0577106        -6.84474056E-20
  -28.9389610        -6.72804606E-20
  -28.8202114        -6.60954726E-20
  -28.7014618        -6.63099774E-20
  -28.5827103        -6.95288667E-20
  -28.4639606        -7.72661978E-20
  -28.3452110        -9.05983137E-20
  -28.2264614        -1.09795806E-19
  -28.1077118        -1.33999989E-19
  -27.9889603        -1.61020710E-19
  -27.8702106        -1.87331761E-19
  -27.7514610        -2.08324468E-19
  -27.6327114        -2.18848338E-19
  -27.5139618        -2.14023006E-19
  -27.3952103        -1.90249576E-19
  -27.2764606        -1.46294478E-19
  -27.1577110        -8.42693545E-20
  -27.0389614        -1.03023423E-20
  -26.9202118         6.53072923E-20
  -26.8014603         1.28625138E-19
  -26.6827106         1.63413071E-19
  -26.5639610         1.53257374E-19
  -26.4452114         8.43657146E-20
  -26.3264618        -5.12338805E-20
  -26.2077103        -2.52493315E-19
  -26.0889606        -5.06646316E-19
  -25.9702110        -7.87573499E-19
  -25.8514614        -1.05577394E-18
  -25.7327118        -1.26039485E-18
  -25.6139603        -1.34358657E-18
  -25.4952106        -1.24718302E-18
  -25.3764610        -9.21371359E-19
  -25.2577114        -3.34644654E-19
  -25.1389618         5.16043553E-19
  -25.0202103         1.59631538E-18
  -24.9014606         2.82820475E-18
  -24.7827110         4.08842951E-18
  -24.6639614         5.21256838E-18
  -24.5452118         6.00616587E-18
  -24.4264603         6.26313118E-18
  -24.3077106         5.79086978E-18
  -24.1889610         4.44052142E-18
  -24.0702114         2.13956966E-18
  -23.9514618        -1.07694676E-18
  -23.8327103        -5.04116167E-18
  -23.7139606        -9.43795212E-18
  -23.5952110        -1.38060241E-17
  -23.4764614        -1.75583048E-17
  -23.3577118        -2.00237910E-17
  -23.2389603        -2.05107523E-17
  -23.1202106        -1.83883640E-17
  -23.0014610        -1.31807434E-17
  -22.8827114        -4.66448016E-18
  -22.7639618         7.04198046E-18
  -22.6452103         2.14100167E-17
  -22.5264606         3.74670995E-17
  -22.4077110         5.38095051E-17
  -22.2889614         6.86703705E-17
  -22.1702118         8.00469826E-17
  -22.0514603         8.58845616E-17
  -21.9327106         8.43066054E-17
  -21.8139610         7.38737138E-17
  -21.6952114         5.38460631E-17
  -21.5764618         2.44187605E-17
  -21.4577103        -1.31033772E-17
  -21.3389606        -5.62244919E-17
  -21.2202110        -1.01298232E-16
  -21.1014614        -1.43709569E-16
  -20.9827118        -1.78204549E-16
  -20.8639603        -1.99358495E-16
  -20.7452106        -2.02155451E-16
  -20.6264610        -1.82633552E-16
  -20.5077114        -1.38535640E-16
  -20.3889618        -6.98920832E-17
  -20.2702103         2.05418873E-17
  -20.1514606         1.27069620E-16
  -20.0327110         2.41120793E-16
  -19.9139614         3.51646231E-16
  -19.7952118         4.45853421E-16
  -19.6764603         5.10260747E-16
  -19.5577106         5.32010753E-16
  -19.4389610         5.00343156E-16
  -19.3202114         4.08094968E-16
  -19.2014618         2.53073354E-16
  -19.0827103         3.91328891E-17
  -18.9639606        -2.23204325E-16
  -18.8452110        -5.16722285E-16
  -18.7264614        -8.18175011E-16
  -18.6077118        -1.09967715E-15
  -18.4889603        -1.33078755E-15
  -18.3702106        -1.48117570E-15
  -18.2514610        -1.52368246E-15
  -18.1327114        -1.43752058E-15
  -18.0139618        -1.21131005E-15
  -17.8952103        -8.45617555E-16
  -17.7764606        -3.54671965E-16
  -17.6577110         2.33028637E-16
  -17.5389614         8.75436185E-16
  -17.4202118         1.51910467E-15
  -17.3014603         2.10276374E-15
  -17.1827106         2.56215142E-15
  -17.0639610         2.83580829E-15
  -16.9452114         2.87139892E-15
  -16.8264618         2.63202762E-15
  -16.7077103         2.10194783E-15
  -16.5889606         1.29105503E-15
  -16.4702110         2.37591498E-16
  -16.3514614        -9.91404102E-16
  -16.2327118        -2.30221374E-15
  -16.1139603        -3.57923216E-15
  -15.9952106        -4.69231519E-15
  -15.8764610        -5.50631513E-15
  -15.7577114        -5.89221275E-15
  -15.6389608        -5.73903912E-15
  -15.5202112        -4.96564722E-15
  -15.4014606        -3.53131212E-15
  -15.2827110        -1.44415105E-15
  -15.1639614         1.23355843E-15
  -15.0452108         4.38387450E-15
  -14.9264612         7.83597803E-15
  -14.8077106         1.13733926E-14
  -14.6889610         1.47454087E-14
  -14.5702114         1.76821651E-14
  -14.4514608         1.99124537E-14
  -14.3327112         2.11830760E-14
  -14.2139606         2.12783740E-14
  -14.0952110         2.00384651E-14
  -13.9764614         1.73747345E-14
  -13.8577108         1.32812877E-14
  -13.7389612         7.84133043E-15
  -13.6202106         1.22777405E-15
  -13.5014610        -6.30219321E-15
  -13.3827114        -1.44183998E-14
  -13.2639608        -2.27342474E-14
  -13.1452112        -3.08274965E-14
  -13.0264606        -3.82638697E-14
  -12.9077110        -4.46219701E-14
  -12.7889614        -4.95177324E-14
  -12.6702108        -5.26267635E-14
  -12.5514612        -5.37030611E-14
  -12.4327106        -5.25928076E-14
  -12.3139610        -4.92423756E-14
  -12.1952114        -4.37000798E-14
  -12.0764608        -3.61116166E-14
  -11.9577112        -2.67096559E-14
  -11.8389606        -1.57983944E-14
  -11.7202110        -3.73418414E-15
  -11.6014614         9.09633256E-15
  -11.4827108         2.22991249E-14
  -11.3639612         3.54952138E-14
  -11.2452106         4.83413121E-14
  -11.1264610         6.05473855E-14
  -11.0077114         7.18903425E-14
  -10.8889608         8.22231484E-14
  -10.7702112         9.14790975E-14
  -10.6514606         9.96712546E-14
  -10.5327110         1.06887372E-13
  -10.4139614         1.13280736E-13
  -10.2952108         1.19057501E-13
  -10.1764612         1.24461368E-13
  -10.0577106         1.29756327E-13
  -9.93896103         1.35207980E-13
  -9.82021141         1.41064542E-13
  -9.70146084         1.47537812E-13
  -9.58271122         1.54785039E-13
  -9.46396065         1.62892052E-13
  -9.34521103         1.71858486E-13
  -9.22646141         1.81585785E-13
  -9.10771084         1.91868318E-13
  -8.98896122         2.02388941E-13
  -8.87021065         2.12719179E-13
  -8.75146103         2.22325088E-13
  -8.63271141         2.30579092E-13
  -8.51396084         2.36778425E-13
  -8.39521122         2.40169863E-13
  -8.27646065         2.39980968E-13
  -8.15771103         2.35456294E-13
  -8.03896141         2.25898130E-13
  -7.92021084         2.10709298E-13
  -7.80146122         1.89436235E-13
  -7.68271112         1.61809734E-13
  -7.56396103         1.27780287E-13
  -7.44521093         8.75457272E-14
  -7.32646084         4.15680199E-14
  -7.20771122        -9.42235639E-15
  -7.08896112        -6.44365204E-14
  -6.97021103        -1.22252170E-13
  -6.85146093        -1.81453214E-13
  -6.73271084        -2.40482791E-13
  -6.61396122        -2.97707171E-13
  -6.49521112        -3.51487475E-13
  -6.37646103        -4.00254482E-13
  -6.25771093        -4.42582630E-13
  -6.13896084        -4.77257773E-13
  -6.02021122        -5.03334462E-13
  -5.90146112        -5.20177814E-13
  -5.78271103        -5.27487342E-13
  -5.66396093        -5.25300940E-13
  -5.54521084        -5.13976502E-13
  -5.42646122        -4.94154468E-13
  -5.30771112        -4.66701764E-13
  -5.18896103        -4.32641743E-13
  -5.07021093        -3.93074950E-13
  -4.95146084        -3.49096565E-13
  -4.83271122        -3.01716659E-13
  -4.71396112        -2.51789312E-13
  -4.59521103        -1.99956750E-13
  -4.47646093        -1.46612187E-13
  -4.35771084        -9.18851651E-14
  -4.23896122        -3.56506071E-14
  -4.12021112         2.24390276E-14
  -4.00146103         8.29008222E-14
  -3.88271117         1.46351952E-13
  -3.76396108         2.13429521E-13
  -3.64521098         2.84706042E-13
  -3.52646112         3.60608489E-13
  -3.40771103         4.41347696E-13
  -3.28896117         5.26864630E-13
  -3.17021108         6.16799472E-13
  -3.05146098         7.10486683E-13
  -2.93271112         8.06977803E-13
  -2.81396103         9.05091594E-13
  -2.69521117         1.00348820E-12
  -2.57646108         1.10076249E-12
  -2.45771098         1.19554984E-12
  -2.33896112         1.28663616E-12
  -2.22021103         1.37306290E-12
  -2.10146117         1.45421956E-12
  -1.98271108         1.52991400E-12
  -1.86396110         1.60041511E-12
  -1.74521101         1.66646254E-12
  -1.62646103         1.72924218E-12
  -1.50771105         1.79032603E-12
  -1.38896108         1.85158095E-12
  -1.27021110         1.91505232E-12
  -1.15146101         1.98282818E-12
  -1.03271103         2.05689610E-12
 -0.913961053         2.13900187E-12
 -0.795211077         2.23051807E-12
 -0.676461041         2.33233853E-12
 -0.557711065         2.44479935E-12
 -0.438961059         2.56763903E-12
 -0.320211053         2.69999799E-12
 -0.201461062         2.84045964E-12
  -8.27110559E-02     2.98712986E-12
   3.60389426E-02     3.13774939E-12
  0.154788941         3.28983433E-12
  0.273538947         3.44083009E-12
  0.392288953         3.58827269E-12
  0.511038959         3.72994474E-12
  0.629788935         3.86401111E-12
  0.748538971         3.98913281E-12
  0.867288947         4.10454353E-12
  0.986038923         4.21008801E-12
   1.10478890         4.30621988E-12
   1.22353899         4.39395785E-12
   1.34228897         4.47480681E-12
   1.46103895         4.55064935E-12
   1.57978892         4.62361486E-12
   1.69853890         4.69593765E-12
   1.81728899         4.76981432E-12
   1.93603897         4.84727189E-12
   2.05478883         4.93005419E-12
   2.17353892         5.01953383E-12
   2.29228902         5.11665666E-12
   2.41103888         5.22192185E-12
   2.52978897         5.33539359E-12
   2.64853883         5.45674486E-12
   2.76728892         5.58532647E-12
   2.88603902         5.72025543E-12
   3.00478888         5.86051173E-12
   3.12353897         6.00503718E-12
   3.24228883         6.15282434E-12
   3.36103892         6.30299025E-12
   3.47978902         6.45482886E-12
   3.59853888         6.60783841E-12
   3.71728897         6.76171879E-12
   3.83603883         6.91634597E-12
   3.95478892         7.07171995E-12
   4.07353878         7.22790100E-12
   4.19228888         7.38492861E-12
   4.31103897         7.54274334E-12
   4.42978907         7.70110972E-12
   4.54853916         7.85955676E-12
   4.66728878         8.01733246E-12
   4.78603888         8.17339339E-12
   4.90478897         8.32640640E-12
   5.02353907         8.47479552E-12
   5.14228916         8.61679998E-12
   5.26103878         8.75056364E-12
   5.37978888         8.87422948E-12
   5.49853897         8.98605235E-12
   5.61728907         9.08450485E-12
   5.73603916         9.16837266E-12
   5.85478878         9.23683872E-12
   5.97353888         9.28954049E-12
   6.09228897         9.32659939E-12
   6.21103907         9.34862084E-12
   6.32978916         9.35666909E-12
   6.44853878         9.35220304E-12
   6.56728888         9.33699645E-12
   6.68603897         9.31303298E-12
   6.80478907         9.28240384E-12
   6.92353916         9.24718982E-12
   7.04228878         9.20936504E-12
   7.16103888         9.17070066E-12
   7.27978897         9.13271108E-12
   7.39853907         9.09660802E-12
   7.51728916         9.06330132E-12
   7.63603878         9.03341551E-12
   7.75478888         9.00734869E-12
   7.87353897         8.98534198E-12
   7.99228907         8.96757581E-12
   8.11103916         8.95426875E-12
   8.22978878         8.94577641E-12
   8.34853935         8.94268340E-12
   8.46728897         8.94587356E-12
   8.58603859         8.95656986E-12
   8.70478916         8.97634571E-12
   8.82353878         9.00709628E-12
   8.94228935         9.05096918E-12
   9.06103897         9.11026549E-12
   9.17978859         9.18730630E-12
   9.29853916         9.28427127E-12
   9.41728878         9.40303824E-12
   9.53603935         9.54500715E-12
   9.65478897         9.71094039E-12
   9.77353859         9.90083016E-12
   9.89228916         1.01137935E-11
   10.0110388         1.03480072E-11
   10.1297894         1.06006948E-11
   10.2485390         1.08681709E-11
   10.3672886         1.11459323E-11
   10.4860392         1.14287989E-11
   10.6047888         1.17111069E-11
   10.7235394         1.19869279E-11
   10.8422890         1.22503136E-11
   10.9610386         1.24955506E-11
   11.0797892         1.27174096E-11
   11.1985388         1.29113760E-11
   11.3172894         1.30738484E-11
   11.4360390         1.32023004E-11
   11.5547886         1.32953891E-11
   11.6735392         1.33530019E-11
   11.7922888         1.33762602E-11
   11.9110394         1.33674599E-11
   12.0297890         1.33299526E-11
   12.1485386         1.32679995E-11
   12.2672892         1.31865716E-11
   12.3860388         1.30911375E-11
   12.5047894         1.29874340E-11
   12.6235390         1.28812438E-11
   12.7422886         1.27781648E-11
   12.8610392         1.26834255E-11
   12.9797888         1.26017122E-11
   13.0985394         1.25370330E-11
   13.2172890         1.24926285E-11
   13.3360386         1.24709175E-11
   13.4547892         1.24734832E-11
   13.5735388         1.25011017E-11
   13.6922894         1.25537957E-11
   13.8110390         1.26309319E-11
   13.9297886         1.27313221E-11
   14.0485392         1.28533547E-11
   14.1672888         1.29951345E-11
   14.2860394         1.31546076E-11
   14.4047890         1.33296933E-11
   14.5235386         1.35183878E-11
   14.6422892         1.37188602E-11
   14.7610388         1.39295112E-11
   14.8797894         1.41489979E-11
   14.9985390         1.43762380E-11
   15.1172886         1.46103581E-11
   15.2360392         1.48506242E-11
   15.3547888         1.50963235E-11
   15.4735394         1.53466215E-11
   15.5922890         1.56003960E-11
   15.7110386         1.58560508E-11
   15.8297892         1.61113310E-11
   15.9485388         1.63631383E-11
   16.0672894         1.66073735E-11
   16.1860390         1.68388185E-11
   16.3047886         1.70510550E-11
   16.4235382         1.72364553E-11
   16.5422897         1.73862418E-11
   16.6610394         1.74906201E-11
   16.7797890         1.75389807E-11
   16.8985386         1.75201936E-11
   17.0172882         1.74229416E-11
   17.1360397         1.72361396E-11
   17.2547894         1.69493516E-11
   17.3735390         1.65532362E-11
   17.4922886         1.60399732E-11
   17.6110382         1.54036263E-11
   17.7297897         1.46404729E-11
   17.8485394         1.37491910E-11
   17.9672890         1.27309613E-11
   18.0860386         1.15894221E-11
   18.2047882         1.03304891E-11
   18.3235397         8.96205072E-12
   18.4422894         7.49352143E-12
   18.5610390         5.93532081E-12
   18.6797886         4.29826010E-12
   18.7985382         2.59289985E-12
   18.9172897         8.28888499E-13
   19.0360394        -9.85618705E-13
   19.1547890        -2.84447639E-12
   19.2735386        -4.74395306E-12
   19.3922882        -6.68294500E-12
   19.5110397        -8.66305378E-12
   19.6297894        -1.06884432E-11
   19.7485390        -1.27655516E-11
   19.8672886        -1.49026069E-11
   19.9860382        -1.71090069E-11
   20.1047897        -1.93946161E-11
   20.2235394        -2.17689755E-11
   20.3422890        -2.42405453E-11
   20.4610386        -2.68159800E-11
   20.5797882        -2.94995174E-11
   20.6985397        -3.22924985E-11
   20.8172894        -3.51931088E-11
   20.9360390        -3.81963211E-11
   21.0547886        -4.12940238E-11
   21.1735382        -4.44754303E-11
   21.2922897        -4.77276239E-11
   21.4110394        -5.10363383E-11
   21.5297890        -5.43867625E-11
   21.6485386        -5.77645015E-11
   21.7672882        -6.11564549E-11
   21.8860397        -6.45516626E-11
   22.0047894        -6.79420756E-11
   22.1235390        -7.13230447E-11
   22.2422886        -7.46937096E-11
   22.3610382        -7.80570608E-11
   22.4797897        -8.14198431E-11
   22.5985394        -8.47921455E-11
   22.7172890        -8.81868398E-11
   22.8360386        -9.16188445E-11
   22.9547882        -9.51042509E-11
   23.0735397        -9.86594348E-11
   23.1922894        -1.02300182E-10
   23.3110390        -1.06040850E-10
   23.4297886        -1.09893740E-10
   23.5485382        -1.13868623E-10
   23.6672897        -1.17972396E-10
   23.7860394        -1.22209159E-10
   23.9047890        -1.26580316E-10
   24.0235386        -1.31085004E-10
   24.1422882        -1.35720685E-10
   24.2610397        -1.40483847E-10
   24.3797894        -1.45370757E-10
   24.4985390        -1.50378238E-10
   24.6172886        -1.55504359E-10
   24.7360382        -1.60748984E-10
   24.8547897        -1.66114192E-10
   24.9735394        -1.71604397E-10
   25.0922890        -1.77226372E-10
   25.2110386        -1.82988832E-10
   25.3297882        -1.88902061E-10
   25.4485397        -1.94977118E-10
   25.5672894        -2.01225120E-10
   25.6860390        -2.07656226E-10
   25.8047886        -2.14278859E-10
   25.9235382        -2.21098778E-10
   26.0422897        -2.28118371E-10
   26.1610394        -2.35336223E-10
   26.2797890        -2.42746712E-10
   26.3985386        -2.50340054E-10
   26.5172882        -2.58102512E-10
   26.6360397        -2.66016820E-10
   26.7547894        -2.74062883E-10
   26.8735390        -2.82218693E-10
   26.9922886        -2.90461238E-10
   27.1110382        -2.98767538E-10
   27.2297897        -3.07115638E-10
   27.3485394        -3.15485443E-10
   27.4672890        -3.23859523E-10
   27.5860386        -3.32223693E-10
   27.7047882        -3.40567213E-10
   27.8235397        -3.48882978E-10
   27.9422894        -3.57167240E-10
   28.0610390        -3.65419195E-10
   28.1797886        -3.73640480E-10
   28.2985382        -3.81834425E-10
   28.4172897        -3.90005223E-10
   28.5360394        -3.98157174E-10
   28.6547890        -4.06294109E-10
   28.7735386        -4.14418500E-10
   28.8922882        -4.22531232E-10
   29.0110397        -4.30631281E-10
   29.1297894        -4.38715758E-10
   29.2485390        -4.46779946E-10
   29.3672886        -4.54817933E-10
   29.4860382        -4.62822780E-10
   29.6047897        -4.70787465E-10
   29.7235394        -4.78705353E-10
   29.8422890        -4.86571061E-10
   29.9610386        -4.94380814E-10
   30.0797882        -5.02133168E-10
   30.1985397        -5.09829123E-10
   30.3172894        -5.17472343E-10
   30.4360390        -5.25068822E-10
   30.5547886        -5.32626609E-10
   30.6735382        -5.40155254E-10
   30.7922897        -5.47664969E-10
   30.9110394        -5.55166024E-10
   31.0297890        -5.62667302E-10
   31.1485386        -5.70176129E-10
   31.2672882        -5.77696613E-10
   31.3860397        -5.85229420E-10
   31.5047894        -5.92771165E-10
   31.6235390        -6.00313799E-10
   31.7422886        -6.07844886E-10
   31.8610382        -6.15347440E-10
   31.9797897        -6.22800422E-10
   32.0985374        -6.30179353E-10
   32.2172890        -6.37457198E-10
   32.3360405        -6.44605314E-10
   32.4547882        -6.51594223E-10
   32.5735397        -6.58394950E-10
   32.6922874        -6.64979738E-10
   32.8110390        -6.71323164E-10
   32.9297905        -6.77402745E-10
   33.0485382        -6.83199441E-10
   33.1672897        -6.88698432E-10
   33.2860374        -6.93888780E-10
   33.4047890        -6.98763936E-10
   33.5235405        -7.03321013E-10
   33.6422882        -7.07560899E-10
   33.7610397        -7.11487480E-10
   33.8797874        -7.15107029E-10
   33.9985390        -7.18427762E-10
   34.1172905        -7.21458837E-10
   34.2360382        -7.24210025E-10
   34.3547897        -7.26690763E-10
   34.4735374        -7.28909766E-10
   34.5922890        -7.30874139E-10
   34.7110405        -7.32589378E-10
   34.8297882        -7.34058536E-10
   34.9485397        -7.35282280E-10
   35.0672874        -7.36258443E-10
   35.1860390        -7.36981975E-10
   35.3047905        -7.37444994E-10
   35.4235382        -7.37636452E-10
   35.5422897        -7.37542527E-10
   35.6610374        -7.37146899E-10
   35.7797890        -7.36430750E-10
   35.8985405        -7.35373207E-10
   36.0172882        -7.33952121E-10
   36.1360397        -7.32144068E-10
   36.2547874        -7.29925120E-10
   36.3735390        -7.27271687E-10
   36.4922905        -7.24160676E-10
   36.6110382        -7.20570492E-10
   36.7297897        -7.16481152E-10
   36.8485374        -7.11874892E-10
   36.9672890        -7.06736558E-10
   37.0860405        -7.01053493E-10
   37.2047882        -6.94815538E-10
   37.3235397        -6.88014701E-10
   37.4422874        -6.80644818E-10
   37.5610390        -6.72700673E-10
   37.6797905        -6.64177380E-10
   37.7985382        -6.55069166E-10
   37.9172897        -6.45368703E-10
   38.0360374        -6.35065889E-10
   38.1547890        -6.24147345E-10
   38.2735405        -6.12595419E-10
   38.3922882        -6.00387851E-10
   38.5110397        -5.87497606E-10
   38.6297874        -5.73892989E-10
   38.7485390        -5.59538027E-10
   38.8672905        -5.44393808E-10
   38.9860382        -5.28418864E-10
   39.1047897        -5.11571230E-10
   39.2235374        -4.93809604E-10
   39.3422890        -4.75095185E-10
   39.4610405        -4.55393390E-10
   39.5797882        -4.34675240E-10
   39.6985397        -4.12918727E-10
   39.8172874        -3.90110055E-10
   39.9360390        -3.66243924E-10
   40.0547905        -3.41323803E-10
   40.1735382        -3.15361987E-10
   40.2922897        -2.88378488E-10
   40.4110374        -2.60400285E-10
   40.5297890        -2.31459601E-10
   40.6485405        -2.01592368E-10
   40.7672882        -1.70836109E-10
   40.8860397        -1.39228101E-10
   41.0047874        -1.06803469E-10
   41.1235390        -7.35932981E-11
   41.2422905        -3.96231971E-11
   41.3610382        -4.91219045E-12
   41.4797897         3.05281252E-11
   41.5985374         6.66938171E-11
   41.7172890         1.03588513E-10
   41.8360405         1.41222936E-10
   41.9547882         1.79614351E-10
   42.0735397         2.18785212E-10
   42.1922874         2.58762484E-10
   42.3110390         2.99576336E-10
   42.4297905         3.41258799E-10
   42.5485382         3.83842957E-10
   42.6672897         4.27361618E-10
   42.7860374         4.71847228E-10
   42.9047890         5.17331178E-10
   43.0235405         5.63843472E-10
   43.1422882         6.11413031E-10
   43.2610397         6.60067445E-10
   43.3797874         7.09833803E-10
   43.4985390         7.60738583E-10
   43.6172905         8.12807877E-10
   43.7360382         8.66067551E-10
   43.8547897         9.20543364E-10
   43.9735374         9.76259740E-10
   44.0922890         1.03324005E-09
   44.2110405         1.09150455E-09
   44.3297882         1.15107024E-09
   44.4485397         1.21194899E-09
   44.5672874         1.27414723E-09
   44.6860390         1.33766398E-09
   44.8047905         1.40249024E-09
   44.9235382         1.46860812E-09
   45.0422897         1.53598934E-09
   45.1610374         1.60459646E-09
   45.2797890         1.67438197E-09
   45.3985405         1.74528958E-09
   45.5172882         1.81725512E-09
   45.6360397         1.89020843E-09
   45.7547874         1.96407490E-09
   45.8735390         2.03877737E-09
   45.9922905         2.11423901E-09
   46.1110382         2.19038454E-09
   46.2297897         2.26714181E-09
   46.3485374         2.34444397E-09
   46.4672890         2.42223064E-09
   46.5860405         2.50044829E-09
   46.7047882         2.57905119E-09
   46.8235397         2.65800093E-09
   46.9422874         2.73726597E-09
   47.0610390         2.81682144E-09
   47.1797905         2.89664737E-09
   47.2985382         2.97672775E-09
   47.4172897         3.05704839E-09
   47.5360374         3.13759685E-09
   47.6547890         3.21836024E-09
   47.7735405         3.29932526E-09
   47.8922882         3.38047701E-09
   48.0110397         3.46179907E-09
   48.1297874         3.54327434E-09
   48.2485390         3.62488550E-09
   48.3672905         3.70661524E-09
   48.4860382         3.78844733E-09
   48.6047897         3.87036803E-09
   48.7235374         3.95236732E-09
   48.8422890         4.03443989E-09
   48.9610405         4.11658441E-09
   49.0797882         4.19880619E-09
   49.1985397         4.28111635E-09
   49.3172874         4.36353087E-09
   49.4360390         4.44606973E-09
   49.5547905         4.52875737E-09
   49.6735382         4.61161820E-09
   49.7922897         4.69467709E-09
   49.9110374         4.77795448E-09
   50.0297890         4.86146767E-09
   50.1485405         4.94522379E-09
   50.2672882         5.02922193E-09
   50.3860397         5.11344922E-09
   50.5047874         5.19787990E-09
   50.6235390         5.28247357E-09
   50.7422905         5.36717559E-09
   50.8610382         5.45191581E-09
   50.9797897         5.53661073E-09
   51.0985374         5.62116220E-09
   51.2172890         5.70545966E-09
   51.3360405         5.78938408E-09
   51.4547882         5.87280580E-09
   51.5735397         5.95559024E-09
   51.6922874         6.03760064E-09
   51.8110390         6.11869710E-09
   51.9297905         6.19874374E-09
   52.0485382         6.27760688E-09
   52.1672897         6.35515995E-09
   52.2860374         6.43128306E-09
   52.4047890         6.50586740E-09
   52.5235405         6.57881261E-09
   52.6422882         6.65003208E-09
   52.7610397         6.71945033E-09
   52.8797874         6.78700562E-09
   52.9985390         6.85264778E-09
   53.1172905         6.91633861E-09
   53.2360382         6.97805191E-09
   53.3547897         7.03777259E-09
   53.4735374         7.09549219E-09
   53.5922890         7.15121296E-09
   53.7110405         7.20494153E-09
   53.8297882         7.25668992E-09
   53.9485397         7.30647232E-09
   54.0672874         7.35430339E-09
   54.1860390         7.40019912E-09
   54.3047905         7.44417106E-09
   54.4235382         7.48622764E-09
   54.5422897         7.52637241E-09
   54.6610374         7.56460228E-09
   54.7797890         7.60090657E-09
   54.8985405         7.63527019E-09
   55.0172882         7.66766650E-09
   55.1360397         7.69806618E-09
   55.2547874         7.72643016E-09
   55.3735390         7.75271580E-09
   55.4922905         7.77687337E-09
   55.6110382         7.79885134E-09
   55.7297897         7.81859200E-09
   55.8485374         7.83603671E-09
   55.9672890         7.85112420E-09
   56.0860405         7.86379051E-09
   56.2047882         7.87397081E-09
   56.3235397         7.88159848E-09
   56.4422874         7.88660515E-09
   56.5610390         7.88892152E-09
   56.6797905         7.88847210E-09
   56.7985382         7.88518317E-09
   56.9172897         7.87897214E-09
   57.0360374         7.86975463E-09
   57.1547890         7.85743914E-09
   57.2735405         7.84193244E-09
   57.3922882         7.82313414E-09
   57.5110397         7.80094211E-09
   57.6297874         7.77525422E-09
   57.7485390         7.74596565E-09
   57.8672905         7.71297515E-09
   57.9860382         7.67618413E-09
   58.1047897         7.63550112E-09
   58.2235374         7.59084351E-09