  -75.1732025         0.00000000    
  -75.0581970         0.00000000    
  -74.9431992         0.00000000    
  -74.8282013         0.00000000    
  -74.7132034         0.00000000    
  -74.5981979         0.00000000    
  -74.4832001         8.35041771E-30
  -74.3682022         1.01463057E-28
  -74.2531967         6.59555221E-28
  -74.1381989         3.04431823E-27
  -74.0232010         1.11869859E-26
  -73.9082031         3.48112639E-26
  -73.7931976         9.53026557E-26
  -73.6781998         2.35516839E-25
  -73.5632019         5.34991858E-25
  -73.4481964         1.13188741E-24
  -73.3331985         2.25220262E-24
  -73.2182007         4.24504434E-24
  -73.1032028         7.61966270E-24
  -72.9881973         1.30757276E-23
  -72.8731995         2.15135921E-23
  -72.7582016         3.40074434E-23
  -72.6432037         5.17233976E-23
  -72.5281982         7.57685627E-23
  -72.4132004         1.06967822E-22
  -72.2982025         1.45581718E-22
  -72.1831970         1.91000340E-22
  -72.0681992         2.41468531E-22
  -71.9532013         2.93913241E-22
  -71.8382034         3.43945223E-22
  -71.7231979         3.86092433E-22
  -71.6082001         4.14287053E-22
  -71.4932022         4.22576050E-22
  -71.3781967         4.05963851E-22
  -71.2631989         3.61236322E-22
  -71.1482010         2.87571228E-22
  -71.0332031         1.86727983E-22
  -70.9181976         6.26369001E-23
  -70.8031998        -7.97188184E-23
  -70.6882019        -2.36117782E-22
  -70.5731964        -4.05454942E-22
  -70.4581985        -5.92321095E-22
  -70.3432007        -8.09353669E-22
  -70.2282028        -1.07881447E-21
  -70.1131973        -1.43283798E-21
  -69.9981995        -1.91188480E-21
  -69.8832016        -2.56113131E-21
  -69.7682037        -3.42482904E-21
  -69.6531982        -4.53903729E-21
  -69.5382004        -5.92352195E-21
  -69.4232025        -7.57396134E-21
  -69.3081970        -9.45581662E-21
  -69.1931992        -1.15012913E-20
  -69.0782013        -1.36105914E-20
  -68.9632034        -1.56583044E-20
  -68.8481979        -1.75050578E-20
  -68.7332001        -1.90137981E-20
  -68.6182022        -2.00692370E-20
  -68.5031967        -2.05981608E-20
  -68.3881989        -2.05877597E-20
  -68.2732010        -2.00988636E-20
  -68.1582031        -1.92711046E-20
  -68.0431976        -1.83176481E-20
  -67.9281998        -1.75082276E-20
  -67.8132019        -1.71406589E-20
  -67.6981964        -1.75027831E-20
  -67.5831985        -1.88285856E-20
  -67.4682007        -2.12539680E-20
  -67.3532028        -2.47789287E-20
  -67.2381973        -2.92434487E-20
  -67.1231995        -3.43240954E-20
  -67.0082016        -3.95566978E-20
  -66.8932037        -4.43877395E-20
  -66.7781982        -4.82529574E-20
  -66.6632004        -5.06767549E-20
  -66.5482025        -5.13806178E-20
  -66.4331970        -5.03839556E-20
  -66.3181992        -4.80771880E-20
  -66.2032013        -4.52461397E-20
  -66.0882034        -4.30293700E-20
  -65.9731979        -4.27968644E-20
  -65.8582001        -4.59493854E-20
  -65.7432022        -5.36522464E-20
  -65.6281967        -6.65331287E-20
  -65.5131989        -8.43889338E-20
  -65.3982010        -1.05958121E-19
  -65.2832031        -1.28819060E-19
  -65.1681976        -1.49469986E-19
  -65.0531998        -1.63628578E-19
  -64.9382019        -1.66761886E-19
  -64.8231964        -1.54818975E-19
  -64.7081985        -1.25096967E-19
  -64.5932007        -7.71289570E-20
  -64.4782028        -1.34497039E-20
  -64.3631973         5.99237101E-20
  -64.2481995         1.33453973E-19
  -64.1332016         1.94617103E-19
  -64.0182037         2.29078158E-19
  -63.9031982         2.22499617E-19
  -63.7882004         1.62873465E-19
  -63.6731987         4.31623878E-20
  -63.5582008        -1.36062810E-19
  -63.4431992        -3.64382236E-19
  -63.3282013        -6.20114816E-19
  -63.2131996        -8.70160814E-19
  -63.0982018        -1.07145677E-18
  -62.9832001        -1.17426860E-18
  -62.8681984        -1.12735701E-18
  -62.7532005        -8.84803048E-19
  -62.6381989        -4.14007231E-19
  -62.5232010         2.95908742E-19
  -62.4081993         1.22631718E-18
  -62.2932014         2.32311731E-18
  -62.1781998         3.49386408E-18
  -62.0632019         4.60918851E-18
  -61.9482002         5.50946170E-18
  -61.8331985         6.01721701E-18
  -61.7182007         5.95524215E-18
  -61.6031990         5.16948385E-18
  -61.4882011         3.55510688E-18
  -61.3731995         1.08320304E-18
  -61.2582016        -2.17503399E-18
  -61.1431999        -6.03035098E-18
  -61.0281982        -1.01674493E-17
  -60.9132004        -1.41504398E-17
  -60.7981987        -1.74443391E-17
  -60.6832008        -1.94538636E-17
  -60.5681992        -1.95789234E-17
  -60.4532013        -1.72841076E-17
  -60.3381996        -1.21770747E-17
  -60.2232018        -4.08859247E-18
  -60.1082001         6.85488130E-18
  -59.9931984         2.01762421E-17
  -59.8782005         3.50207956E-17
  -59.7631989         5.01665553E-17
  -59.6482010         6.40786777E-17
  -59.5331993         7.50112327E-17
  -59.4182014         8.11546502E-17
  -59.3031998         8.08217067E-17
  -59.1882019         7.26589163E-17
  -59.0732002         5.58647345E-17
  -58.9581985         3.03915455E-17
  -58.8432007        -2.89430910E-18
  -58.7281990        -4.21205132E-17
  -58.6132011        -8.44082030E-17
  -58.4981995        -1.25980547E-16
  -58.3832016        -1.62389424E-16
  -58.2681999        -1.88858092E-16
  -58.1531982        -2.00724415E-16
  -58.0382004        -1.93955457E-16
  -57.9231987        -1.65691741E-16
  -57.8082008        -1.14768438E-16
  -57.6931992        -4.21545534E-17
  -57.5782013         4.87511070E-17
  -57.4631996         1.52022694E-16
  -57.3482018         2.59353362E-16
  -57.2332001         3.60471255E-16
  -57.1181984         4.43827794E-16
  -57.0032005         4.97533283E-16
  -56.8881989         5.10485423E-16
  -56.7732010         4.73607196E-16
  -56.6581993         3.81087640E-16
  -56.5432014         2.31500616E-16
  -56.4281998         2.86710363E-17
  -56.3132019        -2.17836717E-16
  -56.1982002        -4.92714407E-16
  -56.0831985        -7.75463269E-16
  -55.9682007        -1.04153501E-15
  -55.8531990        -1.26403595E-15
  -55.7382011        -1.41591065E-15
  -55.6231995        -1.47246609E-15
  -55.5082016        -1.41403956E-15
  -55.3931999        -1.22857851E-15
  -55.2781982        -9.13873270E-16
  -55.1632004        -4.79183849E-16
  -55.0481987         5.39742265E-17
  -54.9332008         6.52073491E-16
  -54.8181992         1.27096330E-15
  -54.7032013         1.85842417E-15
  -54.5881996         2.35780875E-15
  -54.4732018         2.71257749E-15
  -54.3582001         2.87143153E-15
  -54.2431984         2.79365569E-15
  -54.1282005         2.45422354E-15
  -54.0131989         1.84817952E-15
  -53.8982010         9.93825451E-16
  -53.7831993        -6.57098316E-17
  -53.6682014        -1.26284269E-15
  -53.5531998        -2.50804296E-15
  -53.4382019        -3.69451165E-15
  -53.3232002        -4.70486822E-15
  -53.2081985        -5.41952135E-15
  -53.0932007        -5.72620319E-15
  -52.9781990        -5.53000367E-15
  -52.8632011        -4.76316061E-15
  -52.7481995        -3.39376752E-15
  -52.6332016        -1.43263458E-15
  -52.5181999         1.06244137E-15
  -52.4031982         3.98554921E-15
  -52.2882004         7.18504337E-15
  -52.1731987         1.04695559E-14
  -52.0582008         1.36174776E-14
  -51.9431992         1.63894726E-14
  -51.8282013         1.85433232E-14
  -51.7131996         1.98501985E-14
  -51.5982018         2.01112574E-14
  -51.4832001         1.91734107E-14
  -51.3681984         1.69430882E-14
  -51.2532005         1.33969314E-14
  -51.1381989         8.58848972E-15
  -51.0232010         2.65030320E-15
  -50.9081993        -4.20899227E-15
  -50.7932014        -1.17125429E-14
  -50.6781998        -1.95277585E-14
  -50.5632019        -2.72827330E-14
  -50.4482002        -3.45856021E-14
  -50.3331985        -4.10456445E-14
  -50.2182007        -4.62947653E-14
  -50.1031990        -5.00080154E-14
  -49.9882011        -5.19217509E-14
  -49.8731995        -5.18483572E-14
  -49.7582016        -4.96864987E-14
  -49.6431999        -4.54263668E-14
  -49.5281982        -3.91495545E-14
  -49.4132004        -3.10237066E-14
  -49.2981987        -2.12922975E-14
  -49.1832008        -1.02603244E-14
  -49.0681992         1.72312590E-15
  -48.9532013         1.42843094E-14
  -48.8381996         2.70449997E-14
  -48.7232018         3.96421787E-14
  -48.6082001         5.17461203E-14
  -48.4931984         6.30758805E-14
  -48.3782005         7.34114036E-14
  -48.2631989         8.26017721E-14
  -48.1482010         9.05692554E-14
  -48.0331993         9.73092931E-14
  -47.9182014         1.02886449E-13
  -47.8031998         1.07426851E-13
  -47.6882019         1.11107561E-13
  -47.5732002         1.14143612E-13
  -47.4581985         1.16773209E-13
  -47.3432007         1.19241856E-13
  -47.2281990         1.21785936E-13
  -47.1132011         1.24616409E-13
  -46.9981995         1.27903208E-13
  -46.8832016         1.31760569E-13
  -46.7681999         1.36234204E-13
  -46.6531982         1.41290381E-13
  -46.5382004         1.46807750E-13
  -46.4231987         1.52572182E-13
  -46.3082008         1.58275303E-13
  -46.1931992         1.63517122E-13
  -46.0782013         1.67813300E-13
  -45.9631996         1.70607316E-13
  -45.8482018         1.71287748E-13
  -45.7332001         1.69210606E-13
  -45.6181984         1.63726305E-13
  -45.5032005         1.54210805E-13
  -45.3881989         1.40099426E-13
  -45.2732010         1.20922356E-13
  -45.1581993         9.63399757E-14
  -45.0432014         6.61757636E-14
  -44.9281998         3.04450001E-14
  -44.8132019        -1.06231205E-14
  -44.6982002        -5.65719516E-14
  -44.5831985        -1.06714117E-13
  -44.4682007        -1.60139697E-13
  -44.3531990        -2.15736635E-13
  -44.2382011        -2.72223108E-13
  -44.1231995        -3.28190817E-13
  -44.0082016        -3.82158308E-13
  -43.8931999        -4.32630440E-13
  -43.7781982        -4.78162215E-13
  -43.6632004        -5.17422802E-13
  -43.5481987        -5.49255736E-13
  -43.4332008        -5.72731858E-13
  -43.3181992        -5.87191049E-13
  -43.2032013        -5.92270211E-13
  -43.0881996        -5.87914916E-13
  -42.9732018        -5.74373502E-13
  -42.8582001        -5.52173975E-13
  -42.7431984        -5.22084492E-13
  -42.6282005        -4.85059800E-13
  -42.5131989        -4.42177572E-13
  -42.3982010        -3.94567544E-13
  -42.2831993        -3.43340075E-13
  -42.1682014        -2.89517542E-13
  -42.0531998        -2.33974380E-13
  -41.9382019        -1.77389909E-13
  -41.8232002        -1.20217543E-13
  -41.7081985        -6.26726657E-14
  -41.5932007        -4.74027801E-15
  -41.4781990         5.37979221E-14
  -41.3632011         1.13319239E-13
  -41.2481995         1.74301573E-13
  -41.1332016         2.37255365E-13
  -41.0181999         3.02651513E-13
  -40.9031982         3.70851055E-13
  -40.7882004         4.42042101E-13
  -40.6731987         5.16189847E-13
  -40.5582008         5.93004378E-13
  -40.4431992         6.71929201E-13
  -40.3282013         7.52152572E-13
  -40.2131996         8.32641681E-13
  -40.0982018         9.12197943E-13
  -39.9832001         9.89530072E-13
  -39.8681984         1.06333985E-12
  -39.7532005         1.13241502E-12
  -39.6381989         1.19572104E-12
  -39.5232010         1.25248683E-12
  -39.4081993         1.30227545E-12
  -39.2932014         1.34503487E-12
  -39.1781998         1.38112373E-12
  -39.0632019         1.41130965E-12
  -38.9482002         1.43673734E-12
  -38.8331985         1.45887003E-12
  -38.7182007         1.47940471E-12
  -38.6031990         1.50016794E-12
  -38.4882011         1.52299842E-12
  -38.3731995         1.54962382E-12
  -38.2582016         1.58153937E-12
  -38.1431999         1.61989953E-12
  -38.0281982         1.66542734E-12
  -37.9132004         1.71834910E-12
  -37.7981987         1.77836099E-12
  -37.6832008         1.84462840E-12
  -37.5681992         1.91582037E-12
  -37.4532013         1.99017539E-12
  -37.3381996         2.06559769E-12
  -37.2232018         2.13977338E-12
  -37.1082001         2.21030507E-12
  -36.9931984         2.27485023E-12
  -36.8782005         2.33125650E-12
  -36.7631989         2.37768767E-12
  -36.6482010         2.41272714E-12
  -36.5331993         2.43545527E-12
  -36.4182014         2.44549650E-12
  -36.3031998         2.44303015E-12
  -36.1882019         2.42876682E-12
  -36.0732002         2.40389457E-12
  -35.9581985         2.36999331E-12
  -35.8432007         2.32893088E-12
  -35.7281990         2.28274149E-12
  -35.6132011         2.23350071E-12
  -35.4981995         2.18320219E-12
  -35.3832016         2.13364569E-12
  -35.2681999         2.08634217E-12
  -35.1531982         2.04244586E-12
  -35.0382004         2.00271006E-12
  -34.9231987         1.96747588E-12
  -34.8082008         1.93668736E-12
  -34.6931992         1.90993380E-12
  -34.5782013         1.88651156E-12
  -34.4631996         1.86550406E-12
  -34.3482018         1.84586678E-12
  -34.2332001         1.82651572E-12
  -34.1181984         1.80640778E-12
  -34.0032005         1.78460914E-12
  -33.8881989         1.76034588E-12
  -33.7732010         1.73303234E-12
  -33.6581993         1.70227753E-12
  -33.5432014         1.66786853E-12
  -33.4281998         1.62973346E-12
  -33.3132019         1.58788846E-12
  -33.1982002         1.54237322E-12
  -33.0831985         1.49318351E-12
  -32.9682007         1.44020375E-12
  -32.8531990         1.38314935E-12
  -32.7382011         1.32152351E-12
  -32.6231995         1.25459116E-12
  -32.5082016         1.18137650E-12
  -32.3931999         1.10068183E-12
  -32.2781982         1.01113128E-12
  -32.1632004         9.11231594E-13
  -32.0481987         7.99450567E-13
  -31.9332008         6.74305121E-13
  -31.8181992         5.34454263E-13
  -31.7031994         3.78787659E-13
  -31.5881996         2.06508191E-13
  -31.4731998         1.71933492E-14
  -31.3582001        -1.89158002E-13
  -31.2432003        -4.12106005E-13
  -31.1282005        -6.50774844E-13
  -31.0132008        -9.03885419E-13
  -30.8981991        -1.16980601E-12
  -30.7831993        -1.44662938E-12
  -30.6681995        -1.73226028E-12
  -30.5531998        -2.02451012E-12
  -30.4382000        -2.32119640E-12
  -30.3232002        -2.62023367E-12
  -30.2082005        -2.91971243E-12
  -30.0932007        -3.21796170E-12
  -29.9782009        -3.51358482E-12
  -29.8631992        -3.80547460E-12
  -29.7481995        -4.09280249E-12
  -29.6331997        -4.37497911E-12
  -29.5181999        -4.65159855E-12
  -29.4032001        -4.92236200E-12
  -29.2882004        -5.18699406E-12
  -29.1732006        -5.44515735E-12
  -29.0582008        -5.69636872E-12
  -28.9431992        -5.93993041E-12
  -28.8281994        -6.17488135E-12
  -28.7131996        -6.39997473E-12
  -28.5981998        -6.61367966E-12
  -28.4832001        -6.81422020E-12
  -28.3682003        -6.99963958E-12
  -28.2532005        -7.16789605E-12
  -28.1382008        -7.31697775E-12
  -28.0231991        -7.44503764E-12
  -27.9081993        -7.55053398E-12
  -27.7931995        -7.63237390E-12
  -27.6781998        -7.69003698E-12
  -27.5632000        -7.72368801E-12
  -27.4482002        -7.73425334E-12
  -27.3332005        -7.72346683E-12
  -27.2182007        -7.69386811E-12
  -27.1032009        -7.64876270E-12
  -26.9881992        -7.59213525E-12
  -26.8731995        -7.52852208E-12
  -26.7581997        -7.46285065E-12
  -26.6431999        -7.40024361E-12
  -26.5282001        -7.34581666E-12
  -26.4132004        -7.30445392E-12
  -26.2982006        -7.28059713E-12
  -26.1832008        -7.27804362E-12
  -26.0681992        -7.29977363E-12
  -25.9531994        -7.34780119E-12
  -25.8381996        -7.42308211E-12
  -25.7231998        -7.52545335E-12
  -25.6082001        -7.65362947E-12
  -25.4932003        -7.80524603E-12
  -25.3782005        -7.97694376E-12
  -25.2632008        -8.16450206E-12
  -25.1481991        -8.36299346E-12
  -25.0331993        -8.56697352E-12
  -24.9181995        -8.77067950E-12
  -24.8031998        -8.96823067E-12
  -24.6882000        -9.15383741E-12
  -24.5732002        -9.32197809E-12
  -24.4582005        -9.46757343E-12
  -24.3432007        -9.58611662E-12
  -24.2282009        -9.67378521E-12
  -24.1131992        -9.72750873E-12
  -23.9981995        -9.74500775E-12
  -23.8831997        -9.72478608E-12
  -23.7681999        -9.66610385E-12
  -23.6532001        -9.56891684E-12
  -23.5382004        -9.43378622E-12
  -23.4232006        -9.26178145E-12
  -23.3082008        -9.05436056E-12
  -23.1931992        -8.81325568E-12
  -23.0781994        -8.54034638E-12
  -22.9631996        -8.23755300E-12
  -22.8481998        -7.90672649E-12
  -22.7332001        -7.54957295E-12
  -22.6182003        -7.16759204E-12
  -22.5032005        -6.76203668E-12
  -22.3882008        -6.33391169E-12
  -22.2731991        -5.88399511E-12
  -22.1581993        -5.41289799E-12
  -22.0431995        -4.92114162E-12
  -21.9281998        -4.40927026E-12
  -21.8132000        -3.87797823E-12
  -21.6982002        -3.32825347E-12
  -21.5832005        -2.76153167E-12
  -21.4682007        -2.17984181E-12
  -21.3532009        -1.58594524E-12
  -21.2381992        -9.83445964E-13
  -21.1231995        -3.76873798E-13
  -21.0081997         2.28278442E-13
  -20.8931999         8.25572575E-13
  -20.7782001         1.40769959E-12
  -20.6632004         1.96661350E-12
  -20.5482006         2.49372918E-12
  -20.4332008         2.98018099E-12
  -20.3181992         3.41712249E-12
  -20.2031994         3.79607196E-12
  -20.0881996         4.10927108E-12
  -19.9731998         4.35005070E-12
  -19.8582001         4.51317759E-12
  -19.7432003         4.59515976E-12
  -19.6282005         4.59449492E-12
  -19.5132008         4.51183622E-12
  -19.3981991         4.35006328E-12
  -19.2831993         4.11424497E-12
  -19.1681995         3.81149279E-12
  -19.0531998         3.45069980E-12
  -18.9382000         3.04217871E-12
  -18.8232002         2.59721259E-12
  -18.7082005         2.12754033E-12
  -18.5932007         1.64480560E-12
  -18.4782009         1.15999560E-12
  -18.3631992         6.82914120E-13
  -18.2481995         2.21709275E-13
  -18.1331997        -2.17504224E-13
  -18.0181999        -6.30908140E-13
  -17.9032001        -1.01710231E-12
  -17.7882004        -1.37707836E-12
  -17.6732006        -1.71403798E-12
  -17.5582008        -2.03306469E-12
  -17.4431992        -2.34066933E-12
  -17.3281994        -2.64422295E-12
  -17.2131996        -2.95132690E-12
  -17.0981998        -3.26914862E-12
  -16.9832001        -3.60376486E-12
  -16.8682003        -3.95956878E-12
  -16.7532005        -4.33876633E-12
  -16.6382008        -4.74101010E-12
  -16.5231991        -5.16319062E-12
  -16.4081993        -5.59941069E-12
  -16.2931995        -6.04113677E-12
  -16.1781998        -6.47754029E-12
  -16.0632000        -6.89599463E-12
  -15.9482002        -7.28271089E-12
  -15.8332005        -7.62347043E-12
  -15.7181997        -7.90440803E-12
  -15.6032000        -8.11279949E-12
  -15.4882002        -8.23780454E-12
  -15.3732004        -8.27110689E-12
  -15.2581997        -8.20742432E-12
  -15.1431999        -8.04483997E-12
  -15.0282001        -7.78494196E-12
  -14.9132004        -7.43276100E-12
  -14.7981997        -6.99650971E-12
  -14.6831999        -6.48712724E-12
  -14.5682001        -5.91768952E-12
  -14.4532003        -5.30269275E-12
  -14.3381996        -4.65728064E-12
  -14.2231998        -3.99645378E-12
  -14.1082001        -3.33431785E-12
  -13.9932003        -2.68343312E-12
  -13.8781996        -2.05427429E-12
  -13.7631998        -1.45487170E-12
  -13.6482000        -8.90641998E-13
  -13.5332003        -3.64409891E-13
  -13.4181995         1.23377491E-13
  -13.3031998         5.74266275E-13
  -13.1882000         9.91269783E-13
  -13.0732002         1.37825114E-12
  -12.9582005         1.73925251E-12
  -12.8431997         2.07783270E-12
  -12.7282000         2.39647473E-12
  -12.6132002         2.69608749E-12
  -12.4982004         2.97565748E-12
  -12.3831997         3.23208517E-12
  -12.2681999         3.46021085E-12
  -12.1532001         3.65302753E-12
  -12.0382004         3.80209145E-12
  -11.9231997         3.89807717E-12
  -11.8081999         3.93145455E-12
  -11.6932001         3.89323816E-12
  -11.5782003         3.77575705E-12
  -11.4631996         3.57337749E-12
  -11.3481998         3.28314351E-12
  -11.2332001         2.90526652E-12
  -11.1182003         2.44344562E-12
  -11.0031996         1.90497011E-12
  -10.8881998         1.30061446E-12
  -10.7732000         6.44315710E-13
  -10.6582003        -4.73434768E-14
  -10.5431995        -7.55822271E-13
  -10.4281998        -1.46141888E-12
  -10.3132000        -2.14414272E-12
  -10.1982002        -2.78460371E-12
  -10.0832005        -3.36485397E-12
  -9.96819973        -3.86913635E-12
  -9.85319996        -4.28448509E-12
  -9.73820019        -4.60115192E-12
  -9.62320042        -4.81283069E-12
  -9.50819969        -4.91666343E-12
  -9.39319992        -4.91305564E-12
  -9.27820015        -4.80528768E-12
  -9.16320038        -4.59898916E-12
  -9.04819965        -4.30150620E-12
  -8.93319988        -3.92120407E-12
  -8.81820011        -3.46676659E-12
  -8.70320034        -2.94655034E-12
  -8.58819962        -2.36803611E-12
  -8.47319984        -1.73740286E-12
  -8.35820007        -1.05927691E-12
  -8.24320030        -3.36661119E-13
  -8.12819958         4.28972450E-13
  -8.01319981         1.23740688E-12
  -7.89820004         2.08927580E-12
  -7.78319979         2.98554432E-12
  -7.66820002         3.92693170E-12
  -7.55320024         4.91333927E-12
  -7.43820000         5.94329924E-12
  -7.32320023         7.01352561E-12
  -7.20819998         8.11859000E-12
  -7.09320021         9.25076335E-12
  -6.97819996         1.04000437E-11
  -6.86320019         1.15543590E-11
  -6.74819994         1.26999661E-11
  -6.63320017         1.38219965E-11
  -6.51819992         1.49051396E-11
  -6.40320015         1.59343979E-11
  -6.28819990         1.68958857E-11
  -6.17320013         1.77776040E-11
  -6.05819988         1.85701576E-11
  -5.94320011         1.92673377E-11
  -5.82819986         1.98665685E-11
  -5.71320009         2.03691508E-11
  -5.59819984         2.07803028E-11
  -5.48320007         2.11090000E-11
  -5.36819983         2.13675935E-11
  -5.25320005         2.15712587E-11
  -5.13819981         2.17372873E-11
  -5.02320004         2.18842600E-11
  -4.90819979         2.20311842E-11
  -4.79320002         2.21965710E-11
  -4.67820024         2.23975855E-11
  -4.56320000         2.26492557E-11
  -4.44820023         2.29637837E-11
  -4.33319998         2.33500389E-11
  -4.21820021         2.38131719E-11
  -4.10319996         2.43544386E-11
  -3.98819995         2.49711848E-11
  -3.87319994         2.56570060E-11
  -3.75819993         2.64020403E-11
  -3.64319992         2.71934072E-11
  -3.52819991         2.80157460E-11
  -3.41319990         2.88517855E-11
  -3.29820013         2.96829991E-11
  -3.18320012         3.04902284E-11
  -3.06820011         3.12543012E-11
  -2.95320010         3.19566144E-11
  -2.83820009         3.25796543E-11
  -2.72320008         3.31074577E-11
  -2.60820007         3.35259841E-11
  -2.49320006         3.38234336E-11
  -2.37820005         3.39904667E-11
  -2.26320004         3.40203629E-11
  -2.14820004         3.39090943E-11
  -2.03320003         3.36553424E-11
  -1.91820002         3.32604291E-11
  -1.80320001         3.27281674E-11
  -1.68820000         3.20646738E-11
  -1.57319999         3.12781051E-11
  -1.45819998         3.03783040E-11
  -1.34319997         2.93764284E-11
  -1.22819996         2.82844859E-11
  -1.11320007         2.71148885E-11
 -0.998199999         2.58799232E-11
 -0.883199990         2.45912700E-11
 -0.768200040         2.32595054E-11
 -0.653200030         2.18936778E-11
 -0.538200021         2.05009430E-11
 -0.423200011         1.90863176E-11
 -0.308200002         1.76525496E-11
 -0.193200007         1.62001454E-11
  -7.82000124E-02     1.47275560E-11
   3.67999896E-02     1.32315348E-11
  0.151799992         1.17076245E-11
  0.266799986         1.01508055E-11
  0.381799996         8.55622777E-12
  0.496799976         6.92000580E-12
  0.611800015         5.24003627E-12
  0.726799965         3.51675546E-12
  0.841799974         1.75380901E-12
  0.956799984        -4.14387356E-14
   1.07179999        -1.85759069E-12
   1.18680000        -3.67914987E-12
   1.30180001        -5.48672392E-12
   1.41680002        -7.25750016E-12
   1.53180003        -8.96599461E-12
   1.64680004        -1.05850519E-11
   1.76179993        -1.20870302E-11
   1.87679994        -1.34451322E-11
   1.99179995        -1.46348038E-11
   2.10680008        -1.56351130E-11
   2.22180009        -1.64300275E-11
   2.33680010        -1.70095292E-11
   2.45179987        -1.73704558E-11
   2.56679988        -1.75170451E-11
   2.68179989        -1.74611263E-11
   2.79679990        -1.72219218E-11
   2.91179991        -1.68254924E-11
   3.02679992        -1.63038003E-11
   3.14179993        -1.56934968E-11
   3.25679994        -1.50344234E-11
   3.37179995        -1.43679860E-11
   3.48679996        -1.37354095E-11
   3.60179996        -1.31760436E-11
   3.71679997        -1.27257536E-11
   3.83179998        -1.24155235E-11
   3.94679999        -1.22702985E-11
   4.06180000        -1.23081554E-11
   4.17679977        -1.25398225E-11
   4.29180002        -1.29685498E-11
   4.40679979        -1.35903164E-11
   4.52180004        -1.43943520E-11
   4.63679981        -1.53638994E-11
   4.75180006        -1.64771859E-11
   4.86679983        -1.77084979E-11
   4.98180008        -1.90292764E-11
   5.09679985        -2.04091986E-11
   5.21180010        -2.18171453E-11
   5.32679987        -2.32219990E-11
   5.44180012        -2.45932701E-11
   5.55679989        -2.59014876E-11
   5.67180014        -2.71184186E-11
   5.78679991        -2.82170797E-11
   5.90180016        -2.91716304E-11
   6.01679993        -2.99571583E-11
   6.13180017        -3.05494761E-11
   6.24679995        -3.09249293E-11
   6.36180019        -3.10602932E-11
   6.47679996        -3.09328362E-11
   6.59180021        -3.05205410E-11
   6.70679998        -2.98025354E-11
   6.82179976        -2.87597030E-11
   6.93680000        -2.73754699E-11
   7.05179977        -2.56367427E-11
   7.16680002        -2.35348650E-11
   7.28179979        -2.10666172E-11
   7.39680004        -1.82351374E-11
   7.51179981        -1.50506760E-11
   7.62680006        -1.15311233E-11
   7.74179983        -7.70224943E-12
   7.85680008        -3.59761678E-12
   7.97179985         7.41869511E-13
   8.08679962         5.26876156E-12
   8.20180035         9.93023632E-12
   8.31680012         1.46694722E-11
   8.43179989         1.94273174E-11
   8.54679966         2.41440444E-11
   8.66180038         2.87611514E-11
   8.77680016         3.32231395E-11
   8.89179993         3.74790789E-11
   9.00679970         4.14839794E-11
   9.12180042         4.51998335E-11
   9.23680019         4.85963145E-11
   9.35179996         5.16510792E-11
   9.46679974         5.43497018E-11
   9.58180046         5.66852225E-11
   9.69680023         5.86573984E-11
   9.81180000         6.02717112E-11
   9.92679977         6.15382328E-11
   10.0417995         6.24704038E-11
   10.1568003         6.30838715E-11
   10.2718000         6.33954070E-11
   10.3867998         6.34220731E-11
   10.5017996         6.31805996E-11
   10.6168003         6.26870847E-11
   10.7318001         6.19569396E-11
   10.8467999         6.10051940E-11
   10.9617996         5.98470509E-11
   11.0768003         5.84985810E-11
   11.1918001         5.69776309E-11
   11.3067999         5.53046949E-11
   11.4217997         5.35038368E-11
   11.5368004         5.16033570E-11
   11.6518002         4.96363332E-11
   11.7667999         4.76408323E-11
   11.8817997         4.56597676E-11
   11.9968004         4.37404141E-11
   12.1118002         4.19335504E-11
   12.2268000         4.02922626E-11
   12.3417997         3.88704416E-11
   12.4568005         3.77210138E-11
   12.5718002         3.68941128E-11
   12.6868000         3.64350702E-11
   12.8017998         3.63825532E-11
   12.9167995         3.67667598E-11
   13.0318003         3.76078821E-11
   13.1468000         3.89148540E-11
   13.2617998         4.06844974E-11
   13.3767996         4.29010508E-11
   13.4918003         4.55361651E-11
   13.6068001         4.85493486E-11
   13.7217999         5.18888127E-11
   13.8367996         5.54927423E-11
   13.9518003         5.92908500E-11
   14.0668001         6.32062597E-11
   14.1817999         6.71575434E-11
   14.2967997         7.10608794E-11
   14.4118004         7.48322723E-11
   14.5268002         7.83897114E-11
   14.6417999         8.16552798E-11
   14.7567997         8.45570280E-11
   14.8718004         8.70306743E-11
   14.9868002         8.90211238E-11
   15.1018000         9.04835512E-11
   15.2167997         9.13843515E-11
   15.3318005         9.17016948E-11
   15.4468002         9.14257697E-11
   15.5618000         9.05588105E-11
   15.6767998         8.91147364E-11
   15.7917995         8.71186248E-11
   15.9068003         8.46058223E-11
   16.0217991         8.16209947E-11
   16.1368008         7.82168427E-11
   16.2518005         7.44527287E-11
   16.3668003         7.03931982E-11
   16.4818001         6.61063634E-11
   16.5967999         6.16622933E-11
   16.7117996         5.71313968E-11
   16.8267994         5.25828651E-11
   16.9417992         4.80832249E-11
   17.0568008         4.36949955E-11
   17.1718006         3.94755756E-11
   17.2868004         3.54763614E-11
   17.4018002         3.17420500E-11
   17.5167999         2.83102552E-11
   17.6317997         2.52113781E-11
   17.7467995         2.24687161E-11
   17.8617992         2.00988028E-11