  -37.8452110         0.00000000    
  -37.7264595         0.00000000    
  -37.6077118         0.00000000    
  -37.4889603         0.00000000    
  -37.3702126         0.00000000    
  -37.2514610         0.00000000    
  -37.1327095        -2.77076018E-29
  -37.0139618        -3.35109668E-28
  -36.8952103        -2.15678674E-27
  -36.7764626        -9.80227930E-27
  -36.6577110        -3.52183531E-26
  -36.5389595        -1.06242147E-25
  -36.4202118        -2.79229274E-25
  -36.3014603        -6.55322580E-25
  -36.1827126        -1.39734127E-24
  -36.0639610        -2.74154231E-24
  -35.9452095        -4.99624187E-24
  -35.8264618        -8.51869119E-24
  -35.7077103        -1.36638944E-23
  -35.5889626        -2.07049198E-23
  -35.4702110        -2.97334896E-23
  -35.3514595        -4.05605646E-23
  -35.2327118        -5.26467467E-23
  -35.1139603        -6.50976034E-23
  -34.9952126        -7.67563554E-23
  -34.8764610        -8.64131741E-23
  -34.7577095        -9.31260585E-23
  -34.6389618        -9.66166292E-23
  -34.5202103        -9.76696828E-23
  -34.4014626        -9.84386328E-23
  -34.2827110        -1.02545979E-22
  -34.1639595        -1.14881384E-22
  -34.0452118        -1.41040643E-22
  -33.9264603        -1.86419116E-22
  -33.8077126        -2.55063570E-22
  -33.6889610        -3.48481993E-22
  -33.5702095        -4.64692539E-22
  -33.4514618        -5.97834892E-22
  -33.3327103        -7.38649517E-22
  -33.2139626        -8.76036977E-22
  -33.0952110        -9.99738950E-22
  -32.9764595        -1.10395250E-21
  -32.8577118        -1.19141968E-21
  -32.7389603        -1.27729551E-21
  -32.6202126        -1.39191536E-21
  -32.5014610        -1.58154631E-21
  -32.3827095        -1.90633526E-21
  -32.2639618        -2.43499051E-21
  -32.1452103        -3.23623711E-21
  -32.0264626        -4.36770952E-21
  -31.9077110        -5.86359094E-21
  -31.7889614        -7.72288132E-21
  -31.6702118        -9.90049809E-21
  -31.5514603        -1.23034400E-20
  -31.4327106        -1.47938490E-20
  -31.3139610        -1.71999720E-20
  -31.1952114        -1.93349397E-20
  -31.0764618        -2.10218178E-20
  -30.9577103        -2.21221652E-20
  -30.8389606        -2.25640896E-20
  -30.7202110        -2.23652787E-20
  -30.6014614        -2.16464458E-20
  -30.4827118        -2.06314516E-20
  -30.3639603        -1.96319686E-20
  -30.2452106        -1.90166092E-20
  -30.1264610        -1.91670026E-20
  -30.0077114        -2.04256290E-20
  -29.8889618        -2.30422113E-20
  -29.7702103        -2.71265642E-20
  -29.6514606        -3.26157509E-20
  -29.5327110        -3.92622409E-20
  -29.4139614        -4.66473223E-20
  -29.2952118        -5.42207586E-20
  -29.1764603        -6.13641159E-20
  -29.0577106        -6.74713713E-20
  -28.9389610        -7.20377120E-20
  -28.8202114        -7.47453455E-20
  -28.7014618        -7.55348377E-20
  -28.5827103        -7.46512021E-20
  -28.4639606        -7.26562751E-20
  -28.3452110        -7.04019235E-20
  -28.2264614        -6.89622157E-20
  -28.1077118        -6.95264886E-20
  -27.9889603        -7.32585336E-20
  -27.8702106        -8.11308244E-20
  -27.7514610        -9.37457682E-20
  -27.6327114        -1.11159490E-19
  -27.5139618        -1.32727514E-19
  -27.3952103        -1.56995636E-19
  -27.2764606        -1.81663687E-19
  -27.1577110        -2.03651234E-19
  -27.0389614        -2.19294705E-19
  -26.9202118        -2.24697694E-19
  -26.8014603        -2.16244115E-19
  -26.6827106        -1.91260120E-19
  -26.5639610        -1.48780195E-19
  -26.4452114        -9.03345852E-20
  -26.3264618        -2.06352159E-20
  -26.2077103         5.19969934E-20
  -26.0889606         1.15641620E-19
  -25.9702110         1.55396748E-19
  -25.8514614         1.54739643E-19
  -25.7327118         9.76861917E-20
  -25.6139603        -2.83177205E-20
  -25.4952106        -2.28989598E-19
  -25.3764610        -4.99679697E-19
  -25.2577114        -8.22266591E-19
  -25.1389618        -1.16316204E-18
  -25.0202103        -1.47314891E-18
  -24.9014606        -1.68973023E-18
  -24.7827110        -1.74246754E-18
  -24.6639614        -1.56145695E-18
  -24.5452118        -1.08862966E-18
  -24.4264603        -2.90990197E-19
  -24.3077106         8.25667131E-19
  -24.1889610         2.20458502E-18
  -24.0702114         3.72977765E-18
  -23.9514618         5.22419606E-18
  -23.8327103         6.45655083E-18
  -23.7139606         7.15838711E-18
  -23.5952110         7.05191490E-18
  -23.4764614         5.88759036E-18
  -23.3577118         3.48874797E-18
  -23.2389603        -2.01210366E-19
  -23.1202106        -5.07518361E-18
  -23.0014610        -1.08294966E-17
  -22.8827114        -1.69493774E-17
  -22.7639618        -2.27196852E-17
  -22.6452103        -2.72660931E-17
  -22.5264606        -2.96288419E-17
  -22.4077110        -2.88673494E-17
  -22.2889614        -2.41891831E-17
  -22.1702118        -1.50920575E-17
  -22.0514603        -1.50309160E-18
  -21.9327106         1.61037408E-17
  -21.8139610         3.66325504E-17
  -21.6952114         5.83524637E-17
  -21.5764618         7.89623635E-17
  -21.4577103         9.57426553E-17
  -21.3389606         1.05793978E-16
  -21.2202110         1.06351630E-16
  -21.1014614         9.51524255E-17
  -20.9827118         7.08193328E-17
  -20.8639603         3.32199936E-17
  -20.7452106        -1.62503271E-17
  -20.6264610        -7.45112186E-17
  -20.5077114        -1.36808632E-16
  -20.3889618        -1.96927550E-16
  -20.2702103        -2.47618091E-16
  -20.1514606        -2.81225182E-16
  -20.0327110        -2.90483941E-16
  -19.9139614        -2.69417861E-16
  -19.7952118        -2.14252484E-16
  -19.6764603        -1.24239735E-16
  -19.5577106        -2.28256333E-18
  -19.4389610         1.44748057E-16
  -19.3202114         3.06092455E-16
  -19.2014618         4.67634873E-16
  -19.0827103         6.12903829E-16
  -18.9639606         7.24503014E-16
  -18.8452110         7.85879604E-16
  -18.7264614         7.83284612E-16
  -18.6077118         7.07735467E-16
  -18.4889603         5.56762856E-16
  -18.3702106         3.35712324E-16
  -18.2514610         5.83925059E-17
  -18.1327114        -2.53101544E-16
  -18.0139618        -5.69491167E-16
  -17.8952103        -8.56360156E-16
  -17.7764606        -1.07705819E-15
  -17.6577110        -1.19627321E-15
  -17.5389614        -1.18398657E-15
  -17.4202118        -1.01944777E-15
  -17.3014603        -6.94755217E-16
  -17.1827106        -2.17618315E-16
  -17.0639610         3.87088657E-16
  -16.9452114         1.07729356E-15
  -16.8264618         1.79540936E-15
  -16.7077103         2.47176962E-15
  -16.5889606         3.02968502E-15
  -16.4702110         3.39181003E-15
  -16.3514614         3.48734476E-15
  -16.2327118         3.25946050E-15
  -16.1139603         2.67226549E-15
  -15.9952106         1.71659422E-15
  -15.8764610         4.13963239E-16
  -15.7577114        -1.18185385E-15
  -15.6389608        -2.98598850E-15
  -15.5202112        -4.88650978E-15
  -15.4014606        -6.75118081E-15
  -15.2827110        -8.43654472E-15
  -15.1639614        -9.79867365E-15
  -15.0452108        -1.07047414E-14
  -14.9264612        -1.10444075E-14
  -14.8077106        -1.07400152E-14
  -14.6889610        -9.75460337E-15
  -14.5702114        -8.09692855E-15
  -14.4514608        -5.82290851E-15
  -14.3327112        -3.03321270E-15
  -14.2139606         1.32915973E-16
  -14.0952110         3.50720133E-15
  -13.9764614         6.90444338E-15
  -13.8577108         1.01362231E-14
  -13.7389612         1.30249501E-14
  -13.6202106         1.54170618E-14
  -13.5014610         1.71941115E-14
  -13.3827114         1.82807684E-14
  -13.2639608         1.86489753E-14
  -13.1452112         1.83178701E-14
  -13.0264606         1.73495201E-14
  -12.9077110         1.58408815E-14
  -12.7889614         1.39128058E-14
  -12.6702108         1.16971506E-14
  -12.5514612         9.32330774E-15
  -12.4327106         6.90543653E-15
  -12.3139610         4.53169615E-15
  -12.1952114         2.25645702E-15
  -12.0764608         9.62526816E-17
  -11.9577112        -1.97020266E-15
  -11.8389606        -3.99811410E-15
  -11.7202110        -6.06920918E-15
  -11.6014614        -8.28181467E-15
  -11.4827108        -1.07395223E-14
  -11.3639612        -1.35396607E-14
  -11.2452106        -1.67628600E-14
  -11.1264610        -2.04647870E-14
  -11.0077114        -2.46708968E-14
  -10.8889608        -2.93745842E-14
  -10.7702112        -3.45388594E-14
  -10.6514606        -4.01010537E-14
  -10.5327110        -4.59798452E-14
  -10.4139614        -5.20834732E-14
  -10.2952108        -5.83180355E-14
  -10.1764612        -6.45945496E-14
  -10.0577106        -7.08337536E-14
  -9.93896103        -7.69678781E-14
  -9.82021141        -8.29390606E-14
  -9.70146084        -8.86944056E-14
  -9.58271122        -9.41783950E-14
  -9.46396065        -9.93235645E-14
  -9.34521103        -1.04040820E-13
  -9.22646141        -1.08211000E-13
  -9.10771084        -1.11678950E-13
  -8.98896122        -1.14251788E-13
  -8.87021065        -1.15702004E-13
  -8.75146103        -1.15776068E-13
  -8.63271141        -1.14208244E-13
  -8.51396084        -1.10738885E-13
  -8.39521122        -1.05135891E-13
  -8.27646065        -9.72173053E-14
  -8.15771103        -8.68729595E-14
  -8.03896141        -7.40828839E-14
  -7.92021084        -5.89304132E-14
  -7.80146122        -4.16079965E-14
  -7.68271112        -2.24149821E-14
  -7.56396103        -1.74656394E-15
  -7.44521093         1.99253642E-14
  -7.32646084         4.20783437E-14
  -7.20771122         6.41701929E-14
  -7.08896112         8.56721107E-14
  -6.97021103         1.06101034E-13
  -6.85146093         1.25048043E-13
  -6.73271084         1.42200244E-13
  -6.61396122         1.57353609E-13
  -6.49521112         1.70415684E-13
  -6.37646103         1.81397269E-13
  -6.25771093         1.90394074E-13
  -6.13896084         1.97559525E-13
  -6.02021122         2.03071745E-13
  -5.90146112         2.07097509E-13
  -5.78271103         2.09756962E-13
  -5.66396093         2.11092767E-13
  -5.54521084         2.11046932E-13
  -5.42646122         2.09447734E-13
  -5.30771112         2.06008930E-13
  -5.18896103         2.00341005E-13
  -5.07021093         1.91974420E-13
  -4.95146084         1.80392254E-13
  -4.83271122         1.65069754E-13
  -4.71396112         1.45516642E-13
  -4.59521103         1.21318293E-13
  -4.47646093         9.21711709E-14
  -4.35771084         5.79092370E-14
  -4.23896122         1.85180037E-14
  -4.12021112        -2.58655673E-14
  -4.00146103        -7.49676539E-14
  -3.88271117        -1.28405872E-13
  -3.76396108        -1.85728887E-13
  -3.64521098        -2.46463819E-13
  -3.52646112        -3.10166823E-13
  -3.40771103        -3.76472643E-13
  -3.28896117        -4.45137145E-13
  -3.17021108        -5.16069229E-13
  -3.05146098        -5.89348232E-13
  -2.93271112        -6.65224549E-13
  -2.81396103        -7.44101937E-13
  -2.69521117        -8.26504338E-13
  -2.57646108        -9.13026599E-13
  -2.45771098        -1.00427598E-12
  -2.33896112        -1.10080716E-12
  -2.22021103        -1.20305686E-12
  -2.10146117        -1.31128506E-12
  -1.98271108        -1.42552593E-12
  -1.86396110        -1.54555481E-12
  -1.74521101        -1.67087470E-12
  -1.62646103        -1.80072244E-12
  -1.50771105        -1.93409611E-12
  -1.38896108        -2.06980223E-12
  -1.27021110        -2.20651860E-12
  -1.15146101        -2.34286852E-12
  -1.03271103        -2.47750258E-12
 -0.913961053        -2.60917958E-12
 -0.795211077        -2.73684374E-12
 -0.676461041        -2.85969057E-12
 -0.557711065        -2.97721873E-12
 -0.438961059        -3.08926344E-12
 -0.320211053        -3.19601181E-12
 -0.201461062        -3.29799773E-12
  -8.27110559E-02    -3.39607942E-12
   3.60389426E-02    -3.49140183E-12
  0.154788941        -3.58534665E-12
  0.273538947        -3.67947469E-12
  0.392288953        -3.77546562E-12
  0.511038959        -3.87505783E-12
  0.629788935        -3.97999168E-12
  0.748538971        -4.09196071E-12
  0.867288947        -4.21257083E-12
  0.986038923        -4.34330913E-12
   1.10478890        -4.48551743E-12
   1.22353899        -4.64038009E-12
   1.34228897        -4.80890848E-12
   1.46103895        -4.99193612E-12
   1.57978892        -5.19010789E-12
   1.69853890        -5.40387179E-12
   1.81728899        -5.63346592E-12
   1.93603897        -5.87890023E-12
   2.05478883        -6.13993838E-12
   2.17353892        -6.41607080E-12
   2.29228902        -6.70648866E-12
   2.41103888        -7.01005963E-12
   2.52978897        -7.32530096E-12
   2.64853883        -7.65036211E-12
   2.76728892        -7.98301616E-12
   2.88603902        -8.32065493E-12
   3.00478888        -8.66029991E-12
   3.12353897        -8.99862910E-12
   3.24228883        -9.33200652E-12
   3.36103892        -9.65653252E-12
   3.47978902        -9.96810273E-12
   3.59853888        -1.02624801E-11
   3.71728897        -1.05353668E-11
   3.83603883        -1.07824877E-11
   3.95478892        -1.09996821E-11
   4.07353878        -1.11829860E-11
   4.19228888        -1.13287227E-11
   4.31103897        -1.14335893E-11
   4.42978907        -1.14947375E-11
   4.54853916        -1.15098452E-11
   4.66728878        -1.14771933E-11
   4.78603888        -1.13957238E-11
   4.90478897        -1.12650844E-11
   5.02353907        -1.10856758E-11
   5.14228916        -1.08586716E-11
   5.26103878        -1.05860277E-11
   5.37978888        -1.02704772E-11
   5.49853897        -9.91550245E-12
   5.61728907        -9.52529462E-12
   5.73603916        -9.10468489E-12
   5.85478878        -8.65906305E-12
   5.97353888        -8.19427425E-12
   6.09228897        -7.71650712E-12
   6.21103907        -7.23216148E-12
   6.32978916        -6.74771567E-12
   6.44853878        -6.26958468E-12
   6.56728888        -5.80398620E-12
   6.68603897        -5.35680918E-12
   6.80478907        -4.93349762E-12
   6.92353916        -4.53895255E-12
   7.04228878        -4.17745049E-12
   7.16103888        -3.85258405E-12
   7.27978897        -3.56722984E-12
   7.39853907        -3.32353416E-12
   7.51728916        -3.12291859E-12
   7.63603878        -2.96610566E-12
   7.75478888        -2.85315369E-12
   7.87353897        -2.78350433E-12
   7.99228907        -2.75602739E-12
   8.11103916        -2.76907555E-12
   8.22978878        -2.82052853E-12
   8.34853935        -2.90783391E-12
   8.46728897        -3.02804418E-12
   8.58603859        -3.17784796E-12
   8.70478916        -3.35359930E-12
   8.82353878        -3.55134281E-12
   8.94228935        -3.76684621E-12
   9.06103897        -3.99563976E-12
   9.17978859        -4.23306355E-12
   9.29853916        -4.47432803E-12
   9.41728878        -4.71459460E-12
   9.53603935        -4.94906243E-12
   9.65478897        -5.17307377E-12
   9.77353859        -5.38223285E-12
   9.89228916        -5.57252508E-12
   10.0110388        -5.74043721E-12
   10.1297894        -5.88307571E-12
   10.2485390        -5.99826959E-12
   10.3672886        -6.08465492E-12
   10.4860392        -6.14173339E-12
   10.6047888        -6.16990530E-12
   10.7235394        -6.17046995E-12
   10.8422890        -6.14559488E-12
   10.9610386        -6.09824777E-12
   11.0797892        -6.03211014E-12
   11.1985388        -5.95145721E-12
   11.3172894        -5.86102564E-12
   11.4360390        -5.76586522E-12
   11.5547886        -5.67118618E-12
   11.6735392        -5.58220224E-12
   11.7922888        -5.50398312E-12
   11.9110394        -5.44131754E-12
   12.0297890        -5.39858392E-12
   12.1485386        -5.37964595E-12
   12.2672892        -5.38775925E-12
   12.3860388        -5.42549165E-12
   12.5047894        -5.49467763E-12
   12.6235390        -5.59637319E-12
   12.7422886        -5.73083074E-12
   12.8610392        -5.89749777E-12
   12.9797888        -6.09502596E-12
   13.0985394        -6.32128724E-12
   13.2172890        -6.57342019E-12
   13.3360386        -6.84788814E-12
   13.4547892        -7.14054206E-12
   13.5735388        -7.44670905E-12
   13.6922894        -7.76129334E-12
   13.8110390        -8.07888912E-12
   13.9297886        -8.39389582E-12
   14.0485392        -8.70064090E-12
   14.1672888        -8.99351340E-12
   14.2860394        -9.26706715E-12
   14.4047890        -9.51613701E-12
   14.5235386        -9.73590739E-12
   14.6422892        -9.92198598E-12
   14.7610388        -1.00704306E-11
   14.8797894        -1.01777449E-11
   14.9985390        -1.02408585E-11
   15.1172886        -1.02570565E-11
   15.2360392        -1.02239033E-11
   15.3547888        -1.01391369E-11
   15.4735394        -1.00005603E-11
   15.5922890        -9.80593298E-12
   15.7110386        -9.55287151E-12
   15.8297892        -9.23877207E-12
   15.9485388        -8.86075414E-12
   16.0672894        -8.41565186E-12
   16.1860390        -7.90003740E-12
   16.3047886        -7.31027478E-12
   16.4235382        -6.64262308E-12
   16.5422897        -5.89336782E-12
   16.6610394        -5.05897234E-12
   16.7797890        -4.13622869E-12
   16.8985386        -3.12243157E-12
   17.0172882        -2.01551774E-12
   17.1360397        -8.14197288E-13
   17.2547894         4.81960825E-13
   17.3735390         1.87247396E-12
   17.4922886         3.35594269E-12
   17.6110382         4.93009409E-12
   17.7297897         6.59183905E-12
   17.8485394         8.33739848E-12
   17.9672890         1.01624291E-11
   18.0860386         1.20621646E-11
   18.2047882         1.40315554E-11
   18.3235397         1.60653973E-11
   18.4422894         1.81584244E-11
   18.5610390         2.03053841E-11
   18.6797886         2.25010514E-11
   18.7985382         2.47402238E-11
   18.9172897         2.70176798E-11
   19.0360394         2.93280955E-11
   19.1547890         3.16659407E-11
   19.2735386         3.40254006E-11
   19.3922882         3.64002752E-11
   19.5110397         3.87839136E-11
   19.6297894         4.11691965E-11
   19.7485390         4.35485710E-11
   19.8672886         4.59141405E-11
   19.9860382         4.82578005E-11
   20.1047897         5.05714672E-11
   20.2235394         5.28473341E-11
   20.3422890         5.50781643E-11
   20.4610386         5.72576569E-11
   20.5797882         5.93807503E-11
   20.6985397         6.14439610E-11
   20.8172894         6.34456931E-11
   20.9360390         6.53864463E-11
   21.0547886         6.72690098E-11
   21.1735382         6.90985741E-11
   21.2922897         7.08826678E-11
   21.4110394         7.26311719E-11
   21.5297890         7.43560560E-11
   21.6485386         7.60711980E-11
   21.7672882         7.77920436E-11
   21.8860397         7.95352603E-11
   22.0047894         8.13183687E-11
   22.1235390         8.31593405E-11
   22.2422886         8.50762100E-11
   22.3610382         8.70867475E-11
   22.4797897         8.92081062E-11
   22.5985394         9.14566062E-11
   22.7172890         9.38474645E-11
   22.8360386         9.63946839E-11
   22.9547882         9.91109070E-11
   23.0735397         1.02007354E-10
   23.1922894         1.05093809E-10
   23.3110390         1.08378535E-10
   23.4297886         1.11868334E-10
   23.5485382         1.15568527E-10
   23.6672897         1.19482896E-10
   23.7860394         1.23613703E-10
   23.9047890         1.27961586E-10
   24.0235386         1.32525532E-10
   24.1422882         1.37302836E-10
   24.2610397         1.42288931E-10
   24.3797894         1.47477405E-10
   24.4985390         1.52859878E-10
   24.6172886         1.58426036E-10
   24.7360382         1.64163558E-10
   24.8547897         1.70058259E-10
   24.9735394         1.76094181E-10
   25.0922890         1.82253740E-10
   25.2110386         1.88517951E-10
   25.3297882         1.94866762E-10
   25.4485397         2.01279368E-10
   25.5672894         2.07734593E-10
   25.6860390         2.14211329E-10
   25.8047886         2.20688925E-10
   25.9235382         2.27147620E-10
   26.0422897         2.33568997E-10
   26.1610394         2.39936293E-10
   26.2797890         2.46234921E-10
   26.3985386         2.52452503E-10
   26.5172882         2.58579352E-10
   26.6360397         2.64608335E-10
   26.7547894         2.70535289E-10
   26.8735390         2.76358686E-10
   26.9922886         2.82079721E-10
   27.1110382         2.87702140E-10
   27.2297897         2.93231939E-10
   27.3485394         2.98677055E-10
   27.4672890         3.04047149E-10
   27.5860386         3.09353015E-10
   27.7047882         3.14606341E-10
   27.8235397         3.19819199E-10
   27.9422894         3.25003524E-10
   28.0610390         3.30170863E-10
   28.1797886         3.35331846E-10
   28.2985382         3.40495854E-10
   28.4172897         3.45670659E-10
   28.5360394         3.50862034E-10
   28.6547890         3.56073671E-10
   28.7735386         3.61306901E-10
   28.8922882         3.66560476E-10
   29.0110397         3.71830483E-10
   29.1297894         3.77110343E-10
   29.2485390         3.82390758E-10
   29.3672886         3.87659765E-10
   29.4860382         3.92902710E-10
   29.6047897         3.98102523E-10
   29.7235394         4.03239553E-10
   29.8422890         4.08292122E-10
   29.9610386         4.13236334E-10
   30.0797882         4.18046681E-10
   30.1985397         4.22696017E-10
   30.3172894         4.27156005E-10
   30.4360390         4.31397307E-10
   30.5547886         4.35390030E-10
   30.6735382         4.39104170E-10
   30.7922897         4.42509807E-10
   30.9110394         4.45577714E-10
   31.0297890         4.48279663E-10
   31.1485386         4.50588927E-10
   31.2672882         4.52480525E-10
   31.3860397         4.53931753E-10
   31.5047894         4.54922378E-10
   31.6235390         4.55435106E-10
   31.7422886         4.55455673E-10
   31.8610382         4.54973004E-10
   31.9797897         4.53979215E-10
   32.0985374         4.52469728E-10
   32.2172890         4.50443099E-10
   32.3360405         4.47900828E-10
   32.4547882         4.44847131E-10
   32.5735397         4.41288450E-10
   32.6922874         4.37233305E-10
   32.8110390         4.32691660E-10
   32.9297905         4.27674368E-10
   33.0485382         4.22192864E-10
   33.1672897         4.16258444E-10
   33.2860374         4.09881906E-10
   33.4047890         4.03072825E-10
   33.5235405         3.95839195E-10
   33.6422882         3.88186927E-10
   33.7610397         3.80119380E-10
   33.8797874         3.71636999E-10
   33.9985390         3.62737035E-10
   34.1172905         3.53413188E-10
   34.2360382         3.43655576E-10
   34.3547897         3.33450462E-10
   34.4735374         3.22780330E-10
   34.5922890         3.11623838E-10
   34.7110405         2.99956171E-10
   34.8297882         2.87749186E-10
   34.9485397         2.74971851E-10
   35.0672874         2.61590694E-10
   35.1860390         2.47570381E-10
   35.3047905         2.32874608E-10
   35.4235382         2.17466600E-10
   35.5422897         2.01310094E-10
   35.6610374         1.84370394E-10
   35.7797890         1.66615013E-10
   35.8985405         1.48014587E-10
   36.0172882         1.28544078E-10
   36.1360397         1.08183150E-10
   36.2547874         8.69170291E-11
   36.3735390         6.47372017E-11
   36.4922905         4.16415687E-11
   36.6110382         1.76349248E-11
   36.7297897        -7.27109128E-12
   36.8485374        -3.30581777E-11
   36.9672890        -5.97015007E-11
   37.0860405        -8.71702016E-11
   37.2047882        -1.15428063E-10
   37.3235397        -1.44434201E-10
   37.4422874        -1.74143935E-10
   37.5610390        -2.04509618E-10
   37.6797905        -2.35481856E-10
   37.7985382        -2.67010303E-10
   37.9172897        -2.99044706E-10
   38.0360374        -3.31536076E-10
   38.1547890        -3.64437341E-10
   38.2735405        -3.97704786E-10
   38.3922882        -4.31298414E-10
   38.5110397        -4.65183003E-10
   38.6297874        -4.99328856E-10
   38.7485390        -5.33712352E-10
   38.8672905        -5.68316283E-10
   38.9860382        -6.03130823E-10
   39.1047897        -6.38153252E-10
   39.2235374        -6.73388456E-10
   39.3422890        -7.08849091E-10
   39.4610405        -7.44555140E-10
   39.5797882        -7.80533971E-10
   39.6985397        -8.16819945E-10
   39.8172874        -8.53453530E-10
   39.9360390        -8.90481022E-10
   40.0547905        -9.27953658E-10
   40.1735382        -9.65926228E-10
   40.2922897        -1.00445641E-09
   40.4110374        -1.04360343E-09
   40.5297890        -1.08342657E-09
   40.6485405        -1.12398435E-09
   40.7672882        -1.16533294E-09
   40.8860397        -1.20752452E-09
   41.0047874        -1.25060695E-09
   41.1235390        -1.29462152E-09
   41.2422905        -1.33960321E-09
   41.3610382        -1.38557832E-09
   41.4797897        -1.43256529E-09
   41.5985374        -1.48057289E-09
   41.7172890        -1.52960056E-09
   41.8360405        -1.57963786E-09
   41.9547882        -1.63066427E-09
   42.0735397        -1.68264946E-09
   42.1922874        -1.73555337E-09
   42.3110390        -1.78932658E-09
   42.4297905        -1.84391047E-09
   42.5485382        -1.89923788E-09
   42.6672897        -1.95523375E-09
   42.7860374        -2.01181560E-09
   42.9047890        -2.06889461E-09
   43.0235405        -2.12637574E-09
   43.1422882        -2.18415974E-09
   43.2610397        -2.24214292E-09
   43.3797874        -2.30021890E-09
   43.4985390        -2.35827935E-09
   43.6172905        -2.41621523E-09
   43.7360382        -2.47391774E-09
   43.8547897        -2.53127963E-09
   43.9735374        -2.58819632E-09
   44.0922890        -2.64456768E-09
   44.2110405        -2.70029799E-09
   44.3297882        -2.75529755E-09
   44.4485397        -2.80948420E-09
   44.5672874        -2.86278312E-09
   44.6860390        -2.91512858E-09
   44.8047905        -2.96646374E-09
   44.9235382        -3.01674130E-09
   45.0422897        -3.06592396E-09
   45.1610374        -3.11398396E-09
   45.2797890        -3.16090332E-09
   45.3985405        -3.20667204E-09
   45.5172882        -3.25128968E-09
   45.6360397        -3.29476291E-09
   45.7547874        -3.33710415E-09
   45.8735390        -3.37833272E-09
   45.9922905        -3.41847017E-09
   46.1110382        -3.45754181E-09
   46.2297897        -3.49557361E-09
   46.3485374        -3.53259177E-09
   46.4672890        -3.56862051E-09
   46.5860405        -3.60368113E-09
   46.7047882        -3.63779051E-09
   46.8235397        -3.67095998E-09
   46.9422874        -3.70319486E-09
   47.0610390        -3.73449183E-09
   47.1797905        -3.76484044E-09
   47.2985382        -3.79422049E-09
   47.4172897        -3.82260179E-09
   47.5360374        -3.84994614E-09
   47.6547890        -3.87620469E-09
   47.7735405        -3.90131838E-09
   47.8922882        -3.92522015E-09
   48.0110397        -3.94783317E-09
   48.1297874        -3.96907218E-09
   48.2485390        -3.98884348E-09
   48.3672905        -4.00704891E-09
   48.4860382        -4.02358236E-09
   48.6047897        -4.03833456E-09
   48.7235374        -4.05119227E-09
   48.8422890        -4.06204181E-09
   48.9610405        -4.07076728E-09
   49.0797882        -4.07725587E-09
   49.1985397        -4.08139611E-09
   49.3172874        -4.08308098E-09
   49.4360390        -4.08220968E-09
   49.5547905        -4.07868805E-09
   49.6735382        -4.07243039E-09
   49.7922897        -4.06335987E-09
   49.9110374        -4.05141076E-09
   50.0297890        -4.03652844E-09
   50.1485405        -4.01866851E-09
   50.2672882        -3.99779987E-09
   50.3860397        -3.97390254E-09
   50.5047874        -3.94696809E-09
   50.6235390        -3.91699873E-09
   50.7422905        -3.88400823E-09
   50.8610382        -3.84801835E-09
   50.9797897        -3.80906018E-09
   51.0985374        -3.76717191E-09
   51.2172890        -3.72239772E-09
   51.3360405        -3.67478581E-09
   51.4547882        -3.62438857E-09
   51.5735397        -3.57125907E-09
   51.6922874        -3.51545171E-09
   51.8110390        -3.45702000E-09
   51.9297905        -3.39601525E-09
   52.0485382        -3.33248562E-09
   52.1672897        -3.26647509E-09
   52.2860374        -3.19802318E-09
   52.4047890        -3.12716275E-09
   52.5235405        -3.05392134E-09
   52.6422882        -2.97831892E-09
   52.7610397        -2.90036906E-09
   52.8797874        -2.82007795E-09
   52.9985390        -2.73744383E-09
   53.1172905        -2.65245736E-09
   53.2360382        -2.56510257E-09
   53.3547897        -2.47535548E-09
   53.4735374        -2.38318543E-09
   53.5922890        -2.28855601E-09
   53.7110405        -2.19142526E-09
   53.8297882        -2.09174478E-09
   53.9485397        -1.98946326E-09
   54.0672874        -1.88452520E-09
   54.1860390        -1.77687443E-09
   54.3047905        -1.66645309E-09
   54.4235382        -1.55320434E-09
   54.5422897        -1.43707224E-09
   54.6610374        -1.31800526E-09
   54.7797890        -1.19595633E-09
   54.8985405        -1.07088460E-09
   55.0172882        -9.42756540E-10
   55.1360397        -8.11546552E-10
   55.2547874        -6.77239376E-10
   55.3735390        -5.39829736E-10
   55.4922905        -3.99323991E-10
   55.6110382        -2.55739596E-10
   55.7297897        -1.09104871E-10
   55.8485374         4.05381492E-11
   55.9672890         1.93137256E-10
   56.0860405         3.48629570E-10
   56.2047882         5.06941156E-10
   56.3235397         6.67988664E-10
   56.4422874         8.31679781E-10
   56.5610390         9.97915972E-10
   56.6797905         1.16659127E-09
   56.7985382         1.33759481E-09
   56.9172897         1.51081303E-09
   57.0360374         1.68612757E-09
   57.1547890         1.86342186E-09
   57.2735405         2.04257655E-09
   57.3922882         2.22347607E-09
   57.5110397         2.40600584E-09
   57.6297874         2.59005550E-09
   57.7485390         2.77551870E-09
   57.8672905         2.96229485E-09
   57.9860382         3.15029003E-09
   58.1047897         3.33941741E-09
   58.2235374         3.52959706E-09