  -37.8452110         0.00000000    
  -37.7264595         0.00000000    
  -37.6077118         0.00000000    
  -37.4889603         0.00000000    
  -37.3702126         0.00000000    
  -37.2514610         0.00000000    
  -37.1327095         0.00000000    
  -37.0139618         0.00000000    
  -36.8952103         0.00000000    
  -36.7764626         0.00000000    
  -36.6577110         0.00000000    
  -36.5389595         0.00000000    
  -36.4202118         0.00000000    
  -36.3014603         0.00000000    
  -36.1827126         2.58649050E-35
  -36.0639610        -1.63851643E-33
  -35.9452095        -1.30151754E-33
  -35.8264618         2.67349274E-33
  -35.7077103         1.69942673E-32
  -35.5889626         1.08119781E-32
  -35.4702110        -4.15280554E-32
  -35.3514595        -1.42563614E-31
  -35.2327118        -2.89448933E-31
  -35.1139603        -4.87213303E-31
  -34.9952126        -6.62461408E-31
  -34.8764610        -6.93320627E-31
  -34.7577095        -4.31889696E-31
  -34.6389618         5.14224659E-31
  -34.5202103         2.32830128E-30
  -34.4014626         4.85729086E-30
  -34.2827110         8.08394349E-30
  -34.1639595         1.15473395E-29
  -34.0452118         1.48413967E-29
  -33.9264603         1.77906078E-29
  -33.8077126         2.07625961E-29
  -33.6889610         2.38385650E-29
  -33.5702095         2.84716633E-29
  -33.4514618         3.54138313E-29
  -33.3327103         4.76609372E-29
  -33.2139626         6.82327850E-29
  -33.0952110         1.00319657E-28
  -32.9764595         1.46152119E-28
  -32.8577118         2.05644131E-28
  -32.7389603         2.75021953E-28
  -32.6202126         3.44337881E-28
  -32.5014610         3.98217746E-28
  -32.3827095         4.16815344E-28
  -32.2639618         3.79913635E-28
  -32.1452103         2.73000642E-28
  -32.0264626         9.39913697E-29
  -31.9077110        -1.43642993E-28
  -31.7889614        -4.14042438E-28
  -31.6702118        -6.88995515E-28
  -31.5514603        -9.58380489E-28
  -31.4327106        -1.25606638E-27
  -31.3139610        -1.68412963E-27
  -31.1952114        -2.42350550E-27
  -31.0764618        -3.71671546E-27
  -30.9577103        -5.81176863E-27
  -30.8389606        -8.86464724E-27
  -30.7202110        -1.28095550E-26
  -30.6014614        -1.72248688E-26
  -30.4827118        -2.12387687E-26
  -30.3639603        -2.35273574E-26
  -30.2452106        -2.24571459E-26
  -30.1264610        -1.64014135E-26
  -30.0077114        -4.22161764E-27
  -29.8889618         1.41494653E-26
  -29.7702103         3.71441844E-26
  -29.6514606         6.11843846E-26
  -29.5327110         8.06798431E-26
  -29.4139614         8.85598548E-26
  -29.2952118         7.74167631E-26
  -29.1764603         4.12105867E-26
  -29.0577106        -2.26773413E-26
  -28.9389610        -1.11413587E-25
  -28.8202114        -2.15195141E-25
  -28.7014618        -3.16771485E-25
  -28.5827103        -3.92452409E-25
  -28.4639606        -4.14845729E-25
  -28.3452110        -3.57254939E-25
  -28.2264614        -1.99295046E-25
  -28.1077118         6.70834310E-26
  -27.9889603         4.32249233E-25
  -27.8702106         8.65428238E-25
  -27.7514610         1.31422974E-24
  -27.6327114         1.70794756E-24
  -27.5139618         1.96490303E-24
  -27.3952103         2.00346866E-24
  -27.2764606         1.75575391E-24
  -27.1577110         1.18238506E-24
  -27.0389614         2.86415229E-25
  -26.9202118        -8.75732339E-25
  -26.8014603        -2.18829542E-24
  -26.6827106        -3.47687801E-24
  -26.5639610        -4.51705620E-24
  -26.4452114        -5.05153983E-24
  -26.3264618        -4.81587553E-24
  -26.2077103        -3.57191288E-24
  -26.0889606        -1.14732216E-24
  -25.9702110         2.52165837E-24
  -25.8514614         7.34845785E-24
  -25.7327118         1.30610438E-23
  -25.6139603         1.91805234E-23
  -25.4952106         2.50214089E-23
  -25.3764610         2.97214232E-23
  -25.2577114         3.23070758E-23
  -25.1389618         3.17976925E-23
  -25.0202103         2.73449040E-23
  -24.9014606         1.83973896E-23
  -24.7827110         4.87244947E-24
  -24.6639614        -1.26915169E-23
  -24.5452118        -3.30326416E-23
  -24.4264603        -5.41451154E-23
  -24.3077106        -7.33674847E-23
  -24.1889610        -8.75946921E-23
  -24.0702114        -9.36113216E-23
  -23.9514618        -8.85213260E-23
  -23.8327103        -7.02262216E-23
  -23.7139606        -3.78842719E-23
  -23.5952110         7.72896017E-24
  -23.4764614         6.40382452E-23
  -23.3577118         1.26728561E-22
  -23.2389603         1.90082699E-22
  -23.1202106         2.47588829E-22
  -23.0014610         2.92763220E-22
  -22.8827114         3.20085601E-22
  -22.7639618         3.25908530E-22
  -22.6452103         3.09185714E-22
  -22.5264606         2.71872114E-22
  -22.4077110         2.18885248E-22
  -22.2889614         1.57579964E-22
  -22.1702118         9.67666516E-23
  -22.0514603         4.53888130E-23
  -21.9327106         1.10501853E-23
  -21.8139610        -1.36848632E-24
  -21.6952114         9.24792052E-24
  -21.5764618         3.97665098E-23
  -21.4577103         8.30273137E-23
  -21.3389606         1.28795073E-22
  -21.2202110         1.65340361E-22
  -21.1014614         1.81417018E-22
  -20.9827118         1.68300192E-22
  -20.8639603         1.21497643E-22
  -20.7452106         4.17585571E-23
  -20.6264610        -6.49083273E-23
  -20.5077114        -1.88329144E-22
  -20.3889618        -3.16297655E-22
  -20.2702103        -4.37431475E-22
  -20.1514606        -5.44213303E-22
  -20.0327110        -6.35514423E-22
  -19.9139614        -7.17852064E-22
  -19.7952118        -8.04642869E-22
  -19.6764603        -9.12965866E-22
  -19.5577106        -1.05763382E-21
  -19.4389610        -1.24286139E-21
  -19.3202114        -1.45232074E-21
  -19.2014618        -1.63887522E-21
  -19.0827103        -1.71576222E-21
  -18.9639606        -1.55124082E-21
  -18.8452110        -9.68771780E-22
  -18.7264614         2.45460142E-22
  -18.6077118         2.32641720E-21
  -18.4889603         5.50517455E-21
  -18.3702106         9.97576830E-21
  -18.2514610         1.58560523E-20
  -18.1327114         2.31459902E-20
  -18.0139618         3.16880453E-20
  -17.8952103         4.11350715E-20
  -17.7764606         5.09315653E-20
  -17.6577110         6.03136870E-20
  -17.5389614         6.83325955E-20
  -17.4202118         7.39037280E-20
  -17.3014603         7.58824216E-20
  -17.1827106         7.31634789E-20
  -17.0639610         6.47988993E-20
  -16.9452114         5.01256911E-20
  -16.8264618         2.88925722E-20
  -16.7077103         1.37317192E-21
  -16.5889606        -3.15473858E-20
  -16.4702110        -6.83252220E-20
  -16.3514614        -1.06759704E-19
  -16.2327118        -1.44051694E-19
  -16.1139603        -1.76921125E-19
  -15.9952106        -2.01780590E-19
  -15.8764610        -2.14957086E-19
  -15.7577114        -2.12948653E-19
  -15.6389608        -1.92697824E-19
  -15.5202112        -1.51861908E-19
  -15.4014606        -8.90568949E-20
  -15.2827110        -4.05498880E-21
  -15.1639614         1.02083904E-19
  -15.0452108         2.26960343E-19
  -14.9264612         3.66870706E-19
  -14.8077106         5.16929980E-19
  -14.6889610         6.71275007E-19
  -14.5702114         8.23333964E-19
  -14.4514608         9.66139511E-19
  -14.3327112         1.09266278E-18
  -14.2139606         1.19613863E-18
  -14.0952110         1.27035586E-18
  -13.9764614         1.30988951E-18
  -13.8577108         1.31025450E-18
  -13.7389612         1.26797337E-18
  -13.6202106         1.18055010E-18
  -13.5014610         1.04636497E-18
  -13.3827114         8.64500210E-19
  -13.2639608         6.34523527E-19
  -13.1452112         3.56258004E-19
  -13.0264606         2.95694128E-20
  -12.9077110        -3.45797039E-19
  -12.7889614        -7.70299434E-19
  -12.6702108        -1.24458401E-18
  -12.5514612        -1.76935339E-18
  -12.4327106        -2.34511680E-18
  -12.3139610        -2.97182750E-18
  -12.1952114        -3.64842113E-18
  -12.0764608        -4.37228481E-18
  -11.9577112        -5.13868171E-18
  -11.8389606        -5.94016720E-18
  -11.7202110        -6.76603425E-18
  -11.6014614        -7.60181134E-18
  -11.4827108        -8.42885133E-18
  -11.3639612        -9.22403163E-18
  -11.2452106        -9.95955153E-18
  -11.1264610        -1.06028838E-17
  -11.0077114        -1.11168285E-17
  -10.8889608        -1.14596891E-17
  -10.7702112        -1.15855678E-17
  -10.6514606        -1.14447642E-17
  -10.5327110        -1.09842902E-17
  -10.4139614        -1.01484936E-17
  -10.2952108        -8.87985419E-18
  -10.1764612        -7.11992404E-18
  -10.0577106        -4.81052469E-18
  -9.93896103        -1.89519527E-18
  -9.82021141         1.67902455E-18
  -9.70146084         5.95943927E-18
  -9.58271122         1.09851447E-17
  -9.46396065         1.67840786E-17
  -9.34521103         2.33696804E-17
  -9.22646141         3.07372739E-17
  -9.10771084         3.88602305E-17
  -8.98896122         4.76861517E-17
  -8.87021065         5.71332127E-17
  -8.75146103         6.70869020E-17
  -8.63271141         7.73975429E-17
  -8.51396084         8.78787087E-17
  -8.39521122         9.83068821E-17
  -8.27646065         1.08422600E-16
  -8.15771103         1.17933046E-16
  -8.03896141         1.26516573E-16
  -7.92021084         1.33828585E-16
  -7.80146122         1.39509225E-16
  -7.68271112         1.43192098E-16
  -7.56396103         1.44514078E-16
  -7.44521093         1.43125486E-16
  -7.32646084         1.38700335E-16
  -7.20771122         1.30945841E-16
  -7.08896112         1.19610912E-16
  -6.97021103         1.04492936E-16
  -6.85146093         8.54426023E-17
  -6.73271084         6.23661624E-17
  -6.61396122         3.52254798E-17
  -6.49521112         4.03547961E-18
  -6.37646103        -3.11404450E-17
  -6.25771093        -7.01966644E-17
  -6.13896084        -1.12992647E-16
  -6.02021122        -1.59360368E-16
  -5.90146112        -2.09111299E-16
  -5.78271103        -2.62041554E-16
  -5.66396093        -3.17935114E-16
  -5.54521084        -3.76563505E-16
  -5.42646122        -4.37682332E-16
  -5.30771112        -5.01023694E-16
  -5.18896103        -5.66285094E-16
  -5.07021093        -6.33114935E-16
  -4.95146084        -7.01095364E-16
  -4.83271122        -7.69724250E-16
  -4.71396112        -8.38395858E-16
  -4.59521103        -9.06384546E-16
  -4.47646093        -9.72830257E-16
  -4.35771084        -1.03672958E-15
  -4.23896122        -1.09693287E-15
  -4.12021112        -1.15214883E-15
  -4.00146103        -1.20095730E-15
  -3.88271117        -1.24183172E-15
  -3.76396108        -1.27316940E-15
  -3.64521098        -1.29333016E-15
  -3.52646112        -1.30068230E-15
  -3.40771103        -1.29365246E-15
  -3.28896117        -1.27077865E-15
  -3.17021108        -1.23076365E-15
  -3.05146098        -1.17252547E-15
  -2.93271112        -1.09524240E-15
  -2.81396103        -9.98389794E-16
  -2.69521117        -8.81767333E-16
  -2.57646108        -7.45513190E-16
  -2.45771098        -5.90106414E-16
  -2.33896112        -4.16355048E-16
  -2.22021103        -2.25371962E-16
  -2.10146117        -1.85392566E-17
  -1.98271108         2.02536973E-16
  -1.86396110         4.36078025E-16
  -1.74521101         6.80188315E-16
  -1.62646103         9.32910336E-16
  -1.50771105         1.19227659E-15
  -1.38896108         1.45635563E-15
  -1.27021110         1.72328599E-15
  -1.15146101         1.99130098E-15
  -1.03271103         2.25873893E-15
 -0.913961053         2.52404023E-15
 -0.795211077         2.78573000E-15
 -0.676461041         3.04239052E-15
 -0.557711065         3.29262395E-15
 -0.438961059         3.53500667E-15
 -0.320211053         3.76804258E-15
 -0.201461062         3.99011768E-15
  -8.27110559E-02     4.19945806E-15
   3.60389426E-02     4.39409819E-15
  0.154788941         4.57185737E-15
  0.273538947         4.73033554E-15
  0.392288953         4.86691833E-15
  0.511038959         4.97880249E-15
  0.629788935         5.06303145E-15
  0.748538971         5.11655080E-15
  0.867288947         5.13626422E-15
  0.986038923         5.11910418E-15
   1.10478890         5.06210310E-15
   1.22353899         4.96246280E-15
   1.34228897         4.81761974E-15
   1.46103895         4.62530261E-15
   1.57978892         4.38357846E-15
   1.69853890         4.09088792E-15
   1.81728899         3.74606631E-15
   1.93603897         3.34835258E-15
   2.05478883         2.89739076E-15
   2.17353892         2.39322171E-15
   2.29228902         1.83627404E-15
   2.41103888         1.22735487E-15
   2.52978897         5.67646753E-16
   2.64853883        -1.41284037E-16
   2.76728892        -8.97467724E-16
   2.88603902        -1.69849069E-15
   3.00478888        -2.54144125E-15
   3.12353897        -3.42283579E-15
   3.24228883        -4.33852859E-15
   3.36103892        -5.28361238E-15
   3.47978902        -6.25231102E-15
   3.59853888        -7.23787621E-15
   3.71728897        -8.23248940E-15
   3.83603883        -9.22719237E-15
   3.95478892        -1.02118360E-14
   4.07353878        -1.11750751E-14
   4.19228888        -1.21044125E-14
   4.31103897        -1.29862873E-14
   4.42978907        -1.38062322E-14
   4.54853916        -1.45490851E-14
   4.66728878        -1.51992541E-14
   4.78603888        -1.57410451E-14
   4.90478897        -1.61590237E-14
   5.02353907        -1.64384243E-14
   5.14228916        -1.65655555E-14
   5.26103878        -1.65282267E-14
   5.37978888        -1.63161500E-14
   5.49853897        -1.59212938E-14
   5.61728907        -1.53381997E-14
   5.73603916        -1.45642250E-14
   5.85478878        -1.35996806E-14
   5.97353888        -1.24478954E-14
   6.09228897        -1.11151712E-14
   6.21103907        -9.61063403E-15
   6.32978916        -7.94599236E-15
   6.44853878        -6.13520787E-15
   6.56728888        -4.19409761E-15
   6.68603897        -2.13988792E-15
   6.80478907         9.25731407E-18
   6.92353916         2.23470691E-15
   7.04228878         4.51780481E-15
   7.16103888         6.84026031E-15
   7.27978897         9.18446041E-15
   7.39853907         1.15336817E-14
   7.51728916         1.38722109E-14
   7.63603878         1.61853275E-14
   7.75478888         1.84591942E-14
   7.87353897         2.06806279E-14
   7.99228907         2.28367858E-14
   8.11103916         2.49147864E-14
   8.22978878         2.69013090E-14
   8.34853935         2.87821491E-14
   8.46728897         3.05418498E-14
   8.58603859         3.21633623E-14
   8.70478916         3.36278314E-14
   8.82353878         3.49144846E-14
   8.94228935         3.60006926E-14
   9.06103897         3.68621725E-14
   9.17978859         3.74733847E-14
   9.29853916         3.78080779E-14
   9.41728878         3.78399874E-14
   9.53603935         3.75436851E-14
   9.65478897         3.68955050E-14
   9.77353859         3.58745287E-14
   9.89228916         3.44636022E-14
   10.0110388         3.26503181E-14
   10.1297894         3.04278968E-14
   10.2485390         2.77959723E-14
   10.3672886         2.47611973E-14
   10.4860392         2.13376358E-14
   10.6047888         1.75469431E-14
   10.7235394         1.34182860E-14
   10.8422890         8.98802330E-15
   10.9610386         4.29912589E-15
   11.0797892        -5.99630717E-16
   11.1985388        -5.65466448E-15
   11.3172894        -1.08087774E-14
   11.4360390        -1.60024395E-14
   11.5547886        -2.11751664E-14
   11.6735392        -2.62669050E-14
   11.7922888        -3.12193949E-14
   11.9110394        -3.59774432E-14
   12.0297890        -4.04900688E-14
   12.1485386        -4.47114845E-14
   12.2672892        -4.86018527E-14
   12.3860388        -5.21278577E-14
   12.5047894        -5.52630248E-14
   12.6235390        -5.79878010E-14
   12.7422886        -6.02894538E-14
   12.8610392        -6.21617287E-14
   12.9797888        -6.36043749E-14
   13.0985394        -6.46225288E-14
   13.2172890        -6.52260364E-14
   13.3360386        -6.54286670E-14
   13.4547892        -6.52473545E-14
   13.5735388        -6.47014790E-14
   13.6922894        -6.38121487E-14
   13.8110390        -6.26015895E-14
   13.9297886        -6.10926037E-14
   14.0485392        -5.93081289E-14
   14.1672888        -5.72708791E-14
   14.2860394        -5.50030399E-14
   14.4047890        -5.25259971E-14
   14.5235386        -4.98601641E-14
   14.6422892        -4.70247383E-14
   14.7610388        -4.40374598E-14
   14.8797894        -4.09143578E-14
   14.9985390        -3.76694051E-14
   15.1172886        -3.43141822E-14
   15.2360392        -3.08574374E-14
   15.3547888        -2.73046847E-14
   15.4735394        -2.36577878E-14
   15.5922890        -1.99145865E-14
   15.7110386        -1.60686250E-14
   15.8297892        -1.21090399E-14
   15.9485388        -8.02060495E-15
   16.0672894        -3.78406718E-15
   16.1860390         6.23287553E-16
   16.3047886         5.22671167E-15
   16.4235382         1.00528013E-14
   16.5422897         1.51279458E-14
   16.6610394         2.04765404E-14
   16.7797890         2.61189284E-14
   16.8985386         3.20692163E-14
   17.0172882         3.83330385E-14
   17.1360397         4.49053399E-14
   17.2547894         5.17683769E-14
   17.3735390         5.88899860E-14
   17.4922886         6.62222759E-14
   17.6110382         7.37008924E-14
   17.7297897         8.12449066E-14
   17.8485394         8.87574519E-14
   17.9672890         9.61271332E-14
   18.0860386         1.03230175E-13
   18.2047882         1.09933384E-13
   18.3235397         1.16097792E-13
   18.4422894         1.21582852E-13
   18.5610390         1.26251074E-13
   18.6797886         1.29972923E-13
   18.7985382         1.32631699E-13
   18.9172897         1.34128345E-13
   19.0360394         1.34385775E-13
   19.1547890         1.33352585E-13
   19.2735386         1.31005951E-13
   19.3922882         1.27353626E-13
   19.5110397         1.22434791E-13
   19.6297894         1.16319647E-13
   19.7485390         1.09108008E-13
   19.8672886         1.00926585E-13
   19.9860382         9.19252874E-14
   20.1047897         8.22726287E-14
   20.2235394         7.21503884E-14
   20.3422890         6.17478752E-14
   20.4610386         5.12558779E-14
   20.5797882         4.08607542E-14
   20.6985397         3.07387240E-14
   20.8172894         2.10507677E-14
   20.9360390         1.19382077E-14
   21.0547886         3.51920696E-15
   21.1735382        -4.11375569E-15
   21.2922897        -1.08953153E-14
   21.4110394        -1.67876407E-14
   21.5297890        -2.17798175E-14
   21.6485386        -2.58863501E-14
   21.7672882        -2.91448858E-14
   21.8860397        -3.16133533E-14
   22.0047894        -3.33666742E-14
   22.1235390        -3.44932382E-14
   22.2422886        -3.50913417E-14
   22.3610382        -3.52656611E-14
   22.4797897        -3.51239898E-14
   22.5985394        -3.47742261E-14
   22.7172890        -3.43217106E-14
   22.8360386        -3.38669488E-14
   22.9547882        -3.35036293E-14
   23.0735397        -3.33169974E-14
   23.1922894        -3.33824290E-14
   23.3110390        -3.37642376E-14
   23.4297886        -3.45145902E-14
   23.5485382        -3.56725114E-14
   23.6672897        -3.72629445E-14
   23.7860394        -3.92958744E-14
   23.9047890        -4.17655243E-14
   24.0235386        -4.46497257E-14
   24.1422882        -4.79094879E-14
   24.2610397        -5.14889340E-14
   24.3797894        -5.53156696E-14
   24.4985390        -5.93016847E-14
   24.6172886        -6.33449524E-14
   24.7360382        -6.73317196E-14
   24.8547897        -7.11395664E-14
   24.9735394        -7.46411938E-14
   25.0922890        -7.77089439E-14
   25.2110386        -8.02198477E-14
   25.3297882        -8.20610873E-14
   25.4485397        -8.31357010E-14
   25.5672894        -8.33681540E-14
   25.6860390        -8.27096163E-14
   25.8047886        -8.11425783E-14
   25.9235382        -7.86844887E-14
   26.0422897        -7.53902623E-14
   26.1610394        -7.13532017E-14
   26.2797890        -6.67043664E-14
   26.3985386        -6.16101679E-14
   26.5172882        -5.62682225E-14
   26.6360397        -5.09014387E-14
   26.7547894        -4.57506279E-14
   26.8735390        -4.10657395E-14
   26.9922886        -3.70961129E-14
   27.1110382        -3.40801369E-14
   27.2297897        -3.22346926E-14
   27.3485394        -3.17449009E-14
   27.4672890        -3.27546387E-14
   27.5860386        -3.53582554E-14
   27.7047882        -3.95940333E-14
   27.8235397        -4.54394348E-14
   27.9422894        -5.28088417E-14
   28.0610390        -6.15535793E-14
   28.1797886        -7.14645018E-14
   28.2985382        -8.22771281E-14
   28.4172897        -9.36789369E-14
   28.5360394        -1.05318864E-13
   28.6547890        -1.16818393E-13
   28.7735386        -1.27784082E-13
   28.8922882        -1.37820799E-13
   29.0110397        -1.46545238E-13
   29.1297894        -1.53599423E-13
   29.2485390        -1.58663244E-13
   29.3672886        -1.61466015E-13
   29.4860382        -1.61796385E-13
   29.6047897        -1.59510263E-13
   29.7235394        -1.54536716E-13
   29.8422890        -1.46881232E-13
   29.9610386        -1.36626929E-13
   30.0797882        -1.23932968E-13
   30.1985397        -1.09030962E-13
   30.3172894        -9.22190316E-14
   30.4360390        -7.38540902E-14
   30.5547886        -5.43423779E-14
   30.6735382        -3.41287057E-14
   30.7922897        -1.36847295E-14
   30.9110394         6.50346772E-15
   31.0297890         2.59480615E-14
   31.1485386         4.41721617E-14
   31.2672882         6.07221115E-14
   31.3860397         7.51791953E-14
   31.5047894         8.71703900E-14
   31.6235390         9.63780447E-14
   31.7422886         1.02548151E-13
   31.8610382         1.05497168E-13
   31.9797897         1.05117202E-13
   32.0985374         1.01379327E-13
   32.2172890         9.43351232E-14
   32.3360405         8.41162467E-14
   32.4547882         7.09321856E-14
   32.5735397         5.50660591E-14
   32.6922874         3.68685829E-14
   32.8110390         1.67503747E-14
   32.9297905        -4.82740636E-15
   33.0485382        -2.73637094E-14
   33.1672897        -5.03294644E-14
   33.2860374        -7.31804821E-14
   33.4047890        -9.53706447E-14
   33.5235405        -1.16365549E-13
   33.6422882        -1.35656094E-13
   33.7610397        -1.52771445E-13
   33.8797874        -1.67291216E-13
   33.9985390        -1.78856387E-13
   34.1172905        -1.87178804E-13
   34.2360382        -1.92048431E-13
   34.3547897        -1.93338753E-13
   34.4735374        -1.91009507E-13
   34.5922890        -1.85106989E-13
   34.7110405        -1.75761424E-13
   34.8297882        -1.63181805E-13
   34.9485397        -1.47648088E-13
   35.0672874        -1.29500848E-13
   35.1860390        -1.09128730E-13
   35.3047905        -8.69542407E-14
   35.4235382        -6.34179192E-14
   35.5422897        -3.89614386E-14
   35.6610374        -1.40106813E-14
   35.7797890         1.10409898E-14
   35.8985405         3.58489517E-14
   36.0172882         6.01315669E-14
   36.1360397         8.36825929E-14
   36.2547874         1.06380664E-13
   36.3735390         1.28195970E-13
   36.4922905         1.49192968E-13
   36.6110382         1.69529646E-13
   36.7297897         1.89452729E-13
   36.8485374         2.09289048E-13
   36.9672890         2.29432982E-13
   37.0860405         2.50330681E-13
   37.2047882         2.72461307E-13
   37.3235397         2.96315544E-13
   37.4422874         3.22373313E-13
   37.5610390         3.51080168E-13
   37.6797905         3.82823845E-13
   37.7985382         4.17912341E-13
   37.9172897         4.56553306E-13
   38.0360374         4.98837029E-13
   38.1547890         5.44722524E-13
   38.2735405         5.94027757E-13
   38.3922882         6.46425513E-13
   38.5110397         7.01443135E-13
   38.6297874         7.58468375E-13
   38.7485390         8.16759963E-13
   38.8672905         8.75463439E-13
   38.9860382         9.33630777E-13
   39.1047897         9.90244453E-13
   39.2235374         1.04424347E-12
   39.3422890         1.09455273E-12
   39.4610405         1.14011166E-12
   39.5797882         1.17990361E-12
   39.6985397         1.21298479E-12
   39.8172874         1.23850940E-12
   39.9360390         1.25575310E-12
   40.0547905         1.26413225E-12
   40.1735382         1.26321848E-12
   40.2922897         1.25274899E-12
   40.4110374         1.23263151E-12
   40.5297890         1.20294432E-12
   40.6485405         1.16393115E-12
   40.7672882         1.11599206E-12
   40.8860397         1.05967047E-12
   41.0047874         9.95636299E-13
   41.1235390         9.24666919E-13
   41.2422905         8.47626060E-13
   41.3610382         7.65441909E-13
   41.4797897         6.79084664E-13
   41.5985374         5.89543768E-13
   41.7172890         4.97806765E-13
   41.8360405         4.04839248E-13
   41.9547882         3.11565769E-13
   42.0735397         2.18853486E-13
   42.1922874         1.27496660E-13
   42.3110390         3.82044521E-14
   42.4297905        -4.84099861E-14
   42.5485382        -1.31839011E-13
   42.6672897        -2.11686557E-13
   42.7860374        -2.87673260E-13
   42.9047890        -3.59639673E-13
   43.0235405        -4.27546480E-13
   43.1422882        -4.91473398E-13
   43.2610397        -5.51615773E-13
   43.3797874        -6.08278185E-13
   43.4985390        -6.61865365E-13
   43.6172905        -7.12871385E-13
   43.7360382        -7.61864638E-13
   43.8547897        -8.09471414E-13
   43.9735374        -8.56356056E-13
   44.0922890        -9.03199499E-13
   44.2110405        -9.50676170E-13
   44.3297882        -9.99428513E-13
   44.4485397        -1.05004406E-12
   44.5672874        -1.10302923E-12
   44.6860390        -1.15878856E-12
   44.8047905        -1.21760393E-12
   44.9235382        -1.27961780E-12
   45.0422897        -1.34482204E-12
   45.1610374        -1.41305034E-12
   45.2797890        -1.48397700E-12
   45.3985405        -1.55712119E-12
   45.5172882        -1.63185860E-12
   45.6360397        -1.70743671E-12
   45.7547874        -1.78299704E-12
   45.8735390        -1.85760175E-12
   45.9922905        -1.93026194E-12
   46.1110382        -1.99997115E-12
   46.2297897        -2.06573734E-12
   46.3485374        -2.12661551E-12
   46.4672890        -2.18173938E-12
   46.5860405        -2.23034915E-12
   46.7047882        -2.27181511E-12
   46.8235397        -2.30565632E-12
   46.9422874        -2.33155465E-12
   47.0610390        -2.34936051E-12
   47.1797905        -2.35909447E-12
   47.2985382        -2.36094022E-12
   47.4172897        -2.35523341E-12
   47.5360374        -2.34244503E-12
   47.6547890        -2.32315903E-12
   47.7735405        -2.29804717E-12
   47.8922882        -2.26784195E-12
   48.0110397        -2.23330794E-12
   48.1297874        -2.19521168E-12
   48.2485390        -2.15429410E-12
   48.3672905        -2.11124304E-12
   48.4860382        -2.06667170E-12
   48.6047897        -2.02109510E-12
   48.7235374        -1.97491632E-12
   48.8422890        -1.92841424E-12
   48.9610405        -1.88173479E-12
   49.0797882        -1.83488966E-12
   49.1985397        -1.78775766E-12
   49.3172874        -1.74009028E-12
   49.4360390        -1.69152171E-12
   49.5547905        -1.64158216E-12
   49.6735382        -1.58971425E-12
   49.7922897        -1.53529077E-12
   49.9110374        -1.47763540E-12
   50.0297890        -1.41604404E-12
   50.1485405        -1.34980688E-12
   50.2672882        -1.27823110E-12
   50.3860397        -1.20066164E-12
   50.5047874        -1.11650240E-12
   50.6235390        -1.02523686E-12
   50.7422905        -9.26444793E-13
   50.8610382        -8.19818063E-13
   50.9797897        -7.05173983E-13
   51.0985374        -5.82465662E-13
   51.2172890        -4.51789105E-13
   51.3360405        -3.13387228E-13
   51.4547882        -1.67649396E-13
   51.5735397        -1.51079863E-14
   51.6922874         1.43568805E-13
   51.8110390         3.07589620E-13
   51.9297905         4.76054092E-13
   52.0485382         6.47973266E-13
   52.1672897         8.22291833E-13
   52.2860374         9.97913666E-13
   52.4047890         1.17373093E-12
   52.5235405         1.34865274E-12
   52.6422882         1.52163677E-12
   52.7610397         1.69171860E-12
   52.8797874         1.85804193E-12
   52.9985390         2.01988578E-12
   53.1172905         2.17668830E-12
   53.2360382         2.32806829E-12
   53.3547897         2.47384036E-12
   53.4735374         2.61402575E-12
   53.5922890         2.74885583E-12
   53.7110405         2.87877079E-12
   53.8297882         3.00441074E-12
   53.9485397         3.12660054E-12
   54.0672874         3.24632920E-12
   54.1860390         3.36472278E-12
   54.3047905         3.48301357E-12
   54.4235382         3.60250566E-12
   54.5422897         3.72453500E-12
   54.6610374         3.85042909E-12
   54.7797890         3.98146793E-12
   54.8985405         4.11883938E-12
   55.0172882         4.26360119E-12
   55.1360397         4.41664327E-12
   55.2547874         4.57865126E-12
   55.3735390         4.75007794E-12
   55.4922905         4.93111411E-12
   55.6110382         5.12167305E-12
   55.7297897         5.32137268E-12
   55.8485374         5.52952909E-12
   55.9672890         5.74515652E-12
   56.0860405         5.96697127E-12
   56.2047882         6.19340777E-12
   56.3235397         6.42263760E-12
   56.4422874         6.65259601E-12
   56.5610390         6.88101659E-12
   56.6797905         7.10547073E-12
   56.7985382         7.32341097E-12
   56.9172897         7.53222051E-12
   57.0360374         7.72926254E-12
   57.1547890         7.91193239E-12
   57.2735405         8.07771298E-12
   57.3922882         8.22422339E-12
   57.5110397         8.34926833E-12
   57.6297874         8.45087975E-12
   57.7485390         8.52736111E-12
   57.8672905         8.57731247E-12
   57.9860382         8.59966178E-12
   58.1047897         8.59367612E-12
   58.2235374         8.55897384E-12