  -37.8452110         0.00000000    
  -37.7264595         0.00000000    
  -37.6077118         0.00000000    
  -37.4889603         0.00000000    
  -37.3702126         0.00000000    
  -37.2514610         0.00000000    
  -37.1327095         0.00000000    
  -37.0139618         0.00000000    
  -36.8952103         0.00000000    
  -36.7764626         0.00000000    
  -36.6577110         0.00000000    
  -36.5389595         0.00000000    
  -36.4202118         0.00000000    
  -36.3014603         0.00000000    
  -36.1827126        -2.19249699E-35
  -36.0639610        -4.18754021E-34
  -35.9452095        -5.03086750E-33
  -35.8264618        -3.69576195E-33
  -35.7077103         1.27600338E-32
  -35.5889626         4.61129419E-32
  -35.4702110         8.75259223E-32
  -35.3514595         1.17909360E-31
  -35.2327118         1.09591338E-31
  -35.1139603        -1.58438036E-32
  -34.9952126        -3.77965374E-31
  -34.8764610        -1.17491347E-30
  -34.7577095        -2.68466829E-30
  -34.6389618        -5.25724896E-30
  -34.5202103        -9.38212710E-30
  -34.4014626        -1.56718171E-29
  -34.2827110        -2.50237417E-29
  -34.1639595        -3.78932404E-29
  -34.0452118        -5.45788926E-29
  -33.9264603        -7.53958842E-29
  -33.8077126        -9.99535373E-29
  -33.6889610        -1.27535418E-28
  -33.5702095        -1.57608549E-28
  -33.4514618        -1.90774616E-28
  -33.3327103        -2.28724764E-28
  -33.2139626        -2.75167289E-28
  -33.0952110        -3.38022540E-28
  -32.9764595        -4.29359551E-28
  -32.8577118        -5.65351343E-28
  -32.7389603        -7.65766068E-28
  -32.6202126        -1.05082378E-27
  -32.5014610        -1.43746837E-27
  -32.3827095        -1.93261908E-27
  -32.2639618        -2.52692409E-27
  -32.1452103        -3.18780637E-27
  -32.0264626        -3.85464825E-27
  -31.9077110        -4.43680410E-27
  -31.7889614        -4.81768140E-27
  -31.6702118        -4.86554076E-27
  -31.5514603        -4.45040271E-27
  -31.4327106        -3.46794771E-27
  -31.3139610        -1.86599404E-27
  -31.1952114         3.26812665E-28
  -31.0764618         2.97777350E-27
  -30.9577103         5.83373078E-27
  -30.8389606         8.51935265E-27
  -30.7202110         1.05531794E-26
  -30.6014614         1.13875007E-26
  -30.4827118         1.04730514E-26
  -30.3639603         7.35215205E-27
  -30.2452106         1.77742438E-27
  -30.1264610        -6.14771090E-27
  -30.0077114        -1.58209460E-26
  -29.8889618        -2.60040663E-26
  -29.7702103        -3.47271793E-26
  -29.6514606        -3.92741489E-26
  -29.5327110        -3.62930281E-26
  -29.4139614        -2.20751323E-26
  -29.2952118         6.96682894E-27
  -29.1764603         5.36169652E-26
  -29.0577106         1.19006940E-25
  -28.9389610         2.01687599E-25
  -28.8202114         2.96767303E-25
  -28.7014618         3.95314766E-25
  -28.5827103         4.84254938E-25
  -28.4639606         5.46986685E-25
  -28.3452110         5.64899202E-25
  -28.2264614         5.19863182E-25
  -28.1077118         3.97615232E-25
  -27.9889603         1.91757887E-25
  -27.8702106        -9.21141416E-26
  -27.7514610        -4.32847239E-25
  -27.6327114        -7.91540469E-25
  -27.5139618        -1.11159002E-24
  -27.3952103        -1.32171485E-24
  -27.2764606        -1.34245055E-24
  -27.1577110        -1.09617015E-24
  -27.0389614        -5.20134797E-25
  -26.9202118         4.18574034E-25
  -26.8014603         1.70802526E-24
  -26.6827106         3.27864989E-24
  -26.5639610         4.99535992E-24
  -26.4452114         6.65725240E-24
  -26.3264618         8.00718037E-24
  -26.2077103         8.75259476E-24
  -26.0889606         8.59778002E-24
  -25.9702110         7.28587514E-24
  -25.8514614         4.64718906E-24
  -25.7327118         6.48396924E-25
  -25.6139603        -4.56437484E-24
  -25.4952106        -1.06365682E-23
  -25.3764610        -1.69983211E-23
  -25.2577114        -2.28865336E-23
  -25.1389618        -2.74002063E-23
  -25.0202103        -2.95895004E-23
  -24.9014606        -2.85741607E-23
  -24.7827110        -2.36812888E-23
  -24.6639614        -1.45872546E-23
  -24.5452118        -1.44391404E-24
  -24.4264603         1.50330130E-23
  -24.3077106         3.35353764E-23
  -24.1889610         5.22118950E-23
  -24.0702114         6.88058870E-23
  -23.9514618         8.08808295E-23
  -23.8327103         8.61195159E-23
  -23.7139606         8.26676120E-23
  -23.5952110         6.94788674E-23
  -23.4764614         4.66087580E-23
  -23.3577118         1.53993111E-23
  -23.2389603        -2.14980090E-23
  -23.1202106        -6.03009062E-23
  -23.0014610        -9.64923426E-23
  -22.8827114        -1.25418219E-22
  -22.7639618        -1.43034164E-22
  -22.6452103        -1.46711632E-22
  -22.5264606        -1.35982404E-22
  -22.4077110        -1.13081595E-22
  -22.2889614        -8.31486215E-23
  -22.1702118        -5.39691994E-23
  -22.0514603        -3.51876803E-23
  -21.9327106        -3.69907102E-23
  -21.8139610        -6.83511434E-23
  -21.6952114        -1.35014857E-22
  -21.5764618        -2.37501961E-22
  -21.4577103        -3.69459786E-22
  -21.3389606        -5.16731055E-22
  -21.2202110        -6.57477825E-22
  -21.1014614        -7.63617407E-22
  -20.9827118        -8.03681797E-22
  -20.8639603        -7.47018410E-22
  -20.7452106        -5.69020088E-22
  -20.6264610        -2.56838293E-22
  -20.5077114         1.85171138E-22
  -20.3889618         7.31161120E-22
  -20.2702103         1.33159418E-21
  -20.1514606         1.91397396E-21
  -20.0327110         2.38711562E-21
  -19.9139614         2.64920202E-21
  -19.7952118         2.59939024E-21
  -19.6764603         2.15218178E-21
  -19.5577106         1.25323457E-21
  -19.4389610        -1.05195006E-22
  -19.3202114        -1.87129399E-21
  -19.2014618        -3.92544941E-21
  -19.0827103        -6.07873222E-21
  -18.9639606        -8.07966758E-21
  -18.8452110        -9.63002457E-21
  -18.7264614        -1.04093822E-20
  -18.6077118        -1.01070259E-20
  -18.4889603        -8.45862212E-21
  -18.3702106        -5.28403056E-21
  -18.2514610        -5.21976563E-22
  -18.1327114         5.74302856E-21
  -18.0139618         1.32658081E-20
  -17.8952103         2.16411354E-20
  -17.7764606         3.03218337E-20
  -17.6577110         3.86545572E-20
  -17.5389614         4.59312036E-20
  -17.4202118         5.14518587E-20
  -17.3014603         5.45932483E-20
  -17.1827106         5.48752523E-20
  -17.0639610         5.20176599E-20
  -16.9452114         4.59796001E-20
  -16.8264618         3.69755130E-20
  -16.7077103         2.54641138E-20
  -16.5889606         1.21097133E-20
  -16.4702110        -2.28101274E-21
  -16.3514614        -1.68401339E-20
  -16.2327118        -3.07279761E-20
  -16.1139603        -4.32191143E-20
  -15.9952106        -5.37725139E-20
  -15.8764610        -6.20743538E-20
  -15.7577114        -6.80447625E-20
  -15.6389608        -7.18039753E-20
  -15.5202112        -7.35988991E-20
  -15.4014606        -7.36972948E-20
  -15.2827110        -7.22623174E-20
  -15.1639614        -6.92255758E-20
  -15.0452108        -6.41797870E-20
  -14.9264612        -5.63125820E-20
  -14.8077106        -4.44012006E-20
  -14.6889610        -2.68822342E-20
  -14.5702114        -2.00258710E-21
  -14.4514608         3.19521582E-20
  -14.3327112         7.63666712E-20
  -14.2139606         1.31968821E-19
  -14.0952110         1.98500936E-19
  -13.9764614         2.74431773E-19
  -13.8577108         3.56752219E-19
  -13.7389612         4.40896055E-19
  -13.6202106         5.20817988E-19
  -13.5014610         5.89247951E-19
  -13.3827114         6.38125071E-19
  -13.2639608         6.59191966E-19
  -13.1452112         6.44713513E-19
  -13.0264606         5.88262107E-19
  -12.9077110         4.85500322E-19
  -12.7889614         3.34879651E-19
  -12.6702108         1.38177704E-19
  -12.5514612        -9.91997965E-20
  -12.4327106        -3.68208774E-19
  -12.3139610        -6.56480778E-19
  -12.1952114        -9.48964243E-19
  -12.0764608        -1.22886655E-18
  -11.9577112        -1.47883205E-18
  -11.8389606        -1.68227113E-18
  -11.7202110        -1.82472424E-18
  -11.6014614        -1.89513696E-18
  -11.4827108        -1.88691664E-18
  -11.3639612        -1.79865358E-18
  -11.2452106        -1.63440870E-18
  -11.1264610        -1.40350226E-18
  -11.0077114        -1.11977735E-18
  -10.8889608        -8.00358299E-19
  -10.7702112        -4.63965657E-19
  -10.6514606        -1.28895768E-19
  -10.5327110         1.89194029E-19
  -10.4139614         4.79526527E-19
  -10.2952108         7.38289251E-19
  -10.1764612         9.70384085E-19
  -10.0577106         1.19066952E-18
  -9.93896103         1.42455711E-18
  -9.82021141         1.70785375E-18
  -9.70146084         2.08579589E-18
  -9.58271122         2.61126402E-18
  -9.46396065         3.34222161E-18
  -9.34521103         4.33847711E-18
  -9.22646141         5.65790836E-18
  -9.10771084         7.35233449E-18
  -8.98896122         9.46324565E-18
  -8.87021065         1.20176158E-17
  -8.75146103         1.50240484E-17
  -8.63271141         1.84694757E-17
  -8.51396084         2.23166249E-17
  -8.39521122         2.65024450E-17
  -8.27646065         3.09376269E-17
  -8.15771103         3.55073167E-17
  -8.03896141         4.00730394E-17
  -7.92021084         4.44758042E-17
  -7.80146122         4.85403546E-17
  -7.68271112         5.20802641E-17
  -7.56396103         5.49038021E-17
  -7.44521093         5.68202076E-17
  -7.32646084         5.76460382E-17
  -7.20771122         5.72113581E-17
  -7.08896112         5.53652928E-17
  -6.97021103         5.19807609E-17
  -6.85146093         4.69580077E-17
  -6.73271084         4.02268189E-17
  -6.61396122         3.17472448E-17
  -6.49521112         2.15088565E-17
  -6.37646103         9.52861442E-18
  -6.25771093        -4.15240945E-18
  -6.13896084        -1.94732163E-17
  -6.02021122        -3.63574764E-17
  -5.90146112        -5.47181927E-17
  -5.78271103        -7.44618458E-17
  -5.66396093        -9.54916887E-17
  -5.54521084        -1.17709588E-16
  -5.42646122        -1.41016321E-16
  -5.30771112        -1.65309981E-16
  -5.18896103        -1.90482318E-16
  -5.07021093        -2.16413437E-16
  -4.95146084        -2.42964783E-16
  -4.83271122        -2.69970841E-16
  -4.71396112        -2.97230346E-16
  -4.59521103        -3.24497104E-16
  -4.47646093        -3.51471769E-16
  -4.35771084        -3.77794350E-16
  -4.23896122        -4.03038896E-16
  -4.12021112        -4.26710476E-16
  -4.00146103        -4.48244806E-16
  -3.88271117        -4.67011192E-16
  -3.76396108        -4.82318507E-16
  -3.64521098        -4.93424379E-16
  -3.52646112        -4.99547580E-16
  -3.40771103        -4.99882900E-16
  -3.28896117        -4.93618456E-16
  -3.17021108        -4.79954808E-16
  -3.05146098        -4.58125022E-16
  -2.93271112        -4.27415790E-16
  -2.81396103        -3.87187681E-16
  -2.69521117        -3.36895523E-16
  -2.57646108        -2.76106880E-16
  -2.45771098        -2.04519123E-16
  -2.33896112        -1.21973419E-16
  -2.22021103        -2.84665737E-17
  -2.10146117         7.58409412E-17
  -1.98271108         1.90620622E-16
  -1.86396110         3.15375063E-16
  -1.74521101         4.49441505E-16
  -1.62646103         5.91999374E-16
  -1.50771105         7.42081330E-16
  -1.38896108         8.98588349E-16
  -1.27021110         1.06030822E-15
  -1.15146101         1.22593556E-15
  -1.03271103         1.39409511E-15
 -0.913961053         1.56336448E-15
 -0.795211077         1.73229779E-15
 -0.676461041         1.89944767E-15
 -0.557711065         2.06338581E-15
 -0.438961059         2.22271885E-15
 -0.320211053         2.37610254E-15
 -0.201461062         2.52224834E-15
  -8.27110559E-02     2.65992867E-15
   3.60389426E-02     2.78797316E-15
  0.154788941         2.90526372E-15
  0.273538947         3.01072144E-15
  0.392288953         3.10329388E-15
  0.511038959         3.18193602E-15
  0.629788935         3.24559266E-15
  0.748538971         3.29317982E-15
  0.867288947         3.32356840E-15
  0.986038923         3.33557107E-15
   1.10478890         3.32793295E-15
   1.22353899         3.29933076E-15
   1.34228897         3.24837622E-15
   1.46103895         3.17363022E-15
   1.57978892         3.07362316E-15
   1.69853890         2.94688565E-15
   1.81728899         2.79198704E-15
   1.93603897         2.60758225E-15
   2.05478883         2.39246595E-15
   2.17353892         2.14563123E-15
   2.29228902         1.86633418E-15
   2.41103888         1.55415892E-15
   2.52978897         1.20908342E-15
   2.64853883         8.31542303E-16
   2.76728892         4.22484576E-16
   2.88603902        -1.65772917E-17
   3.00478888        -4.83528387E-16
   3.12353897        -9.75626419E-16
   3.24228883        -1.48949134E-15
   3.36103892        -2.02111379E-15
   3.47978902        -2.56588070E-15
   3.59853888        -3.11862158E-15
   3.71728897        -3.67367210E-15
   3.83603883        -4.22495672E-15
   3.95478892        -4.76608626E-15
   4.07353878        -5.29046657E-15
   4.19228888        -5.79141879E-15
   4.31103897        -6.26229966E-15
   4.42978907        -6.69662469E-15
   4.54853916        -7.08818304E-15
   4.66728878        -7.43113948E-15
   4.78603888        -7.72012679E-15
   4.90478897        -7.95030799E-15
   5.02353907        -8.11742929E-15
   5.14228916        -8.21783827E-15
   5.26103878        -8.24848392E-15
   5.37978888        -8.20689545E-15
   5.49853897        -8.09114332E-15
   5.61728907        -7.89978333E-15
   5.73603916        -7.63179650E-15
   5.85478878        -7.28653063E-15
   5.97353888        -6.86364604E-15
   6.09228897        -6.36307667E-15
   6.21103907        -5.78500930E-15
   6.32978916        -5.12989496E-15
   6.44853878        -4.39848116E-15
   6.56728888        -3.59188175E-15
   6.68603897        -2.71167285E-15
   6.80478907        -1.76001736E-15
   6.92353916        -7.39810329E-16
   7.04228878         3.45162406E-16
   7.16103888         1.49006119E-15
   7.27978897         2.68883346E-15
   7.39853907         3.93407163E-15
   7.51728916         5.21690345E-15
   7.63603878         6.52690936E-15
   7.75478888         7.85209622E-15
   7.87353897         9.17891827E-15
   7.99228907         1.04923496E-14
   8.11103916         1.17760263E-14
   8.22978878         1.30124386E-14
   8.34853935         1.41831652E-14
   8.46728897         1.52691749E-14
   8.58603859         1.62511538E-14
   8.70478916         1.71098555E-14
   8.82353878         1.78264860E-14
   8.94228935         1.83830815E-14
   9.06103897         1.87628894E-14
   9.17978859         1.89507291E-14
   9.29853916         1.89333480E-14
   9.41728878         1.86997346E-14
   9.53603935         1.82413932E-14
   9.65478897         1.75525979E-14
   9.77353859         1.66305873E-14
   9.89228916         1.54757222E-14
   10.0110388         1.40915933E-14
   10.1297894         1.24850801E-14
   10.2485390         1.06663606E-14
   10.3672886         8.64887385E-15
   10.4860392         6.44921569E-15
   10.6047888         4.08698860E-15
   10.7235394         1.58459292E-15
   10.8422890        -1.03304149E-15
   10.9610386        -3.73878564E-15
   11.0797892        -6.50369515E-15
   11.1985388        -9.29744529E-15
   11.3172894        -1.20888203E-14
   11.4360390        -1.48462378E-14
   11.5547886        -1.75383000E-14
   11.6735392        -2.01343560E-14
   11.7922888        -2.26050851E-14
   11.9110394        -2.49230229E-14
   12.0297890        -2.70630838E-14
   12.1485386        -2.90030112E-14
   12.2672892        -3.07237620E-14
   12.3860388        -3.22098034E-14
   12.5047894        -3.34493074E-14
   12.6235390        -3.44342441E-14
   12.7422886        -3.51603580E-14
   12.8610392        -3.56270291E-14
   12.9797888        -3.58370594E-14
   13.0985394        -3.57963205E-14
   13.2172890        -3.55133708E-14
   13.3360386        -3.49989745E-14
   13.4547892        -3.42655998E-14
   13.5735388        -3.33268908E-14
   13.6922894        -3.21971623E-14
   13.8110390        -3.08908850E-14
   13.9297886        -2.94222620E-14
   14.0485392        -2.78048204E-14
   14.1672888        -2.60511285E-14
   14.2860394        -2.41725466E-14
   14.4047890        -2.21791190E-14
   14.5235386        -2.00795174E-14
   14.6422892        -1.78810959E-14
   14.7610388        -1.55900226E-14
   14.8797894        -1.32114761E-14
   14.9985390        -1.07499179E-14
   15.1172886        -8.20938827E-15
   15.2360392        -5.59384921E-15
   15.3547888        -2.90753101E-15
   15.4735394        -1.55286563E-16
   15.5922890         2.65708560E-15
   15.7110386         5.52253073E-15
   15.8297892         8.43248319E-15
   15.9485388         1.13766435E-14
   16.0672894         1.43428343E-14
   16.1860390         1.73168974E-14
   16.3047886         2.02826664E-14
   16.4235382         2.32220063E-14
   16.5422897         2.61148982E-14
   16.6610394         2.89396023E-14
   16.7797890         3.16728658E-14
   16.8985386         3.42901942E-14
   17.0172882         3.67661461E-14
   17.1360397         3.90747107E-14
   17.2547894         4.11896672E-14
   17.3735390         4.30850356E-14
   17.4922886         4.47354895E-14
   17.6110382         4.61168748E-14
   17.7297897         4.72066674E-14
   17.8485394         4.79844673E-14
   17.9672890         4.84325545E-14
   18.0860386         4.85363533E-14
   18.2047882         4.82849268E-14
   18.3235397         4.76714717E-14
   18.4422894         4.66937314E-14
   18.5610390         4.53543588E-14
   18.6797886         4.36612518E-14
   18.7985382         4.16277256E-14
   18.9172897         3.92726487E-14
   19.0360394         3.66204259E-14
   19.1547890         3.37008423E-14
   19.2735386         3.05487582E-14
   19.3922882         2.72036947E-14
   19.5110397         2.37092264E-14
   19.6297894         2.01122722E-14
   19.7485390         1.64622429E-14
   19.8672886         1.28101062E-14
   19.9860382         9.20735995E-15
   20.1047897         5.70499306E-15
   20.2235394         2.35242755E-15
   20.3422890        -8.03507206E-16
   20.4610386        -3.71951479E-15
   20.5797882        -6.35666971E-15
   20.6985397        -8.68111023E-15
   20.8172894        -1.06645793E-14
   20.9360390        -1.22847501E-14
   21.0547886        -1.35254102E-14
   21.1735382        -1.43763836E-14
   21.2922897        -1.48333087E-14
   21.4110394        -1.48972479E-14
   21.5297890        -1.45741133E-14
   21.6485386        -1.38739694E-14
   21.7672882        -1.28102798E-14
   21.8860397        -1.13990585E-14
   22.0047894        -9.65801535E-15
   22.1235390        -7.60572059E-15
   22.2422886        -5.26080051E-15
   22.3610382        -2.64124016E-15
   22.4797897         2.36235768E-16
   22.5985394         3.35662746E-15
   22.7172890         6.70697798E-15
   22.8360386         1.02765391E-14
   22.9547882         1.40567438E-14
   23.0735397         1.80410090E-14
   23.1922894         2.22243658E-14
   23.3110390         2.66029044E-14
   23.4297886         3.11730554E-14
   23.5485382         3.59307514E-14
   23.6672897         4.08704408E-14
   23.7860394         4.59840059E-14
   23.9047890         5.12596320E-14
   24.0235386         5.66806361E-14
   24.1422882         6.22243142E-14
   24.2610397         6.78608509E-14
   24.3797894         7.35523228E-14
   24.4985390         7.92518855E-14
   24.6172886         8.49031403E-14
   24.7360382         9.04397136E-14
   24.8547897         9.57851894E-14
   24.9735394         1.00853353E-13
   25.0922890         1.05548721E-13
   25.2110386         1.09767508E-13
   25.3297882         1.13398935E-13
   25.4485397         1.16326884E-13
   25.5672894         1.18431943E-13
   25.6860390         1.19593747E-13
   25.8047886         1.19693575E-13
   25.9235382         1.18617220E-13
   26.0422897         1.16257928E-13
   26.1610394         1.12519538E-13
   26.2797890         1.07319481E-13
   26.3985386         1.00591851E-13
   26.5172882         9.22901282E-14
   26.6360397         8.23897428E-14
   26.7547894         7.08902948E-14
   26.8735390         5.78172221E-14
   26.9922886         4.32230139E-14
   27.1110382         2.71878416E-14
   27.2297897         9.81949626E-15
   27.3485394        -8.74730925E-15
   27.4672890        -2.83524272E-14
   27.5860386        -4.88123505E-14
   27.7047882        -6.99231187E-14
   27.8235397        -9.14637696E-14
   27.9422894        -1.13200349E-13
   28.0610390        -1.34890498E-13
   28.1797886        -1.56288353E-13
   28.2985382        -1.77149677E-13
   28.4172897        -1.97237111E-13
   28.5360394        -2.16325398E-13
   28.6547890        -2.34206318E-13
   28.7735386        -2.50693482E-13
   28.8922882        -2.65626307E-13
   29.0110397        -2.78873604E-13
   29.1297894        -2.90336358E-13
   29.2485390        -2.99949654E-13
   29.3672886        -3.07683647E-13
   29.4860382        -3.13543706E-13
   29.6047897        -3.17569674E-13
   29.7235394        -3.19833922E-13
   29.8422890        -3.20438907E-13
   29.9610386        -3.19513865E-13
   30.0797882        -3.17210532E-13
   30.1985397        -3.13698828E-13
   30.3172894        -3.09161740E-13
   30.4360390        -3.03789979E-13
   30.5547886        -2.97776804E-13
   30.6735382        -2.91312411E-13
   30.7922897        -2.84578974E-13
   30.9110394        -2.77745519E-13
   31.0297890        -2.70963590E-13
   31.1485386        -2.64363265E-13
   31.2672882        -2.58049794E-13
   31.3860397        -2.52100966E-13
   31.5047894        -2.46565247E-13
   31.6235390        -2.41460741E-13
   31.7422886        -2.36774738E-13
   31.8610382        -2.32464438E-13
   31.9797897        -2.28458013E-13
   32.0985374        -2.24656963E-13
   32.2172890        -2.20938570E-13
   32.3360405        -2.17159447E-13
   32.4547882        -2.13159297E-13
   32.5735397        -2.08765243E-13
   32.6922874        -2.03796452E-13
   32.8110390        -1.98068761E-13
   32.9297905        -1.91399644E-13
   33.0485382        -1.83612782E-13
   33.1672897        -1.74542645E-13
   33.2860374        -1.64038704E-13
   33.4047890        -1.51968986E-13
   33.5235405        -1.38223471E-13
   33.6422882        -1.22716561E-13
   33.7610397        -1.05388991E-13
   33.8797874        -8.62091228E-14
   33.9985390        -6.51733713E-14
   34.1172905        -4.23060702E-14
   34.2360382        -1.76586007E-14
   34.3547897         8.69218604E-15
   34.4735374         3.66458166E-14
   34.5922890         6.60808688E-14
   34.7110405         9.68577093E-14
   34.8297882         1.28821690E-13
   34.9485397         1.61806454E-13
   35.0672874         1.95637235E-13
   35.1860390         2.30134163E-13
   35.3047905         2.65115404E-13
   35.4235382         3.00400221E-13
   35.5422897         3.35811321E-13
   35.6610374         3.71177373E-13
   35.7797890         4.06334471E-13
   35.8985405         4.41127820E-13
   36.0172882         4.75412353E-13
   36.1360397         5.09053032E-13
   36.2547874         5.41925229E-13
   36.3735390         5.73913855E-13
   36.4922905         6.04912496E-13
   36.6110382         6.34822598E-13
   36.7297897         6.63551950E-13
   36.8485374         6.91013056E-13
   36.9672890         7.17121946E-13
   37.0860405         7.41796273E-13
   37.2047882         7.64954289E-13
   37.3235397         7.86513487E-13
   37.4422874         8.06389731E-13
   37.5610390         8.24496612E-13
   37.6797905         8.40745388E-13
   37.7985382         8.55044822E-13
   37.9172897         8.67302053E-13
   38.0360374         8.77423080E-13
   38.1547890         8.85314445E-13
   38.2735405         8.90884263E-13
   38.3922882         8.94044387E-13
   38.5110397         8.94712364E-13
   38.6297874         8.92813113E-13
   38.7485390         8.88281419E-13
   38.8672905         8.81063885E-13
   38.9860382         8.71121155E-13
   39.1047897         8.58429376E-13
   39.2235374         8.42982151E-13
   39.3422890         8.24791787E-13
   39.4610405         8.03890429E-13
   39.5797882         7.80330770E-13
   39.6985397         7.54186481E-13
   39.8172874         7.25552160E-13
   39.9360390         6.94542731E-13
   40.0547905         6.61292744E-13
   40.1735382         6.25954963E-13
   40.2922897         5.88699066E-13
   40.4110374         5.49708987E-13
   40.5297890         5.09180859E-13
   40.6485405         4.67320301E-13
   40.7672882         4.24339220E-13
   40.8860397         3.80452641E-13
   41.0047874         3.35875154E-13
   41.1235390         2.90817636E-13
   41.2422905         2.45483484E-13
   41.3610382         2.00065306E-13
   41.4797897         1.54741440E-13
   41.5985374         1.09673094E-13
   41.7172890         6.50015794E-14
   41.8360405         2.08458434E-14
   41.9547882        -2.26991633E-14
   42.0735397        -6.55639483E-14
   42.1922874        -1.07704962E-13
   42.3110390        -1.49104958E-13
   42.4297905        -1.89772230E-13
   42.5485382        -2.29739486E-13
   42.6672897        -2.69062225E-13
   42.7860374        -3.07816218E-13
   42.9047890        -3.46094708E-13
   43.0235405        -3.84005409E-13
   43.1422882        -4.21666771E-13
   43.2610397        -4.59204398E-13
   43.3797874        -4.96747337E-13
   43.4985390        -5.34423796E-13
   43.6172905        -5.72357699E-13
   43.7360382        -6.10665490E-13
   43.8547897        -6.49452389E-13
   43.9735374        -6.88809849E-13
   44.0922890        -7.28813060E-13
   44.2110405        -7.69518997E-13
   44.3297882        -8.10965010E-13
   44.4485397        -8.53167688E-13
   44.5672874        -8.96122803E-13
   44.6860390        -9.39804658E-13
   44.8047905        -9.84167066E-13
   44.9235382        -1.02914378E-12
   45.0422897        -1.07464948E-12
   45.1610374        -1.12058138E-12
   45.2797890        -1.16682055E-12
   45.3985405        -1.21323394E-12
   45.5172882        -1.25967552E-12
   45.6360397        -1.30598895E-12
   45.7547874        -1.35200943E-12
   45.8735390        -1.39756533E-12
   45.9922905        -1.44248133E-12
   46.1110382        -1.48657996E-12
   46.2297897        -1.52968371E-12
   46.3485374        -1.57161881E-12
   46.4672890        -1.61221622E-12
   46.5860405        -1.65131537E-12
   46.7047882        -1.68876642E-12
   46.8235397        -1.72443299E-12
   46.9422874        -1.75819483E-12
   47.0610390        -1.78995002E-12
   47.1797905        -1.81961781E-12
   47.2985382        -1.84714006E-12
   47.4172897        -1.87248242E-12
   47.5360374        -1.89563664E-12
   47.6547890        -1.91661877E-12
   47.7735405        -1.93547045E-12
   47.8922882        -1.95225693E-12
   48.0110397        -1.96706518E-12
   48.1297874        -1.98000080E-12
   48.2485390        -1.99118369E-12
   48.3672905        -2.00074484E-12
   48.4860382        -2.00881868E-12
   48.6047897        -2.01553921E-12
   48.7235374        -2.02103265E-12
   48.8422890        -2.02541000E-12
   48.9610405        -2.02876171E-12
   49.0797882        -2.03115020E-12
   49.1985397        -2.03260304E-12
   49.3172874        -2.03310892E-12
   49.4360390        -2.03261171E-12
   49.5547905        -2.03100774E-12
   49.6735382        -2.02814284E-12
   49.7922897        -2.02381189E-12
   49.9110374        -2.01775901E-12
   50.0297890        -2.00968062E-12
   50.1485405        -1.99922869E-12
   50.2672882        -1.98601660E-12
   50.3860397        -1.96962672E-12
   50.5047874        -1.94961777E-12
   50.6235390        -1.92553547E-12
   50.7422905        -1.89692186E-12
   50.8610382        -1.86332655E-12
   50.9797897        -1.82431912E-12
   51.0985374        -1.77949853E-12
   51.2172890        -1.72850449E-12
   51.3360405        -1.67102747E-12
   51.4547882        -1.60681657E-12
   51.5735397        -1.53568705E-12
   51.6922874        -1.45752518E-12
   51.8110390        -1.37229182E-12
   51.9297905        -1.28002264E-12
   52.0485382        -1.18082833E-12
   52.1672897        -1.07488931E-12
   52.2860374        -9.62451690E-13
   52.4047890        -8.43818938E-13
   52.5235405        -7.19341253E-13
   52.6422882        -5.89406128E-13
   52.7610397        -4.54424367E-13
   52.8797874        -3.14818321E-13
   52.9985390        -1.71006696E-13
   53.1172905        -2.33908674E-14
   53.2360382         1.27658192E-13
   53.3547897         2.81813039E-13
   53.4735374         4.38801502E-13
   53.5922890         5.98417312E-13
   53.7110405         7.60528305E-13
   53.8297882         9.25082168E-13
   53.9485397         1.09211164E-12
   54.0672874         1.26173486E-12
   54.1860390         1.43415358E-12
   54.3047905         1.60965067E-12
   54.4235382         1.78858165E-12
   54.5422897         1.97136665E-12
   54.6610374         2.15847587E-12
   54.7797890         2.35041825E-12
   54.8985405         2.54772245E-12
   55.0172882         2.75092080E-12
   55.1360397         2.96052722E-12
   55.2547874         3.17701963E-12
   55.3735390         3.40081739E-12
   55.4922905         3.63226246E-12
   55.6110382         3.87160052E-12
   55.7297897         4.11896255E-12
   55.8485374         4.37434811E-12
   55.9672890         4.63761581E-12
   56.0860405         4.90846946E-12
   56.2047882         5.18645543E-12
   56.3235397         5.47095268E-12
   56.4422874         5.76118363E-12
   56.5610390         6.05621022E-12
   56.6797905         6.35494782E-12
   56.7985382         6.65617257E-12
   56.9172897         6.95854095E-12
   57.0360374         7.26060488E-12
   57.1547890         7.56083130E-12
   57.2735405         7.85762948E-12
   57.3922882         8.14936486E-12
   57.5110397         8.43439121E-12
   57.6297874         8.71107093E-12
   57.7485390         8.97779507E-12
   57.8672905         9.23300932E-12
   57.9860382         9.47523136E-12
   58.1047897         9.70306821E-12
   58.2235374         9.91523356E-12