  -75.1732025       0.00000000    
  -75.0581970       0.00000000    
  -74.9431992       0.00000000    
  -74.8282013       0.00000000    
  -74.7132034       0.00000000    
  -74.5981979       0.00000000    
  -74.4832001       0.00000000    
  -74.3682022       1.36143853E-39
  -74.2531967       2.05458829E-37
  -74.1381989       1.62900045E-36
  -74.0232010       8.33433889E-36
  -73.9082031       3.32099941E-35
  -73.7931976       1.10160718E-34
  -73.6781998       3.16834918E-34
  -73.5632019       8.10596109E-34
  -73.4481964       1.87779529E-33
  -73.3331985       3.98956795E-33
  -73.2182007       7.84721825E-33
  -73.1032028       1.43860408E-32
  -72.9881973       2.46910855E-32
  -72.8731995       3.97596270E-32
  -72.7582016       6.00343068E-32
  -72.6432037       8.46241675E-32
  -72.5281982       1.10144091E-31
  -72.4132004       1.29143442E-31
  -72.2982025       1.28174399E-31
  -72.1831970       8.56819360E-32
  -72.0681992      -2.99294556E-32
  -71.9532013      -2.61502566E-31
  -71.8382034      -6.62897235E-31
  -71.7231979      -1.29654883E-30
  -71.6082001      -2.22813750E-30
  -71.4932022      -3.51794765E-30
  -71.3781967      -5.20881897E-30
  -71.2631989      -7.31079396E-30
  -71.1482010      -9.78237597E-30
  -71.0332031      -1.25075902E-29
  -70.9181976      -1.52668256E-29
  -70.8031998      -1.76985303E-29
  -70.6882019      -1.92491477E-29
  -70.5731964      -1.91120531E-29
  -70.4581985      -1.61635687E-29
  -70.3432007      -8.91534036E-30
  -70.2282028       4.48515832E-30
  -70.1131973       2.61669993E-29
  -69.9981995       5.83279078E-29
  -69.8832016       1.02903316E-28
  -69.7682037       1.61168715E-28
  -69.6531982       2.33419194E-28
  -69.5382004       3.18970447E-28
  -69.4232025       4.16805859E-28
  -69.3081970       5.27213885E-28
  -69.1931992       6.54670870E-28
  -69.0782013       8.11996331E-28
  -68.9632034       1.02543887E-27
  -68.8481979       1.33989604E-27
  -68.7332001       1.82302038E-27
  -68.6182022       2.56666507E-27
  -68.5031967       3.68410138E-27
  -68.3881989       5.30178816E-27
  -68.2732010       7.54518647E-27
  -68.1582031       1.05190796E-26
  -68.0431976       1.42838228E-26
  -67.9281998       1.88297416E-26
  -67.8132019       2.40523012E-26
  -67.6981964       2.97308209E-26
  -67.5831985       3.55137383E-26
  -67.4682007       4.09142739E-26
  -67.3532028       4.53225057E-26
  -67.2381973       4.80432962E-26
  -67.1231995       4.83737981E-26
  -67.0082016       4.57372801E-26
  -66.8932037       3.98888102E-26
  -66.7781982       3.11988664E-26
  -66.6632004       2.09999087E-26
  -66.5482025       1.19469517E-26
  -66.4331970       8.29913258E-27
  -66.3181992       1.59839967E-26
  -66.2032013       4.22740606E-26
  -66.0882034       9.49060991E-26
  -65.9731979       1.80526985E-25
  -65.8582001       3.02470348E-25
  -65.7432022       4.58056916E-25
  -65.6281967       6.35848662E-25
  -65.5131989       8.13531248E-25
  -65.3982010       9.57283399E-25
  -65.2832031       1.02353707E-24
  -65.1681976       9.63864865E-25
  -65.0531998       7.33296846E-25
  -64.9382019       3.01668595E-25
  -64.8231964      -3.33293511E-25
  -64.7081985      -1.13339699E-24
  -64.5932007      -2.01095318E-24
  -64.4782028      -2.82670970E-24
  -64.3631973      -3.39789410E-24
  -64.2481995      -3.51843797E-24
  -64.1332016      -2.99154160E-24
  -64.0182037      -1.67214432E-24
  -63.9031982       4.86015971E-25
  -63.7882004       3.38675894E-24
  -63.6731987       6.76101285E-24
  -63.5582008       1.01596583E-23
  -63.4431992       1.29780998E-23
  -63.3282013       1.45171990E-23
  -63.2131996       1.40795279E-23
  -63.0982018       1.10929131E-23
  -62.9832001       5.24618850E-24
  -62.8681984      -3.38398057E-24
  -62.7532005      -1.42397629E-23
  -62.6381989      -2.62467323E-23
  -62.5232010      -3.78562421E-23
  -62.4081993      -4.71766274E-23
  -62.2932014      -5.21917348E-23
  -62.1781998      -5.10507264E-23
  -62.0632019      -4.23983580E-23
  -61.9482002      -2.57025572E-23
  -61.8331985      -1.52832058E-24
  -61.7182007       2.82944149E-23
  -61.6031990       6.06550985E-23
  -61.4882011       9.13314252E-23
  -61.3731995       1.15354322E-22
  -61.2582016       1.27555363E-22
  -61.1431999       1.23255326E-22
  -61.0281982       9.90263531E-23
  -60.9132004       5.34385421E-23
  -60.7981987      -1.23114232E-23
  -60.6832008      -9.39951434E-23
  -60.5681992      -1.84266005E-22
  -60.4532013      -2.72963190E-22
  -60.3381996      -3.47841842E-22
  -60.2232018      -3.95717545E-22
  -60.1082001      -4.03959791E-22
  -59.9931984      -3.62213045E-22
  -59.8782005      -2.64173917E-22
  -59.7631989      -1.09214132E-22
  -59.6482010       9.63808545E-23
  -59.5331993       3.38779332E-22
  -59.4182014       5.96764768E-22
  -59.3031998       8.42811216E-22
  -59.1882019       1.04509918E-21
  -59.0732002       1.17038524E-21
  -58.9581985       1.18751551E-21
  -58.8432007       1.07125887E-21
  -58.7281990       8.06043684E-22
  -58.6132011       3.89127742E-22
  -58.4981995      -1.67268691E-22
  -58.3832016      -8.35277683E-22
  -58.2681999      -1.57243359E-21
  -58.1531982      -2.32457038E-21
  -58.0382004      -3.03046099E-21
  -57.9231987      -3.62785665E-21
  -57.8082008      -4.06036225E-21
  -57.6931992      -4.28439370E-21
  -57.5782013      -4.27534035E-21
  -57.4631996      -4.03203737E-21
  -57.3482018      -3.57870968E-21
  -57.2332001      -2.96375441E-21
  -57.1181984      -2.25500098E-21
  -57.0032005      -1.53146068E-21
  -56.8881989      -8.72000231E-22
  -56.7732010      -3.41789853E-22
  -56.6581993       2.22446043E-23
  -56.5432014       2.25432162E-22
  -56.4281998       3.27149150E-22
  -56.3132019       4.48737152E-22
  -56.1982002       7.76089436E-22
  -56.0831985       1.55587291E-21
  -55.9682007       3.08493839E-21
  -55.8531990       5.69321718E-21
  -55.7382011       9.72119377E-21
  -55.6231995       1.54938926E-20
  -55.5082016       2.32939893E-20
  -55.3931999       3.33372657E-20
  -55.2781982       4.57537798E-20
  -55.1632004       6.05781327E-20
  -55.0481987       7.77516236E-20
  -54.9332008       9.71382621E-20
  -54.8181992       1.18555222E-19
  -54.7032013       1.41816794E-19
  -54.5881996       1.66789002E-19
  -54.4732018       1.93450390E-19
  -54.3582001       2.21952617E-19
  -54.2431984       2.52673330E-19
  -54.1282005       2.86253270E-19
  -54.0131989       3.23608953E-19
  -53.8982010       3.65914020E-19
  -53.7831993       4.14543787E-19
  -53.6682014       4.70979839E-19
  -53.5531998       5.36675712E-19
  -53.4382019       6.12887998E-19
  -53.3232002       7.00481617E-19
  -53.2081985       7.99721318E-19
  -53.0932007       9.10065144E-19
  -52.9781990       1.02997624E-18
  -52.8632011       1.15677207E-18
  -52.7481995       1.28652445E-18
  -52.6332016       1.41402731E-18
  -52.5181999       1.53283557E-18
  -52.4031982       1.63538260E-18
  -52.2882004       1.71316808E-18
  -52.1731987       1.75700669E-18
  -52.0582008       1.75732081E-18
  -51.9431992       1.70445849E-18
  -51.8282013       1.58900837E-18
  -51.7131996       1.40209802E-18
  -51.5982018       1.13565022E-18
  -51.4832001       7.82590614E-19
  -51.3681984       3.37004135E-19
  -51.2532005      -2.05754547E-19
  -51.1381989      -8.48974857E-19
  -51.0232010      -1.59450344E-18
  -50.9081993      -2.44262030E-18
  -50.7932014      -3.39184521E-18
  -50.6781998      -4.43863421E-18
  -50.5632019      -5.57694847E-18
  -50.4482002      -6.79767267E-18
  -50.3331985      -8.08789989E-18
  -50.2182007      -9.43009638E-18
  -50.1031990      -1.08012161E-17
  -49.9882011      -1.21718213E-17
  -49.8731995      -1.35053166E-17
  -49.7582016      -1.47573984E-17
  -49.6431999      -1.58758492E-17
  -49.5281982      -1.68007678E-17
  -49.4132004      -1.74653628E-17
  -49.2981987      -1.77973583E-17
  -49.1832008      -1.77210840E-17
  -49.0681992      -1.71602142E-17
  -48.9532013      -1.60411464E-17
  -48.8381996      -1.42968805E-17
  -48.7232018      -1.18712859E-17
  -48.6082001      -8.72355262E-18
  -48.4931984      -4.83260917E-18
  -48.3782005      -2.01267286E-19
  -48.2631989       5.14016236E-18
  -48.1482010       1.11310146E-17
  -48.0331993       1.76783882E-17
  -47.9182014       2.46564210E-17
  -47.8031998       3.19068245E-17
  -47.6882019       3.92407799E-17
  -47.5732002       4.64421481E-17
  -47.4581985       5.32719634E-17
  -47.3432007       5.94740478E-17
  -47.2281990       6.47815430E-17
  -47.1132011       6.89241628E-17
  -46.9981995       7.16358858E-17
  -46.8832016       7.26626486E-17
  -46.7681999       7.17699884E-17
  -46.6531982       6.87500247E-17
  -46.5382004       6.34277064E-17
  -46.4231987       5.56659531E-17
  -46.3082008       4.53694868E-17
  -46.1931992       3.24871778E-17
  -46.0782013       1.70128073E-17
  -45.9631996      -1.01585534E-18
  -45.8482018      -2.15195718E-17
  -45.7332001      -4.43817206E-17
  -45.6181984      -6.94537238E-17
  -45.5032005      -9.65616170E-17
  -45.3881989      -1.25513408E-16
  -45.2732010      -1.56106915E-16
  -45.1581993      -1.88137532E-16
  -45.0432014      -2.21405519E-16
  -44.9281998      -2.55722529E-16
  -44.8132019      -2.90916404E-16
  -44.6982002      -3.26834730E-16
  -44.5831985      -3.63345397E-16
  -44.4682007      -4.00335511E-16
  -44.3531990      -4.37707293E-16
  -44.2382011      -4.75371513E-16
  -44.1231995      -5.13238915E-16
  -44.0082016      -5.51208808E-16
  -43.8931999      -5.89156996E-16
  -43.7781982      -6.26922224E-16
  -43.6632004      -6.64292683E-16
  -43.5481987      -7.00992820E-16
  -43.4332008      -7.36672125E-16
  -43.3181992      -7.70895538E-16
  -43.2032013      -8.03137476E-16
  -43.0881996      -8.32778971E-16
  -42.9732018      -8.59108937E-16
  -42.8582001      -8.81330105E-16
  -42.7431984      -8.98568867E-16
  -42.6282005      -9.09889886E-16
  -42.5131989      -9.14313833E-16
  -42.3982010      -9.10838880E-16
  -42.2831993      -8.98465105E-16
  -42.1682014      -8.76219426E-16
  -42.0531998      -8.43183024E-16
  -41.9382019      -7.98516965E-16
  -41.8232002      -7.41488354E-16
  -41.7081985      -6.71493575E-16
  -41.5932007      -5.88079676E-16
  -41.4781990      -4.90962107E-16
  -41.3632011      -3.80039199E-16
  -41.2481995      -2.55402271E-16
  -41.1332016      -1.17341804E-16
  -41.0181999       3.36510804E-17
  -40.9031982       1.96887012E-16
  -40.7882004       3.71485357E-16
  -40.6731987       5.56385291E-16
  -40.5582008       7.50360389E-16
  -40.4431992       9.52036551E-16
  -40.3282013       1.15991358E-15
  -40.2131996       1.37238840E-15
  -40.0982018       1.58778126E-15
  -39.9832001       1.80436229E-15
  -39.8681984       2.02037877E-15
  -39.7532005       2.23408328E-15
  -39.6381989       2.44375951E-15
  -39.5232010       2.64774770E-15
  -39.4081993       2.84446623E-15
  -39.2932014       3.03243153E-15
  -39.1781998       3.21027372E-15
  -39.0632019       3.37674809E-15
  -38.9482002       3.53074249E-15
  -38.8331985       3.67128135E-15
  -38.7182007       3.79752484E-15
  -38.6031990       3.90876483E-15
  -38.4882011       4.00441771E-15
  -38.3731995       4.08401594E-15
  -38.2582016       4.14719740E-15
  -38.1431999       4.19369485E-15
  -38.0281982       4.22332618E-15
  -37.9132004       4.23598382E-15
  -37.7981987       4.23162837E-15
  -37.6832008       4.21028314E-15
  -37.5681992       4.17202944E-15
  -37.4532013       4.11700660E-15
  -37.3381996       4.04541326E-15
  -37.2232018       3.95750776E-15
  -37.1082001       3.85361070E-15
  -36.9931984       3.73411002E-15
  -36.8782005       3.59946058E-15
  -36.7631989       3.45018648E-15
  -36.6482010       3.28687938E-15
  -36.5331993       3.11019550E-15
  -36.4182014       2.92084701E-15
  -36.3031998       2.71959409E-15
  -36.1882019       2.50723129E-15
  -36.0732002       2.28456941E-15
  -35.9581985       2.05241864E-15
  -35.8432007       1.81156525E-15
  -35.7281990       1.56274699E-15
  -35.6132011       1.30663038E-15
  -35.4981995       1.04378409E-15
  -35.3832016       7.74654352E-16
  -35.2681999       4.99543398E-16
  -35.1531982       2.18589385E-16
  -35.0382004      -6.82473107E-17
  -34.9231987      -3.61191260E-16
  -34.8082008      -6.60651341E-16
  -34.6931992      -9.67209876E-16
  -34.5782013      -1.28159971E-15
  -34.4631996      -1.60466983E-15
  -34.3482018      -1.93733609E-15
  -34.2332001      -2.28051932E-15
  -34.1181984      -2.63507058E-15
  -34.0032005      -3.00168487E-15
  -33.8881989      -3.38080495E-15
  -33.7732010      -3.77252000E-15
  -33.6581993      -4.17646451E-15
  -33.5432014      -4.59171648E-15
  -33.4281998      -5.01670891E-15
  -33.3132019      -5.44915353E-15
  -33.1982002      -5.88598706E-15
  -33.0831985      -6.32334193E-15
  -32.9682007      -6.75654846E-15
  -32.8531990      -7.18017378E-15
  -32.7382011      -7.58809045E-15
  -32.6231995      -7.97358785E-15
  -32.5082016      -8.32951448E-15
  -32.3931999      -8.64844949E-15
  -32.2781982      -8.92289918E-15
  -32.1632004      -9.14551214E-15
  -32.0481987      -9.30929867E-15
  -31.9332008      -9.40784841E-15
  -31.8181992      -9.43553622E-15
  -31.7031994      -9.38770596E-15
  -31.5881996      -9.26081874E-15
  -31.4731998      -9.05256891E-15
  -31.3582001      -8.76194852E-15
  -31.2432003      -8.38926842E-15
  -31.1282005      -7.93613205E-15
  -31.0132008      -7.40536172E-15
  -30.8981991      -6.80088937E-15
  -30.7831993      -6.12761464E-15
  -30.6681995      -5.39124485E-15
  -30.5531998      -4.59812386E-15
  -30.4382000      -3.75506519E-15
  -30.3232002      -2.86920552E-15
  -30.2082005      -1.94788101E-15
  -30.0932007      -9.98544483E-16
  -29.9782009      -2.87274334E-17
  -29.8631992       9.53950422E-16
  -29.7481995       1.94172012E-15
  -29.6331997       2.92655855E-15
  -29.5181999       3.90004208E-15
  -29.4032001       4.85317522E-15
  -29.2882004       5.77620142E-15
  -29.1732006       6.65841885E-15
  -29.0582008       7.48801605E-15
  -28.9431992       8.25194405E-15
  -28.8281994       8.93585116E-15
  -28.7131996       9.52408589E-15
  -28.5981998       9.99978891E-15
  -28.4832001       1.03450853E-14
  -28.3682003       1.05413750E-14
  -28.2532005       1.05697277E-14
  -28.1382008       1.04113817E-14
  -28.0231991       1.00483171E-14
  -27.9081993       9.46391267E-15
  -27.7931995       8.64364004E-15
  -27.6781998       7.57578984E-15
  -27.5632000       6.25218142E-15
  -27.4482002       4.66884391E-15
  -27.3332005       2.82662094E-15
  -27.2182007       7.31678918E-16
  -27.1032009      -1.60412031E-15
  -26.9881992      -4.16299414E-15
  -26.8731995      -6.92119430E-15
  -26.7581997      -9.84914919E-15
  -26.6431999      -1.29118001E-14
  -26.5282001      -1.60691332E-14
  -26.4132004      -1.92768944E-14
  -26.2982006      -2.24874762E-14
  -26.1832008      -2.56509393E-14
  -26.0681992      -2.87161550E-14
  -25.9531994      -3.16320185E-14
  -25.8381996      -3.43486971E-14
  -25.7231998      -3.68188620E-14
  -25.6082001      -3.89988809E-14
  -25.4932003      -4.08498884E-14
  -25.3782005      -4.23387318E-14
  -25.2632008      -4.34387633E-14
  -25.1481991      -4.41303657E-14
  -25.0331993      -4.44013282E-14
  -24.9181995      -4.42469209E-14
  -24.8031998      -4.36697662E-14
  -24.6882000      -4.26794559E-14
  -24.5732002      -4.12919482E-14
  -24.4582005      -3.95287779E-14
  -24.3432007      -3.74161084E-14
  -24.2282009      -3.49836500E-14
  -24.1131992      -3.22635188E-14
  -23.9981995      -2.92890542E-14
  -23.8831997      -2.60936800E-14
  -23.7681999      -2.27098139E-14
  -23.6532001      -1.91679033E-14
  -23.5382004      -1.54956157E-14
  -23.4232006      -1.17172067E-14
  -23.3082008      -7.85308809E-15
  -23.1931992      -3.91961913E-15
  -23.0781994       7.08971606E-17
  -22.9631996       4.10999868E-15
  -22.8481998       8.19268732E-15
  -22.7332001       1.23168797E-14
  -22.6182003       1.64827495E-14
  -22.5032005       2.06919934E-14
  -22.3882008       2.49470634E-14
  -22.2731991       2.92504227E-14
  -22.1581993       3.36038096E-14
  -22.0431995       3.80076863E-14
  -21.9281998       4.24606944E-14
  -21.8132000       4.69593033E-14
  -21.6982002       5.14976279E-14
  -21.5832005       5.60673029E-14
  -21.4682007       6.06575676E-14
  -21.3532009       6.52553979E-14
  -21.2381992       6.98457405E-14
  -21.1231995       7.44117292E-14
  -21.0081997       7.89349732E-14
  -20.8931999       8.33956995E-14
  -20.7782001       8.77728676E-14
  -20.6632004       9.20441905E-14
  -20.5482006       9.61859512E-14
  -20.4332008       1.00172746E-13
  -20.3181992       1.03977062E-13
  -20.2031994       1.07568807E-13
  -20.0881996       1.10914695E-13
  -19.9731998       1.13977716E-13
  -19.8582001       1.16716600E-13
  -19.7432003       1.19085460E-13
  -19.6282005       1.21033581E-13
  -19.5132008       1.22505508E-13
  -19.3981991       1.23441500E-13
  -19.2831993       1.23778293E-13
  -19.1681995       1.23450349E-13
  -19.0531998       1.22391490E-13
  -18.9382000       1.20536908E-13
  -18.8232002       1.17825563E-13
  -18.7082005       1.14202782E-13
  -18.5932007       1.09623180E-13
  -18.4782009       1.04053498E-13
  -18.3631992       9.74754470E-14
  -18.2481995       8.98882680E-14
  -18.1331997       8.13110023E-14
  -18.0181999       7.17841720E-14
  -17.9032001       6.13708913E-14
  -17.7882004       5.01571746E-14
  -17.6732006       3.82515336E-14
  -17.5582008       2.57836270E-14
  -17.4431992       1.29021066E-14
  -17.3281994      -2.28344227E-16
  -17.2131996      -1.34307052E-14
  -17.0981998      -2.65199138E-14
  -16.9832001      -3.93076346E-14
  -16.8682003      -5.16073221E-14
  -16.7532005      -6.32393579E-14
  -16.6382008      -7.40361209E-14
  -16.5231991      -8.38467479E-14
  -16.4081993      -9.25413920E-14
  -16.2931995      -1.00014926E-13
  -16.1781998      -1.06189736E-13
  -16.0632000      -1.11017762E-13
  -15.9482002      -1.14481544E-13
  -15.8332005      -1.16594288E-13
  -15.7181997      -1.17399010E-13
  -15.6032000      -1.16966861E-13
  -15.4882002      -1.15394456E-13
  -15.3732004      -1.12800767E-13
  -15.2581997      -1.09323242E-13
  -15.1431999      -1.05113665E-13
  -15.0282001      -1.00333675E-13
  -14.9132004      -9.51502603E-14
  -14.7981997      -8.97312213E-14
  -14.6831999      -8.42408689E-14
  -14.5682001      -7.88359856E-14
  -14.4532003      -7.36621525E-14
  -14.3381996      -6.88505717E-14
  -14.2231998      -6.45153622E-14
  -14.1082001      -6.07513578E-14
  -13.9932003      -5.76325283E-14
  -13.8781996      -5.52108814E-14
  -13.7631998      -5.35159109E-14
  -13.6482000      -5.25546031E-14
  -13.5332003      -5.23118875E-14
  -13.4181995      -5.27515992E-14
  -13.3031998      -5.38178849E-14
  -13.1882000      -5.54370358E-14
  -13.0732002      -5.75196832E-14
  -12.9582005      -5.99634275E-14
  -12.8431997      -6.26557589E-14
  -12.7282000      -6.54772799E-14
  -12.6132002      -6.83052315E-14
  -12.4982004      -7.10171193E-14
  -12.3831997      -7.34945755E-14
  -12.2681999      -7.56271470E-14
  -12.1532001      -7.73160968E-14
  -12.0382004      -7.84779956E-14
  -11.9231997      -7.90479674E-14
  -11.8081999      -7.89825223E-14
  -11.6932001      -7.82618599E-14
  -11.5782003      -7.68913470E-14
  -11.4631996      -7.49022900E-14
  -11.3481998      -7.23517654E-14
  -11.2332001      -6.93213797E-14
  -11.1182003      -6.59151621E-14
  -11.0031996      -6.22563389E-14
  -10.8881998      -5.84831933E-14
  -10.7732000      -5.47440613E-14
  -10.6582003      -5.11916457E-14
  -10.5431995      -4.79767593E-14
  -10.4281998      -4.52418288E-14
  -10.3132000      -4.31143260E-14
  -10.1982002      -4.17004789E-14
  -10.0832005      -4.10794716E-14
  -9.96819973      -4.12984601E-14
  -9.85319996      -4.23686998E-14
  -9.73820019      -4.42628451E-14
  -9.62320042      -4.69138380E-14
  -9.50819969      -5.02152776E-14
  -9.39319992      -5.40234429E-14
  -9.27820015      -5.81609617E-14
  -9.16320038      -6.24220592E-14
  -9.04819965      -6.65790733E-14
  -8.93319988      -7.03901320E-14
  -8.81820011      -7.36077594E-14
  -8.70320034      -7.59879898E-14
  -8.58819962      -7.72996440E-14
  -8.47319984      -7.73334034E-14
  -8.35820007      -7.59104896E-14
  -8.24320030      -7.28903022E-14
  -8.12819958      -6.81769840E-14
  -8.01319981      -6.17244903E-14
  -7.89820004      -5.35400581E-14
  -7.78319979      -4.36859174E-14
  -7.66820002      -3.22791551E-14
  -7.55320024      -1.94898791E-14
  -7.43820000      -5.53752533E-15
  -7.32320023       9.31433682E-15
  -7.20819998       2.47644431E-14
  -7.09320021       4.04815680E-14
  -6.97819996       5.61129986E-14
  -6.86320019       7.12935705E-14
  -6.74819994       8.56549600E-14
  -6.63320017       9.88349959E-14
  -6.51819992       1.10486558E-13
  -6.40320015       1.20286038E-13
  -6.28819990       1.27940966E-13
  -6.17320013       1.33196744E-13
  -6.05819988       1.35842292E-13
  -5.94320011       1.35714505E-13
  -5.82819986       1.32701603E-13
  -5.71320009       1.26745145E-13
  -5.59819984       1.17840877E-13
  -5.48320007       1.06038415E-13
  -5.36819983       9.14397884E-14
  -5.25320005       7.41969691E-14
  -5.13819981       5.45084845E-14
  -5.02320004       3.26151425E-14
  -4.90819979       8.79493113E-15
  -4.79320002      -1.66423814E-14
  -4.67820024      -4.33615004E-14
  -4.56320000      -7.10080662E-14
  -4.44820023      -9.92154153E-14
  -4.33319998      -1.27611504E-13
  -4.21820021      -1.55825778E-13
  -4.10319996      -1.83496014E-13
  -3.98819995      -2.10274818E-13
  -3.87319994      -2.35835873E-13
  -3.75819993      -2.59879466E-13
  -3.64319992      -2.82137242E-13
  -3.52819991      -3.02376722E-13
  -3.41319990      -3.20404104E-13
  -3.29820013      -3.36066597E-13
  -3.18320012      -3.49253097E-13
  -3.06820011      -3.59894216E-13
  -2.95320010      -3.67960735E-13
  -2.83820009      -3.73460811E-13
  -2.72320008      -3.76436187E-13
  -2.60820007      -3.76956956E-13
  -2.49320006      -3.75115846E-13
  -2.37820005      -3.71021220E-13
  -2.26320004      -3.64789931E-13
  -2.14820004      -3.56539586E-13
  -2.03320003      -3.46380856E-13
  -1.91820002      -3.34410098E-13
  -1.80320001      -3.20702313E-13
  -1.68820000      -3.05305314E-13
  -1.57319999      -2.88234416E-13
  -1.45819998      -2.69469261E-13
  -1.34319997      -2.48951196E-13
  -1.22819996      -2.26582804E-13
  -1.11320007      -2.02229523E-13
 -0.998199999      -1.75722121E-13
 -0.883199990      -1.46861459E-13
 -0.768200040      -1.15424529E-13
 -0.653200030      -8.11721770E-14
 -0.538200021      -4.38575330E-14
 -0.423200011      -3.23581896E-15
 -0.308200002       4.09252981E-14
 -0.193200007       8.88352976E-14
  -7.82000124E-02   1.40669946E-13
   3.67999896E-02   1.96561016E-13
  0.151799992       2.56586365E-13
  0.266799986       3.20761077E-13
  0.381799996       3.89029575E-13
  0.496799976       4.61259123E-13
  0.611800015       5.37234211E-13
  0.726799965       6.16654080E-13
  0.841799974       6.99130641E-13
  0.956799984       7.84188740E-13
   1.07179999       8.71268715E-13
   1.18680000       9.59730559E-13
   1.30180001       1.04886054E-12
   1.41680002       1.13787918E-12
   1.53180003       1.22595142E-12
   1.64680004       1.31219872E-12
   1.76179993       1.39571265E-12
   1.87679994       1.47556977E-12
   1.99179995       1.55084745E-12
   2.10680008       1.62064090E-12
   2.22180009       1.68408007E-12
   2.33680010       1.74034680E-12
   2.45179987       1.78869181E-12
   2.56679988       1.82845037E-12
   2.68179989       1.85905653E-12
   2.79679990       1.88005666E-12
   2.91179991       1.89111942E-12
   3.02679992       1.89204403E-12
   3.14179993       1.88276564E-12
   3.25679994       1.86335691E-12
   3.37179995       1.83402794E-12
   3.48679996       1.79512102E-12
   3.60179996       1.74710322E-12
   3.71679997       1.69055590E-12
   3.83179998       1.62616101E-12
   3.94679999       1.55468585E-12
   4.06180000       1.47696482E-12
   4.17679977       1.39388002E-12
   4.29180002       1.30634154E-12
   4.40679979       1.21526617E-12
   4.52180004       1.12155749E-12
   4.63679981       1.02608633E-12
   4.75180006       9.29672029E-13
   4.86679983       8.33066092E-13
   4.98180008       7.36939047E-13
   5.09679985       6.41867852E-13
   5.21180010       5.48328039E-13
   5.32679987       4.56688127E-13
   5.44180012       3.67207458E-13
   5.55679989       2.80036790E-13
   5.67180014       1.95221823E-13
   5.78679991       1.12710588E-13
   5.90180016       3.23614020E-14
   6.01679993      -4.60459443E-14
   6.13180017      -1.22796968E-13
   6.24679995      -1.98229142E-13
   6.36180019      -2.72717314E-13
   6.47679996      -3.46659631E-13
   6.59180021      -4.20463035E-13
   6.70679998      -4.94529439E-13
   6.82179976      -5.69243437E-13
   6.93680000      -6.44961732E-13
   7.05179977      -7.22003078E-13
   7.16680002      -8.00641346E-13
   7.28179979      -8.81099230E-13
   7.39680004      -9.63544999E-13
   7.51179981      -1.04808989E-12
   7.62680006      -1.13478834E-12
   7.74179983      -1.22363914E-12
   7.85680008      -1.31458722E-12
   7.97179985      -1.40752763E-12
   8.08679962      -1.50230934E-12
   8.20180035      -1.59873980E-12
   8.31680012      -1.69658959E-12
   8.43179989      -1.79559785E-12
   8.54679966      -1.89547705E-12
   8.66180038      -1.99591797E-12
   8.77680016      -2.09659438E-12
   8.89179993      -2.19716714E-12
   9.00679970      -2.29728975E-12
   9.12180042      -2.39661047E-12
   9.23680019      -2.49477760E-12
   9.35179996      -2.59144290E-12
   9.46679974      -2.68626375E-12
   9.58180046      -2.77890775E-12
   9.69680023      -2.86905460E-12
   9.81180000      -2.95639923E-12
   9.92679977      -3.04065237E-12
   10.0417995      -3.12154317E-12
   10.1568003      -3.19881990E-12
   10.2718000      -3.27224857E-12
   10.3867998      -3.34161171E-12
   10.5017996      -3.40670677E-12
   10.6168003      -3.46734252E-12
   10.7318001      -3.52333462E-12
   10.8467999      -3.57449920E-12
   10.9617996      -3.62064935E-12
   11.0768003      -3.66158536E-12
   11.1918001      -3.69708994E-12
   11.3067999      -3.72691981E-12
   11.4217997      -3.75080002E-12
   11.5368004      -3.76841787E-12
   11.6518002      -3.77941688E-12
   11.7667999      -3.78339677E-12
   11.8817997      -3.77990781E-12
   11.9968004      -3.76845690E-12
   12.1118002      -3.74850715E-12
   12.2268000      -3.71948522E-12
   12.3417997      -3.68079265E-12
   12.4568005      -3.63181468E-12
   12.5718002      -3.57193832E-12
   12.6868000      -3.50056681E-12
   12.8017998      -3.41714070E-12
   12.9167995      -3.32115889E-12
   13.0318003      -3.21219917E-12
   13.1468000      -3.08994171E-12
   13.2617998      -2.95419158E-12
   13.3767996      -2.80489824E-12
   13.4918003      -2.64217489E-12
   13.6068001      -2.46631426E-12
   13.7217999      -2.27779969E-12
   13.8367996      -2.07731358E-12
   13.9518003      -1.86573825E-12
   14.0668001      -1.64415313E-12
   14.1817999      -1.41382327E-12
   14.2967997      -1.17618404E-12
   14.4118004      -9.32817625E-13
   14.5268002      -6.85426162E-13
   14.6417999      -4.35797584E-13
   14.7567997      -1.85766794E-13
   14.8718004       6.28239729E-14
   14.9868002       3.08169722E-13
   15.1018000       5.48546451E-13
   15.2167997       7.82355463E-13
   15.3318005       1.00816556E-12
   15.4468002       1.22475099E-12
   15.5618000       1.43112540E-12
   15.6767998       1.62656824E-12
   15.7917995       1.81064571E-12
   15.9068003       1.98322261E-12
   16.0217991       2.14446668E-12
   16.1368008       2.29484270E-12
   16.2518005       2.43510203E-12
   16.3668003       2.56626014E-12
   16.4818001       2.68956797E-12
   16.5967999       2.80647857E-12
   16.7117996       2.91860546E-12
   16.8267994       3.02768010E-12
   16.9417992       3.13550423E-12
   17.0568008       3.24390037E-12
   17.1718006       3.35466420E-12
   17.2868004       3.46951612E-12
   17.4018002       3.59005859E-12
   17.5167999       3.71773185E-12
   17.6317997       3.85377841E-12
   17.7467995       3.99921025E-12
   17.8617992       4.15478242E-12
   17.9768009       4.32097153E-12
   18.0918007       4.49795973E-12
   18.2068005       4.68562862E-12
   18.3218002       4.88355103E-12
   18.4368000       5.09099880E-12
   18.5517998       5.30694932E-12
   18.6667995       5.53009851E-12
   18.7817993       5.75888122E-12
   18.8967991       5.99149549E-12
   19.0118008       6.22593036E-12
   19.1268005       6.45999790E-12
   19.2418003       6.69136968E-12
   19.3568001       6.91761535E-12
   19.4717999       7.13624385E-12
   19.5867996       7.34474807E-12
   19.7017994       7.54064779E-12
   19.8167992       7.72153869E-12
   19.9318008       7.88513178E-12
   20.0468006       8.02930292E-12
   20.1618004       8.15213261E-12
   20.2768002       8.25194340E-12
   20.3917999       8.32733622E-12
   20.5067997       8.37721472E-12
   20.6217995       8.40081477E-12
   20.7367992       8.39771221E-12
   20.8518009       8.36784027E-12
   20.9668007       8.31148258E-12
   21.0818005       8.22926796E-12
   21.1968002       8.12215399E-12
   21.3118000       7.99140355E-12
   21.4267998       7.83854752E-12
   21.5417995       7.66535099E-12
   21.6567993       7.47376380E-12
   21.7717991       7.26587584E-12
   21.8868008       7.04385942E-12
   22.0018005       6.80991851E-12
   22.1168003       6.56623323E-12
   22.2318001       6.31490736E-12
   22.3467999       6.05792109E-12
   22.4617996       5.79708287E-12
   22.5767994       5.53399427E-12
   22.6917992       5.27001836E-12
   22.8068008       5.00625669E-12
   22.9218006       4.74353239E-12
   23.0368004       4.48238668E-12
   23.1518002       4.22307979E-12
   23.2667999       3.96560128E-12