  -75.1732025         0.00000000    
  -75.0581970         0.00000000    
  -74.9431992         0.00000000    
  -74.8282013         0.00000000    
  -74.7132034         0.00000000    
  -74.5981979         0.00000000    
  -74.4832001         0.00000000    
  -74.3682022         0.00000000    
  -74.2531967         0.00000000    
  -74.1381989         0.00000000    
  -74.0232010         0.00000000    
  -73.9082031         0.00000000    
  -73.7931976         0.00000000    
  -73.6781998         0.00000000    
  -73.5632019        -2.62026157E-35
  -73.4481964        -2.31956856E-34
  -73.3331985        -1.57232214E-33
  -73.2182007        -3.66556203E-33
  -73.1032028         4.94003007E-33
  -72.9881973         3.16545759E-32
  -72.8731995         6.73749692E-32
  -72.7582016         1.04634949E-31
  -72.6432037         1.29707796E-31
  -72.5281982         9.49438911E-32
  -72.4132004        -7.94243271E-32
  -72.2982025        -5.17922388E-31
  -72.1831970        -1.40143415E-30
  -72.0681992        -3.00246121E-30
  -71.9532013        -5.62305566E-30
  -71.8382034        -9.71340285E-30
  -71.7231979        -1.57638750E-29
  -71.6082001        -2.44435779E-29
  -71.4932022        -3.62487430E-29
  -71.3781967        -5.13485122E-29
  -71.2631989        -6.99583038E-29
  -71.1482010        -9.16692640E-29
  -71.0332031        -1.15997473E-28
  -70.9181976        -1.42224329E-28
  -70.8031998        -1.70708953E-28
  -70.6882019        -2.02537173E-28
  -70.5731964        -2.41140729E-28
  -70.4581985        -2.92197974E-28
  -70.3432007        -3.65001280E-28
  -70.2282028        -4.72317948E-28
  -70.1131973        -6.30234959E-28
  -69.9981995        -8.55547578E-28
  -69.8832016        -1.16377514E-27
  -69.7682037        -1.56422374E-27
  -69.6531982        -2.05444667E-27
  -69.5382004        -2.61430911E-27
  -69.4232025        -3.20190514E-27
  -69.3081970        -3.75025630E-27
  -69.1931992        -4.16837646E-27
  -69.0782013        -4.34711663E-27
  -68.9632034        -4.17072224E-27
  -68.8481979        -3.53330183E-27
  -68.7332001        -2.35924839E-27
  -68.6182022        -6.26676515E-28
  -68.5031967         1.61058559E-27
  -68.3881989         4.20456122E-27
  -68.2732010         6.90367384E-27
  -68.1582031         9.35483801E-27
  -68.0431976         1.11213842E-26
  -67.9281998         1.17200972E-26
  -67.8132019         1.06784503E-26
  -67.6981964         7.61370875E-27
  -67.5831985         2.33185338E-27
  -67.4682007        -5.05856863E-27
  -67.3532028        -1.40267034E-26
  -67.2381973        -2.35105880E-26
  -67.1231995        -3.18408975E-26
  -67.0082016        -3.67270126E-26
  -66.8932037        -3.53387591E-26
  -66.7781982        -2.45167200E-26
  -66.6632004        -1.13592407E-27
  -66.5482025         3.73699219E-26
  -66.4331970         9.23444520E-26
  -66.3181992         1.63162739E-25
  -66.2032013         2.46503995E-25
  -66.0882034         3.35782317E-25
  -65.9731979         4.20906646E-25
  -65.8582001         4.88546883E-25
  -65.7432022         5.23063394E-25
  -65.6281967         5.08193464E-25
  -65.5131989         4.29492707E-25
  -65.3982010         2.77390020E-25
  -65.2832031         5.05648346E-26
  -65.1681976        -2.40806373E-25
  -65.0531998        -5.72512400E-25
  -64.9382019        -9.05132692E-25
  -64.8231964        -1.18486780E-24
  -64.7081985        -1.34689707E-24
  -64.5932007        -1.32154811E-24
  -64.4782028        -1.04321293E-24
  -64.3631973        -4.61502316E-25
  -64.2481995         4.46359440E-25
  -64.1332016         1.66337002E-24
  -64.0182037         3.12267296E-24
  -63.9031982         4.70164886E-24
  -63.7882004         6.22222716E-24
  -63.6731987         7.45914213E-24
  -63.5582008         8.15719489E-24
  -63.4431992         8.05759095E-24
  -63.3282013         6.93215623E-24
  -63.2131996         4.62280221E-24
  -63.0982018         1.08219232E-24
  -62.9832001        -3.58969380E-24
  -62.8681984        -9.11919183E-24
  -62.7532005        -1.50490348E-23
  -62.6381989        -2.07504544E-23
  -62.5232010        -2.54612304E-23
  -62.4081993        -2.83509541E-23
  -62.2932014        -2.86113792E-23
  -62.1781998        -2.55655999E-23
  -62.0632019        -1.87857600E-23
  -61.9482002        -8.20523100E-24
  -61.8331985         5.79136593E-24
  -61.7182007         2.23176970E-23
  -61.6031990         3.99907325E-23
  -61.4882011         5.70029817E-23
  -61.3731995         7.12667355E-23
  -61.2582016         8.06258885E-23
  -61.1431999         8.31201279E-23
  -61.0281982         7.72752492E-23
  -60.9132004         6.23834612E-23
  -60.7981987         3.87311330E-23
  -60.6832008         7.72951158E-24
  -60.5681992        -2.80915482E-23
  -60.4532013        -6.52549464E-23
  -60.3381996        -9.96825403E-23
  -60.2232018        -1.27201259E-22
  -60.1082001        -1.44166400E-22
  -59.9931984        -1.48131531E-22
  -59.8782005        -1.38471014E-22
  -59.7631989        -1.16847087E-22
  -59.6482010        -8.74113482E-23
  -59.5331993        -5.66475967E-23
  -59.4182014        -3.27953081E-23
  -59.3031998        -2.48446567E-23
  -59.1882019        -4.11577985E-23
  -59.0732002        -8.78427857E-23
  -58.9581985        -1.67073608E-22
  -58.8432007        -2.75606442E-22
  -58.7281990        -4.03771146E-22
  -58.6132011        -5.35213574E-22
  -58.4981995        -6.47616383E-22
  -58.3832016        -7.14538444E-22
  -58.2681999        -7.08375434E-22
  -58.1531982        -6.04287800E-22
  -58.0382004        -3.84760709E-22
  -57.9231987        -4.42935837E-23
  -57.8082008         4.06419422E-22
  -57.6931992         9.37531777E-22
  -57.5782013         1.49901747E-21
  -57.4631996         2.02217690E-21
  -57.3482018         2.42407136E-21
  -57.2332001         2.61496995E-21
  -57.1181984         2.50852719E-21
  -57.0032005         2.03397432E-21
  -56.8881989         1.14921802E-21
  -56.7732010        -1.46614659E-22
  -56.6581993        -1.80285590E-21
  -56.5432014        -3.71092529E-21
  -56.4281998        -5.70346848E-21
  -56.3132019        -7.56018281E-21
  -56.1982002        -9.02090299E-21
  -56.0831985        -9.80576491E-21
  -55.9682007        -9.64136842E-21
  -55.8531990        -8.29099284E-21
  -55.7382011        -5.58612516E-21
  -55.6231995        -1.45596107E-21
  -55.5082016         4.04867469E-21
  -55.3931999         1.07404887E-20
  -55.2781982         1.82928424E-20
  -55.1632004         2.62507900E-20
  -55.0481987         3.40565832E-20
  -54.9332008         4.10887235E-20
  -54.8181992         4.67118295E-20
  -54.7032013         5.03331842E-20
  -54.5881996         5.14605086E-20
  -54.4732018         4.97547749E-20
  -54.3582001         4.50719439E-20
  -54.2431984         3.74879546E-20
  -54.1282005         2.73030542E-20
  -54.0131989         1.50233124E-20
  -53.8982010         1.31998306E-21
  -53.7831993        -1.30299607E-20
  -53.6682014        -2.72161227E-20
  -53.5531998        -4.04716759E-20
  -53.4382019        -5.21455014E-20
  -53.3232002        -6.17597408E-20
  -53.2081985        -6.90438416E-20
  -53.0932007        -7.39385407E-20
  -52.9781990        -7.65666874E-20
  -52.8632011        -7.71718152E-20
  -52.7481995        -7.60301703E-20
  -52.6332016        -7.33463893E-20
  -52.5181999        -6.91469613E-20
  -52.4031982        -6.31874481E-20
  -52.2882004        -5.48912014E-20
  -52.1731987        -4.33346126E-20
  -52.0582008        -2.72910924E-20
  -51.9431992        -5.33999329E-21
  -51.8282013         2.39609877E-20
  -51.7131996         6.18494576E-20
  -51.5982018         1.09096114E-19
  -51.4832001         1.65732344E-19
  -51.3681984         2.30798926E-19
  -51.2532005         3.02149691E-19
  -51.1381989         3.76343320E-19
  -51.0232010         4.48651856E-19
  -50.9081993         5.13206478E-19
  -50.7932014         5.63287767E-19
  -50.6781998         5.91755394E-19
  -50.5632019         5.91595231E-19
  -50.4482002         5.56547434E-19
  -50.3331985         4.81766170E-19
  -50.2182007         3.64451797E-19
  -50.1031990         2.04392788E-19
  -49.9882011         4.35418989E-21
  -49.8731995        -2.29740032E-19
  -49.7582016        -4.88870670E-19
  -49.6431999        -7.61255714E-19
  -49.5281982        -1.03294613E-18
  -49.4132004        -1.28866064E-18
  -49.2981987        -1.51280570E-18
  -49.1832008        -1.69060714E-18
  -49.0681992        -1.80926424E-18
  -48.9532013        -1.85902453E-18
  -48.8381996        -1.83407945E-18
  -48.7232018        -1.73318420E-18
  -48.6082001        -1.55992698E-18
  -48.4931984        -1.32259170E-18
  -48.3782005        -1.03359154E-18
  -48.2631989        -7.08485158E-19
  -48.1482010        -3.64619792E-19
  -48.0331993        -1.94817287E-20
  -47.9182014         3.11137241E-19
  -47.8031998         6.15028948E-19
  -47.6882019         8.85368426E-19
  -47.5732002         1.12227885E-18
  -47.4581985         1.33402416E-18
  -47.3432007         1.53770725E-18
  -47.2281990         1.75938214E-18
  -47.1132011         2.03351228E-18
  -46.9981995         2.40176544E-18
  -46.8832016         2.91114988E-18
  -46.7681999         3.61156485E-18
  -46.6531982         4.55284965E-18
  -46.5382004         5.78148170E-18
  -46.4231987         7.33706143E-18
  -46.3082008         9.24877839E-18
  -46.1931992         1.15320326E-17
  -46.0782013         1.41854229E-17
  -45.9631996         1.71882473E-17
  -45.8482018         2.04987218E-17
  -45.7332001         2.40529994E-17
  -45.6181984         2.77651477E-17
  -45.5032005         3.15280949E-17
  -45.3881989         3.52156032E-17
  -45.2732010         3.86851627E-17
  -45.1581993         4.17818159E-17
  -45.0432014         4.43426909E-17
  -44.9281998         4.62020772E-17
  -44.8132019         4.71968611E-17
  -44.6982002         4.71720225E-17
  -44.5831985         4.59859316E-17
  -44.4682007         4.35152258E-17
  -44.3531990         3.96588899E-17
  -44.2382011         3.43414752E-17
  -44.1231995         2.75151688E-17
  -44.0082016         1.91606281E-17
  -43.8931999         9.28658717E-18
  -43.7781982        -2.07175263E-18
  -43.6632004        -1.48554226E-17
  -43.5481987        -2.89851862E-17
  -43.4332008        -4.43656502E-17
  -43.3181992        -6.08895391E-17
  -43.2032013        -7.84418684E-17
  -43.0881996        -9.69035603E-17
  -42.9732018        -1.16154118E-16
  -42.8582001        -1.36073236E-16
  -42.7431984        -1.56540794E-16
  -42.6282005        -1.77435509E-16
  -42.5131989        -1.98631860E-16
  -42.3982010        -2.19995712E-16
  -42.2831993        -2.41378555E-16
  -42.1682014        -2.62610972E-16
  -42.0531998        -2.83495601E-16
  -41.9382019        -3.03800093E-16
  -41.8232002        -3.23250696E-16
  -41.7081985        -3.41526914E-16
  -41.5932007        -3.58257508E-16
  -41.4781990        -3.73018752E-16
  -41.3632011        -3.85334743E-16
  -41.2481995        -3.94680560E-16
  -41.1332016        -4.00487765E-16
  -41.0181999        -4.02152476E-16
  -40.9031982        -3.99046221E-16
  -40.7882004        -3.90528590E-16
  -40.6731987        -3.75962059E-16
  -40.5582008        -3.54727896E-16
  -40.4431992        -3.26243263E-16
  -40.3282013        -2.89978527E-16
  -40.2131996        -2.45474648E-16
  -40.0982018        -1.92359501E-16
  -39.9832001        -1.30363638E-16
  -39.8681984        -5.93341418E-17
  -39.7532005         2.07538640E-17
  -39.6381989         1.09787454E-16
  -39.5232010         2.07509625E-16
  -39.4081993         3.13515561E-16
  -39.2932014         4.27252154E-16
  -39.1781998         5.48021317E-16
  -39.0632019         6.74985891E-16
  -38.9482002         8.07179571E-16
  -38.8331985         9.43519635E-16
  -38.7182007         1.08282246E-15
  -38.6031990         1.22382147E-15
  -38.4882011         1.36518682E-15
  -38.3731995         1.50554696E-15
  -38.2582016         1.64350957E-15
  -38.1431999         1.77768287E-15
  -38.0281982         1.90669594E-15
  -37.9132004         2.02921629E-15
  -37.7981987         2.14396533E-15
  -37.6832008         2.24973031E-15
  -37.5681992         2.34537240E-15
  -37.4532013         2.42983005E-15
  -37.3381996         2.50211881E-15
  -37.2232018         2.56132641E-15
  -37.1082001         2.60660477E-15
  -36.9931984         2.63715746E-15
  -36.8782005         2.65222660E-15
  -36.7631989         2.65107739E-15
  -36.6482010         2.63298138E-15
  -36.5331993         2.59720461E-15
  -36.4182014         2.54299323E-15
  -36.3031998         2.46956585E-15
  -36.1882019         2.37610889E-15
  -36.0732002         2.26177850E-15
  -35.9581985         2.12570690E-15
  -35.8432007         1.96701760E-15
  -35.7281990         1.78484580E-15
  -35.6132011         1.57836575E-15
  -35.4981995         1.34682664E-15
  -35.3832016         1.08959025E-15
  -35.2681999         8.06178272E-16
  -35.1531982         4.96319432E-16
  -35.0382004         1.60001506E-16
  -34.9231987        -2.02477959E-16
  -34.8082008        -5.90460897E-16
  -34.6931992        -1.00288119E-15
  -34.5782013        -1.43822404E-15
  -34.4631996        -1.89449062E-15
  -34.3482018        -2.36917424E-15
  -34.2332001        -2.85924717E-15
  -34.1181984        -3.36115802E-15
  -34.0032005        -3.87084951E-15
  -33.8881989        -4.38378556E-15
  -33.7732010        -4.89499620E-15
  -33.6581993        -5.39913793E-15
  -33.5432014        -5.89056739E-15
  -33.4281998        -6.36343073E-15
  -33.3132019        -6.81175595E-15
  -33.1982002        -7.22956004E-15
  -33.0831985        -7.61095441E-15
  -32.9682007        -7.95025294E-15
  -32.8531990        -8.24207442E-15
  -32.7382011        -8.48143323E-15
  -32.6231995        -8.66382568E-15
  -32.5082016        -8.78528766E-15
  -32.3931999        -8.84245053E-15
  -32.2781982        -8.83256057E-15
  -32.1632004        -8.75348920E-15
  -32.0481987        -8.60372276E-15
  -31.9332008        -8.38232614E-15
  -31.8181992        -8.08890461E-15
  -31.7031994        -7.72354711E-15
  -31.5881996        -7.28676779E-15
  -31.4731998        -6.77944546E-15
  -31.3582001        -6.20277696E-15
  -31.2432003        -5.55823274E-15
  -31.1282005        -4.84753864E-15
  -31.0132008        -4.07267121E-15
  -30.8981991        -3.23588249E-15
  -30.7831993        -2.33974492E-15
  -30.6681995        -1.38722281E-15
  -30.5531998        -3.81763996E-16
  -30.4382000         6.72592706E-16
  -30.3232002         1.77109634E-15
  -30.2082005         2.90816226E-15
  -30.0932007         4.07725365E-15
  -29.9782009         5.27077602E-15
  -29.8631992         6.47999475E-15
  -29.7481995         7.69497838E-15
  -29.6331997         8.90458294E-15
  -29.5181999         1.00964769E-14
  -29.4032001         1.12572102E-14
  -29.2882004         1.23723290E-14
  -29.1732006         1.34265412E-14
  -29.0582008         1.44039240E-14
  -28.9431992         1.52881637E-14
  -28.8281994         1.60628364E-14
  -28.7131996         1.67117127E-14
  -28.5981998         1.72190719E-14
  -28.4832001         1.75700281E-14
  -28.3682003         1.77508544E-14
  -28.2532005         1.77492976E-14
  -28.1382008         1.75548679E-14
  -28.0231991         1.71591172E-14
  -27.9081993         1.65558705E-14
  -27.7931995         1.57414365E-14
  -27.6781998         1.47147699E-14
  -27.5632000         1.34776062E-14
  -27.4482002         1.20345357E-14
  -27.3332005         1.03930561E-14
  -27.2182007         8.56357001E-15
  -27.1032009         6.55933675E-15
  -26.9881992         4.39639068E-15
  -26.8731995         2.09340381E-15
  -26.7581997        -3.28488350E-16
  -26.6431999        -2.84590958E-15
  -26.5282001        -5.43351265E-15
  -26.4132004        -8.06429406E-15
  -26.2982006        -1.07099456E-14
  -26.1832008        -1.33412534E-14
  -26.0681992        -1.59285274E-14
  -25.9531994        -1.84420553E-14
  -25.8381996        -2.08525925E-14
  -25.7231998        -2.31318413E-14
  -25.6082001        -2.52529372E-14
  -25.4932003        -2.71909163E-14
  -25.3782005        -2.89231631E-14
  -25.2632008        -3.04297840E-14
  -25.1481991        -3.16939739E-14
  -25.0331993        -3.27022446E-14
  -24.9181995        -3.34446419E-14
  -24.8031998        -3.39148163E-14
  -24.6882000        -3.41100337E-14
  -24.5732002        -3.40310970E-14
  -24.4582005        -3.36821466E-14
  -24.3432007        -3.30703923E-14
  -24.2282009        -3.22057986E-14
  -24.1131992        -3.11006612E-14
  -23.9981995        -2.97691694E-14
  -23.8831997        -2.82269495E-14
  -23.7681999        -2.64905607E-14
  -23.6532001        -2.45770523E-14
  -23.5382004        -2.25035004E-14
  -23.4232006        -2.02866237E-14
  -23.3082008        -1.79424262E-14
  -23.1931992        -1.54859425E-14
  -23.0781994        -1.29310176E-14
  -22.9631996        -1.02901959E-14
  -22.8481998        -7.57467514E-15
  -22.7332001        -4.79434285E-15
  -22.6182003        -1.95787706E-15
  -22.5032005         9.27090160E-16
  -22.3882008         3.85374453E-15
  -22.2731991         6.81584119E-15
  -22.1581993         9.80741841E-15
  -22.0431995         1.28224991E-14
  -21.9281998         1.58547864E-14
  -21.8132000         1.88973847E-14
  -21.6982002         2.19425494E-14
  -21.5832005         2.49814224E-14
  -21.4682007         2.80038816E-14
  -21.3532009         3.09983769E-14
  -21.2381992         3.39518452E-14
  -21.1231995         3.68496839E-14
  -21.0081997         3.96757720E-14
  -20.8931999         4.24125185E-14
  -20.7782001         4.50410312E-14
  -20.6632004         4.75412454E-14
  -20.5482006         4.98921820E-14
  -20.4332008         5.20721771E-14
  -20.3181992         5.40591978E-14
  -20.2031994         5.58311332E-14
  -20.0881996         5.73661873E-14
  -19.9731998         5.86431945E-14
  -19.8582001         5.96420564E-14
  -19.7432003         6.03441112E-14
  -19.6282005         6.07325334E-14
  -19.5132008         6.07927472E-14
  -19.3981991         6.05128401E-14
  -19.2831993         5.98839419E-14
  -19.1681995         5.89006044E-14
  -19.0531998         5.75611675E-14
  -18.9382000         5.58680469E-14
  -18.8232002         5.38280222E-14
  -18.7082005         5.14524336E-14
  -18.5932007         4.87573171E-14
  -18.4782009         4.57634520E-14
  -18.3631992         4.24963070E-14
  -18.2481995         3.89858908E-14
  -18.1331997         3.52664743E-14
  -18.0181999         3.13762146E-14
  -17.9032001         2.73566333E-14
  -17.7882004         2.32520166E-14
  -17.6732006         1.91086872E-14
  -17.5582008         1.49742110E-14
  -17.4431992         1.08965274E-14
  -17.3281994         6.92304253E-15
  -17.2131996         3.09971220E-15
  -17.0981998        -5.29865907E-16
  -16.9832001        -3.92529171E-15
  -16.8682003        -7.05014575E-15
  -16.7532005        -9.87265689E-15
  -16.6382008        -1.23662389E-14
  -16.5231991        -1.45098845E-14
  -16.4081993        -1.62884012E-14
  -16.2931995        -1.76924718E-14
  -16.1781998        -1.87185337E-14
  -16.0632000        -1.93685417E-14
  -15.9482002        -1.96495364E-14
  -15.8332005        -1.95731221E-14
  -15.7181997        -1.91548149E-14
  -15.6032000        -1.84133341E-14
  -15.4882002        -1.73698285E-14
  -15.3732004        -1.60471053E-14
  -15.2581997        -1.44688559E-14
  -15.1431999        -1.26589286E-14
  -15.0282001        -1.06406744E-14
  -14.9132004        -8.43637023E-15
  -14.7981997        -6.06676930E-15
  -14.6831999        -3.55076000E-15
  -14.5682001        -9.05179959E-16
  -14.4532003         1.85524165E-15
  -14.3381996         4.71778675E-15
  -14.2231998         7.67150541E-15
  -14.1082001         1.07068099E-14
  -13.9932003         1.38149871E-14
  -13.8781996         1.69875219E-14
  -13.7631998         2.02153781E-14
  -13.6482000         2.34881525E-14
  -13.5332003         2.67931920E-14
  -13.4181995         3.01146708E-14
  -13.3031998         3.34326683E-14
  -13.1882000         3.67222935E-14
  -13.0732002         3.99528399E-14
  -12.9582005         4.30871057E-14
  -12.8431997         4.60807777E-14
  -12.7282000         4.88820884E-14
  -12.6132002         5.14315797E-14
  -12.4982004         5.36622172E-14
  -12.3831997         5.54996722E-14
  -12.2681999         5.68629345E-14
  -12.1532001         5.76652509E-14
  -12.0382004         5.78152435E-14
  -11.9231997         5.72184512E-14
  -11.8081999         5.57790576E-14
  -11.6932001         5.34018427E-14
  -11.5782003         4.99944595E-14
  -11.4631996         4.54697112E-14
  -11.3481998         3.97480883E-14
  -11.2332001         3.27602190E-14
  -11.1182003         2.44494281E-14
  -11.0031996         1.47741198E-14
  -10.8881998         3.71007800E-15
  -10.7732000        -8.74756505E-15
  -10.6582003        -2.25825150E-14
  -10.5431995        -3.77559719E-14
  -10.4281998        -5.42057210E-14
  -10.3132000        -7.18456124E-14
  -10.1982002        -9.05656301E-14
  -10.0832005        -1.10232529E-13
  -9.96819973        -1.30690977E-13
  -9.85319996        -1.51765387E-13
  -9.73820019        -1.73262161E-13
  -9.62320042        -1.94972646E-13
  -9.50819969        -2.16676449E-13
  -9.39319992        -2.38145170E-13
  -9.27820015        -2.59146600E-13
  -9.16320038        -2.79448990E-13
  -9.04819965        -2.98825716E-13
  -8.93319988        -3.17059557E-13
  -8.81820011        -3.33947361E-13
  -8.70320034        -3.49304082E-13
  -8.58819962        -3.62966601E-13
  -8.47319984        -3.74797253E-13
  -8.35820007        -3.84686532E-13
  -8.24320030        -3.92555265E-13
  -8.12819958        -3.98356017E-13
  -8.01319981        -4.02073909E-13
  -7.89820004        -4.03726342E-13
  -7.78319979        -4.03362104E-13
  -7.66820002        -4.01059855E-13
  -7.55320024        -3.96925467E-13
  -7.43820000        -3.91089233E-13
  -7.32320023        -3.83701995E-13
  -7.20819998        -3.74931341E-13
  -7.09320021        -3.64956898E-13
  -6.97819996        -3.53965880E-13
  -6.86320019        -3.42148158E-13
  -6.74819994        -3.29691569E-13
  -6.63320017        -3.16777285E-13
  -6.51819992        -3.03575334E-13
  -6.40320015        -2.90240786E-13
  -6.28819990        -2.76909843E-13
  -6.17320013        -2.63697050E-13
  -6.05819988        -2.50692642E-13
  -5.94320011        -2.37960801E-13
  -5.82819986        -2.25538419E-13
  -5.71320009        -2.13434644E-13
  -5.59819984        -2.01631057E-13
  -5.48320007        -1.90082664E-13
  -5.36819983        -1.78719317E-13
  -5.25320005        -1.67447938E-13
  -5.13819981        -1.56155308E-13
  -5.02320004        -1.44711093E-13
  -4.90819979        -1.32971569E-13
  -4.79320002        -1.20783524E-13
  -4.67820024        -1.07988312E-13
  -4.56320000        -9.44261962E-14
  -4.44820023        -7.99405030E-14
  -4.33319998        -6.43817885E-14
  -4.21820021        -4.76117016E-14
  -4.10319996        -2.95067552E-14
  -3.98819995        -9.96139037E-15
  -3.87319994         1.11091454E-14
  -3.75819993         3.37666940E-14
  -3.64319992         5.80483741E-14
  -3.52819991         8.39657188E-14
  -3.41319990         1.11504102E-13
  -3.29820013         1.40623028E-13
  -3.18320012         1.71256862E-13
  -3.06820011         2.03316151E-13
  -2.95320010         2.36689466E-13
  -2.83820009         2.71245645E-13
  -2.72320008         3.06836343E-13
  -2.60820007         3.43298821E-13
  -2.49320006         3.80459173E-13
  -2.37820005         4.18135226E-13
  -2.26320004         4.56139683E-13
  -2.14820004         4.94283217E-13
  -2.03320003         5.32377202E-13
  -1.91820002         5.70236404E-13
  -1.80320001         6.07681277E-13
  -1.68820000         6.44539814E-13
  -1.57319999         6.80649005E-13
  -1.45819998         7.15856519E-13
  -1.34319997         7.50020759E-13
  -1.22819996         7.83011731E-13
  -1.11320007         8.14710604E-13
 -0.998199999         8.45009392E-13
 -0.883199990         8.73810410E-13
 -0.768200040         9.01025077E-13
 -0.653200030         9.26572838E-13
 -0.538200021         9.50379640E-13
 -0.423200011         9.72376910E-13
 -0.308200002         9.92499919E-13
 -0.193200007         1.01068654E-12
  -7.82000124E-02     1.02687639E-12
   3.67999896E-02     1.04100951E-12
  0.151799992         1.05302583E-12
  0.266799986         1.06286529E-12
  0.381799996         1.07046707E-12
  0.496799976         1.07577001E-12
  0.611800015         1.07871362E-12
  0.726799965         1.07923859E-12
  0.841799974         1.07728746E-12
  0.956799984         1.07280699E-12
   1.07179999         1.06574862E-12
   1.18680000         1.05607103E-12
   1.30180001         1.04374105E-12
   1.41680002         1.02873580E-12
   1.53180003         1.01104422E-12
   1.64680004         9.90668702E-13
   1.76179993         9.67626478E-13
   1.87679994         9.41950294E-13
   1.99179995         9.13690347E-13
   2.10680008         8.82914076E-13
   2.22180009         8.49706698E-13
   2.33680010         8.14171538E-13
   2.45179987         7.76429539E-13
   2.56679988         7.36618340E-13
   2.68179989         6.94891844E-13
   2.79679990         6.51418481E-13
   2.91179991         6.06379801E-13
   3.02679992         5.59968142E-13
   3.14179993         5.12384894E-13
   3.25679994         4.63837790E-13
   3.37179995         4.14538141E-13
   3.48679996         3.64697855E-13
   3.60179996         3.14526915E-13
   3.71679997         2.64229854E-13
   3.83179998         2.14003118E-13
   3.94679999         1.64031738E-13
   4.06180000         1.14486803E-13
   4.17679977         6.55227622E-14
   4.29180002         1.72749473E-14
   4.40679979        -3.01422942E-14
   4.52180004        -7.66371423E-14
   4.63679981        -1.22141636E-13
   4.75180006        -1.66612126E-13
   4.86679983        -2.10029680E-13
   4.98180008        -2.52399528E-13
   5.09679985        -2.93750077E-13
   5.21180010        -3.34131892E-13
   5.32679987        -3.73615201E-13
   5.44180012        -4.12288042E-13
   5.55679989        -4.50253523E-13
   5.67180014        -4.87626649E-13
   5.78679991        -5.24530940E-13
   5.90180016        -5.61095441E-13
   6.01679993        -5.97450637E-13
   6.13180017        -6.33725873E-13
   6.24679995        -6.70045616E-13
   6.36180019        -7.06526092E-13
   6.47679996        -7.43273065E-13
   6.59180021        -7.80378854E-13
   6.70679998        -8.17920709E-13
   6.82179976        -8.55958750E-13
   6.93680000        -8.94534989E-13
   7.05179977        -9.33672410E-13
   7.16680002        -9.73374701E-13
   7.28179979        -1.01362614E-12
   7.39680004        -1.05439225E-12
   7.51179981        -1.09562023E-12
   7.62680006        -1.13724048E-12
   7.74179983        -1.17916755E-12
   7.85680008        -1.22130160E-12
   7.97179985        -1.26353030E-12
   8.08679962        -1.30573037E-12
   8.20180035        -1.34776934E-12
   8.31680012        -1.38950797E-12
   8.43179989        -1.43080166E-12
   8.54679966        -1.47150196E-12
   8.66180038        -1.51146001E-12
   8.77680016        -1.55052696E-12
   8.89179993        -1.58855709E-12
   9.00679970        -1.62540912E-12
   9.12180042        -1.66094970E-12
   9.23680019        -1.69505339E-12
   9.35179996        -1.72760699E-12
   9.46679974        -1.75851000E-12
   9.58180046        -1.78767743E-12
   9.69680023        -1.81504150E-12
   9.81180000        -1.84055332E-12
   9.92679977        -1.86418372E-12
   10.0417995        -1.88592566E-12
   10.1568003        -1.90579301E-12
   10.2718000        -1.92382156E-12
   10.3867998        -1.94006877E-12
   10.5017996        -1.95461225E-12
   10.6168003        -1.96754679E-12
   10.7318001        -1.97898382E-12
   10.8467999        -1.98904738E-12
   10.9617996        -1.99786932E-12
   11.0768003        -2.00558558E-12
   11.1918001        -2.01233149E-12
   11.3067999        -2.01823584E-12
   11.4217997        -2.02341616E-12
   11.5368004        -2.02797154E-12
   11.6518002        -2.03197897E-12
   11.7667999        -2.03548615E-12
   11.8817997        -2.03850803E-12
   11.9968004        -2.04102317E-12
   12.1118002        -2.04296736E-12
   12.2268000        -2.04423566E-12
   12.3417997        -2.04467714E-12
   12.4568005        -2.04409796E-12
   12.5718002        -2.04226067E-12
   12.6868000        -2.03888816E-12
   12.8017998        -2.03366664E-12
   12.9167995        -2.02625221E-12
   13.0318003        -2.01627582E-12
   13.1468000        -2.00335169E-12
   13.2617998        -1.98708606E-12
   13.3767996        -1.96708513E-12
   13.4918003        -1.94296510E-12
   13.6068001        -1.91436146E-12
   13.7217999        -1.88093920E-12
   13.8367996        -1.84240036E-12
   13.9518003        -1.79849267E-12
   14.0668001        -1.74901760E-12
   14.1817999        -1.69383507E-12
   14.2967997        -1.63286832E-12
   14.4118004        -1.56610640E-12
   14.5268002        -1.49360472E-12
   14.6417999        -1.41548492E-12
   14.7567997        -1.33193109E-12
   14.8718004        -1.24318589E-12
   14.9868002        -1.14954281E-12
   15.1018000        -1.05133957E-12
   15.2167997        -9.48946976E-13
   15.3318005        -8.42760594E-13
   15.4468002        -7.33186949E-13
   15.5618000        -6.20633427E-13
   15.6767998        -5.05495602E-13
   15.7917995        -3.88144839E-13
   15.9068003        -2.68917890E-13
   16.0217991        -1.48105784E-13
   16.1368008        -2.59445277E-14
   16.2518005         9.73934542E-14
   16.3668003         2.21804671E-13
   16.4818001         3.47259060E-13
   16.5967999         4.73802855E-13
   16.7117996         6.01558137E-13
   16.8267994         7.30721256E-13
   16.9417992         8.61558275E-13
   17.0568008         9.94398357E-13
   17.1718006         1.12962396E-12
   17.2868004         1.26766121E-12
   17.4018002         1.40896713E-12
   17.5167999         1.55401473E-12
   17.6317997         1.70327652E-12
   17.7467995         1.85721078E-12
   17.8617992         2.01624112E-12