  -37.8452110         0.00000000    
  -37.7302094         0.00000000    
  -37.6152115         0.00000000    
  -37.5002098         0.00000000    
  -37.3852119         0.00000000    
  -37.2702103         0.00000000    
  -37.1552124         0.00000000    
  -37.0402107         0.00000000    
  -36.9252129         0.00000000    
  -36.8102112         0.00000000    
  -36.6952095         0.00000000    
  -36.5802116         0.00000000    
  -36.4652100         0.00000000    
  -36.3502121         0.00000000    
  -36.2352104        -2.65340959E-35
  -36.1202126        -1.82976176E-34
  -36.0052109        -1.49575852E-33
  -35.8902092         1.21322184E-33
  -35.7752113         1.46524445E-32
  -35.6602097         4.63005478E-32
  -35.5452118         9.10019884E-32
  -35.4302101         1.36027689E-31
  -35.3152122         1.68170830E-31
  -35.2002106         1.37261923E-31
  -35.0852127        -3.36657292E-32
  -34.9702110        -4.71725319E-31
  -34.8552094        -1.36601321E-30
  -34.7402115        -2.98626741E-30
  -34.6252098        -5.65407554E-30
  -34.5102119        -9.82715760E-30
  -34.3952103        -1.60449419E-29
  -34.2802124        -2.51269068E-29
  -34.1652107        -3.75018042E-29
  -34.0502129        -5.34463073E-29
  -33.9352112        -7.32837409E-29
  -33.8202095        -9.66924142E-29
  -33.7052116        -1.23086279E-28
  -33.5902100        -1.52000951E-28
  -33.4752121        -1.83783382E-28
  -33.3602104        -2.19565378E-28
  -33.2452126        -2.62691235E-28
  -33.1302109        -3.19176473E-28
  -33.0152092        -3.98586489E-28
  -32.9002113        -5.14201291E-28
  -32.7852097        -6.82643895E-28
  -32.6702118        -9.22200932E-28
  -32.5552101        -1.24989310E-27
  -32.4402122        -1.67685193E-27
  -32.3252106        -2.20266586E-27
  -32.2102127        -2.80912251E-27
  -32.0952110        -3.45603275E-27
  -31.9802113        -4.07722759E-27
  -31.8652115        -4.58123575E-27
  -31.7502117        -4.85690720E-27
  -31.6352119        -4.78412708E-27
  -31.5202103        -4.25016377E-27
  -31.4052105        -3.17025807E-27
  -31.2902107        -1.51162852E-27
  -31.1752110         6.83544315E-28
  -31.0602112         3.27839884E-27
  -30.9452114         6.02990138E-27
  -30.8302116         8.58889490E-27
  -30.7152119         1.05157516E-26
  -30.6002102         1.13154617E-26
  -30.4852104         1.04935549E-26
  -30.3702106         7.63565202E-27
  -30.2552109         2.50715788E-27
  -30.1402111        -4.82911411E-27
  -30.0252113        -1.38877298E-26
  -29.9102116        -2.36431012E-26
  -29.7952118        -3.24424409E-26
  -29.6802101        -3.79791937E-26
  -29.5652103        -3.73612290E-26
  -29.4502106        -2.73087714E-26
  -29.3352108        -4.50949910E-27
  -29.2202110         3.38588992E-26
  -29.1052113         8.94560440E-26
  -28.9902115         1.62010916E-25
  -28.8752117         2.48556414E-25
  -28.7602119         3.42807001E-25
  -28.6452103         4.34851340E-25
  -28.5302105         5.11345210E-25
  -28.4152107         5.56368904E-25
  -28.3002110         5.53059534E-25
  -28.1852112         4.86027607E-25
  -28.0702114         3.44436910E-25
  -27.9552116         1.25466675E-25
  -27.8402119        -1.62285920E-25
  -27.7252102        -4.96042393E-25
  -27.6102104        -8.37384528E-25
  -27.4952106        -1.13276699E-24
  -27.3802109        -1.31656300E-24
  -27.2652111        -1.31697804E-24
  -27.1502113        -1.06482250E-24
  -27.0352116        -5.04695556E-25
  -26.9202118         3.92367779E-25
  -26.8052101         1.61622483E-24
  -26.6902103         3.10678254E-24
  -26.5752106         4.74709395E-24
  -26.4602108         6.36252332E-24
  -26.3452110         7.72782027E-24
  -26.2302113         8.58332572E-24
  -26.1152115         8.66055441E-24
  -26.0002117         7.71615380E-24
  -25.8852119         5.57179044E-24
  -25.7702103         2.15602470E-24
  -25.6552105        -2.45705796E-24
  -25.5402107        -8.01861017E-24
  -25.4252110        -1.40916180E-23
  -25.3102112        -2.00591914E-23
  -25.1952114        -2.51589073E-23
  -25.0802116        -2.85449981E-23
  -24.9652119        -2.93767983E-23
  -24.8502102        -2.69277891E-23
  -24.7352104        -2.07052858E-23
  -24.6202106        -1.05670372E-23
  -24.5052109         3.18194816E-24
  -24.3902111         1.97301070E-23
  -24.2752113         3.77542140E-23
  -24.1602116         5.54811996E-23
  -24.0452118         7.08230359E-23
  -23.9302101         8.15818049E-23
  -23.8152103         8.57110311E-23
  -23.7002106         8.16083233E-23
  -23.5852108         6.84038898E-23
  -23.4702110         4.62022800E-23
  -23.3552113         1.62321605E-23
  -23.2402115        -1.91375589E-23
  -23.1252117        -5.65461745E-23
  -23.0102119        -9.19669442E-23
  -22.8952103        -1.21198898E-22
  -22.7802105        -1.40485563E-22
  -22.6652107        -1.47192294E-22
  -22.5502110        -1.40449932E-22
  -22.4352112        -1.21656034E-22
  -22.3202114        -9.47212173E-23
  -22.2052116        -6.59621192E-23
  -22.0902119        -4.35739154E-23
  -21.9752102        -3.66645762E-23
  -21.8602104        -5.38967820E-23
  -21.7452106        -1.01855656E-22
  -21.6302109        -1.83330530E-22
  -21.5152111        -2.95757762E-22
  -21.4002113        -4.30106756E-22
  -21.2852116        -5.70493049E-22
  -21.1702118        -6.94761336E-22
  -21.0552101        -7.76193591E-22
  -20.9402103        -7.86374113E-22
  -20.8252106        -6.99074751E-22
  -20.7102108        -4.94849543E-22
  -20.5952110        -1.65850470E-22
  -20.4802113         2.79767513E-22
  -20.3652115         8.14574489E-22
  -20.2502117         1.39045234E-21
  -20.1352119         1.93968280E-21
  -20.0202103         2.37897669E-21
  -19.9052105         2.61659381E-21
  -19.7902107         2.56232301E-21
  -19.6752110         2.13967875E-21
  -19.5602112         1.29924184E-21
  -19.4452114         3.17194501E-23
  -19.3302116        -1.62095452E-21
  -19.2152119        -3.55823413E-21
  -19.1002102        -5.61892521E-21
  -18.9852104        -7.58577290E-21
  -18.8702106        -9.19739053E-21
  -18.7552109        -1.01674763E-20
  -18.6402111        -1.02104024E-20
  -18.5252113        -9.07135454E-21
  -18.4102116        -6.55838065E-21
  -18.2952118        -2.57306323E-21
  -18.1802101         2.86376572E-21
  -18.0652103         9.59485163E-21
  -17.9502106         1.73209278E-20
  -17.8352108         2.56088817E-20
  -17.7202110         3.39145247E-20
  -17.6052113         4.16192920E-20
  -17.4902115         4.80784837E-20
  -17.3752117         5.26770877E-20
  -17.2602119         5.48879508E-20
  -17.1452103         5.43261272E-20
  -17.0302105         5.07932808E-20
  -16.9152107         4.43062848E-20
  -16.8002110         3.51057003E-20
  -16.6852112         2.36417783E-20
  -16.5702114         1.05380354E-20
  -16.4552116        -3.46462419E-21
  -16.3402119        -1.75776979E-20
  -16.2252102        -3.10409121E-20
  -16.1102104        -4.31946737E-20
  -15.9952106        -5.35393492E-20
  -15.8802109        -6.17723489E-20
  -15.7652111        -6.77958070E-20
  -15.6502113        -7.16914400E-20
  -15.5352106        -7.36625209E-20
  -15.4202108        -7.39484863E-20
  -15.3052111        -7.27212992E-20
  -15.1902113        -6.99776574E-20
  -15.0752115        -6.54428142E-20
  -14.9602108        -5.85038933E-20
  -14.8452110        -4.81882596E-20
  -14.7302113        -3.32002833E-20
  -14.6152115        -1.20234822E-20
  -14.5002108         1.69118062E-20
  -14.3852110         5.50037367E-20
  -14.2702112         1.03213645E-19
  -14.1552114         1.61785568E-19
  -14.0402107         2.29980948E-19
  -13.9252110         3.05862879E-19
  -13.8102112         3.86163763E-19
  -13.6952114         4.66267339E-19
  -13.5802107         5.40325905E-19
  -13.4652109         6.01525328E-19
  -13.3502111         6.42493412E-19
  -13.2352114         6.55833871E-19
  -13.1202106         6.34751725E-19
  -13.0052109         5.73722598E-19
  -12.8902111         4.69148151E-19
  -12.7752113         3.19933945E-19
  -12.6602106         1.27926842E-19
  -12.5452108        -1.01844319E-19
  -12.4302111        -3.61169829E-19
  -12.3152113        -6.38925524E-19
  -12.2002115        -9.21609483E-19
  -12.0852108        -1.19412538E-18
  -11.9702110        -1.44076665E-18
  -11.8552113        -1.64633209E-18
  -11.7402115        -1.79728439E-18
  -11.6252108        -1.88285333E-18
  -11.5102110        -1.89598192E-18
  -11.3952112        -1.83401762E-18
  -11.2802114        -1.69906444E-18
  -11.1652107        -1.49794168E-18
  -11.0502110        -1.24171049E-18
  -10.9352112        -9.44776124E-19
  -10.8202114        -6.23600504E-19
  -10.7052107        -2.95098390E-19
  -10.5902109         2.51824071E-20
  -10.4752111         3.24971836E-19
  -10.3602114         5.97137858E-19
  -10.2452106         8.41350061E-19
  -10.1302109         1.06540284E-18
  -10.0152111         1.28607695E-18
  -9.90021133         1.52943007E-18
  -9.78521061         1.83044999E-18
  -9.67021084         2.23202508E-18
  -9.55521107         2.78325845E-18
  -9.44021130         3.53714920E-18
  -9.32521152         4.54773354E-18
  -9.21021080         5.86682688E-18
  -9.09521103         7.54046928E-18
  -8.98021126         9.60530068E-18
  -8.86521149         1.20850178E-17
  -8.75021076         1.49870982E-17
  -8.63521099         1.83000112E-17
  -8.52021122         2.19910317E-17
  -8.40521145         2.60048644E-17
  -8.29021072         3.02631472E-17
  -8.17521095         3.46649226E-17
  -8.06021118         3.90881386E-17
  -7.94521093         4.33921082E-17
  -7.83021116         4.74209079E-17
  -7.71521091         5.10075598E-17
  -7.60021114         5.39788587E-17
  -7.48521090         5.61606204E-17
  -7.37021112         5.73831007E-17
  -7.25521088         5.74863394E-17
  -7.14021111         5.63251499E-17
  -7.02521086         5.37734731E-17
  -6.91021109         4.97279213E-17
  -6.79521084         4.41102333E-17
  -6.68021107         3.68685980E-17
  -6.56521130         2.79777398E-17
  -6.45021105         1.74378342E-17
  -6.33521128         5.27230116E-18
  -6.22021103        -8.47523714E-18
  -6.10521126        -2.37446744E-17
  -5.99021101        -4.04633495E-17
  -5.87521124        -5.85499349E-17
  -5.76021099        -7.79178726E-17
  -5.64521122        -9.84779364E-17
  -5.53021097        -1.20139712E-16
  -5.41521120        -1.42811647E-16
  -5.30021095        -1.66399503E-16
  -5.18521118        -1.90803317E-16
  -5.07021093        -2.15912814E-16
  -4.95521116        -2.41601457E-16
  -4.84021091        -2.67719480E-16
  -4.72521114        -2.94086504E-16
  -4.61021090        -3.20483704E-16
  -4.49521112        -3.46646566E-16
  -4.38021088        -3.72258540E-16
  -4.26521111        -3.96946082E-16
  -4.15021086        -4.20275514E-16
  -4.03521109        -4.41752219E-16
  -3.92021108        -4.60822134E-16
  -3.80521107        -4.76876108E-16
  -3.69021106        -4.89256765E-16
  -3.57521105        -4.97268162E-16
  -3.46021104        -5.00187302E-16
  -3.34521103        -4.97278379E-16
  -3.23021102        -4.87808021E-16
  -3.11521101        -4.71062445E-16
  -3.00021100        -4.46364764E-16
  -2.88521099        -4.13092754E-16
  -2.77021098        -3.70696346E-16
  -2.65521097        -3.18714358E-16
  -2.54021096        -2.56790002E-16
  -2.42521095        -1.84684404E-16
  -2.31021094        -1.02288327E-16
  -2.19521117        -9.63127167E-18
  -2.08021116         9.31122474E-17
  -1.96521103         2.05619604E-16
  -1.85021102         3.27419845E-16
  -1.73521101         4.57896959E-16
  -1.62021101         5.96296795E-16
  -1.50521111         7.41736482E-16
  -1.39021111         8.93217736E-16
  -1.27521110         1.04964164E-15
  -1.16021109         1.20982669E-15
  -1.04521108         1.37252753E-15
 -0.930211067         1.53645498E-15
 -0.815211058         1.70029572E-15
 -0.700211048         1.86273197E-15
 -0.585211039         2.02245782E-15
 -0.470211059         2.17819583E-15
 -0.355211049         2.32870745E-15
 -0.240211055         2.47280321E-15
 -0.125211060         2.60934471E-15
  -1.02110580E-02     2.73724732E-15
  0.104788944         2.85547343E-15
  0.219788939         2.96302734E-15
  0.334788948         3.05894112E-15
  0.449788928         3.14226354E-15
  0.564788938         3.21204253E-15
  0.679788947         3.26731143E-15
  0.794788957         3.30707243E-15
  0.909788966         3.33028389E-15
   1.02478898         3.33585037E-15
   1.13978899         3.32261739E-15
   1.25478899         3.28937050E-15
   1.36978889         3.23484191E-15
   1.48478889         3.15772189E-15
   1.59978890         3.05667975E-15
   1.71478891         2.93038947E-15
   1.82978892         2.77756482E-15
   1.94478893         2.59699963E-15
   2.05978894         2.38761202E-15
   2.17478895         2.14849801E-15
   2.28978896         1.87898314E-15
   2.40478897         1.57868095E-15
   2.51978898         1.24754538E-15
   2.63478899         8.85927377E-16
   2.74978900         4.94623037E-16
   2.86478901         7.49165834E-17
   2.97978902        -3.71383899E-16
   3.09478903        -8.41923539E-16
   3.20978904        -1.33378837E-15
   3.32478905        -1.84350771E-15
   3.43978906        -2.36707190E-15
   3.55478883        -2.89996510E-15
   3.66978884        -3.43721460E-15
   3.78478885        -3.97345273E-15
   3.89978886        -4.50299655E-15
   4.01478910        -5.01993441E-15
   4.12978888        -5.51822568E-15
   4.24478912        -5.99180138E-15
   4.35978889        -6.43466874E-15
   4.47478914        -6.84101544E-15
   4.58978891        -7.20530186E-15
   4.70478916        -7.52234544E-15
   4.81978893        -7.78739391E-15
   4.93478870        -7.99617737E-15
   5.04978895        -8.14494177E-15
   5.16478872        -8.23046838E-15
   5.27978897        -8.25006787E-15
   5.39478874        -8.20155745E-15
   5.50978899        -8.08323287E-15
   5.62478876        -7.89381344E-15
   5.73978901        -7.63240044E-15
   5.85478878        -7.29841704E-15
   5.96978903        -6.89156890E-15
   6.08478880        -6.41180902E-15
   6.19978905        -5.85931695E-15
   6.31478882        -5.23450564E-15
   6.42978907        -4.53804551E-15
   6.54478884        -3.77091741E-15
   6.65978909        -2.93448953E-15
   6.77478886        -2.03061622E-15
   6.88978910        -1.06175707E-15
   7.00478888        -3.11079203E-17
   7.11978912         1.05725922E-15
   7.23478889         2.19826077E-15
   7.34978914         3.38567603E-15
   7.46478891         4.61203680E-15
   7.57978916         5.86854877E-15
   7.69478893         7.14504563E-15
   7.80978870         8.42998106E-15
   7.92478895         9.71047126E-15
   8.03978920         1.09723767E-14
   8.15478897         1.22004406E-14
   8.26978874         1.33784661E-14
   8.38478851         1.44895387E-14
   8.49978924         1.55162833E-14
   8.61478901         1.64411518E-14
   8.72978878         1.72467360E-14
   8.84478855         1.79160835E-14
   8.95978928         1.84330277E-14
   9.07478905         1.87825135E-14
   9.18978882         1.89509053E-14
   9.30478859         1.89262804E-14
   9.41978931         1.86986978E-14
   9.53478909         1.82604447E-14
   9.64978886         1.76062371E-14
   9.76478863         1.67333917E-14
   9.87978935         1.56419660E-14
   9.99478912         1.43348502E-14
   10.1097889         1.28178252E-14
   10.2247887         1.10995765E-14
   10.3397894         9.19166273E-15
   10.4547892         7.10844788E-15
   10.5697889         4.86697974E-15
   10.6847887         2.48682478E-15
   10.7997885        -1.01469212E-17
   10.9147892        -2.60001655E-15
   11.0297890        -5.25713328E-15
   11.1447887        -7.95446184E-15
   11.2597885        -1.06639830E-14
   11.3747892        -1.33571167E-14
   11.4897890        -1.60051856E-14
   11.6047888        -1.85798947E-14
   11.7197886        -2.10538069E-14
   11.8347893        -2.34008285E-14
   11.9497890        -2.55966597E-14
   12.0647888        -2.76192169E-14
   12.1797886        -2.94490012E-14
   12.2947893        -3.10694091E-14
   12.4097891        -3.24669762E-14
   12.5247889        -3.36315109E-14
   12.6397886        -3.45561660E-14
   12.7547894        -3.52374176E-14
   12.8697891        -3.56749237E-14
   12.9847889        -3.58713540E-14
   13.0997887        -3.58320822E-14
   13.2147894        -3.55648433E-14
   13.3297892        -3.50793477E-14
   13.4447889        -3.43868576E-14
   13.5597887        -3.34997092E-14
   13.6747885        -3.24309095E-14
   13.7897892        -3.11936790E-14
   13.9047890        -2.98010789E-14
   14.0197887        -2.82656521E-14
   14.1347885        -2.65991622E-14
   14.2497892        -2.48123665E-14
   14.3647890        -2.29148738E-14
   14.4797888        -2.09150985E-14
   14.5947886        -1.88202555E-14
   14.7097893        -1.66364555E-14
   14.8247890        -1.43688416E-14
   14.9397888        -1.20217997E-14
   15.0547886        -9.59919485E-15
   15.1697893        -7.10464766E-15
   15.2847891        -4.54183132E-15
   15.3997889        -1.91476965E-15
   15.5147886         7.71869679E-16
   15.6297894         3.51249507E-15
   15.7447891         6.30034456E-15
   15.8597889         9.12727129E-15
   15.9747887         1.19835790E-14
   16.0897884         1.48578862E-14
   16.2047882         1.77370647E-14
   16.3197899         2.06062313E-14
   16.4347897         2.34487553E-14
   16.5497894         2.62463747E-14
   16.6647892         2.89793146E-14
   16.7797890         3.16264721E-14
   16.8947887         3.41656499E-14
   17.0097885         3.65738120E-14
   17.1247883         3.88273872E-14
   17.2397881         4.09025908E-14
   17.3547897         4.27757974E-14
   17.4697895         4.44239033E-14
   17.5847893         4.58247366E-14
   17.6997890         4.69574568E-14
   17.8147888         4.78030057E-14
   17.9297886         4.83445207E-14
   18.0447884         4.85677681E-14
   18.1597881         4.84615637E-14
   18.2747898         4.80181894E-14
   18.3897896         4.72337623E-14
   18.5047894         4.61085773E-14
   18.6197891         4.46473946E-14
   18.7347889         4.28596571E-14
   18.8497887         4.07596354E-14
   18.9647884         3.83664725E-14
   19.0797882         3.57041362E-14
   19.1947899         3.28012391E-14
   19.3097897         2.96907545E-14
   19.4247894         2.64095996E-14
   19.5397892         2.29981236E-14
   19.6547890         1.94994540E-14
   19.7697887         1.59587750E-14
   19.8847885         1.24224937E-14
   19.9997883         8.93739784E-15
   20.1147881         5.54974886E-15
   20.2297897         2.30437897E-15
   20.3447895        -7.56172041E-16
   20.4597893        -3.59245562E-15
   20.5747890        -6.16884016E-15
   20.6897888        -8.45411387E-15
   20.8047886        -1.04219340E-14
   20.9197884        -1.20511714E-14
   21.0347881        -1.33260577E-14
   21.1497898        -1.42361776E-14
   21.2647896        -1.47763017E-14
   21.3797894        -1.49461013E-14
   21.4947891        -1.47496625E-14
   21.6097889        -1.41949813E-14
   21.7247887        -1.32932902E-14
   21.8397884        -1.20583763E-14
   21.9547882        -1.05058496E-14
   22.0697899        -8.65242123E-15
   22.1847897        -6.51519574E-15
   22.2997894        -4.11102359E-15
   22.4147892        -1.45594450E-15
   22.5297890         1.43529733E-15
   22.6447887         4.54959057E-15
   22.7597885         7.87569117E-15
   22.8747883         1.14043008E-14
   22.9897881         1.51280034E-14
   23.1047897         1.90410550E-14
   23.2197895         2.31390275E-14
   23.3347893         2.74182990E-14
   23.4497890         3.18754592E-14
   23.5647888         3.65065169E-14
   23.6797886         4.13060902E-14
   23.7947884         4.62664812E-14
   23.9097881         5.13766919E-14
   24.0247898         5.66214590E-14
   24.1397896         6.19802536E-14
   24.2547894         6.74263434E-14
   24.3697891         7.29259860E-14
   24.4847889         7.84376768E-14
   24.5997887         8.39115696E-14
   24.7147884         8.92891853E-14
   24.8297882         9.45032017E-14
   24.9447899         9.94776364E-14
   25.0597897         1.04128220E-13
   25.1747894         1.08363134E-13
   25.2897892         1.12083987E-13
   25.4047890         1.15187184E-13
   25.5197887         1.17565476E-13
   25.6347885         1.19109909E-13
   25.7497883         1.19711898E-13
   25.8647881         1.19265546E-13
   25.9797897         1.17670169E-13
   26.0947895         1.14832921E-13
   26.2097893         1.10671258E-13
   26.3247890         1.05115711E-13
   26.4397888         9.81122735E-14
   26.5547886         8.96247188E-14
   26.6697884         7.96367231E-14
   26.7847881         6.81535991E-14
   26.8997898         5.52036071E-14
   27.0147896         4.08389448E-14
   27.1297894         2.51361601E-14
   27.2447891         8.19600854E-15
   27.3597889        -9.85720447E-15
   27.4747887        -2.88769354E-14
   27.5897884        -4.86961918E-14
   27.7047882        -6.91300112E-14
   27.8197899        -8.99783652E-14
   27.9347897        -1.11029594E-13
   28.0497894        -1.32064241E-13
   28.1647892        -1.52859211E-13
   28.2797890        -1.73192068E-13
   28.3947887        -1.92845563E-13
   28.5097885        -2.11612032E-13
   28.6247883        -2.29297809E-13
   28.7397881        -2.45727131E-13
   28.8547897        -2.60745933E-13
   28.9697895        -2.74224952E-13
   29.0847893        -2.86062325E-13
   29.1997890        -2.96185629E-13
   29.3147888        -3.04553095E-13
   29.4297886        -3.11153880E-13
   29.5447884        -3.16007962E-13
   29.6597881        -3.19164969E-13
   29.7747898        -3.20702395E-13
   29.8897896        -3.20723130E-13
   30.0047894        -3.19352319E-13
   30.1197891        -3.16733754E-13
   30.2347889        -3.13025864E-13
   30.3497887        -3.08397432E-13
   30.4647884        -3.03022852E-13
   30.5797882        -2.97077846E-13
   30.6947899        -2.90734613E-13
   30.8097897        -2.84157544E-13
   30.9247894        -2.77499161E-13
   31.0397892        -2.70896153E-13
   31.1547890        -2.64466156E-13
   31.2697887        -2.58304879E-13
   31.3847885        -2.52483987E-13
   31.4997883        -2.47049207E-13
   31.6147881        -2.42019675E-13
   31.7297897        -2.37387340E-13
   31.8447895        -2.33117480E-13
   31.9597893        -2.29149761E-13
   32.0747871        -2.25399750E-13
   32.1897888        -2.21761113E-13
   32.3047905        -2.18108531E-13
   32.4197884        -2.14300650E-13
   32.5347900        -2.10183813E-13
   32.6497879        -2.05595821E-13
   32.7647896        -2.00369899E-13
   32.8797874        -1.94338876E-13
   32.9947891        -1.87339185E-13
   33.1097908        -1.79214838E-13
   33.2247887        -1.69821080E-13
   33.3397903        -1.59027874E-13
   33.4547882        -1.46722817E-13
   33.5697899        -1.32813723E-13
   33.6847878        -1.17230553E-13
   33.7997894        -9.99269366E-14
   33.9147873        -8.08810213E-14
   34.0297890        -6.00956527E-14
   34.1447906        -3.75982306E-14
   34.2597885        -1.34397193E-14
   34.3747902         1.23066272E-14
   34.4897881         3.95470501E-14
   34.6047897         6.81695165E-14
   34.7197876         9.80461440E-14
   34.8347893         1.29035807E-13
   34.9497871         1.60987109E-13
   35.0647888         1.93741155E-13
   35.1797905         2.27134351E-13
   35.2947884         2.61001154E-13
   35.4097900         2.95176535E-13
   35.5247879         3.29498337E-13
   35.6397896         3.63809162E-13
   35.7547874         3.97958034E-13
   35.8697891         4.31801567E-13
   35.9847908         4.65204806E-13
   36.0997887         4.98041820E-13
   36.2147903         5.30195625E-13
   36.3297882         5.61558016E-13
   36.4447899         5.92028867E-13
   36.5597878         6.21515426E-13
   36.6747894         6.49931010E-13
   36.7897873         6.77194086E-13
   36.9047890         7.03226702E-13
   37.0197906         7.27953342E-13
   37.1347885         7.51299847E-13
   37.2497902         7.73191732E-13
   37.3647881         7.93553970E-13
   37.4797897         8.12309692E-13
   37.5947876         8.29380293E-13
   37.7097893         8.44684782E-13
   37.8247871         8.58140327E-13
   37.9397888         8.69662578E-13
   38.0547905         8.79166640E-13
   38.1697884         8.86567892E-13
   38.2847900         8.91783500E-13
   38.3997879         8.94733831E-13
   38.5147896         8.95344291E-13
   38.6297874         8.93546901E-13
   38.7447891         8.89282138E-13
   38.8597908         8.82500887E-13
   38.9747887         8.73165906E-13
   39.0897903         8.61253777E-13
   39.2047882         8.46755934E-13
   39.3197899         8.29680291E-13
   39.4347878         8.10051895E-13
   39.5497894         7.87913734E-13
   39.6647873         7.63327335E-13
   39.7797890         7.36372389E-13
   39.8947906         7.07147015E-13
   40.0097885         6.75766734E-13
   40.1247902         6.42363658E-13
   40.2397881         6.07085237E-13
   40.3547897         5.70092638E-13
   40.4697876         5.31558738E-13
   40.5847893         4.91666061E-13
   40.6997871         4.50604154E-13
   40.8147888         4.08567006E-13
   40.9297905         3.65750290E-13
   41.0447884         3.22348268E-13
   41.1597900         2.78550864E-13
   41.2747879         2.34540794E-13
   41.3897896         1.90490229E-13
   41.5047874         1.46558547E-13
   41.6197891         1.02889539E-13
   41.7347908         5.96090085E-14
   41.8497887         1.68230637E-14
   41.9647903        -2.53834226E-14
   42.0797882        -6.69480815E-14
   42.1947899        -1.07831353E-13
   42.3097878        -1.48016798E-13
   42.4247894        -1.87510489E-13
   42.5397873        -2.26340241E-13
   42.6547890        -2.64553868E-13
   42.7697906        -3.02217534E-13
   42.8847885        -3.39413312E-13
   42.9997902        -3.76236531E-13
   43.1147881        -4.12792874E-13
   43.2297897        -4.49195206E-13
   43.3447876        -4.85560268E-13
   43.4597893        -5.22005453E-13
   43.5747871        -5.58645686E-13
   43.6897888        -5.95590038E-13
   43.8047905        -6.32939285E-13
   43.9197884        -6.70783145E-13
   44.0347900        -7.09197675E-13
   44.1497879        -7.48244132E-13
   44.2647896        -7.87966860E-13
   44.3797874        -8.28392639E-13
   44.4947891        -8.69529600E-13
   44.6097908        -9.11367227E-13
   44.7247887        -9.53876626E-13
   44.8397903        -9.97010525E-13
   44.9547882        -1.04070452E-12
   45.0697899        -1.08487720E-12
   45.1847878        -1.12943238E-12
   45.2997894        -1.17425980E-12
   45.4147873        -1.21923673E-12
   45.5297890        -1.26422961E-12
   45.6447906        -1.30909552E-12
   45.7597885        -1.35368453E-12
   45.8747902        -1.39784072E-12
   45.9897881        -1.44140450E-12
   46.1047897        -1.48421477E-12
   46.2197876        -1.52611040E-12
   46.3347893        -1.56693256E-12
   46.4497871        -1.60652709E-12
   46.5647888        -1.64474619E-12
   46.6797905        -1.68145153E-12
   46.7947884        -1.71651571E-12
   46.9097900        -1.74982489E-12
   47.0247879        -1.78128064E-12
   47.1397896        -1.81080227E-12
   47.2547874        -1.83832832E-12
   47.3697891        -1.86381791E-12
   47.4847908        -1.88725207E-12
   47.5997887        -1.90863362E-12
   47.7147903        -1.92798793E-12
   47.8297882        -1.94536162E-12
   47.9447899        -1.96082126E-12
   48.0597878        -1.97445207E-12
   48.1747894        -1.98635357E-12
   48.2897873        -1.99663810E-12
   48.4047890        -2.00542404E-12
   48.5197906        -2.01283348E-12
   48.6347885        -2.01898632E-12
   48.7497902        -2.02399382E-12
   48.8647881        -2.02795419E-12
   48.9797897        -2.03094551E-12
   49.0947876        -2.03302154E-12
   49.2097893        -2.03420527E-12
   49.3247871        -2.03448564E-12
   49.4397888        -2.03381149E-12
   49.5547905        -2.03209086E-12
   49.6697884        -2.02918671E-12
   49.7847900        -2.02491821E-12
   49.8997879        -2.01905983E-12
   50.0147896        -2.01134357E-12
   50.1297874        -2.00146150E-12
   50.2447891        -1.98907145E-12
   50.3597908        -1.97380111E-12
   50.4747887        -1.95525627E-12
   50.5897903        -1.93302817E-12
   50.7047882        -1.90670179E-12
   50.8197899        -1.87586535E-12
   50.9347878        -1.84011985E-12
   51.0497894        -1.79908833E-12
   51.1647873        -1.75242546E-12
   51.2797890        -1.69982572E-12
   51.3947906        -1.64103182E-12
   51.5097885        -1.57584102E-12
   51.6247902        -1.50411031E-12
   51.7397881        -1.42576077E-12
   51.8547897        -1.34077948E-12
   51.9697876        -1.24921904E-12
   52.0847893        -1.15119763E-12
   52.1997871        -1.04689337E-12
   52.3147888        -9.36541426E-13
   52.4297905        -8.20425108E-13
   52.5447884        -6.98868155E-13
   52.6597900        -5.72225752E-13
   52.7747879        -4.40872572E-13
   52.8897896        -3.05192368E-13
   53.0047874        -1.65565451E-13
   53.1197891        -2.23572178E-14
   53.2347908         1.24093417E-13
   53.3497887         2.73485499E-13
   53.4647903         4.25565616E-13
   53.5797882         5.80137121E-13
   53.6947899         7.37067146E-13
   53.8097878         8.96293239E-13
   53.9247894         1.05782581E-12
   54.0397873         1.22175111E-12
   54.1547890         1.38822970E-12
   54.2697906         1.55749437E-12
   54.3847885         1.72984424E-12
   54.4997902         1.90563819E-12
   54.6147881         2.08528485E-12
   54.7297897         2.26923103E-12
   54.8447876         2.45794943E-12
   54.9597893         2.65192230E-12
   55.0747871         2.85162627E-12
   55.1897888         3.05751474E-12