  -37.8452110         0.00000000    
  -37.7302094         0.00000000    
  -37.6152115         0.00000000    
  -37.5002098         0.00000000    
  -37.3852119         0.00000000    
  -37.2702103         0.00000000    
  -37.1552124         0.00000000    
  -37.0402107         0.00000000    
  -36.9252129         0.00000000    
  -36.8102112         0.00000000    
  -36.6952095         0.00000000    
  -36.5802116         0.00000000    
  -36.4652100         0.00000000    
  -36.3502121         0.00000000    
  -36.2352104         1.11505547E-35
  -36.1202126        -8.90221984E-34
  -36.0052109        -4.19340602E-33
  -35.8902092        -4.48010284E-33
  -35.7752113         3.12824283E-33
  -35.6602097         5.83586917E-33
  -35.5452118        -1.52591157E-32
  -35.4302101        -8.22591081E-32
  -35.3152122        -1.94421347E-31
  -35.2002106        -3.49389952E-31
  -35.0852127        -5.43628568E-31
  -34.9702110        -6.96987652E-31
  -34.8552094        -6.97138821E-31
  -34.7402115        -2.83599179E-31
  -34.6252098         8.14657364E-31
  -34.5102119         2.74133671E-30
  -34.3952103         5.33988941E-30
  -34.2802124         8.32784295E-30
  -34.1652107         1.14817985E-29
  -34.0502129         1.45493445E-29
  -33.9352112         1.74045657E-29
  -33.8202095         2.03107097E-29
  -33.7052116         2.32371362E-29
  -33.5902100         2.75699189E-29
  -33.4752121         3.40550005E-29
  -33.3602104         4.43784725E-29
  -33.2452126         6.15720887E-29
  -33.1302109         8.89425263E-29
  -33.0152092         1.28699029E-28
  -32.9002113         1.81417449E-28
  -32.7852097         2.45324379E-28
  -32.6702118         3.13287389E-28
  -32.5552101         3.73684600E-28
  -32.4402122         4.10479756E-28
  -32.3252106         4.04855800E-28
  -32.2102127         3.40734154E-28
  -32.0952110         2.09086081E-28
  -31.9802113         1.28319205E-29
  -31.8652115        -2.31484742E-28
  -31.7502117        -4.99555365E-28
  -31.6352119        -7.69897766E-28
  -31.5202103        -1.04274729E-27
  -31.4052105        -1.36241844E-27
  -31.2902107        -1.83486504E-27
  -31.1752110        -2.63279746E-27
  -31.0602112        -3.97562631E-27
  -30.9452114        -6.07722687E-27
  -30.8302116        -9.06018382E-27
  -30.7152119        -1.28461030E-26
  -30.6002102        -1.70446218E-26
  -30.4852104        -2.08763272E-26
  -30.3702106        -2.31711574E-26
  -30.2552109        -2.24833108E-26
  -30.1402111        -1.73460298E-26
  -30.0252113        -6.66255049E-27
  -29.9102116         9.81191280E-27
  -29.7952118         3.09864194E-26
  -29.6802101         5.40763719E-26
  -29.5652103         7.45174651E-26
  -29.4502106         8.62855195E-26
  -29.3352108         8.27050278E-26
  -29.2202110         5.77405815E-26
  -29.1052113         7.64754425E-27
  -28.9902115        -6.72677533E-26
  -28.8752117        -1.61134466E-25
  -28.7602119        -2.61663609E-25
  -28.6452103        -3.50348560E-25
  -28.5302105        -4.04003847E-25
  -28.4152107        -3.97725722E-25
  -28.3002110        -3.09093920E-25
  -28.1852112        -1.23139264E-25
  -28.0702114         1.62657917E-25
  -27.9552116         5.34250526E-25
  -27.8402119         9.58739439E-25
  -27.7252102         1.38474434E-24
  -27.6102104         1.74596671E-24
  -27.4952106         1.96805433E-24
  -27.3802109         1.97837993E-24
  -27.2652111         1.71785270E-24
  -27.1502113         1.15345654E-24
  -27.0352116         2.89931848E-25
  -26.9202118        -8.21077541E-25
  -26.8052101        -2.07601901E-24
  -26.6902103        -3.31992388E-24
  -26.5752106        -4.35338807E-24
  -26.4602108        -4.94658465E-24
  -26.3452110        -4.86032034E-24
  -26.2302113        -3.87357131E-24
  -26.1152115        -1.81621517E-24
  -26.0002117         1.39514311E-24
  -25.8852119         5.72137859E-24
  -25.7702103         1.09692923E-23
  -25.6552105         1.67696004E-23
  -25.5402107         2.25705853E-23
  -25.4252110         2.76536768E-23
  -25.3102112         3.11764929E-23
  -25.1952114         3.22467121E-23
  -25.0802116         3.00264694E-23
  -24.9652119         2.38620532E-23
  -24.8502102         1.34275659E-23
  -24.7352104        -1.13484317E-24
  -24.6202106        -1.91006291E-23
  -24.5052109        -3.90996162E-23
  -24.3902111        -5.91279332E-23
  -24.2752113        -7.66538350E-23
  -24.1602116        -8.88254792E-23
  -24.0452118        -9.27741067E-23
  -23.9302101        -8.59887606E-23
  -23.8152103        -6.67212369E-23
  -23.7002106        -3.43657629E-23
  -23.5852108         1.02502133E-23
  -23.4702110         6.47258479E-23
  -23.3552113         1.25147444E-22
  -23.2402115         1.86375747E-22
  -23.1252117         2.42554357E-22
  -23.0102119         2.87796451E-22
  -22.8952103         3.16970850E-22
  -22.7802105         3.26480271E-22
  -22.6652107         3.14908730E-22
  -22.5502110         2.83420128E-22
  -22.4352112         2.35812613E-22
  -22.3202114         1.78178599E-22
  -22.2052116         1.18177637E-22
  -22.0902119         6.39956089E-23
  -21.9752102         2.31216252E-23
  -21.8602104         1.12432775E-24
  -21.7452106         6.24267592E-25
  -21.6302109         2.06549581E-23
  -21.5152111         5.65530470E-23
  -21.4002113         1.00448915E-22
  -21.2852116         1.42329352E-22
  -21.1702118         1.71544039E-22
  -21.0552101         1.78530948E-22
  -20.9402103         1.56477578E-22
  -20.8252106         1.02602291E-22
  -20.7102108         1.87815191E-23
  -20.5952110        -8.86707236E-23
  -20.4802113        -2.10137273E-22
  -20.3652115        -3.34629646E-22
  -20.2502117        -4.52236514E-22
  -20.1352119        -5.56636007E-22
  -20.0202103        -6.47107624E-22
  -19.9052105        -7.29442539E-22
  -19.7902107        -8.15195632E-22
  -19.6752110        -9.18891032E-22
  -19.5602112        -1.05305656E-21
  -19.4452114        -1.22129229E-21
  -19.3302116        -1.40998762E-21
  -19.2152119        -1.57972393E-21
  -19.1002102        -1.65766409E-21
  -18.9852104        -1.53254353E-21
  -18.8702106        -1.05393483E-21
  -18.7552109        -3.71935831E-23
  -18.6402111         1.72474044E-21
  -18.5252113         4.44225797E-21
  -18.4102116         8.30309278E-21
  -18.2952118         1.34407406E-20
  -18.1802101         1.98997522E-20
  -18.0652103         2.76011139E-20
  -17.9502106         3.63118815E-20
  -17.8352108         4.56236378E-20
  -17.7202110         5.49441733E-20
  -17.6052113         6.35064813E-20
  -17.4902115         7.03980591E-20
  -17.3752117         7.46118593E-20
  -17.2602119         7.51182618E-20
  -17.1452103         7.09553268E-20
  -17.0302105         6.13319463E-20
  -16.9152107         4.57367225E-20
  -16.8002110         2.40434214E-20
  -16.6852112        -3.39721704E-21
  -16.5702114        -3.56896446E-20
  -16.4552116        -7.13592300E-20
  -16.3402119        -1.08359768E-19
  -16.2252102        -1.44127472E-19
  -16.1102104        -1.75683326E-19
  -15.9952106        -1.99781760E-19
  -15.8802109        -2.13098554E-19
  -15.7652111        -2.12447808E-19
  -15.6502113        -1.95013684E-19
  -15.5352106        -1.58580941E-19
  -15.4202108        -1.01746505E-19
  -15.3052111        -2.40950281E-20
  -15.1902113         7.36772292E-20
  -15.0752115         1.89701724E-19
  -14.9602108         3.20947784E-19
  -14.8452110         4.63305257E-19
  -14.7302113         6.11736200E-19
  -14.6152115         7.60485195E-19
  -14.5002108         9.03333651E-19
  -14.3852110         1.03387961E-18
  -14.2702112         1.14582051E-18
  -14.1552114         1.23321773E-18
  -14.0402107         1.29072260E-18
  -13.9252110         1.31374717E-18
  -13.8102112         1.29856386E-18
  -13.6952114         1.24233398E-18
  -13.5802107         1.14306124E-18
  -13.4652109         9.99482955E-19
  -13.3502111         8.10908057E-19
  -13.2352114         5.77029460E-19
  -13.1202106         2.97728695E-19
  -13.0052109        -2.70984142E-20
  -12.8902111        -3.97670026E-19
  -12.7752113        -8.14379941E-19
  -12.6602106        -1.27777288E-18
  -12.5452108        -1.78842818E-18
  -12.4302111        -2.34674200E-18
  -12.3152113        -2.95261809E-18
  -12.2002115        -3.60507852E-18
  -12.0852108        -4.30181192E-18
  -11.9702110        -5.03868674E-18
  -11.8552113        -5.80925263E-18
  -11.7402115        -6.60426006E-18
  -11.6252108        -7.41122561E-18
  -11.5102110        -8.21405982E-18
  -11.3952112        -8.99278585E-18
  -11.2802114        -9.72335011E-18
  -11.1652107        -1.03775358E-17
  -11.0502110        -1.09229804E-17
  -10.9352112        -1.13233019E-17
  -10.8202114        -1.15383010E-17
  -10.7052107        -1.15242828E-17
  -10.5902109        -1.12344470E-17
  -10.4752111        -1.06193852E-17
  -10.3602114        -9.62769246E-18
  -10.2452106        -8.20670039E-18
  -10.1302109        -6.30338924E-18
  -10.0152111        -3.86548076E-18
  -9.90021133        -8.42783927E-19
  -9.78521061         2.81118407E-18
  -9.67021084         7.13727001E-18
  -9.55521107         1.21684232E-17
  -9.44021130         1.79271148E-17
  -9.32521152         2.44224513E-17
  -9.21021080         3.16470700E-17
  -9.09521103         3.95738955E-17
  -8.98021126         4.81528900E-17
  -8.86521149         5.73080125E-17
  -8.75021076         6.69344824E-17
  -8.63521099         7.68966751E-17
  -8.52021122         8.70267657E-17
  -8.40521145         9.71244307E-17
  -8.29021072         1.06957610E-16
  -8.17521095         1.16264695E-16
  -8.06021118         1.24758014E-16
  -7.94521093         1.32128696E-16
  -7.83021116         1.38052818E-16
  -7.71521091         1.42198647E-16
  -7.60021114         1.44234742E-16
  -7.48521090         1.43838543E-16
  -7.37021112         1.40705103E-16
  -7.25521088         1.34555459E-16
  -7.14021111         1.25144274E-16
  -7.02521086         1.12266369E-16
  -6.91021109         9.57615613E-17
  -6.79521084         7.55177452E-17
  -6.68021107         5.14720515E-17
  -6.56521130         2.36098473E-17
  -6.45021105        -8.03799360E-18
  -6.33521128        -4.33996687E-17
  -6.22021103        -8.23679058E-17
  -6.10521126        -1.24806467E-16
  -5.99021101        -1.70556172E-16
  -5.87521124        -2.19440693E-16
  -5.76021099        -2.71270560E-16
  -5.64521122        -3.25845422E-16
  -5.53021097        -3.82953416E-16
  -5.41521120        -4.42367801E-16
  -5.30021095        -5.03840449E-16
  -5.18521118        -5.67092158E-16
  -5.07021093        -6.31800658E-16
  -4.95521116        -6.97585789E-16
  -4.84021091        -7.63994231E-16
  -4.72521114        -8.30483776E-16
  -4.61021090        -8.96408509E-16
  -4.49521112        -9.61006630E-16
  -4.38021088        -1.02339198E-15
  -4.26521111        -1.08255035E-15
  -4.15021086        -1.13734227E-15
  -4.03521109        -1.18651158E-15
  -3.92021108        -1.22870229E-15
  -3.80521107        -1.26248175E-15
  -3.69021106        -1.28637231E-15
  -3.57521105        -1.29888606E-15
  -3.46021104        -1.29856747E-15
  -3.34521103        -1.28403726E-15
  -3.23021102        -1.25403747E-15
  -3.11521101        -1.20747638E-15
  -3.00021100        -1.14346939E-15
  -2.88521099        -1.06137495E-15
  -2.77021098        -9.60822506E-16
  -2.65521097        -8.41732056E-16
  -2.54021096        -7.04323036E-16
  -2.42521095        -5.49113037E-16
  -2.31021094        -3.76904753E-16
  -2.19521117        -1.88763225E-16
  -2.08021116         1.40161040E-17
  -1.96521103         2.29946814E-16
  -1.85021102         4.57396256E-16
  -1.73521101         6.94632715E-16
  -1.62021101         9.39872099E-16
  -1.50521111         1.19132198E-15
  -1.39021111         1.44722059E-15
  -1.27521110         1.70586676E-15
  -1.16021109         1.96564139E-15
  -1.04521108         2.22501749E-15
 -0.930211067         2.48255849E-15
 -0.815211058         2.73690639E-15
 -0.700211048         2.98675909E-15
 -0.585211039         3.23084116E-15
 -0.470211059         3.46786575E-15
 -0.355211049         3.69649583E-15
 -0.240211055         3.91530392E-15
 -0.125211060         4.12273594E-15
  -1.02110580E-02     4.31707918E-15
  0.104788944         4.49644052E-15
  0.219788939         4.65873542E-15
  0.334788948         4.80168536E-15
  0.449788928         4.92283563E-15
  0.564788938         5.01957696E-15
  0.679788947         5.08918316E-15
  0.794788957         5.12886158E-15
  0.909788966         5.13580428E-15
   1.02478898         5.10724911E-15
   1.13978899         5.04053849E-15
   1.25478899         4.93318257E-15
   1.36978889         4.78290833E-15
   1.48478889         4.58770959E-15
   1.59978890         4.34588465E-15
   1.71478891         4.05606513E-15
   1.82978892         3.71723035E-15
   1.94478893         3.32871942E-15
   2.05978894         2.89022888E-15
   2.17478895         2.40180724E-15
   2.28978896         1.86384730E-15
   2.40478897         1.27707793E-15
   2.51978898         6.42561258E-16
   2.63478899        -3.83015858E-17
   2.74978900        -7.63754680E-16
   2.86478901        -1.53165717E-15
   2.97978902        -2.33943957E-15
   3.09478903        -3.18404492E-15
   3.20978904        -4.06185587E-15
   3.32478905        -4.96861353E-15
   3.43978906        -5.89932783E-15
   3.55478883        -6.84818769E-15
   3.66978884        -7.80847741E-15
   3.78478885        -8.77250594E-15
   3.89978886        -9.73155560E-15
   4.01478910        -1.06758644E-14
   4.12978888        -1.15946308E-14
   4.24478912        -1.24760779E-14
   4.35978889        -1.33075483E-14
   4.47478914        -1.40756564E-14
   4.58978891        -1.47664897E-14
   4.70478916        -1.53658485E-14
   4.81978893        -1.58595366E-14
   4.93478870        -1.62336727E-14
   5.04978895        -1.64750500E-14
   5.16478872        -1.65714762E-14
   5.27978897        -1.65121399E-14
   5.39478874        -1.62879387E-14
   5.50978899        -1.58917933E-14
   5.62478876        -1.53188907E-14
   5.73978901        -1.45669050E-14
   5.85478878        -1.36361047E-14
   5.96978903        -1.25294147E-14
   6.08478880        -1.12523762E-14
   6.19978905        -9.81303594E-15
   6.31478882        -8.22174309E-15
   6.42978907        -6.49087785E-15
   6.54478884        -4.63452934E-15
   6.65978909        -2.66811778E-15
   6.77478886        -6.08002155E-16
   6.88978910         1.52892803E-15
   7.00478888         3.72563588E-15
   7.11978912         5.96528755E-15
   7.23478889         8.23154580E-15
   7.34978914         1.05087863E-14
   7.46478891         1.27822396E-14
   7.57978916         1.50380264E-14
   7.69478893         1.72631108E-14
   7.80978870         1.94451592E-14
   7.92478895         2.15723096E-14
   8.03978920         2.36328816E-14
   8.15478897         2.56150505E-14
   8.26978874         2.75064717E-14
   8.38478851         2.92939535E-14
   8.49978924         3.09631132E-14
   8.61478901         3.24981470E-14
   8.72978878         3.38816364E-14
   8.84478855         3.50944961E-14
   8.95978928         3.61160415E-14
   9.07478905         3.69241821E-14
   9.18978882         3.74957464E-14
   9.30478859         3.78070005E-14
   9.41978931         3.78342004E-14
   9.53478909         3.75543340E-14
   9.64978886         3.69459000E-14
   9.76478863         3.59897523E-14
   9.87978935         3.46699666E-14
   9.99478912         3.29746538E-14
   10.1097889         3.08967600E-14
   10.2247887         2.84347300E-14
   10.3397894         2.55930666E-14
   10.4547892         2.23827152E-14
   10.5697889         1.88212635E-14
   10.6847887         1.49329520E-14
   10.7997885         1.07484576E-14
   10.9147892         6.30450223E-15
   11.0297890         1.64323153E-15
   11.1447887        -3.18856659E-15
   11.2597885        -8.14039998E-15
   11.3747892        -1.31591227E-14
   11.4897890        -1.81900935E-14
   11.6047888        -2.31783400E-14
   11.7197886        -2.80697520E-14
   11.8347893        -3.28122031E-14
   11.9497890        -3.73566229E-14
   12.0647888        -4.16579172E-14
   12.1797886        -4.56757638E-14
   12.2947893        -4.93752107E-14
   12.4097891        -5.27271471E-14
   12.5247889        -5.57084997E-14
   12.6397886        -5.83023145E-14
   12.7547894        -6.04976139E-14
   12.8697891        -6.22891360E-14
   12.9847889        -6.36768877E-14
   13.0997887        -6.46656326E-14
   13.2147894        -6.52643087E-14
   13.3297892        -6.54853301E-14
   13.4447889        -6.53439772E-14
   13.5597887        -6.48577465E-14
   13.6747885        -6.40457332E-14
   13.7897892        -6.29281038E-14
   13.9047890        -6.15256069E-14
   14.0197887        -5.98591882E-14
   14.1347885        -5.79496507E-14
   14.2497892        -5.58173638E-14
   14.3647890        -5.34820804E-14
   14.4797888        -5.09626893E-14
   14.5947886        -4.82770799E-14
   14.7097893        -4.54419082E-14
   14.8247890        -4.24724241E-14
   14.9397888        -3.93822107E-14
   15.0547886        -3.61828894E-14
   15.1697893        -3.28838180E-14
   15.2847891        -2.94917323E-14
   15.3997889        -2.60104031E-14
   15.5147886        -2.24402897E-14
   15.6297894        -1.87782597E-14
   15.7447891        -1.50174029E-14
   15.8597889        -1.11469638E-14
   15.9747887        -7.15244277E-15
   16.0897884        -3.01591311E-15
   16.2047882         1.28343629E-15
   16.3197899         5.76849554E-15
   16.4347897         1.04631795E-14
   16.5497894         1.53911206E-14
   16.6647892         2.05741203E-14
   16.7797890         2.60304355E-14
   16.8947887         3.17729377E-14
   17.0097885         3.78071835E-14
   17.1247883         4.41295797E-14
   17.2397881         5.07256150E-14
   17.3547897         5.75683910E-14
   17.4697895         6.46174195E-14
   17.5847893         7.18179110E-14
   17.6997890         7.91005445E-14
   17.8147888         8.63818023E-14
   17.9297886         9.35649602E-14
   18.0447884         1.00541754E-13
   18.1597881         1.07194581E-13
   18.2747898         1.13399402E-13
   18.3897896         1.19029081E-13
   18.5047894         1.23957173E-13
   18.6197891         1.28061990E-13
   18.7347889         1.31230787E-13
   18.8497887         1.33363915E-13
   18.9647884         1.34378701E-13
   19.0797882         1.34213048E-13
   19.1947899         1.32828278E-13
   19.3097897         1.30211502E-13
   19.4247894         1.26376936E-13
   19.5397892         1.21366431E-13
   19.6547890         1.15248956E-13
   19.7697887         1.08119175E-13
   19.8847885         1.00094988E-13
   19.9997883         9.13143598E-14
   20.1147881         8.19312879E-14
   20.2297897         7.21112691E-14
   20.3447895         6.20263931E-14
   20.4597893         5.18501901E-14
   20.5747890         4.17525884E-14
   20.6897888         3.18950087E-14
   20.8047886         2.24259461E-14
   20.9197884         1.34771107E-14
   21.0347881         5.16027718E-15
   21.1497898        -2.43503422E-15
   21.2647896        -9.24301580E-15
   21.3797894        -1.52221477E-14
   21.4947891        -2.03549336E-14
   21.6097889        -2.46468512E-14
   21.7247887        -2.81246330E-14
   21.8397884        -3.08339949E-14
   21.9547882        -3.28369534E-14
   22.0697899        -3.42088825E-14
   22.1847897        -3.50354477E-14
   22.2997894        -3.54095415E-14
   22.4147892        -3.54283456E-14
   22.5297890        -3.51905835E-14
   22.6447887        -3.47940704E-14
   22.7597885        -3.43335285E-14
   22.8747883        -3.38987092E-14
   22.9897881        -3.35728014E-14
   23.1047897        -3.34310995E-14
   23.2197895        -3.35398687E-14
   23.3347893        -3.39553350E-14
   23.4497890        -3.47228146E-14
   23.5647888        -3.58758874E-14
   23.6797886        -3.74356409E-14
   23.7947884        -3.94099494E-14
   23.9097881        -4.17928428E-14
   24.0247898        -4.45639992E-14
   24.1397896        -4.76883920E-14
   24.2547894        -5.11162869E-14
   24.3697891        -5.47834856E-14
   24.4847889        -5.86120846E-14
   24.5997887        -6.25117159E-14
   24.7147884        -6.63814096E-14
   24.8297882        -7.01120341E-14
   24.9447899        -7.35893280E-14
   25.0597897        -7.66975933E-14
   25.1747894        -7.93238224E-14
   25.2897892        -8.13622173E-14
   25.4047890        -8.27190015E-14
   25.5197887        -8.33171761E-14
   25.6347885        -8.31011285E-14
   25.7497883        -8.20408127E-14
   25.8647881        -8.01353070E-14
   25.9797897        -7.74154504E-14
   26.0947895        -7.39453529E-14
   26.2097893        -6.98227554E-14
   26.3247890        -6.51778436E-14
   26.4397888        -6.01707743E-14
   26.5547886        -5.49876340E-14
   26.6697884        -4.98350852E-14
   26.7847881        -4.49337629E-14
   26.8997898        -4.05106551E-14
   27.0147896        -3.67906457E-14
   27.1297894        -3.39877120E-14
   27.2447891        -3.22959399E-14
   27.3597889        -3.18809005E-14
   27.4747887        -3.28715428E-14
   27.5897884        -3.53533087E-14
   27.7047882        -3.93624240E-14
   27.8197899        -4.48818906E-14
   27.9347897        -5.18394362E-14
   28.0497894        -6.01071859E-14
   28.1647892        -6.95037154E-14
   28.2797890        -7.97979711E-14
   28.3947887        -9.07151958E-14
   28.5097885        -1.01944576E-13
   28.6247883        -1.13148436E-13
   28.7397881        -1.23972542E-13
   28.8547897        -1.34057194E-13
   28.9697895        -1.43048849E-13
   29.0847893        -1.50611606E-13
   29.1997890        -1.56438285E-13
   29.3147888        -1.60260734E-13
   29.4297886        -1.61858957E-13
   29.5447884        -1.61068777E-13
   29.6597881        -1.57787845E-13
   29.7747898        -1.51979652E-13
   29.8897896        -1.43675748E-13
   30.0047894        -1.32975743E-13
   30.1197891        -1.20045440E-13
   30.2347889        -1.05113102E-13
   30.3497887        -8.84639448E-14
   30.4647884        -7.04331206E-14
   30.5797882        -5.13973595E-14
   30.6947899        -3.17656261E-14
   30.8097897        -1.19689931E-14
   30.9247894         7.55001462E-15
   31.0397892         2.63482592E-14
   31.1547890         4.39927940E-14
   31.2697887         6.00713666E-14
   31.3847885         7.42023901E-14
   31.4997883         8.60441547E-14
   31.6147881         9.53030718E-14
   31.7297897         1.01740963E-13
   31.8447895         1.05180926E-13
   31.9597893         1.05511940E-13
   32.0747871         1.02692038E-13
   32.1897888         9.67499125E-14
   32.3047905         8.77850378E-14
   32.4197884         7.59660415E-14
   32.5347900         6.15277753E-14
   32.6497879         4.47666128E-14
   32.7647896         2.60344572E-14
   32.8797874         5.73126887E-15
   32.9947891        -1.57035707E-14
   33.1097908        -3.78008307E-14
   33.2247887        -6.00720442E-14
   33.3397903        -8.20205313E-14
   33.4547882        -1.03152892E-13
   33.5697899        -1.22990702E-13
   33.6847878        -1.41081753E-13
   33.7997894        -1.57011055E-13
   33.9147873        -1.70410805E-13
   34.0297890        -1.80969524E-13
   34.1447906        -1.88439528E-13
   34.2597885        -1.92642994E-13
   34.3747902        -1.93475932E-13
   34.4897881        -1.90910425E-13
   34.6047897        -1.84994340E-13
   34.7197876        -1.75849271E-13
   34.8347893        -1.63665753E-13
   34.9497871        -1.48696715E-13
   35.0647888        -1.31248839E-13
   35.1797905        -1.11671807E-13
   35.2947884        -9.03463976E-14
   35.4097900        -6.76710478E-14
   35.5247879        -4.40478613E-14
   35.6397896        -1.98679201E-14
   35.7547874         4.50303679E-15
   35.8697891         2.87383778E-14
   35.9847908         5.25633546E-14
   36.0997887         7.57660062E-14
   36.2147903         9.82062264E-14
   36.3297882         1.19822406E-13
   36.4447899         1.40634913E-13
   36.5597878         1.60747080E-13
   36.6747894         1.80342598E-13
   36.7897873         1.99679832E-13
   36.9047890         2.19082687E-13
   37.0197906         2.38929075E-13
   37.1347885         2.59635954E-13
   37.2497902         2.81642954E-13
   37.3647881         3.05393487E-13
   37.4797897         3.31315433E-13
   37.5947876         3.59800948E-13
   37.7097893         3.91186947E-13
   37.8247871         4.25736486E-13
   37.9397888         4.63621871E-13
   38.0547905         5.04910404E-13
   38.1697884         5.49553025E-13
   38.2847900         5.97376369E-13
   38.3997879         6.48079355E-13
   38.5147896         7.01233288E-13
   38.6297874         7.56286581E-13
   38.7447891         8.12573804E-13
   38.8597908         8.69328535E-13
   38.9747887         9.25699946E-13
   39.0897903         9.80772538E-13
   39.2047882         1.03358890E-12
   39.3197899         1.08317305E-12
   39.4347878         1.12855580E-12
   39.5497894         1.16880008E-12
   39.6647873         1.20302488E-12
   39.7797890         1.23042841E-12
   39.8947906         1.25030845E-12
   40.0097885         1.26208039E-12
   40.1247902         1.26529126E-12
   40.2397881         1.25963064E-12
   40.3547897         1.24493623E-12
   40.4697876         1.22119697E-12
   40.5847893         1.18855067E-12
   40.6997871         1.14727824E-12
   40.8147888         1.09779460E-12
   40.9297905         1.04063589E-12
   41.0447884         9.76444836E-13
   41.1597900         9.05953481E-13
   41.2747879         8.29965166E-13
   41.3897896         7.49335544E-13
   41.5047874         6.64952902E-13
   41.6197891         5.77719350E-13
   41.7347908         4.88532717E-13
   41.8497887         3.98269146E-13
   41.9647903         3.07767267E-13
   42.0797882         2.17814143E-13
   42.1947899         1.29131962E-13
   42.3097878         4.23678257E-14
   42.4247894        -4.19160386E-14
   42.5397873        -1.23249677E-13
   42.6547890        -2.01261086E-13
   42.7697906        -2.75680601E-13
   42.8847885        -3.46343207E-13
   42.9997902        -4.13190126E-13
   43.1147881        -4.76267138E-13
   43.2297897        -5.35722508E-13
   43.3447876        -5.91802161E-13
   43.4597893        -6.44842686E-13
   43.5747871        -6.95262749E-13
   43.6897888        -7.43551325E-13
   43.8047905        -7.90254526E-13
   43.9197884        -8.35959936E-13
   44.0347900        -8.81279533E-13
   44.1497879        -9.26829685E-13
   44.2647896        -9.73211962E-13
   44.3797874        -1.02099167E-12
   44.4947891        -1.07067751E-12
   44.6097908        -1.12270122E-12
   44.7247887        -1.17739932E-12
   44.8397903        -1.23499637E-12
   44.9547882        -1.29559243E-12
   45.0697899        -1.35915302E-12
   45.1847878        -1.42550479E-12
   45.2997894        -1.49433450E-12
   45.4147873        -1.56519394E-12
   45.5297890        -1.63750925E-12
   45.6447906        -1.71059488E-12
   45.7597885        -1.78367249E-12
   45.8747902        -1.85589261E-12
   45.9897881        -1.92636033E-12
   46.1047897        -1.99416156E-12
   46.2197876        -2.05839165E-12
   46.3347893        -2.11818323E-12
   46.4497871        -2.17273291E-12
   46.5647888        -2.22132620E-12
   46.6797905        -2.26335790E-12
   46.7947884        -2.29835031E-12
   46.9097900        -2.32596516E-12
   47.0247879        -2.34601206E-12
   47.1397896        -2.35845024E-12
   47.2547874        -2.36338661E-12
   47.3697891        -2.36106577E-12
   47.4847908        -2.35185981E-12
   47.5997887        -2.33625012E-12
   47.7147903        -2.31480763E-12
   47.8297882        -2.28817095E-12
   47.9447899        -2.25702118E-12
   48.0597878        -2.22205761E-12
   48.1747894        -2.18397262E-12
   48.2897873        -2.14342888E-12
   48.4047890        -2.10103614E-12
   48.5197906        -2.05733174E-12
   48.6347885        -2.01276495E-12
   48.7497902        -1.96768253E-12
   48.8647881        -1.92232038E-12
   48.9797897        -1.87679689E-12
   49.0947876        -1.83111274E-12
   49.2097893        -1.78515048E-12
   49.3247871        -1.73868168E-12
   49.4397888        -1.69137480E-12
   49.5547905        -1.64280612E-12
   49.6697884        -1.59247398E-12
   49.7847900        -1.53981472E-12
   49.8997879        -1.48421867E-12
   50.0147896        -1.42504975E-12
   50.1297874        -1.36166382E-12
   50.2447891        -1.29342750E-12
   50.3597908        -1.21973688E-12
   50.4747887        -1.14003598E-12
   50.5897903        -1.05383204E-12
   50.7047882        -9.60713388E-13
   50.8197899        -8.60361370E-13
   50.9347878        -7.52563647E-13
   51.0497894        -6.37223455E-13
   51.1647873        -5.14366544E-13
   51.2797890        -3.84146436E-13
   51.3947906        -2.46845377E-13
   51.5097885        -1.02873527E-13
   51.6247902         4.72364017E-14
   51.7397881         2.02836784E-13
   51.8547897         3.63175988E-13
   51.9697876         5.27413020E-13
   52.0847893         6.94634725E-13
   52.1997871         8.63874998E-13
   52.3147888         1.03413849E-12
   52.4297905         1.20442263E-12
   52.5447884         1.37374508E-12
   52.6597900         1.54116769E-12
   52.7747879         1.70582385E-12
   52.8897896         1.86694280E-12
   53.0047874         2.02387261E-12
   53.1197891         2.17610153E-12
   53.2347908         2.32327547E-12
   53.3497887         2.46521098E-12
   53.4647903         2.60190502E-12
   53.5797882         2.73353909E-12
   53.6947899         2.86047791E-12
   53.8097878         2.98326381E-12
   53.9247894         3.10260520E-12
   54.0397873         3.21935946E-12
   54.1547890         3.33451279E-12
   54.2697906         3.44915416E-12
   54.3847885         3.56444583E-12
   54.4997902         3.68159236E-12
   54.6147881         3.80180696E-12
   54.7297897         3.92627380E-12
   54.8447876         4.05611699E-12
   54.9597893         4.19236130E-12
   55.0747871         4.33590186E-12
   55.1897888         4.48747203E-12