  -75.1732025         0.00000000    
  -75.0581970         0.00000000    
  -74.9431992         0.00000000    
  -74.8282013         0.00000000    
  -74.7132034         0.00000000    
  -74.5981979         0.00000000    
  -74.4832001         0.00000000    
  -74.3682022        -2.97483225E-31
  -74.2531967        -4.52064734E-30
  -74.1381989        -3.48492058E-29
  -74.0232010        -1.84852008E-28
  -73.9082031        -7.73191684E-28
  -73.7931976        -2.70990342E-27
  -73.6781998        -8.26427093E-27
  -73.5632019        -2.24953086E-26
  -73.4481964        -5.56469015E-26
  -73.3331985        -1.26768616E-25
  -73.2182007        -2.68633910E-25
  -73.1032028        -5.33625995E-25
  -72.9881973        -9.99611703E-25
  -72.8731995        -1.77392532E-24
  -72.7582016        -2.99252945E-24
  -72.6432037        -4.81034364E-24
  -72.5281982        -7.37794468E-24
  -72.4132004        -1.07996044E-23
  -72.2982025        -1.50682751E-23
  -72.1831970        -1.99751114E-23
  -72.0681992        -2.49941506E-23
  -71.9532013        -2.91476247E-23
  -71.8382034        -3.08624380E-23
  -71.7231979        -2.78346226E-23
  -71.6082001        -1.69231869E-23
  -71.4932022         5.90091465E-24
  -71.3781967         4.55260432E-23
  -71.2631989         1.07568808E-22
  -71.1482010         1.98127061E-22
  -71.0332031         3.23416588E-22
  -70.9181976         4.89309291E-22
  -70.8031998         7.00805600E-22
  -70.6882019         9.61500022E-22
  -70.5731964         1.27310578E-21
  -70.4581985         1.63511726E-21
  -70.3432007         2.04468344E-21
  -70.2282028         2.49674875E-21
  -70.1131973         2.98448239E-21
  -69.9981995         3.49997848E-21
  -69.8832016         4.03514980E-21
  -69.7682037         4.58267228E-21
  -69.6531982         5.13681341E-21
  -69.5382004         5.69390663E-21
  -69.4232025         6.25225637E-21
  -69.3081970         6.81128143E-21
  -69.1931992         7.36976890E-21
  -69.0782013         7.92323432E-21
  -68.9632034         8.46052124E-21
  -68.8481979         8.95996547E-21
  -68.7332001         9.38557412E-21
  -68.6182022         9.68385513E-21
  -68.5031967         9.78197297E-21
  -68.3881989         9.58791349E-21
  -68.2732010         8.99324656E-21
  -68.1582031         7.87883798E-21
  -68.0431976         6.12343955E-21
  -67.9281998         3.61486975E-21
  -67.8132019         2.62734807E-22
  -67.6981964        -3.98855869E-21
  -67.5831985        -9.14822418E-21
  -67.4682007        -1.51710660E-20
  -67.3532028        -2.19546320E-20
  -67.2381973        -2.93435149E-20
  -67.1231995        -3.71417052E-20
  -67.0082016        -4.51331456E-20
  -66.8932037        -5.31099293E-20
  -66.7781982        -6.09055799E-20
  -66.6632004        -6.84307069E-20
  -66.5482025        -7.57062968E-20
  -66.4331970        -8.28903604E-20
  -66.3181992        -9.02925412E-20
  -66.2032013        -9.83726353E-20
  -66.0882034        -1.07719718E-19
  -65.9731979        -1.19010443E-19
  -65.8582001        -1.32948126E-19
  -65.7432022        -1.50185575E-19
  -65.6281967        -1.71239079E-19
  -65.5131989        -1.96401163E-19
  -65.3982010        -2.25663350E-19
  -65.2832031        -2.58658835E-19
  -65.1681976        -2.94636021E-19
  -65.0531998        -3.32469996E-19
  -64.9382019        -3.70717173E-19
  -64.8231964        -4.07712025E-19
  -64.7081985        -4.41702505E-19
  -64.5932007        -4.71011478E-19
  -64.4782028        -4.94210844E-19
  -64.3631973        -5.10288806E-19
  -64.2481995        -5.18790154E-19
  -64.1332016        -5.19911398E-19
  -64.0182037        -5.14531312E-19
  -63.9031982        -5.04169582E-19
  -63.7882004        -4.90867587E-19
  -63.6731987        -4.76997681E-19
  -63.5582008        -4.65016745E-19
  -63.4431992        -4.57184120E-19
  -63.3282013        -4.55277573E-19
  -63.2131996        -4.60336402E-19
  -63.0982018        -4.72468971E-19
  -62.9832001        -4.90747181E-19
  -62.8681984        -5.13213613E-19
  -62.7532005        -5.37006998E-19
  -62.6381989        -5.58597032E-19
  -62.5232010        -5.74107858E-19
  -62.4081993        -5.79696962E-19
  -62.2932014        -5.71935320E-19
  -62.1781998        -5.48139918E-19
  -62.0632019        -5.06604181E-19
  -61.9482002        -4.46678978E-19
  -61.8331985        -3.68675174E-19
  -61.7182007        -2.73575719E-19
  -61.6031990        -1.62579454E-19
  -61.4882011        -3.65149543E-20
  -61.3731995         1.04798575E-19
  -61.2582016         2.63153527E-19
  -61.1431999         4.42418119E-19
  -61.0281982         6.48754084E-19
  -60.9132004         8.90506252E-19
  -60.7981987         1.17770584E-18
  -60.6832008         1.52116467E-18
  -60.5681992         1.93121630E-18
  -60.4532013         2.41618795E-18
  -60.3381996         2.98076436E-18
  -60.2232018         3.62445646E-18
  -60.1082001         4.34037797E-18
  -59.9931984         5.11460000E-18
  -59.8782005         5.92626643E-18
  -59.7631989         6.74860679E-18
  -59.6482010         7.55097364E-18
  -59.5331993         8.30172856E-18
  -59.4182014         8.97189705E-18
  -59.3031998         9.53920812E-18
  -59.1882019         9.99210192E-18
  -59.0732002         1.03331700E-17
  -58.9581985         1.05815037E-17
  -58.8432007         1.07733484E-17
  -58.7281990         1.09607585E-17
  -58.6132011         1.12078986E-17
  -58.4981995         1.15850772E-17
  -58.3832016         1.21606361E-17
  -58.2681999         1.29914249E-17
  -58.1531982         1.41126029E-17
  -58.0382004         1.55278742E-17
  -57.9231987         1.72013813E-17
  -57.8082008         1.90525305E-17
  -57.6931992         2.09549135E-17
  -57.5782013         2.27401843E-17
  -57.4631996         2.42074125E-17
  -57.3482018         2.51379080E-17
  -57.2332001         2.53149197E-17
  -57.1181984         2.45471008E-17
  -57.0032005         2.26937779E-17
  -56.8881989         1.96899856E-17
  -56.7732010         1.55683150E-17
  -56.6581993         1.04758322E-17
  -56.5432014         4.68211193E-18
  -56.4281998        -1.42256061E-18
  -56.3132019        -7.34062988E-18
  -56.1982002        -1.24931851E-17
  -56.0831985        -1.62578329E-17
  -55.9682007        -1.80166737E-17
  -55.8531990        -1.72124060E-17
  -55.7382011        -1.34082983E-17
  -55.6231995        -6.34808139E-18
  -55.5082016         3.98916453E-18
  -55.3931999         1.73446010E-17
  -55.2781982         3.31499678E-17
  -55.1632004         5.05175181E-17
  -55.0481987         6.82516980E-17
  -54.9332008         8.48854134E-17
  -54.8181992         9.87408409E-17
  -54.7032013         1.08013158E-16
  -54.5881996         1.10873536E-16
  -54.4732018         1.05587574E-16
  -54.3582001         9.06414126E-17
  -54.2431984         6.48697800E-17
  -54.1282005         2.75762048E-17
  -54.0131989        -2.13605331E-17
  -53.8982010        -8.14030228E-17
  -53.7831993        -1.51300850E-16
  -53.6682014        -2.29070717E-16
  -53.5531998        -3.12014036E-16
  -53.4382019        -3.96773870E-16
  -53.3232002        -4.79429913E-16
  -53.2081985        -5.55630796E-16
  -53.0932007        -6.20755401E-16
  -52.9781990        -6.70103170E-16
  -52.8632011        -6.99097478E-16
  -52.7481995        -7.03503638E-16
  -52.6332016        -6.79645261E-16
  -52.5181999        -6.24615542E-16
  -52.4031982        -5.36472870E-16
  -52.2882004        -4.14413490E-16
  -52.1731987        -2.58918517E-16
  -52.0582008        -7.18601974E-17
  -51.9431992         1.43425693E-16
  -51.8282013         3.82118585E-16
  -51.7131996         6.37935188E-16
  -51.5982018         9.03205314E-16
  -51.4832001         1.16900086E-15
  -51.3681984         1.42532182E-15
  -51.2532005         1.66132892E-15
  -51.1381989         1.86563877E-15
  -51.0232010         2.02665550E-15
  -50.9081993         2.13294860E-15
  -50.7932014         2.17365997E-15
  -50.6781998         2.13892506E-15
  -50.5632019         2.02029894E-15
  -50.4482002         1.81115761E-15
  -50.3331985         1.50707215E-15
  -50.2182007         1.10611661E-15
  -50.1031990         6.09094987E-16
  -49.9882011         1.96811579E-17
  -49.8731995        -6.55571367E-16
  -49.7582016        -1.40732269E-15
  -49.6431999        -2.22368108E-15
  -49.5281982        -3.09055853E-15
  -49.4132004        -3.99212515E-15
  -49.2981987        -4.91137147E-15
  -49.1832008        -5.83072959E-15
  -49.0681992        -6.73270787E-15
  -48.9532013        -7.60053167E-15
  -48.8381996        -8.41875025E-15
  -48.7232018        -9.17368530E-15
  -48.6082001        -9.85381380E-15
  -48.4931984        -1.04499937E-14
  -48.3782005        -1.09554250E-14
  -48.2631989        -1.13654974E-14
  -48.1482010        -1.16774020E-14
  -48.0331993        -1.18895601E-14
  -47.9182014        -1.20009525E-14
  -47.8031998        -1.20102580E-14
  -47.6882019        -1.19150693E-14
  -47.5732002        -1.17110326E-14
  -47.4581985        -1.13910914E-14
  -47.3432007        -1.09449244E-14
  -47.2281990        -1.03585446E-14
  -47.1132011        -9.61429236E-15
  -46.9981995        -8.69097732E-15
  -46.8832016        -7.56446162E-15
  -46.7681999        -6.20862826E-15
  -46.6531982        -4.59654796E-15
  -46.5382004        -2.70199402E-15
  -46.4231987        -5.01169225E-16
  -46.3082008         2.02543175E-15
  -46.1931992         4.89111213E-15
  -46.0782013         8.10120691E-15
  -45.9631996         1.16514066E-14
  -45.8482018         1.55264036E-14
  -45.7332001         1.96989032E-14
  -45.6181984         2.41291480E-14
  -45.5032005         2.87649577E-14
  -45.3881989         3.35424234E-14
  -45.2732010         3.83870690E-14
  -45.1581993         4.32158310E-14
  -45.0432014         4.79395440E-14
  -44.9281998         5.24658476E-14
  -44.8132019         5.67026996E-14
  -44.6982002         6.05621984E-14
  -44.5831985         6.39645197E-14
  -44.4682007         6.68420600E-14
  -44.3531990         6.91433198E-14
  -44.2382011         7.08366674E-14
  -44.1231995         7.19134835E-14
  -44.0082016         7.23908848E-14
  -43.8931999         7.23135608E-14
  -43.7781982         7.17545394E-14
  -43.6632004         7.08151121E-14
  -43.5481987         6.96235943E-14
  -43.4332008         6.83328109E-14
  -43.3181992         6.71163835E-14
  -43.2032013         6.61640474E-14
  -43.0881996         6.56757702E-14
  -42.9732018         6.58551582E-14
  -42.8582001         6.69023214E-14
  -42.7431984         6.90061073E-14
  -42.6282005         7.23367763E-14
  -42.5131989         7.70387375E-14
  -42.3982010         8.32241313E-14
  -42.2831993         9.09675032E-14
  -42.1682014         1.00301996E-13
  -42.0531998         1.11217147E-13
  -41.9382019         1.23658652E-13
  -41.8232002         1.37530368E-13
  -41.7081985         1.52698085E-13
  -41.5932007         1.68995528E-13
  -41.4781990         1.86231849E-13
  -41.3632011         2.04200670E-13
  -41.2481995         2.22689814E-13
  -41.1332016         2.41491451E-13
  -41.0181999         2.60411918E-13
  -40.9031982         2.79280586E-13
  -40.7882004         2.97957459E-13
  -40.6731987         3.16338373E-13
  -40.5582008         3.34357948E-13
  -40.4431992         3.51989623E-13
  -40.3282013         3.69243048E-13
  -40.2131996         3.86158580E-13
  -40.0982018         4.02799240E-13
  -39.9832001         4.19241221E-13
  -39.8681984         4.35562366E-13
  -39.7532005         4.51831145E-13
  -39.6381989         4.68095018E-13
  -39.5232010         4.84371007E-13
  -39.4081993         5.00638051E-13
  -39.2932014         5.16832454E-13
  -39.1781998         5.32846879E-13
  -39.0632019         5.48533007E-13
  -38.9482002         5.63708422E-13
  -38.8331985         5.78167017E-13
  -38.7182007         5.91692439E-13
  -38.6031990         6.04074299E-13
  -38.4882011         6.15124976E-13
  -38.3731995         6.24696855E-13
  -38.2582016         6.32698483E-13
  -38.1431999         6.39107528E-13
  -38.0281982         6.43979824E-13
  -37.9132004         6.47454041E-13
  -37.7981987         6.49750219E-13
  -37.6832008         6.51162121E-13
  -37.5681992         6.52043740E-13
  -37.4532013         6.52789400E-13
  -37.3381996         6.53810231E-13
  -37.2232018         6.55505435E-13
  -37.1082001         6.58233342E-13
  -36.9931984         6.62281319E-13
  -36.8782005         6.67837042E-13
  -36.7631989         6.74964804E-13
  -36.6482010         6.83586922E-13
  -36.5331993         6.93471973E-13
  -36.4182014         7.04231974E-13
  -36.3031998         7.15328133E-13
  -36.1882019         7.26086238E-13
  -36.0732002         7.35720783E-13
  -35.9581985         7.43366631E-13
  -35.8432007         7.48116955E-13
  -35.7281990         7.49065361E-13
  -35.6132011         7.45350504E-13
  -35.4981995         7.36199079E-13
  -35.3832016         7.20966743E-13
  -35.2681999         6.99172599E-13
  -35.1531982         6.70525809E-13
  -35.0382004         6.34944191E-13
  -34.9231987         5.92560452E-13
  -34.8082008         5.43718282E-13
  -34.6931992         4.88957236E-13
  -34.5782013         4.28986680E-13
  -34.4631996         3.64652671E-13
  -34.3482018         2.96895700E-13
  -34.2332001         2.26705631E-13
  -34.1181984         1.55073667E-13
  -34.0032005         8.29459385E-14
  -33.8881989         1.11807206E-14
  -33.7732010        -5.94895566E-14
  -33.6581993        -1.28487024E-13
  -33.5432014        -1.95407940E-13
  -33.4281998        -2.60031390E-13
  -33.3132019        -3.22319238E-13
  -33.1982002        -3.82403256E-13
  -33.0831985        -4.40563791E-13
  -32.9682007        -4.97202323E-13
  -32.8531990        -5.52807203E-13
  -32.7382011        -6.07915031E-13
  -32.6231995        -6.63074142E-13
  -32.5082016        -7.18807121E-13
  -32.3931999        -7.75580067E-13
  -32.2781982        -8.33774673E-13
  -32.1632004        -8.93670663E-13
  -32.0481987        -9.55436143E-13
  -31.9332008        -1.01912532E-12
  -31.8181992        -1.08468670E-12
  -31.7031994        -1.15197955E-12
  -31.5881996        -1.22079484E-12
  -31.4731998        -1.29088331E-12
  -31.3582001        -1.36198518E-12
  -31.2432003        -1.43386193E-12
  -31.1282005        -1.50632501E-12
  -31.0132008        -1.57926244E-12
  -30.8981991        -1.65266000E-12
  -30.7831993        -1.72661516E-12
  -30.6681995        -1.80134390E-12
  -30.5531998        -1.87717897E-12
  -30.4382000        -1.95455999E-12
  -30.3232002        -2.03401770E-12
  -30.2082005        -2.11614840E-12
  -30.0932007        -2.20158700E-12
  -29.9782009        -2.29097188E-12
  -29.8631992        -2.38491388E-12
  -29.7481995        -2.48396030E-12
  -29.6331997        -2.58856521E-12
  -29.5181999        -2.69906038E-12
  -29.4032001        -2.81563228E-12
  -29.2882004        -2.93830758E-12
  -29.1732006        -3.06694145E-12
  -29.0582008        -3.20121729E-12
  -28.9431992        -3.34065067E-12
  -28.8281994        -3.48460063E-12
  -28.7131996        -3.63228328E-12
  -28.5981998        -3.78279612E-12
  -28.4832001        -3.93513737E-12
  -28.3682003        -4.08823192E-12
  -28.2532005        -4.24095394E-12
  -28.1382008        -4.39214550E-12
  -28.0231991        -4.54063653E-12
  -27.9081993        -4.68525566E-12
  -27.7931995        -4.82483931E-12
  -27.6781998        -4.95823044E-12
  -27.5632000        -5.08428065E-12
  -27.4482002        -5.20183592E-12
  -27.3332005        -5.30972575E-12
  -27.2182007        -5.40674927E-12
  -27.1032009        -5.49165487E-12
  -26.9881992        -5.56312635E-12
  -26.8731995        -5.61976637E-12
  -26.7581997        -5.66008525E-12
  -26.6431999        -5.68249701E-12
  -26.5282001        -5.68531637E-12
  -26.4132004        -5.66677261E-12
  -26.2982006        -5.62502475E-12
  -26.1832008        -5.55818802E-12
  -26.0681992        -5.46436854E-12
  -25.9531994        -5.34170885E-12
  -25.8381996        -5.18843475E-12
  -25.7231998        -5.00291215E-12
  -25.6082001        -4.78370425E-12
  -25.4932003        -4.52963014E-12
  -25.3782005        -4.23982160E-12
  -25.2632008        -3.91377512E-12
  -25.1481991        -3.55139681E-12
  -25.0331993        -3.15304141E-12
  -24.9181995        -2.71953402E-12
  -24.8031998        -2.25218325E-12
  -24.6882000        -1.75278216E-12
  -24.5732002        -1.22359100E-12
  -24.4582005        -6.67308494E-13
  -24.3432007        -8.70305415E-14
  -24.2282009         5.13803355E-13
  -24.1131992         1.13147404E-12
  -23.9981995         1.76205112E-12
  -23.8831997         2.40146965E-12
  -23.7681999         3.04560413E-12
  -23.6532001         3.69034490E-12
  -23.5382004         4.33166914E-12
  -23.4232006         4.96570406E-12
  -23.3082008         5.58878508E-12
  -23.1931992         6.19750085E-12
  -23.0781994         6.78872887E-12
  -22.9631996         7.35966149E-12
  -22.8481998         7.90781763E-12
  -22.7332001         8.43104839E-12
  -22.6182003         8.92753059E-12
  -22.5032005         9.39575934E-12
  -22.3882008         9.83452642E-12
  -22.2731991         1.02429055E-11
  -22.1581993         1.06202304E-11
  -22.0431995         1.09660787E-11
  -21.9281998         1.12802528E-11
  -21.8132000         1.15627664E-11
  -21.6982002         1.18138364E-11
  -21.5832005         1.20338756E-11
  -21.4682007         1.22234870E-11
  -21.3532009         1.23834588E-11
  -21.2381992         1.25147679E-11
  -21.1231995         1.26185659E-11
  -21.0081997         1.26961748E-11
  -20.8931999         1.27490692E-11
  -20.7782001         1.27788518E-11
  -20.6632004         1.27872227E-11
  -20.5482006         1.27759409E-11
  -20.4332008         1.27467733E-11
  -20.3181992         1.27014397E-11
  -20.2031994         1.26415493E-11
  -20.0881996         1.25685408E-11
  -19.9731998         1.24836122E-11
  -19.8582001         1.23876638E-11
  -19.7432003         1.22812437E-11
  -19.6282005         1.21645046E-11
  -19.5132008         1.20371785E-11
  -19.3981991         1.18985655E-11
  -19.2831993         1.17475396E-11
  -19.1681995         1.15825804E-11
  -19.0531998         1.14018187E-11
  -18.9382000         1.12031096E-11
  -18.8232002         1.09841103E-11
  -18.7082005         1.07423835E-11
  -18.5932007         1.04754955E-11
  -18.4782009         1.01811354E-11
  -18.3631992         9.85721314E-12
  -18.2481995         9.50196605E-12
  -18.1331997         9.11404546E-12
  -18.0181999         8.69258485E-12
  -17.9032001         8.23725636E-12
  -17.7882004         7.74829246E-12
  -17.6732006         7.22649501E-12
  -17.5582008         6.67320973E-12
  -17.4431992         6.09028973E-12
  -17.3281994         5.48003049E-12
  -17.2131996         4.84509568E-12
  -17.0981998         4.18843215E-12
  -16.9832001         3.51317630E-12
  -16.8682003         2.82256857E-12
  -16.7532005         2.11986722E-12
  -16.6382008         1.40827649E-12
  -16.5231991         6.90886964E-13
  -16.4081993        -2.93641115E-14
  -16.2931995        -7.49718375E-13
  -16.1781998        -1.46760262E-12
  -16.0632000        -2.18062114E-12
  -15.9482002        -2.88653498E-12
  -15.8332005        -3.58323245E-12
  -15.7181997        -4.26869651E-12
  -15.6032000        -4.94097731E-12
  -15.4882002        -5.59816646E-12
  -15.3732004        -6.23838394E-12
  -15.2581997        -6.85978097E-12
  -15.1431999        -7.46055821E-12
  -15.0282001        -8.03899742E-12
  -14.9132004        -8.59351826E-12
  -14.7981997        -9.12273382E-12
  -14.6831999        -9.62553301E-12
  -14.5682001        -1.01011500E-11
  -14.4532003        -1.05492455E-11
  -14.3381996        -1.09699671E-11
  -14.2231998        -1.13640113E-11
  -14.1082001        -1.17326418E-11
  -13.9932003        -1.20777069E-11
  -13.8781996        -1.24016136E-11
  -13.7631998        -1.27072719E-11
  -13.6482000        -1.29980219E-11
  -13.5332003        -1.32775232E-11
  -13.4181995        -1.35496276E-11
  -13.3031998        -1.38182304E-11
  -13.1882000        -1.40871264E-11
  -13.0732002        -1.43598518E-11
  -12.9582005        -1.46395431E-11
  -12.8431997        -1.49288065E-11
  -12.7282000        -1.52296196E-11
  -12.6132002        -1.55432524E-11
  -12.4982004        -1.58702287E-11
  -12.3831997        -1.62103178E-11
  -12.2681999        -1.65625604E-11
  -12.1532001        -1.69253309E-11
  -12.0382004        -1.72964143E-11
  -11.9231997        -1.76731147E-11
  -11.8081999        -1.80523652E-11
  -11.6932001        -1.84308471E-11
  -11.5782003        -1.88050946E-11
  -11.4631996        -1.91716018E-11
  -11.3481998        -1.95268853E-11
  -11.2332001        -1.98675573E-11
  -11.1182003        -2.01903320E-11
  -11.0031996        -2.04920386E-11
  -10.8881998        -2.07695926E-11
  -10.7732000        -2.10199566E-11
  -10.6582003        -2.12400861E-11
  -10.5431995        -2.14268742E-11
  -10.4281998        -2.15770943E-11
  -10.3132000        -2.16873741E-11
  -10.1982002        -2.17541766E-11
  -10.0832005        -2.17738189E-11
  -9.96819973        -2.17425244E-11
  -9.85319996        -2.16565117E-11
  -9.73820019        -2.15121167E-11
  -9.62320042        -2.13059518E-11
  -9.50819969        -2.10350886E-11
  -9.39319992        -2.06972495E-11
  -9.27820015        -2.02910033E-11
  -9.16320038        -1.98159700E-11
  -9.04819965        -1.92729756E-11
  -8.93319988        -1.86641883E-11
  -8.81820011        -1.79932076E-11
  -8.70320034        -1.72650869E-11
  -8.58819962        -1.64863123E-11
  -8.47319984        -1.56646987E-11
  -8.35820007        -1.48092285E-11
  -8.24320030        -1.39298347E-11
  -8.12819958        -1.30371425E-11
  -8.01319981        -1.21421501E-11
  -7.89820004        -1.12559103E-11
  -7.78319979        -1.03891904E-11
  -7.66820002        -9.55215247E-12
  -7.55320024        -8.75404176E-12
  -7.43820000        -8.00293599E-12
  -7.32320023        -7.30553031E-12
  -7.20819998        -6.66698988E-12
  -7.09320021        -6.09086523E-12
  -6.97819996        -5.57907193E-12
  -6.86320019        -5.13193698E-12
  -6.74819994        -4.74829377E-12
  -6.63320017        -4.42563260E-12
  -6.51819992        -4.16026675E-12
  -6.40320015        -3.94753587E-12
  -6.28819990        -3.78199555E-12
  -6.17320013        -3.65760373E-12
  -6.05819988        -3.56788752E-12
  -5.94320011        -3.50607000E-12
  -5.82819986        -3.46516457E-12
  -5.71320009        -3.43802699E-12
  -5.59819984        -3.41737272E-12
  -5.48320007        -3.39575004E-12
  -5.36819983        -3.36550492E-12
  -5.25320005        -3.31872160E-12
  -5.13819981        -3.24717315E-12
  -5.02320004        -3.14228331E-12
  -4.90819979        -2.99512130E-12
  -4.79320002        -2.79642975E-12
  -4.67820024        -2.53671606E-12
  -4.56320000        -2.20638742E-12
  -4.44820023        -1.79594816E-12
  -4.33319998        -1.29625054E-12
  -4.21820021        -6.98790689E-13
  -4.10319996         3.96301178E-15
  -3.98819995         8.18225750E-13
  -3.87319994         1.74854673E-12
  -3.75819993         2.79749162E-12
  -3.64319992         3.96535712E-12
  -3.52819991         5.24995282E-12
  -3.41319990         6.64644858E-12
  -3.29820013         8.14732136E-12
  -3.18320012         9.74239960E-12
  -3.06820011         1.14190029E-11
  -2.95320010         1.31621745E-11
  -2.83820009         1.49550129E-11
  -2.72320008         1.67790764E-11
  -2.60820007         1.86148492E-11
  -2.49320006         2.04422416E-11
  -2.37820005         2.22410944E-11
  -2.26320004         2.39916993E-11
  -2.14820004         2.56752709E-11
  -2.03320003         2.72743737E-11
  -1.91820002         2.87732806E-11
  -1.80320001         3.01582717E-11
  -1.68820000         3.14178024E-11
  -1.57319999         3.25426318E-11
  -1.45819998         3.35258279E-11
  -1.34319997         3.43627383E-11
  -1.22819996         3.50508372E-11
  -1.11320007         3.55895972E-11
 -0.998199999         3.59802743E-11
 -0.883199990         3.62257065E-11
 -0.768200040         3.63301056E-11
 -0.653200030         3.62988910E-11
 -0.538200021         3.61385262E-11
 -0.423200011         3.58564116E-11
 -0.308200002         3.54608148E-11
 -0.193200007         3.49608710E-11
  -7.82000124E-02     3.43665582E-11
   3.67999896E-02     3.36887601E-11
  0.151799992         3.29393110E-11
  0.266799986         3.21310409E-11
  0.381799996         3.12778276E-11
  0.496799976         3.03945688E-11
  0.611800015         2.94971512E-11
  0.726799965         2.86023462E-11
  0.841799974         2.77276379E-11
  0.956799984         2.68909790E-11
   1.07179999         2.61105061E-11
   1.18680000         2.54041718E-11
   1.30180001         2.47893459E-11
   1.41680002         2.42823782E-11
   1.53180003         2.38981647E-11
   1.64680004         2.36496950E-11
   1.76179993         2.35476708E-11
   1.87679994         2.36001305E-11
   1.99179995         2.38121727E-11
   2.10680008         2.41857489E-11
   2.22180009         2.47195493E-11
   2.33680010         2.54089926E-11
   2.45179987         2.62463107E-11
   2.56679988         2.72207326E-11
   2.68179989         2.83187484E-11
   2.79679990         2.95244558E-11
   2.91179991         3.08199438E-11
   3.02679992         3.21857541E-11
   3.14179993         3.36013023E-11
   3.25679994         3.50453624E-11
   3.37179995         3.64964690E-11
   3.48679996         3.79333405E-11
   3.60179996         3.93352156E-11
   3.71679997         4.06821486E-11
   3.83179998         4.19552448E-11
   3.94679999         4.31368101E-11
   4.06180000         4.42104860E-11
   4.17679977         4.51612636E-11
   4.29180002         4.59755185E-11
   4.40679979         4.66409689E-11
   4.52180004         4.71466095E-11
   4.63679981         4.74826740E-11
   4.75180006         4.76405165E-11
   4.86679983         4.76126187E-11
   4.98180008         4.73924892E-11
   5.09679985         4.69746776E-11
   5.21180010         4.63547707E-11
   5.32679987         4.55294379E-11
   5.44180012         4.44964586E-11
   5.55679989         4.32548233E-11
   5.67180014         4.18048200E-11
   5.78679991         4.01481244E-11
   5.90180016         3.82878729E-11
   6.01679993         3.62287804E-11
   6.13180017         3.39771752E-11
   6.24679995         3.15410476E-11
   6.36180019         2.89300528E-11
   6.47679996         2.61554823E-11
   6.59180021         2.32301869E-11
   6.70679998         2.01684728E-11
   6.82179976         1.69859543E-11
   6.93680000         1.36993515E-11
   7.05179977         1.03262850E-11
   7.16680002         6.88500559E-12
   7.28179979         3.39413155E-12
   7.39680004        -1.27653910E-13
   7.51179981        -3.66190194E-12
   7.62680006        -7.19069639E-12
   7.74179983        -1.06969607E-11
   7.85680008        -1.41647249E-11
   7.97179985        -1.75793876E-11
   8.08679962        -2.09279382E-11
   8.20180035        -2.41991167E-11
   8.31680012        -2.73835590E-11
   8.43179989        -3.04738700E-11
   8.54679966        -3.34646304E-11
   8.66180038        -3.63523447E-11
   8.77680016        -3.91353581E-11
   8.89179993        -4.18136324E-11
   9.00679970        -4.43885727E-11
   9.12180042        -4.68627359E-11
   9.23680019        -4.92395152E-11
   9.35179996        -5.15228138E-11
   9.46679974        -5.37167012E-11
   9.58180046        -5.58250737E-11
   9.69680023        -5.78513452E-11
   9.81180000        -5.97981664E-11
   9.92679977        -6.16672061E-11
   10.0417995        -6.34590297E-11
   10.1568003        -6.51729920E-11
   10.2718000        -6.68072681E-11
   10.3867998        -6.83589574E-11
   10.5017996        -6.98242228E-11
   10.6168003        -7.11986373E-11
   10.7318001        -7.24774130E-11
   10.8467999        -7.36557967E-11
   10.9617996        -7.47294865E-11
   11.0768003        -7.56949781E-11
   11.1918001        -7.65499469E-11
   11.3067999        -7.72935882E-11
   11.4217997        -7.79268525E-11
   11.5368004        -7.84526194E-11
   11.6518002        -7.88757809E-11
   11.7667999        -7.92032065E-11
   11.8817997        -7.94436322E-11
   11.9968004        -7.96074109E-11
   12.1118002        -7.97062069E-11
   12.2268000        -7.97526351E-11
   12.3417997        -7.97598029E-11
   12.4568005        -7.97409083E-11
   12.5718002        -7.97087674E-11
   12.6868000        -7.96754260E-11
   12.8017998        -7.96518476E-11
   12.9167995        -7.96476010E-11
   13.0318003        -7.96707283E-11
   13.1468000        -7.97276481E-11
   13.2617998        -7.98232244E-11
   13.3767996        -7.99608157E-11
   13.4918003        -8.01425523E-11
   13.6068001        -8.03695444E-11
   13.7217999        -8.06421666E-11
   13.8367996        -8.09603634E-11
   13.9518003        -8.13239129E-11
   14.0668001        -8.17325929E-11
   14.1817999        -8.21863619E-11
   14.2967997        -8.26853586E-11
   14.4118004        -8.32298327E-11
   14.5268002        -8.38199787E-11
   14.6417999        -8.44556439E-11
   14.7567997        -8.51359747E-11
   14.8718004        -8.58590074E-11
   14.9868002        -8.66211824E-11
   15.1018000        -8.74169348E-11
   15.2167997        -8.82382570E-11
   15.3318005        -8.90744214E-11
   15.4468002        -8.99117170E-11
   15.5618000        -9.07334347E-11
   15.6767998        -9.15199028E-11
   15.7917995        -9.22487642E-11
   15.9068003        -9.28954066E-11
   16.0217991        -9.34335179E-11
   16.1368008        -9.38357864E-11
   16.2518005        -9.40747272E-11
   16.3668003        -9.41235145E-11
   16.4818001        -9.39568701E-11
   16.5967999        -9.35519093E-11
   16.7117996        -9.28888771E-11
   16.8267994        -9.19518420E-11
   16.9417992        -9.07291534E-11
   17.0568008        -8.92137822E-11
   17.1718006        -8.74034317E-11
   17.2868004        -8.53004958E-11
   17.4018002        -8.29118094E-11
   17.5167999        -8.02482525E-11
   17.6317997        -7.73242165E-11
   17.7467995        -7.41569861E-11
   17.8617992        -7.07660527E-11