  -37.8452110         0.00000000    
  -37.7264595         0.00000000    
  -37.6077118         0.00000000    
  -37.4889603         0.00000000    
  -37.3702126         0.00000000    
  -37.2514610         0.00000000    
  -37.1327095        -0.00000000    
  -37.0139618         2.36957280E-30
  -36.8952103         3.34593163E-29
  -36.7764626         2.47477713E-28
  -36.6577110         1.28874950E-27
  -36.5389595         5.27562363E-27
  -36.4202118         1.80475305E-26
  -36.3014603         5.35752912E-26
  -36.1827126         1.41518183E-25
  -36.0639610         3.38534702E-25
  -35.9452095         7.42788914E-25
  -35.8264618         1.50884163E-24
  -35.7077103         2.85667596E-24
  -35.5889626         5.06420933E-24
  -35.4702110         8.42800611E-24
  -35.3514595         1.31733452E-23
  -35.2327118         1.92939269E-23
  -35.1139603         2.63054599E-23
  -34.9952126         3.29075851E-23
  -34.8764610         3.65664513E-23
  -34.7577095         3.30547865E-23
  -34.6389618         1.60156908E-23
  -34.5202103        -2.33535692E-23
  -34.4014626        -9.63781155E-23
  -34.2827110        -2.16611158E-22
  -34.1639595        -3.99048457E-22
  -34.0452118        -6.58766963E-22
  -33.9264603        -1.00896890E-21
  -33.8077126        -1.45850430E-21
  -33.6889610        -2.00905409E-21
  -33.5702095        -2.65226477E-21
  -33.4514618        -3.36722771E-21
  -33.3327103        -4.11872937E-21
  -33.2139626        -4.85670938E-21
  -33.0952110        -5.51724339E-21
  -32.9764595        -6.02519651E-21
  -32.8577118        -6.29843470E-21
  -32.7389603        -6.25313485E-21
  -32.6202126        -5.80943242E-21
  -32.5014610        -4.89633650E-21
  -32.3827095        -3.45468065E-21
  -32.2639618        -1.43686775E-21
  -32.1452103         1.19759637E-21
  -32.0264626         4.49130436E-21
  -31.9077110         8.50269938E-21
  -31.7889614         1.33232770E-20
  -31.6702118         1.90961866E-20
  -31.5514603         2.60332431E-20
  -31.4327106         3.44267272E-20
  -31.3139610         4.46521110E-20
  -31.1952114         5.71581674E-20
  -31.0764618         7.24419707E-20
  -30.9577103         9.10079878E-20
  -30.8389606         1.13312848E-19
  -30.7202110         1.39700091E-19
  -30.6014614         1.70331946E-19
  -30.4827118         2.05127725E-19
  -30.3639603         2.43720082E-19
  -30.2452106         2.85440358E-19
  -30.1264610         3.29343564E-19
  -30.0077114         3.74278806E-19
  -29.8889618         4.19007667E-19
  -29.7702103         4.62363667E-19
  -29.6514606         5.03440474E-19
  -29.5327110         5.41786551E-19
  -29.4139614         5.77578604E-19
  -29.2952118         6.11741836E-19
  -29.1764603         6.45984114E-19
  -29.0577106         6.82718275E-19
  -28.9389610         7.24853873E-19
  -28.8202114         7.75459852E-19
  -28.7014618         8.37316470E-19
  -28.5827103         9.12398931E-19
  -28.4639606         1.00135590E-18
  -28.3452110         1.10306551E-18
  -28.2264614         1.21435542E-18
  -28.1077118         1.32997728E-18
  -27.9889603         1.44290057E-18
  -27.8702106         1.54496225E-18
  -27.7514610         1.62786074E-18
  -27.6327114         1.68442076E-18
  -27.5139618         1.71000143E-18
  -27.3952103         1.70385589E-18
  -27.2764606         1.67021817E-18
  -27.1577110         1.61887363E-18
  -27.0389614         1.56499284E-18
  -26.9202118         1.52806615E-18
  -26.8014603         1.52987809E-18
  -26.6827106         1.59159600E-18
  -26.5639610         1.73019528E-18
  -26.4452114         1.95461145E-18
  -26.3264618         2.26213466E-18
  -26.2077103         2.63566027E-18
  -26.0889606         3.04242489E-18
  -25.9702110         3.43479077E-18
  -25.8514614         3.75347761E-18
  -25.7327118         3.93337947E-18
  -25.6139603         3.91176690E-18
  -25.4952106         3.63829685E-18
  -25.3764610         3.08585973E-18
  -25.2577114         2.26096213E-18
  -25.1389618         1.21210311E-18
  -25.0202103         3.45308712E-20
  -24.9014606        -1.13012962E-18
  -24.7827110        -2.10055010E-18
  -24.6639614        -2.66930439E-18
  -24.5452118        -2.62331067E-18
  -24.4264603        -1.77015224E-18
  -24.3077106         3.16112144E-20
  -24.1889610         2.84087240E-18
  -24.0702114         6.60463105E-18
  -23.9514618         1.11347957E-17
  -23.8327103         1.60951811E-17
  -23.7139606         2.10024152E-17
  -23.5952110         2.52437027E-17
  -23.4764614         2.81131162E-17
  -23.3577118         2.88664593E-17
  -23.2389603         2.67927572E-17
  -23.1202106         2.12982630E-17
  -23.0014610         1.19968544E-17
  -22.8827114        -1.20128938E-18
  -22.7639618        -1.80121027E-17
  -22.6452103        -3.77212921E-17
  -22.5264606        -5.91591236E-17
  -22.4077110        -8.07150269E-17
  -22.2889614        -1.00398319E-16
  -22.1702118        -1.15948090E-16
  -22.0514603        -1.24990908E-16
  -21.9327106        -1.25240200E-16
  -21.8139610        -1.14725980E-16
  -21.6952114        -9.20386993E-17
  -21.5764618        -5.65669116E-17
  -21.4577103        -8.70539352E-18
  -21.3389606         4.99905941E-17
  -21.2202110         1.16727983E-16
  -21.1014614         1.87495481E-16
  -20.9827118         2.57193455E-16
  -20.8639603         3.19880140E-16
  -20.7452106         3.69129176E-16
  -20.6264610         3.98483659E-16
  -20.5077114         4.01980105E-16
  -20.3889618         3.74705988E-16
  -20.2702103         3.13346525E-16
  -20.1514606         2.16671796E-16
  -20.0327110         8.59144923E-17
  -19.9139614        -7.50074608E-17
  -19.7952118        -2.59460750E-16
  -19.6764603        -4.58282623E-16
  -19.5577106        -6.60190290E-16
  -19.4389610        -8.52401866E-16
  -19.3202114        -1.02143640E-15
  -19.2014618        -1.15404194E-15
  -19.0827103        -1.23818493E-15
  -18.9639606        -1.26402113E-15
  -18.8452110        -1.22476687E-15
  -18.7264614        -1.11738882E-15
  -18.6077118        -9.43042120E-16
  -18.4889603        -7.07206442E-16
  -18.3702106        -4.19489600E-16
  -18.2514610        -9.31020036E-17
  -18.1327114         2.55968486E-16
  -18.0139618         6.10019576E-16
  -17.8952103         9.50849540E-16
  -17.7764606         1.26101956E-15
  -17.6577110         1.52504873E-15
  -17.5389614         1.73043092E-15
  -17.4202118         1.86837320E-15
  -17.3014603         1.93418322E-15
  -17.1827106         1.92726190E-15
  -17.0639610         1.85070558E-15
  -16.9452114         1.71055212E-15
  -16.8264618         1.51476067E-15
  -16.7077103         1.27203618E-15
  -16.5889606         9.90641348E-16
  -16.4702110         6.77346731E-16
  -16.3514614         3.36659836E-16
  -16.2327118        -2.95438872E-17
  -16.1139603        -4.21908726E-16
  -15.9952106        -8.42974336E-16
  -15.8764610        -1.29607095E-15
  -15.7577114        -1.78382619E-15
  -15.6389608        -2.30643218E-15
  -15.5202112        -2.85986635E-15
  -15.4014606        -3.43429911E-15
  -15.2827110        -4.01290117E-15
  -15.1639614        -4.57127757E-15
  -15.0452108        -5.07767665E-15
  -14.9264612        -5.49407974E-15
  -14.8077106        -5.77816823E-15
  -14.6889610        -5.88607854E-15
  -14.5702114        -5.77574360E-15
  -14.4514608        -5.41054365E-15
  -14.3327112        -4.76289337E-15
  -14.2139606        -3.81736870E-15
  -14.0952110        -2.57296676E-15
  -13.9764614        -1.04411962E-15
  -13.8577108         7.39821658E-16
  -13.7389612         2.73681364E-15
  -13.6202106         4.89606770E-15
  -13.5014610         7.16357278E-15
  -13.3827114         9.48885779E-15
  -13.2639608         1.18324895E-14
  -13.1452112         1.41736742E-14
  -13.0264606         1.65172119E-14
  -12.9077110         1.88990466E-14
  -12.7889614         2.13896588E-14
  -12.6702108         2.40946619E-14
  -12.5514612         2.71521561E-14
  -12.4327106         3.07265572E-14
  -12.3139610         3.49990287E-14
  -12.1952114         4.01547929E-14
  -12.0764608         4.63680337E-14
  -11.9577112         5.37853284E-14
  -11.8389606         6.25087140E-14
  -11.7202110         7.25798477E-14
  -11.6014614         8.39664777E-14
  -11.4827108         9.65526080E-14
  -11.3639612         1.10133548E-13
  -11.2452106         1.24416685E-13
  -11.1264610         1.39028478E-13
  -11.0077114         1.53527676E-13
  -10.8889608         1.67424559E-13
  -10.7702112         1.80204972E-13
  -10.6514606         1.91358214E-13
  -10.5327110         2.00406681E-13
  -10.4139614         2.06935529E-13
  -10.2952108         2.10620245E-13
  -10.1764612         2.11249800E-13
  -10.0577106         2.08743802E-13
  -9.93896103         2.03161760E-13
  -9.82021141         1.94703669E-13
  -9.70146084         1.83701063E-13
  -9.58271122         1.70598968E-13
  -9.46396065         1.55929238E-13
  -9.34521103         1.40276950E-13
  -9.22646141         1.24241830E-13
  -9.10771084         1.08396975E-13
  -8.98896122         9.32478785E-14
  -8.87021065         7.91944025E-14
  -8.75146103         6.64986187E-14
  -8.63271141         5.52608327E-14
  -8.51396084         4.54059126E-14
  -8.39521122         3.66812395E-14
  -8.27646065         2.86668204E-14
  -8.15771103         2.07974879E-14
  -8.03896141         1.23961993E-14
  -7.92021084         2.71630634E-15
  -7.80146122        -9.00928722E-15
  -7.68271112        -2.35151932E-14
  -7.56396103        -4.14504721E-14
  -7.44521093        -6.33284996E-14
  -7.32646084        -8.94832575E-14
  -7.20771122        -1.20035275E-13
  -7.08896112        -1.54869485E-13
  -6.97021103        -1.93626880E-13
  -6.85146093        -2.35710919E-13
  -6.73271084        -2.80308600E-13
  -6.61396122        -3.26425573E-13
  -6.49521112        -3.72933374E-13
  -6.37646103        -4.18626044E-13
  -6.25771093        -4.62282990E-13
  -6.13896084        -5.02735006E-13
  -6.02021122        -5.38928602E-13
  -5.90146112        -5.69985628E-13
  -5.78271103        -5.95253989E-13
  -5.66396093        -6.14347223E-13
  -5.54521084        -6.27169432E-13
  -5.42646122        -6.33924879E-13
  -5.30771112        -6.35111321E-13
  -5.18896103        -6.31497079E-13
  -5.07021093        -6.24083901E-13
  -4.95146084        -6.14057416E-13
  -4.83271122        -6.02727612E-13
  -4.71396112        -5.91464269E-13
  -4.59521103        -5.81629905E-13
  -4.47646093        -5.74514936E-13
  -4.35771084        -5.71278701E-13
  -4.23896122        -5.72900776E-13
  -4.12021112        -5.80143409E-13
  -4.00146103        -5.93529241E-13
  -3.88271117        -6.13335717E-13
  -3.76396108        -6.39603496E-13
  -3.64521098        -6.72162250E-13
  -3.52646112        -7.10668232E-13
  -3.40771103        -7.54653664E-13
  -3.28896117        -8.03583654E-13
  -3.17021108        -8.56915884E-13
  -3.05146098        -9.14161325E-13
  -2.93271112        -9.74939422E-13
  -2.81396103        -1.03902629E-12
  -2.69521117        -1.10639037E-12
  -2.57646108        -1.17721523E-12
  -2.45771098        -1.25190732E-12
  -2.33896112        -1.33108607E-12
  -2.22021103        -1.41555962E-12
  -2.10146117        -1.50628576E-12
  -1.98271108        -1.60432063E-12
  -1.86396110        -1.71075849E-12
  -1.74521101        -1.82666490E-12
  -1.62646103        -1.95300894E-12
  -1.50771105        -2.09059679E-12
  -1.38896108        -2.24000896E-12
  -1.27021110        -2.40154879E-12
  -1.15146101        -2.57520047E-12
  -1.03271103        -2.76059861E-12
 -0.913961053        -2.95701419E-12
 -0.795211077        -3.16335326E-12
 -0.676461041        -3.37816862E-12
 -0.557711065        -3.59968500E-12
 -0.438961059        -3.82583418E-12
 -0.320211053        -4.05429900E-12
 -0.201461062        -4.28256432E-12
  -8.27110559E-02    -4.50796908E-12
   3.60389426E-02    -4.72776505E-12
  0.154788941        -4.93917147E-12
  0.273538947        -5.13943098E-12
  0.392288953        -5.32586215E-12
  0.511038959        -5.49591015E-12
  0.629788935        -5.64719192E-12
  0.748538971        -5.77754207E-12
  0.867288947        -5.88505156E-12
  0.986038923        -5.96810405E-12
   1.10478890        -6.02541151E-12
   1.22353899        -6.05604282E-12
   1.34228897        -6.05944895E-12
   1.46103895        -6.03548505E-12
   1.57978892        -5.98442476E-12
   1.69853890        -5.90696762E-12
   1.81728899        -5.80423903E-12
   1.93603897        -5.67778073E-12
   2.05478883        -5.52953213E-12
   2.17353892        -5.36180085E-12
   2.29228902        -5.17722540E-12
   2.41103888        -4.97872880E-12
   2.52978897        -4.76946477E-12
   2.64853883        -4.55276095E-12
   2.76728892        -4.33205988E-12
   2.88603902        -4.11085966E-12
   3.00478888        -3.89265963E-12
   3.12353897        -3.68091148E-12
   3.24228883        -3.47897600E-12
   3.36103892        -3.29009172E-12
   3.47978902        -3.11734861E-12
   3.59853888        -2.96367011E-12
   3.71728897        -2.83180033E-12
   3.83603883        -2.72429323E-12
   3.95478892        -2.64349848E-12
   4.07353878        -2.59154200E-12
   4.19228888        -2.57029597E-12
   4.31103897        -2.58133662E-12
   4.42978907        -2.62588367E-12
   4.54853916        -2.70472468E-12
   4.66728878        -2.81812399E-12
   4.78603888        -2.96571730E-12
   4.90478897        -3.14639981E-12
   5.02353907        -3.35821258E-12
   5.14228916        -3.59823781E-12
   5.26103878        -3.86251014E-12
   5.37978888        -4.14595615E-12
   5.49853897        -4.44237225E-12
   5.61728907        -4.74444789E-12
   5.73603916        -5.04383948E-12
   5.85478878        -5.33130658E-12
   5.97353888        -5.59689795E-12
   6.09228897        -5.83020177E-12
   6.21103907        -6.02063538E-12
   6.32978916        -6.15777741E-12
   6.44853878        -6.23172521E-12
   6.56728888        -6.23346036E-12
   6.68603897        -6.15520135E-12
   6.80478907        -5.99073525E-12
   6.92353916        -5.73570141E-12
   7.04228878        -5.38781346E-12
   7.16103888        -4.94701242E-12
   7.27978897        -4.41553434E-12
   7.39853907        -3.79789299E-12
   7.51728916        -3.10077441E-12
   7.63603878        -2.33285461E-12
   7.75478888        -1.50454107E-12
   7.87353897        -6.27661768E-13
   7.99228907         2.84889001E-13
   8.11103916         1.21952416E-12
   8.22978878         2.16233910E-12
   8.34853935         3.09947185E-12
   8.46728897         4.01742572E-12
   8.58603859         4.90334683E-12
   8.70478916         5.74524543E-12
   8.82353878         6.53215069E-12
   8.94228935         7.25420765E-12
   9.06103897         7.90271494E-12
   9.17978859         8.47011090E-12
   9.29853916         8.94992414E-12
   9.41728878         9.33670242E-12
   9.53603935         9.62593113E-12
   9.65478897         9.81395867E-12
   9.77353859         9.89794444E-12
   9.89228916         9.87583799E-12
   10.0110388         9.74639466E-12
   10.1297894         9.50922847E-12
   10.2485390         9.16491622E-12
   10.3672886         8.71511890E-12
   10.4860392         8.16273698E-12
   10.6047888         7.51206996E-12
   10.7235394         6.76896516E-12
   10.8422890         5.94095476E-12
   10.9610386         5.03733904E-12
   11.0797892         4.06922326E-12
   11.1985388         3.04948558E-12
   11.3172894         1.99266601E-12
   11.4360390         9.14781055E-13
   11.5547886        -1.66941453E-13
   11.6735392        -1.23440483E-12
   11.7922888        -2.26903912E-12
   11.9110394        -3.25225220E-12
   12.0297890        -4.16590287E-12
   12.1485386        -4.99278873E-12
   12.2672892        -5.71711688E-12
   12.3860388        -6.32494491E-12
   12.5047894        -6.80456819E-12
   12.6235390        -7.14683434E-12
   12.7422886        -7.34537778E-12
   12.8610392        -7.39676636E-12
   12.9797888        -7.30053865E-12
   13.0985394        -7.05915491E-12
   13.2172890        -6.67784317E-12
   13.3360386        -6.16437543E-12
   13.4547892        -5.52875237E-12
   13.5735388        -4.78283906E-12
   13.6922894        -3.93995774E-12
   13.8110390        -3.01444893E-12
   13.9297886        -2.02122542E-12
   14.0485392        -9.75338300E-13
   14.1672888         1.08439475E-13
   14.2860394         1.21598814E-12
   14.4047890         2.33417062E-12
   14.5235386         3.45111114E-12
   14.6422892         4.55640473E-12
   14.7610388         5.64127304E-12
   14.8797894         6.69864945E-12
   14.9985390         7.72320576E-12
   15.1172886         8.71132767E-12
   15.2360392         9.66104193E-12
   15.3547888         1.05719071E-11
   15.4735394         1.14448650E-11
   15.5922890         1.22820816E-11
   15.7110386         1.30867799E-11
   15.8297892         1.38630713E-11
   15.9485388         1.46157912E-11
   16.0672894         1.53503703E-11
   16.1860390         1.60727039E-11
   16.3047886         1.67890736E-11
   16.4235382         1.75060938E-11
   16.5422897         1.82306791E-11
   16.6610394         1.89700495E-11
   16.7797890         1.97317510E-11
   16.8985386         2.05236956E-11
   17.0172882         2.13542187E-11
   17.1360397         2.22321068E-11
   17.2547894         2.31666335E-11
   17.3735390         2.41675516E-11
   17.4922886         2.52450803E-11
   17.6110382         2.64098274E-11
   17.7297897         2.76726524E-11
   17.8485394         2.90445151E-11
   17.9672890         3.05362402E-11
   18.0860386         3.21582656E-11
   18.2047882         3.39203492E-11
   18.3235397         3.58312269E-11
   18.4422894         3.78982991E-11
   18.5610390         4.01272973E-11
   18.6797886         4.25220033E-11
   18.7985382         4.50840060E-11
   18.9172897         4.78125005E-11
   19.0360394         5.07041770E-11
   19.1547890         5.37532276E-11
   19.2735386         5.69514193E-11
   19.3922882         6.02882674E-11
   19.5110397         6.37512820E-11
   19.6297894         6.73263667E-11
   19.7485390         7.09982143E-11
   19.8672886         7.47507681E-11
   19.9860382         7.85677634E-11
   20.1047897         8.24331992E-11
   20.2235394         8.63318306E-11
   20.3422890         9.02495925E-11
   20.4610386         9.41739881E-11
   20.5797882         9.80943382E-11
   20.6985397         1.02002004E-10
   20.8172894         1.05890373E-10
   20.9360390         1.09754934E-10
   21.0547886         1.13593045E-10
   21.1735382         1.17403740E-10
   21.2922897         1.21187463E-10
   21.4110394         1.24945637E-10
   21.5297890         1.28680344E-10
   21.6485386         1.32393957E-10
   21.7672882         1.36088751E-10
   21.8860397         1.39766559E-10
   22.0047894         1.43428658E-10
   22.1235390         1.47075449E-10
   22.2422886         1.50706503E-10
   22.3610382         1.54320501E-10
   22.4797897         1.57915361E-10
   22.5985394         1.61488392E-10
   22.7172890         1.65036554E-10
   22.8360386         1.68556627E-10
   22.9547882         1.72045558E-10
   23.0735397         1.75500642E-10
   23.1922894         1.78919851E-10
   23.3110390         1.82301868E-10
   23.4297886         1.85646290E-10
   23.5485382         1.88953617E-10
   23.6672897         1.92225069E-10
   23.7860394         1.95462660E-10
   23.9047890         1.98668790E-10
   24.0235386         2.01845943E-10
   24.1422882         2.04996548E-10
   24.2610397         2.08122450E-10
   24.3797894         2.11224691E-10
   24.4985390         2.14303214E-10
   24.6172886         2.17356563E-10
   24.7360382         2.20381768E-10
   24.8547897         2.23374347E-10
   24.9735394         2.26328206E-10
   25.0922890         2.29235922E-10
   25.2110386         2.32088945E-10
   25.3297882         2.34877867E-10
   25.4485397         2.37592945E-10
   25.5672894         2.40224479E-10
   25.6860390         2.42763309E-10
   25.8047886         2.45201304E-10
   25.9235382         2.47531773E-10
   26.0422897         2.49749860E-10
   26.1610394         2.51852844E-10
   26.2797890         2.53840365E-10
   26.3985386         2.55714477E-10
   26.5172882         2.57479649E-10
   26.6360397         2.59142652E-10
   26.7547894         2.60712230E-10
   26.8735390         2.62198874E-10
   26.9922886         2.63614380E-10
   27.1110382         2.64971239E-10
   27.2297897         2.66282441E-10
   27.3485394         2.67560613E-10
   27.4672890         2.68817774E-10
   27.5860386         2.70064721E-10
   27.7047882         2.71310613E-10
   27.8235397         2.72562611E-10
   27.9422894         2.73825490E-10
   28.0610390         2.75101442E-10
   28.1797886         2.76389800E-10
   28.2985382         2.77686901E-10
   28.4172897         2.78986001E-10
   28.5360394         2.80277301E-10
   28.6547890         2.81547813E-10
   28.7735386         2.82781520E-10
   28.8922882         2.83959467E-10
   29.0110397         2.85059726E-10
   29.1297894         2.86057900E-10
   29.2485390         2.86927038E-10
   29.3672886         2.87638163E-10
   29.4860382         2.88160551E-10
   29.6047897         2.88462088E-10
   29.7235394         2.88509827E-10
   29.8422890         2.88270602E-10
   29.9610386         2.87711438E-10
   30.0797882         2.86800472E-10
   30.1985397         2.85507340E-10
   30.3172894         2.83804064E-10
   30.4360390         2.81665580E-10
   30.5547886         2.79070544E-10
   30.6735382         2.76001666E-10
   30.7922897         2.72446371E-10
   30.9110394         2.68396971E-10
   31.0297890         2.63850997E-10
   31.1485386         2.58811333E-10
   31.2672882         2.53285976E-10
   31.3860397         2.47287912E-10
   31.5047894         2.40834713E-10
   31.6235390         2.33948111E-10
   31.7422886         2.26653293E-10
   31.8610382         2.18978322E-10
   31.9797897         2.10953296E-10
   32.0985374         2.02609679E-10
   32.2172890         1.93979457E-10
   32.3360405         1.85094440E-10
   32.4547882         1.75985448E-10
   32.5735397         1.66681724E-10
   32.6922874         1.57210189E-10
   32.8110390         1.47595006E-10
   32.9297905         1.37856865E-10
   33.0485382         1.28012670E-10
   33.1672897         1.18074980E-10
   33.2860374         1.08051512E-10
   33.4047890         9.79448744E-11
   33.5235405         8.77520070E-11
   33.6422882         7.74639033E-11
   33.7610397         6.70652561E-11
   33.8797874         5.65341454E-11
   33.9985390         4.58417505E-11
   34.1172905         3.49523258E-11
   34.2360382         2.38231709E-11
   34.3547897         1.24047161E-11
   34.4735374         6.41035781E-13
   34.5922890        -1.15297633E-11
   34.7110405        -2.41746987E-11
   34.8297882        -3.73648716E-11
   34.9485397        -5.11743183E-11
   35.0672874        -6.56785459E-11
   35.1860390        -8.09529041E-11
   35.3047905        -9.70709971E-11
   35.4235382        -1.14102797E-10
   35.5422897        -1.32112959E-10
   35.6610374        -1.51159169E-10
   35.7797890        -1.71290482E-10
   35.8985405        -1.92546049E-10
   36.0172882        -2.14953930E-10
   36.1360397        -2.38530334E-10
   36.2547874        -2.63279121E-10
   36.3735390        -2.89191532E-10
   36.4922905        -3.16246473E-10
   36.6110382        -3.44410861E-10
   36.7297897        -3.73640591E-10
   36.8485374        -4.03881234E-10
   36.9672890        -4.35069480E-10
   37.0860405        -4.67134109E-10
   37.2047882        -4.99997654E-10
   37.3235397        -5.33577571E-10
   37.4422874        -5.67787595E-10
   37.5610390        -6.02539019E-10
   37.6797905        -6.37741915E-10
   37.7985382        -6.73306022E-10
   37.9172897        -7.09141634E-10
   38.0360374        -7.45160600E-10
   38.1547890        -7.81276821E-10
   38.2735405        -8.17407031E-10
   38.3922882        -8.53471072E-10
   38.5110397        -8.89392948E-10
   38.6297874        -9.25100940E-10
   38.7485390        -9.60528213E-10
   38.8672905        -9.95613592E-10
   38.9860382        -1.03030207E-09
   39.1047897        -1.06454523E-09
   39.2235374        -1.09830189E-09
   39.3422890        -1.13153886E-09
   39.4610405        -1.16423116E-09
   39.5797882        -1.19636234E-09
   39.6985397        -1.22792476E-09
   39.8172874        -1.25891964E-09
   39.9360390        -1.28935662E-09
   40.0547905        -1.31925382E-09
   40.1735382        -1.34863676E-09
   40.2922897        -1.37753831E-09
   40.4110374        -1.40599732E-09
   40.5297890        -1.43405743E-09
   40.6485405        -1.46176615E-09
   40.7672882        -1.48917356E-09
   40.8860397        -1.51633150E-09
   41.0047874        -1.54329216E-09
   41.1235390        -1.57010693E-09
   41.2422905        -1.59682578E-09
   41.3610382        -1.62349612E-09
   41.4797897        -1.65016223E-09
   41.5985374        -1.67686542E-09
   41.7172890        -1.70364267E-09
   41.8360405        -1.73052694E-09
   41.9547882        -1.75754744E-09
   42.0735397        -1.78472903E-09
   42.1922874        -1.81209248E-09
   42.3110390        -1.83965432E-09
   42.4297905        -1.86742755E-09
   42.5485382        -1.89542115E-09
   42.6672897        -1.92363969E-09
   42.7860374        -1.95208449E-09
   42.9047890        -1.98075201E-09
   43.0235405        -2.00963535E-09
   43.1422882        -2.03872297E-09
   43.2610397        -2.06799933E-09
   43.3797874        -2.09744400E-09
   43.4985390        -2.12703255E-09
   43.6172905        -2.15673546E-09
   43.7360382        -2.18652008E-09
   43.8547897        -2.21634799E-09
   43.9735374        -2.24617791E-09
   44.0922890        -2.27596408E-09
   44.2110405        -2.30565722E-09
   44.3297882        -2.33520470E-09
   44.4485397        -2.36455033E-09
   44.5672874        -2.39363551E-09
   44.6860390        -2.42239784E-09
   44.8047905        -2.45077336E-09
   44.9235382        -2.47869392E-09
   45.0422897        -2.50608911E-09
   45.1610374        -2.53288568E-09
   45.2797890        -2.55900701E-09
   45.3985405        -2.58437294E-09
   45.5172882        -2.60890021E-09
   45.6360397        -2.63250310E-09
   45.7547874        -2.65509104E-09
   45.8735390        -2.67657185E-09
   45.9922905        -2.69685052E-09
   46.1110382        -2.71582978E-09
   46.2297897        -2.73341128E-09
   46.3485374        -2.74949685E-09
   46.4672890        -2.76398837E-09
   46.5860405        -2.77679013E-09
   46.7047882        -2.78780887E-09
   46.8235397        -2.79695533E-09
   46.9422874        -2.80414603E-09
   47.0610390        -2.80930323E-09
   47.1797905        -2.81235590E-09
   47.2985382        -2.81324097E-09
   47.4172897        -2.81190338E-09
   47.5360374        -2.80829560E-09
   47.6547890        -2.80237855E-09
   47.7735405        -2.79412138E-09
   47.8922882        -2.78350032E-09
   48.0110397        -2.77049872E-09
   48.1297874        -2.75510637E-09
   48.2485390        -2.73731859E-09
   48.3672905        -2.71713674E-09
   48.4860382        -2.69456679E-09
   48.6047897        -2.66961897E-09
   48.7235374        -2.64230859E-09
   48.8422890        -2.61265476E-09
   48.9610405        -2.58068100E-09
   49.0797882        -2.54641574E-09
   49.1985397        -2.50989163E-09
   49.3172874        -2.47114618E-09
   49.4360390        -2.43022225E-09
   49.5547905        -2.38716735E-09
   49.6735382        -2.34203390E-09
   49.7922897        -2.29487829E-09
   49.9110374        -2.24576047E-09
   50.0297890        -2.19474328E-09
   50.1485405        -2.14189000E-09
   50.2672882        -2.08726458E-09
   50.3860397        -2.03092787E-09
   50.5047874        -1.97293692E-09
   50.6235390        -1.91334326E-09
   50.7422905        -1.85219007E-09
   50.8610382        -1.78951021E-09
   50.9797897        -1.72532544E-09
   51.0985374        -1.65964431E-09
   51.2172890        -1.59246116E-09
   51.3360405        -1.52375523E-09
   51.4547882        -1.45349122E-09
   51.5735397        -1.38161826E-09
   51.6922874        -1.30807154E-09
   51.8110390        -1.23277255E-09
   51.9297905        -1.15563048E-09
   52.0485382        -1.07654463E-09
   52.1672897        -9.95404648E-10
   52.2860374        -9.12093789E-10
   52.4047890        -8.26490099E-10
   52.5235405        -7.38468842E-10
   52.6422882        -6.47904064E-10
   52.7610397        -5.54670698E-10
   52.8797874        -4.58645844E-10
   52.9985390        -3.59710595E-10
   53.1172905        -2.57751709E-10
   53.2360382        -1.52662549E-10
   53.3547897        -4.43446946E-11
   53.4735374         6.72906453E-11
   53.5922890         1.82321561E-10
   53.7110405         3.00813763E-10
   53.8297882         4.22819363E-10
   53.9485397         5.48374568E-10
   54.0672874         6.77499279E-10
   54.1860390         8.10194134E-10
   54.3047905         9.46440593E-10
   54.4235382         1.08619735E-09
   54.5422897         1.22940058E-09
   54.6610374         1.37596234E-09
   54.7797890         1.52576962E-09
   54.8985405         1.67868397E-09
   55.0172882         1.83454185E-09
   55.1360397         1.99315431E-09
   55.2547874         2.15431140E-09
   55.3735390         2.31777908E-09
   55.4922905         2.48330623E-09
   55.6110382         2.65062328E-09
   55.7297897         2.81944845E-09
   55.8485374         2.98949066E-09
   55.9672890         3.16045190E-09
   56.0860405         3.33203309E-09
   56.2047882         3.50393692E-09
   56.3235397         3.67587250E-09
   56.4422874         3.84755872E-09
   56.5610390         4.01872802E-09
   56.6797905         4.18912904E-09
   56.7985382         4.35853087E-09
   56.9172897         4.52672344E-09
   57.0360374         4.69352202E-09
   57.1547890         4.85876628E-09
   57.2735405         5.02232345E-09
   57.3922882         5.18408916E-09
   57.5110397         5.34398570E-09
   57.6297874         5.50196555E-09
   57.7485390         5.65800917E-09
   57.8672905         5.81212456E-09
   57.9860382         5.96434813E-09
   58.1047897         6.11474205E-09
   58.2235374         6.26339425E-09