  -75.1732025       0.00000000    
  -75.0581970       0.00000000    
  -74.9431992       0.00000000    
  -74.8282013       0.00000000    
  -74.7132034       0.00000000    
  -74.5981979       0.00000000    
  -74.4832001       4.33936782E-36
  -74.3682022       2.14260158E-30
  -74.2531967       2.98968575E-29
  -74.1381989       2.20235530E-28
  -74.0232010       1.13703110E-27
  -73.9082031       4.60988165E-27
  -73.7931976       1.55965135E-26
  -73.6781998       4.57016273E-26
  -73.5632019       1.18868014E-25
  -73.4481964       2.79102193E-25
  -73.3331985       5.98581837E-25
  -73.2182007       1.18184883E-24
  -73.1032028       2.15796805E-24
  -72.9881973       3.64784941E-24
  -72.8731995       5.68924079E-24
  -72.7582016       8.09859594E-24
  -72.6432037       1.02490410E-23
  -72.5281982       1.07490968E-23
  -72.4132004       7.01963301E-24
  -72.2982025      -5.21229351E-24
  -72.1831970      -3.24545959E-23
  -72.0681992      -8.39430676E-23
  -71.9532013      -1.71966300E-22
  -71.8382034      -3.11872107E-22
  -71.7231979      -5.21588015E-22
  -71.6082001      -8.20494960E-22
  -71.4932022      -1.22752967E-21
  -71.3781967      -1.75846502E-21
  -71.2631989      -2.42242306E-21
  -71.1482010      -3.21781457E-21
  -71.0332031      -4.12804404E-21
  -70.9181976      -5.11746514E-21
  -70.8031998      -6.12817120E-21
  -70.6882019      -7.07825316E-21
  -70.5731964      -7.86209727E-21
  -70.4581985      -8.35315578E-21
  -70.3432007      -8.40932813E-21
  -70.2282028      -7.88074276E-21
  -70.1131973      -6.61928869E-21
  -69.9981995      -4.48880586E-21
  -69.8832016      -1.37448620E-21
  -69.7682037       2.81020335E-21
  -69.6531982       8.12075115E-21
  -69.5382004       1.45843849E-20
  -69.4232025       2.22092259E-20
  -69.3081970       3.09997244E-20
  -69.1931992       4.09772286E-20
  -69.0782013       5.22033071E-20
  -68.9632034       6.48023567E-20
  -68.8481979       7.89792049E-20
  -68.7332001       9.50269870E-20
  -68.6182022       1.13321094E-19
  -68.5031967       1.34295823E-19
  -68.3881989       1.58402412E-19
  -68.2732010       1.86049890E-19
  -68.1582031       2.17532759E-19
  -68.0431976       2.52953356E-19
  -67.9281998       2.92148819E-19
  -67.8132019       3.34635219E-19
  -67.6981964       3.79581422E-19
  -67.5831985       4.25823971E-19
  -67.4682007       4.71932027E-19
  -67.3532028       5.16324122E-19
  -67.2381973       5.57433396E-19
  -67.1231995       5.93909062E-19
  -67.0082016       6.24832951E-19
  -66.8932037       6.49924493E-19
  -66.7781982       6.69700520E-19
  -66.6632004       6.85557262E-19
  -66.5482025       6.99743203E-19
  -66.4331970       7.15201761E-19
  -66.3181992       7.35275108E-19
  -66.2032013       7.63280393E-19
  -66.0882034       8.01986966E-19
  -65.9731979       8.53049239E-19
  -65.8582001       9.16463386E-19
  -65.7432022       9.90131678E-19
  -65.6281967       1.06962146E-18
  -65.5131989       1.14819628E-18
  -65.3982010       1.21717745E-18
  -65.2832031       1.26665929E-18
  -65.1681976       1.28655764E-18
  -65.0531998       1.26791775E-18
  -64.9382019       1.20435708E-18
  -64.8231964       1.09347156E-18
  -64.7081985       9.38000894E-19
  -64.5932007       7.46537379E-19
  -64.4782028       5.33582987E-19
  -64.3631973       3.18804145E-19
  -64.2481995       1.25415483E-19
  -64.1332016      -2.22706215E-20
  -64.0182037      -1.01969294E-19
  -63.9031982      -9.69371538E-20
  -63.7882004       5.25160482E-22
  -63.6731987       1.86064986E-19
  -63.5582008       4.41280126E-19
  -63.4431992       7.33221787E-19
  -63.3282013       1.01578679E-18
  -63.2131996       1.23321928E-18
  -63.0982018       1.32570810E-18
  -62.9832001       1.23678732E-18
  -62.8681984       9.21957520E-19
  -62.7532005       3.57664392E-19
  -62.6381989      -4.50447251E-19
  -62.5232010      -1.46121341E-18
  -62.4081993      -2.59477914E-18
  -62.2932014      -3.73364182E-18
  -62.1781998      -4.72867971E-18
  -62.0632019      -5.41048540E-18
  -61.9482002      -5.60576083E-18
  -61.8331985      -5.15789381E-18
  -61.7182007      -3.95018075E-18
  -61.6031990      -1.92956959E-18
  -61.4882011       8.71663077E-19
  -61.3731995       4.31913680E-18
  -61.2582016       8.16732742E-18
  -61.1431999       1.20607739E-17
  -61.0281982       1.55474171E-17
  -60.9132004       1.81050133E-17
  -60.7981987       1.91803944E-17
  -60.6832008       1.82399645E-17
  -60.5681992       1.48284665E-17
  -60.4532013       8.63163052E-18
  -60.3381996      -4.62706947E-19
  -60.2232018      -1.23112781E-17
  -60.1082001      -2.64763524E-17
  -59.9931984      -4.22071918E-17
  -59.8782005      -5.84473049E-17
  -59.7631989      -7.38711727E-17
  -59.6482010      -8.69520415E-17
  -59.5331993      -9.60596507E-17
  -59.4182014      -9.95840357E-17
  -59.3031998      -9.60783781E-17
  -59.1882019      -8.44113463E-17
  -59.0732002      -6.39170069E-17
  -58.9581985      -3.45288944E-17
  -58.8432007       3.11541448E-18
  -58.7281990       4.76125359E-17
  -58.6132011       9.67851940E-17
  -58.4981995       1.47735781E-16
  -58.3832016       1.96965071E-16
  -58.2681999       2.40554339E-16
  -58.1531982       2.74403761E-16
  -58.0382004       2.94513806E-16
  -57.9231987       2.97292233E-16
  -57.8082008       2.79864080E-16
  -57.6931992       2.40360395E-16
  -57.5782013       1.78160569E-16
  -57.4631996       9.40649345E-17
  -57.3482018      -9.62236625E-18
  -57.2332001      -1.29113841E-16
  -57.1181984      -2.59268341E-16
  -57.0032005      -3.93828048E-16
  -56.8881989      -5.25750280E-16
  -56.7732010      -6.47614075E-16
  -56.6581993      -7.52073619E-16
  -56.5432014      -8.32324220E-16
  -56.4281998      -8.82546127E-16
  -56.3132019      -8.98288711E-16
  -56.1982002      -8.76764810E-16
  -56.0831985      -8.17029823E-16
  -55.9682007      -7.20029833E-16
  -55.8531990      -5.88516268E-16
  -55.7382011      -4.26835890E-16
  -55.6231995      -2.40617708E-16
  -55.5082016      -3.63879068E-17
  -55.3931999       1.78846719E-16
  -55.2781982       3.98003947E-16
  -55.1632004       6.14277558E-16
  -55.0481987       8.21396172E-16
  -54.9332008       1.01376492E-15
  -54.8181992       1.18647420E-15
  -54.7032013       1.33518111E-15
  -54.5881996       1.45588266E-15
  -54.4732018       1.54462059E-15
  -54.3582001       1.59716829E-15
  -54.2431984       1.60876248E-15
  -54.1282005       1.57394233E-15
  -54.0131989       1.48655786E-15
  -53.8982010       1.33999342E-15
  -53.7831993       1.12763580E-15
  -53.6682014       8.43587641E-16
  -53.5531998       4.83597791E-16
  -53.4382019       4.61492137E-17
  -53.3232002      -4.66388887E-16
  -53.2081985      -1.04665871E-15
  -53.0932007      -1.68139661E-15
  -52.9781990      -2.35083978E-15
  -52.8632011      -3.02858684E-15
  -52.7481995      -3.68202385E-15
  -52.6332016      -4.27338540E-15
  -52.5181999      -4.76147205E-15
  -52.4031982      -5.10399099E-15
  -52.2882004      -5.26041003E-15
  -52.1731987      -5.19516393E-15
  -52.0582008      -4.88098374E-15
  -51.9431992      -4.30207314E-15
  -51.8282013      -3.45684035E-15
  -51.7131996      -2.35986365E-15
  -51.5982018      -1.04282377E-15
  -51.4832001       4.45844315E-16
  -51.3681984       2.04273600E-15
  -51.2532005       3.67275561E-15
  -51.1381989       5.25383536E-15
  -51.0232010       6.70291222E-15
  -50.9081993       7.94284902E-15
  -50.7932014       8.90988282E-15
  -50.6781998       9.56107667E-15
  -50.5632019       9.88120007E-15
  -50.4482002       9.88843203E-15
  -50.3331985       9.63830829E-15
  -50.2182007       9.22540090E-15
  -50.1031990       8.78233745E-15
  -49.9882011       8.47592497E-15
  -49.8731995       8.50033138E-15
  -49.7582016       9.06748939E-15
  -49.6431999       1.03951144E-14
  -49.5281982       1.26929268E-14
  -49.4132004       1.61478463E-14
  -49.2981987       2.09090795E-14
  -49.1832008       2.70741173E-14
  -49.0681992       3.46766276E-14
  -48.9532013       4.36772370E-14
  -48.8381996       5.39580418E-14
  -48.7232018       6.53215072E-14
  -48.6082001       7.74941363E-14
  -48.4931984       9.01350189E-14
  -48.3782005       1.02849099E-13
  -48.2631989       1.15204545E-13
  -48.1482010       1.26753425E-13
  -48.0331993       1.37054620E-13
  -47.9182014       1.45697487E-13
  -47.8031998       1.52325120E-13
  -47.6882019       1.56655410E-13
  -47.5732002       1.58498635E-13
  -47.4581985       1.57770349E-13
  -47.3432007       1.54498403E-13
  -47.2281990       1.48823445E-13
  -47.1132011       1.40992524E-13
  -46.9981995       1.31346025E-13
  -46.8832016       1.20298262E-13
  -46.7681999       1.08312651E-13
  -46.6531982       9.58729488E-14
  -46.5382004       8.34520170E-14
  -46.4231987       7.14798500E-14
  -46.3082008       6.03130284E-14
  -46.1931992       5.02073663E-14
  -46.0782013       4.12955430E-14
  -45.9631996       3.35715071E-14
  -45.8482018       2.68826844E-14
  -45.7332001       2.09310430E-14
  -45.6181984       1.52832916E-14
  -45.5032005       9.39002514E-15
  -45.3881989       2.61327812E-15
  -45.2732010      -5.73877739E-15
  -45.1581993      -1.63715748E-14
  -45.0432014      -2.99604498E-14
  -44.9281998      -4.71055452E-14
  -44.8132019      -6.82881282E-14
  -44.6982002      -9.38305423E-14
  -44.5831985      -1.23862346E-13
  -44.4682007      -1.58294818E-13
  -44.3531990      -1.96805557E-13
  -44.2382011      -2.38834668E-13
  -44.1231995      -2.83593244E-13
  -44.0082016      -3.30084321E-13
  -43.8931999      -3.77135877E-13
  -43.7781982      -4.23444699E-13
  -43.6632004      -4.67629136E-13
  -43.5481987      -5.08288778E-13
  -43.4332008      -5.44067937E-13
  -43.3181992      -5.73719837E-13
  -43.2032013      -5.96168243E-13
  -43.0881996      -6.10563412E-13
  -42.9732018      -6.16328494E-13
  -42.8582001      -6.13194554E-13
  -42.7431984      -6.01221492E-13
  -42.6282005      -5.80802875E-13
  -42.5131989      -5.52654710E-13
  -42.3982010      -5.17787853E-13
  -42.2831993      -4.77464531E-13
  -42.1682014      -4.33142183E-13
  -42.0531998      -3.86405968E-13
  -41.9382019      -3.38894359E-13
  -41.8232002      -2.92221298E-13
  -41.7081985      -2.47899574E-13
  -41.5932007      -2.07269545E-13
  -41.4781990      -1.71437612E-13
  -41.3632011      -1.41228256E-13
  -41.2481995      -1.17152829E-13
  -41.1332016      -9.93974055E-14
  -41.0181999      -8.78304794E-14
  -40.9031982      -8.20314547E-14
  -40.7882004      -8.13375856E-14
  -40.6731987      -8.49079176E-14
  -40.5582008      -9.18001162E-14
  -40.4431992      -1.01056038E-13
  -40.3282013      -1.11790738E-13
  -40.2131996      -1.23279411E-13
  -40.0982018      -1.35036798E-13
  -39.9832001      -1.46883157E-13
  -39.8681984      -1.58992828E-13
  -39.7532005      -1.71920841E-13
  -39.6381989      -1.86605167E-13
  -39.5232010      -2.04343622E-13
  -39.4081993      -2.26744974E-13
  -39.2932014      -2.55657014E-13
  -39.1781998      -2.93073915E-13
  -39.0632019      -3.41028096E-13
  -38.9482002      -4.01472096E-13
  -38.8331985      -4.76156929E-13
  -38.7182007      -5.66513741E-13
  -38.6031990      -6.73545746E-13
  -38.4882011      -7.97736551E-13
  -38.3731995      -9.38980772E-13
  -38.2582016      -1.09654104E-12
  -38.1431999      -1.26903501E-12
  -38.0281982      -1.45445288E-12
  -37.9132004      -1.65020493E-12
  -37.7981987      -1.85319837E-12
  -37.6832008      -2.05993707E-12
  -37.5681992      -2.26664282E-12
  -37.4532013      -2.46938689E-12
  -37.3381996      -2.66422973E-12
  -37.2232018      -2.84735755E-12
  -37.1082001      -3.01521134E-12
  -36.9931984      -3.16460161E-12
  -36.8782005      -3.29279898E-12
  -36.7631989      -3.39760338E-12
  -36.6482010      -3.47738244E-12
  -36.5331993      -3.53108254E-12
  -36.4182014      -3.55820928E-12
  -36.3031998      -3.55878369E-12
  -36.1882019      -3.53327437E-12
  -36.0732002      -3.48251376E-12
  -35.9581985      -3.40760189E-12
  -35.8432007      -3.30980555E-12
  -35.7281990      -3.19046200E-12
  -35.6132011      -3.05088832E-12
  -35.4981995      -2.89230640E-12
  -35.3832016      -2.71578940E-12
  -35.2681999      -2.52222765E-12
  -35.1531982      -2.31232394E-12
  -35.0382004      -2.08661062E-12
  -34.9231987      -1.84549229E-12
  -34.8082008      -1.58931136E-12
  -34.6931992      -1.31842855E-12
  -34.5782013      -1.03331579E-12
  -34.4631996      -7.34654742E-13
  -34.3482018      -4.23432502E-13
  -34.2332001      -1.01030099E-13
  -34.1181984       2.30705646E-13
  -34.0032005       5.69411163E-13
  -33.8881989       9.12183306E-13
  -33.7732010       1.25558602E-12
  -33.6581993       1.59569081E-12
  -33.5432014       1.92815165E-12
  -33.4281998       2.24831178E-12
  -33.3132019       2.55134087E-12
  -33.1982002       2.83239773E-12
  -33.0831985       3.08681141E-12
  -32.9682007       3.31027805E-12
  -32.8531990       3.49905413E-12
  -32.7382011       3.65015396E-12
  -32.6231995       3.76152234E-12
  -32.5082016       3.83219411E-12
  -32.3931999       3.86241646E-12
  -32.2781982       3.85373244E-12
  -32.1632004       3.80902428E-12
  -32.0481987       3.73250302E-12
  -31.9332008       3.62965300E-12
  -31.8181992       3.50712341E-12
  -31.7031994       3.37257414E-12
  -31.5881996       3.23447779E-12
  -31.4731998       3.10188789E-12
  -31.3582001       2.98417497E-12
  -31.2432003       2.89075166E-12
  -31.1282005       2.83078509E-12
  -31.0132008       2.81291830E-12
  -30.8981991       2.84500548E-12
  -30.7831993       2.93387471E-12
  -30.6681995       3.08512504E-12
  -30.5531998       3.30296879E-12
  -30.4382000       3.59012169E-12
  -30.3232002       3.94774881E-12
  -30.2082005       4.37545876E-12
  -30.0932007       4.87135375E-12
  -29.9782009       5.43212350E-12
  -29.8631992       6.05318183E-12
  -29.7481995       6.72883624E-12
  -29.6331997       7.45247787E-12
  -29.5181999       8.21678576E-12
  -29.4032001       9.01393370E-12
  -29.2882004       9.83578757E-12
  -29.1732006       1.06740831E-11
  -29.0582008       1.15205900E-11
  -28.9431992       1.23672322E-11
  -28.8281994       1.32061879E-11
  -28.7131996       1.40299447E-11
  -28.5981998       1.48313393E-11
  -28.4832001       1.56035549E-11
  -28.3682003       1.63401046E-11
  -28.2532005       1.70347989E-11
  -28.1382008       1.76817103E-11
  -28.0231991       1.82751366E-11
  -27.9081993       1.88095754E-11
  -27.7931995       1.92797167E-11
  -27.6781998       1.96804656E-11
  -27.5632000       2.00069770E-11
  -27.4482002       2.02547302E-11
  -27.3332005       2.04196330E-11
  -27.2182007       2.04981362E-11
  -27.1032009       2.04873792E-11
  -26.9881992       2.03853375E-11
  -26.8731995       2.01909739E-11
  -26.7581997       1.99043889E-11
  -26.6431999       1.95269374E-11
  -26.5282001       1.90613202E-11
  -26.4132004       1.85116505E-11
  -26.2982006       1.78834534E-11
  -26.1832008       1.71836330E-11
  -26.0681992       1.64203668E-11
  -25.9531994       1.56029686E-11
  -25.8381996       1.47416697E-11
  -25.7231998       1.38473842E-11
  -25.6082001       1.29314085E-11
  -25.4932003       1.20051087E-11
  -25.3782005       1.10795808E-11
  -25.2632008       1.01653113E-11
  -25.1481991       9.27184631E-12
  -25.0331993       8.40747697E-12
  -24.9181995       7.57896957E-12
  -24.8031998       6.79133616E-12
  -24.6882000       6.04766194E-12
  -24.5732002       5.34899599E-12
  -24.4582005       4.69431742E-12
  -24.3432007       4.08056531E-12
  -24.2282009       3.50274410E-12
  -24.1131992       2.95409639E-12
  -23.9981995       2.42633236E-12
  -23.8831997       1.90992079E-12
  -23.7681999       1.39441052E-12
  -23.6532001       8.68796517E-13
  -23.5382004       3.21892523E-13
  -23.4232006      -2.57290608E-13
  -23.3082008      -8.79173036E-13
  -23.1931992      -1.55326468E-12
  -23.0781994      -2.28785025E-12
  -22.9631996      -3.08972639E-12
  -22.8481998      -3.96399580E-12
  -22.7332001      -4.91391563E-12
  -22.6182003      -5.94081381E-12
  -22.5032005      -7.04407453E-12
  -22.3882008      -8.22118155E-12
  -22.2731991      -9.46783190E-12
  -22.1581993      -1.07780850E-11
  -22.0431995      -1.21445796E-11
  -21.9281998      -1.35587592E-11
  -21.8132000      -1.50111468E-11
  -21.6982002      -1.64916084E-11
  -21.5832005      -1.79896254E-11
  -21.4682007      -1.94945431E-11
  -21.3532009      -2.09958179E-11
  -21.2381992      -2.24831924E-11
  -21.1231995      -2.39468705E-11
  -21.0081997      -2.53776167E-11
  -20.8931999      -2.67668353E-11
  -20.7782001      -2.81065830E-11
  -20.6632004      -2.93895533E-11
  -20.5482006      -3.06090188E-11
  -20.4332008      -3.17587658E-11
  -20.3181992      -3.28329794E-11
  -20.2031994      -3.38261780E-11
  -20.0881996      -3.47330810E-11
  -19.9731998      -3.55485780E-11
  -19.8582001      -3.62676451E-11
  -19.7432003      -3.68853628E-11
  -19.6282005      -3.73969258E-11
  -19.5132008      -3.77977268E-11
  -19.3981991      -3.80834392E-11
  -19.2831993      -3.82501947E-11
  -19.1681995      -3.82947285E-11
  -19.0531998      -3.82145877E-11
  -18.9382000      -3.80083118E-11
  -18.8232002      -3.76756369E-11
  -18.7082005      -3.72176456E-11
  -18.5932007      -3.66369157E-11
  -18.4782009      -3.59375897E-11
  -18.3631992      -3.51254130E-11
  -18.2481995      -3.42076853E-11
  -18.1331997      -3.31931635E-11
  -18.0181999      -3.20918882E-11
  -17.9032001      -3.09149338E-11
  -17.7882004      -2.96741347E-11
  -17.6732006      -2.83817327E-11
  -17.5582008      -2.70500254E-11
  -17.4431992      -2.56909702E-11
  -17.3281994      -2.43158237E-11
  -17.2131996      -2.29347808E-11
  -17.0981998      -2.15566714E-11
  -16.9832001      -2.01887049E-11
  -16.8682003      -1.88362746E-11
  -16.7532005      -1.75028620E-11
  -16.6382008      -1.61900077E-11
  -16.5231991      -1.48973681E-11
  -16.4081993      -1.36228685E-11
  -16.2931995      -1.23629058E-11
  -16.1781998      -1.11126421E-11
  -16.0632000      -9.86632737E-12
  -15.9482002      -8.61766561E-12
  -15.8332005      -7.36019058E-12
  -15.7181997      -6.08764211E-12
  -15.6032000      -4.79432076E-12
  -15.4882002      -3.47540117E-12
  -15.3732004      -2.12720098E-12
  -15.2581997      -7.47384522E-13
  -15.1431999       6.64902703E-13
  -15.0282001       2.10897207E-12
  -14.9132004       3.58259754E-12
  -14.7981997       5.08209620E-12
  -14.6831999       6.60246033E-12
  -14.5682001       8.13754446E-12
  -14.4532003       9.68028522E-12
  -14.3381996       1.12229427E-11
  -14.2231998       1.27573533E-11
  -14.1082001       1.42751679E-11
  -13.9932003       1.57680726E-11
  -13.8781996       1.72279777E-11
  -13.7631998       1.86471637E-11
  -13.6482000       2.00183793E-11
  -13.5332003       2.13348870E-11
  -13.4181995       2.25904712E-11
  -13.3031998       2.37793795E-11
  -13.1882000       2.48962448E-11
  -13.0732002       2.59359721E-11
  -12.9582005       2.68936019E-11
  -12.8431997       2.77641833E-11
  -12.7282000       2.85426370E-11
  -12.6132002       2.92236652E-11
  -12.4982004       2.98016681E-11
  -12.3831997       3.02707304E-11
  -12.2681999       3.06246417E-11
  -12.1532001       3.08569802E-11
  -12.0382004       3.09612475E-11
  -11.9231997       3.09310737E-11
  -11.8081999       3.07604428E-11
  -11.6932001       3.04439876E-11
  -11.5782003       2.99772880E-11
  -11.4631996       2.93572007E-11
  -11.3481998       2.85821575E-11
  -11.2332001       2.76524706E-11
  -11.1182003       2.65705947E-11
  -11.0031996       2.53413106E-11
  -10.8881998       2.39718748E-11
  -10.7732000       2.24720641E-11
  -10.6582003       2.08541483E-11
  -10.5431995       1.91327613E-11
  -10.4281998       1.73246782E-11
  -10.3132000       1.54485192E-11
  -10.1982002       1.35243492E-11
  -10.0832005       1.15732259E-11
  -9.96819973       9.61668679E-12
  -9.85319996       7.67619648E-12
  -9.73820019       5.77258337E-12
  -9.62320042       3.92547410E-12
  -9.50819969       2.15276104E-12
  -9.39319992       4.70102527E-13
  -9.27820015      -1.10949975E-12
  -9.16320038      -2.57605157E-12
  -9.04819965      -3.92282387E-12
  -8.93319988      -5.14650215E-12
  -8.81820011      -6.24723363E-12
  -8.70320034      -7.22856150E-12
  -8.58819962      -8.09725637E-12
  -8.47319984      -8.86304485E-12
  -8.35820007      -9.53824866E-12
  -8.24320030      -1.01373528E-11
  -8.12819958      -1.06765144E-11
  -8.01319981      -1.11730182E-11
  -7.89820004      -1.16447295E-11
  -7.78319979      -1.21095165E-11
  -7.66820002      -1.25847093E-11
  -7.55320024      -1.30865666E-11
  -7.43820000      -1.36297978E-11
  -7.32320023      -1.42271334E-11
  -7.20819998      -1.48889564E-11
  -7.09320021      -1.56229994E-11
  -6.97819996      -1.64341197E-11
  -6.86320019      -1.73241387E-11
  -6.74819994      -1.82917449E-11
  -6.63320017      -1.93324662E-11
  -6.51819992      -2.04387011E-11
  -6.40320015      -2.15997862E-11
  -6.28819990      -2.28021282E-11
  -6.17320013      -2.40293584E-11
  -6.05819988      -2.52625195E-11
  -5.94320011      -2.64802919E-11
  -5.82819986      -2.76592221E-11
  -5.71320009      -2.87740040E-11
  -5.59819984      -2.97977476E-11
  -5.48320007      -3.07023122E-11
  -5.36819983      -3.14586308E-11
  -5.25320005      -3.20370917E-11
  -5.13819981      -3.24079340E-11
  -5.02320004      -3.25417054E-11
  -4.90819979      -3.24097242E-11
  -4.79320002      -3.19846163E-11
  -4.67820024      -3.12408502E-11
  -4.56320000      -3.01553366E-11
  -4.44820023      -2.87080134E-11
  -4.33319998      -2.68824893E-11
  -4.21820021      -2.46666229E-11
  -4.10319996      -2.20531284E-11
  -3.98819995      -1.90401167E-11
  -3.87319994      -1.56315828E-11
  -3.75819993      -1.18378076E-11
  -3.64319992      -7.67565872E-12
  -3.52819991      -3.16876733E-12
  -3.41319990       1.65243275E-12
  -3.29820013       6.75082386E-12
  -3.18320012       1.20828859E-11
  -3.06820011       1.75991288E-11
  -2.95320010       2.32447100E-11
  -2.83820009       2.89601971E-11
  -2.72320008       3.46824791E-11
  -2.60820007       4.03457892E-11
  -2.49320006       4.58828670E-11
  -2.37820005       5.12261275E-11
  -2.26320004       5.63089367E-11
  -2.14820004       6.10668668E-11
  -2.03320003       6.54388974E-11
  -1.91820002       6.93686220E-11
  -1.80320001       7.28052688E-11
  -1.68820000       7.57047064E-11
  -1.57319999       7.80302142E-11
  -1.45819998       7.97531485E-11
  -1.34319997       8.08533934E-11
  -1.22819996       8.13196593E-11
  -1.11320007       8.11495593E-11
 -0.998199999       8.03495465E-11
 -0.883199990       7.89346574E-11
 -0.768200040       7.69281028E-11
 -0.653200030       7.43607259E-11
 -0.538200021       7.12703577E-11
 -0.423200011       6.77010531E-11
 -0.308200002       6.37022657E-11
 -0.193200007       5.93280008E-11
  -7.82000124E-02   5.46359034E-11
   3.67999896E-02   4.96863557E-11
  0.151799992       4.45415822E-11
  0.266799986       3.92647651E-11
  0.381799996       3.39192043E-11
  0.496799976       2.85675199E-11
  0.611800015       2.32708783E-11
  0.726799965       1.80882930E-11
  0.841799974       1.30759683E-11
  0.956799984       8.28669858E-12
   1.07179999       3.76933380E-12
   1.18680000      -4.31701712E-13
   1.30180001      -4.27683193E-12
   1.41680002      -7.73166774E-12
   1.53180003      -1.07672985E-11
   1.64680004      -1.33605097E-11
   1.76179993      -1.54939065E-11
   1.87679994      -1.71559954E-11
   1.99179995      -1.83411585E-11
   2.10680008      -1.90495709E-11
   2.22180009      -1.92870459E-11
   2.33680010      -1.90647862E-11
   2.45179987      -1.83990895E-11
   2.56679988      -1.73109964E-11
   2.68179989      -1.58258632E-11
   2.79679990      -1.39729192E-11
   2.91179991      -1.17847771E-11
   3.02679992      -9.29692261E-12
   3.14179993      -6.54719855E-12
   3.25679994      -3.57528048E-12
   3.37179995      -4.22162874E-13
   3.48679996       2.87033591E-12
   3.60179996       6.26005714E-12
   3.71679997       9.70494258E-12
   3.83179998       1.31634538E-11
   3.94679999       1.65949633E-11
   4.06180000       1.99600995E-11
   4.17679977       2.32210536E-11
   4.29180002       2.63418714E-11
   4.40679979       2.92886757E-11
   4.52180004       3.20298753E-11
   4.63679981       3.45363356E-11
   4.75180006       3.67814910E-11
   4.86679983       3.87414441E-11
   4.98180008       4.03949964E-11
   5.09679985       4.17236731E-11
   5.21180010       4.27116814E-11
   5.32679987       4.33458373E-11
   5.44180012       4.36154793E-11
   5.55679989       4.35123292E-11
   5.67180014       4.30303328E-11
   5.78679991       4.21655107E-11
   5.90180016       4.09157881E-11
   6.01679993       3.92808321E-11
   6.13180017       3.72619123E-11
   6.24679995       3.48618114E-11
   6.36180019       3.20847342E-11
   6.47679996       2.89363238E-11
   6.59180021       2.54236927E-11
   6.70679998       2.15555282E-11
   6.82179976       1.73422648E-11
   6.93680000       1.27963005E-11
   7.05179977       7.93225815E-12
   7.16680002       2.76728011E-12
   7.28179979      -2.67866914E-12
   7.39680004      -8.38250042E-12
   7.51179981      -1.43177354E-11
   7.62680006      -2.04542720E-11
   7.74179983      -2.67582692E-11
   7.85680008      -3.31920672E-11
   7.97179985      -3.97142388E-11
   8.08679962      -4.62797647E-11
   8.20180035      -5.28403224E-11
   8.31680012      -5.93446889E-11
   8.43179989      -6.57392682E-11
   8.54679966      -7.19686949E-11
   8.66180038      -7.79765488E-11
   8.77680016      -8.37061392E-11
   8.89179993      -8.91012403E-11
   9.00679970      -9.41069445E-11
   9.12180042      -9.86704329E-11
   9.23680019      -1.02741704E-10
   9.35179996      -1.06274260E-10
   9.46679974      -1.09225726E-10
   9.58180046      -1.11558311E-10
   9.69680023      -1.13239307E-10
   9.81180000      -1.14241359E-10
   9.92679977      -1.14542764E-10
   10.0417995      -1.14127610E-10
   10.1568003      -1.12985954E-10
   10.2718000      -1.11113917E-10
   10.3867998      -1.08513733E-10
   10.5017996      -1.05193874E-10
   10.6168003      -1.01169129E-10
   10.7318001      -9.64607491E-11
   10.8467999      -9.10965609E-11
   10.9617996      -8.51111473E-11
   11.0768003      -7.85460308E-11
   11.1918001      -7.14498183E-11
   11.3067999      -6.38783401E-11
   11.4217997      -5.58947298E-11
   11.5368004      -4.75693998E-11
   11.6518002      -3.89798992E-11
   11.7667999      -3.02106187E-11
   11.8817997      -2.13523348E-11
   11.9968004      -1.25015363E-11
   12.1118002      -3.75956948E-12
   12.2268000       4.76847208E-12
   12.3417997       1.29750160E-11
   12.4568005       2.07514943E-11
   12.5718002       2.79899940E-11
   12.6868000       3.45850501E-11
   12.8017998       4.04355091E-11
   12.9167995       4.54464348E-11
   13.0318003       4.95310529E-11
   13.1468000       5.26125671E-11
   13.2617998       5.46259322E-11
   13.3767996       5.55194293E-11
   13.4918003       5.52560463E-11
   13.6068001       5.38146437E-11
   13.7217999       5.11907947E-11
   13.8367996       4.73974228E-11
   13.9518003       4.24650315E-11
   14.0668001       3.64417142E-11
   14.1817999       2.93928250E-11
   14.2967997       2.14003450E-11
   14.4118004       1.25620079E-11
   14.5268002       2.99015218E-12
   14.6417999      -7.18962563E-12
   14.7567997      -1.78400489E-11
   14.8718004      -2.88138680E-11
   14.9868002      -3.99557297E-11
   15.1018000      -5.11041279E-11
   15.2167997      -6.20934693E-11
   15.3318005      -7.27561830E-11
   15.4468002      -8.29248267E-11
   15.5618000      -9.24343033E-11
   15.6767998      -1.01123970E-10
   15.7917995      -1.08839798E-10
   15.9068003      -1.15436473E-10
   16.0217991      -1.20779428E-10
   16.1368008      -1.24746824E-10
   16.2518005      -1.27231434E-10
   16.3668003      -1.28142413E-10
   16.4818001      -1.27406918E-10
   16.5967999      -1.24971589E-10
   16.7117996      -1.20803853E-10
   16.8267994      -1.14892929E-10
   16.9417992      -1.07250750E-10
   17.0568008      -9.79124420E-11
   17.1718006      -8.69366523E-11
   17.2868004      -7.44054679E-11
   17.4018002      -6.04240477E-11
   17.5167999      -4.51199009E-11
   17.6317997      -2.86417903E-11
   17.7467995      -1.11582991E-11
   17.8617992       7.14397855E-12
   17.9768009       2.60625306E-11
   18.0918007       4.53814313E-11
   18.2068005       6.48740575E-11
   18.3218002       8.43060621E-11
   18.4368000       1.03438605E-10
   18.5517998       1.22031690E-10
   18.6667995       1.39847592E-10
   18.7817993       1.56654453E-10
   18.8967991       1.72229592E-10
   19.0118008       1.86363050E-10
   19.1268005       1.98860720E-10
   19.2418003       2.09547393E-10
   19.3568001       2.18269514E-10
   19.4717999       2.24897517E-10
   19.5867996       2.29327973E-10
   19.7017994       2.31485123E-10
   19.8167992       2.31322017E-10
   19.9318008       2.28821295E-10
   20.0468006       2.23995322E-10
   20.1618004       2.16885995E-10
   20.2768002       2.07563911E-10
   20.3917999       1.96127323E-10
   20.5067997       1.82700424E-10
   20.6217995       1.67431458E-10
   20.7367992       1.50490384E-10
   20.8518009       1.32066372E-10
   20.9668007       1.12364992E-10
   21.0818005       9.16052928E-11
   21.1968002       7.00168326E-11
   21.3118000       4.78365715E-11
   21.4267998       2.53059015E-11
   21.5417995       2.66767294E-12
   21.6567993      -1.98366254E-11
   21.7717991      -4.19695355E-11
   21.8868008      -6.35001149E-11
   22.0018005      -8.42062461E-11
   22.1168003      -1.03876657E-10
   22.2318001      -1.22312813E-10
   22.3467999      -1.39330478E-10
   22.4617996      -1.54761190E-10
   22.5767994      -1.68453404E-10
   22.6917992      -1.80273449E-10
   22.8068008      -1.90106486E-10
   22.9218006      -1.97857009E-10
   23.0368004      -2.03449438E-10
   23.1518002      -2.06828388E-10
   23.2667999      -2.07958928E-10