  -37.8452110         0.00000000    
  -37.7264595         0.00000000    
  -37.6077118         0.00000000    
  -37.4889603         0.00000000    
  -37.3702126         0.00000000    
  -37.2514610         0.00000000    
  -37.1327095        -2.98885739E-35
  -37.0139618         2.05140691E-30
  -36.8952103         2.65573492E-29
  -36.7764626         1.80580909E-28
  -36.6577110         8.45665439E-28
  -36.5389595         3.03684717E-27
  -36.4202118         8.78939884E-27
  -36.3014603         2.08761392E-26
  -36.1827126         3.99993124E-26
  -36.0639610         5.57266813E-26
  -35.9452095         2.49421070E-26
  -35.8264618        -1.71037962E-25
  -35.7077103        -8.01313025E-25
  -35.5889626        -2.40244769E-24
  -35.4702110        -5.94395332E-24
  -35.3514595        -1.30397098E-23
  -35.2327118        -2.61891849E-23
  -35.1139603        -4.90148658E-23
  -34.9952126        -8.64436241E-23
  -34.8764610        -1.44764319E-22
  -34.7577095        -2.31485793E-22
  -34.6389618        -3.54924778E-22
  -34.5202103        -5.23474314E-22
  -34.4014626        -7.44541564E-22
  -34.2827110        -1.02319647E-21
  -34.1639595        -1.36063678E-21
  -34.0452118        -1.75263254E-21
  -33.9264603        -2.18816414E-21
  -33.8077126        -2.64848833E-21
  -33.6889610        -3.10685867E-21
  -33.5702095        -3.52905784E-21
  -33.4514618        -3.87481328E-21
  -33.3327103        -4.10001764E-21
  -33.2139626        -4.15952133E-21
  -33.0952110        -4.01008760E-21
  -32.9764595        -3.61299728E-21
  -32.8577118        -2.93567591E-21
  -32.7389603        -1.95175184E-21
  -32.6202126        -6.39064777E-22
  -32.5014610         1.02464585E-21
  -32.3827095         3.06828572E-21
  -32.2639618         5.53571319E-21
  -32.1452103         8.49488317E-21
  -32.0264626         1.20465035E-20
  -31.9077110         1.63305745E-20
  -31.7889614         2.15290217E-20
  -31.6702118         2.78627808E-20
  -31.5514603         3.55820109E-20
  -31.4327106         4.49487974E-20
  -31.3139610         5.62126418E-20
  -31.1952114         6.95800873E-20
  -31.0764618         8.51810691E-20
  -30.9577103         1.03035543E-19
  -30.8389606         1.23025138E-19
  -30.7202110         1.44874506E-19
  -30.6014614         1.68147155E-19
  -30.4827118         1.92260026E-19
  -30.3639603         2.16518351E-19
  -30.2452106         2.40171555E-19
  -30.1264610         2.62486484E-19
  -30.0077114         2.82832309E-19
  -29.8889618         3.00767963E-19
  -29.7702103         3.16120228E-19
  -29.6514606         3.29040686E-19
  -29.5327110         3.40027713E-19
  -29.4139614         3.49904456E-19
  -29.2952118         3.59745992E-19
  -29.1764603         3.70755043E-19
  -29.0577106         3.84094131E-19
  -28.9389610         4.00687013E-19
  -28.8202114         4.21012262E-19
  -28.7014618         4.44914447E-19
  -28.5827103         4.71461568E-19
  -28.4639606         4.98875316E-19
  -28.3452110         5.24554983E-19
  -28.2264614         5.45204771E-19
  -28.1077118         5.57062147E-19
  -27.9889603         5.56210099E-19
  -27.8702106         5.38942704E-19
  -27.7514610         5.02145471E-19
  -27.6327114         4.43644518E-19
  -27.5139618         3.62483573E-19
  -27.3952103         2.59097732E-19
  -27.2764606         1.35366621E-19
  -27.1577110        -5.45238322E-21
  -27.0389614        -1.58890668E-19
  -26.9202118        -3.19504793E-19
  -26.8014603        -4.81150024E-19
  -26.6827106        -6.37262477E-19
  -26.5639610        -7.81142531E-19
  -26.4452114        -9.06256701E-19
  -26.3264618        -1.00660136E-18
  -26.2077103        -1.07719099E-18
  -26.0889606        -1.11473744E-18
  -25.9702110        -1.11856977E-18
  -25.8514614        -1.09179776E-18
  -25.7327118        -1.04265237E-18
  -25.6139603        -9.85848330E-19
  -25.4952106        -9.43726432E-19
  -25.3764610        -9.46854932E-19
  -25.2577114        -1.03373237E-18
  -25.1389618        -1.24925335E-18
  -25.0202103        -1.64168230E-18
  -24.9014606        -2.25804115E-18
  -24.7827110        -3.13803601E-18
  -24.6639614        -4.30690652E-18
  -24.5452118        -5.76786465E-18
  -24.4264603        -7.49499833E-18
  -24.3077106        -9.42772817E-18
  -24.1889610        -1.14678930E-17
  -24.0702114        -1.34805351E-17
  -23.9514618        -1.52991670E-17
  -23.8327103        -1.67359996E-17
  -23.7139606        -1.75971111E-17
  -23.5952110        -1.77020456E-17
  -23.4764614        -1.69067495E-17
  -23.3577118        -1.51282814E-17
  -23.2389603        -1.23692527E-17
  -23.1202106        -8.73965452E-18
  -23.0014610        -4.47349408E-18
  -22.8827114         6.23329059E-20
  -22.7639618         4.36939216E-18
  -22.6452103         7.83151443E-18
  -22.5264606         9.74260770E-18
  -22.4077110         9.34947357E-18
  -22.2889614         5.90949989E-18
  -22.1702118        -1.23800493E-18
  -22.0514603        -1.25896409E-17
  -21.9327106        -2.83892654E-17
  -21.8139610        -4.85388558E-17
  -21.6952114        -7.25164692E-17
  -21.5764618        -9.93101463E-17
  -21.4577103        -1.27377132E-16
  -21.3389606        -1.54637763E-16
  -21.2202110        -1.78512247E-16
  -21.1014614        -1.96006428E-16
  -20.9827118        -2.03849000E-16
  -20.8639603        -1.98679267E-16
  -20.7452106        -1.77278781E-16
  -20.6264610        -1.36836068E-16
  -20.5077114        -7.52283974E-17
  -20.3889618         8.69891504E-18
  -20.2702103         1.14877970E-16
  -20.1514606         2.41811072E-16
  -20.0327110         3.86432657E-16
  -19.9139614         5.44059321E-16
  -19.7952118         7.08440358E-16
  -19.6764603         8.71916340E-16
  -19.5577106         1.02568607E-15
  -19.4389610         1.16017171E-15
  -19.3202114         1.26546955E-15
  -19.2014618         1.33186222E-15
  -19.0827103         1.35036766E-15
  -18.9639606         1.31329452E-15
  -18.8452110         1.21477294E-15
  -18.7264614         1.05123406E-15
  -18.6077118         8.21807883E-16
  -18.4889603         5.28621033E-16
  -18.3702106         1.76975464E-16
  -18.2514610        -2.24600130E-16
  -18.1327114        -6.64430326E-16
  -18.0139618        -1.12790134E-15
  -17.8952103        -1.59778917E-15
  -17.7764606        -2.05469462E-15
  -17.6577110        -2.47756629E-15
  -17.5389614        -2.84429598E-15
  -17.4202118        -3.13236723E-15
  -17.3014603        -3.31953588E-15
  -17.1827106        -3.38453296E-15
  -17.0639610        -3.30777102E-15
  -16.9452114        -3.07205065E-15
  -16.8264618        -2.66325306E-15
  -16.7077103        -2.07101864E-15
  -16.5889606        -1.28940268E-15
  -16.4702110        -3.17497330E-16
  -16.3514614         8.39989339E-16
  -16.2327118         2.17222086E-15
  -16.1139603         3.66180771E-15
  -15.9952106         5.28450854E-15
  -15.8764610         7.00909388E-15
  -15.7577114         8.79740616E-15
  -15.6389608         1.06046670E-14
  -15.5202112         1.23800548E-14
  -15.4014606         1.40675740E-14
  -15.2827110         1.56072207E-14
  -15.1639614         1.69364204E-14
  -15.0452108         1.79916811E-14
  -14.9264612         1.87104174E-14
  -14.8077106         1.90328032E-14
  -14.6889610         1.89035714E-14
  -14.5702114         1.82735839E-14
  -14.4514608         1.71010650E-14
  -14.3327112         1.53523333E-14
  -14.2139606         1.30019380E-14
  -14.0952110         1.00320914E-14
  -13.9764614         6.43137421E-15
  -13.8577108         2.19270508E-15
  -13.7389612        -2.68933130E-15
  -13.6202106        -8.22167956E-15
  -13.5014610        -1.44163347E-14
  -13.3827114        -2.12939085E-14
  -13.2639608        -2.88869677E-14
  -13.1452112        -3.72428190E-14
  -13.0264606        -4.64253710E-14
  -12.9077110        -5.65157831E-14
  -12.7889614        -6.76116200E-14
  -12.6702108        -7.98243104E-14
  -12.5514612        -9.32747464E-14
  -12.4327106        -1.08087096E-13
  -12.3139610        -1.24380920E-13
  -12.1952114        -1.42261826E-13
  -12.0764608        -1.61811157E-13
  -11.9577112        -1.83075099E-13
  -11.8389606        -2.06053992E-13
  -11.7202110        -2.30692337E-13
  -11.6014614        -2.56870507E-13
  -11.4827108        -2.84398617E-13
  -11.3639612        -3.13013341E-13
  -11.2452106        -3.42378090E-13
  -11.1264610        -3.72087289E-13
  -11.0077114        -4.01674489E-13
  -10.8889608        -4.30624611E-13
  -10.7702112        -4.58389837E-13
  -10.6514606        -4.84408954E-13
  -10.5327110        -5.08129021E-13
  -10.4139614        -5.29028752E-13
  -10.2952108        -5.46642213E-13
  -10.1764612        -5.60581854E-13
  -10.0577106        -5.70559767E-13
  -9.93896103        -5.76405297E-13
  -9.82021141        -5.78078763E-13
  -9.70146084        -5.75679478E-13
  -9.58271122        -5.69448297E-13
  -9.46396065        -5.59763390E-13
  -9.34521103        -5.47129562E-13
  -9.22646141        -5.32161717E-13
  -9.10771084        -5.15562419E-13
  -8.98896122        -4.98094838E-13
  -8.87021065        -4.80552609E-13
  -8.75146103        -4.63727526E-13
  -8.63271141        -4.48377040E-13
  -8.51396084        -4.35193331E-13
  -8.39521122        -4.24775232E-13
  -8.27646065        -4.17605159E-13
  -8.15771103        -4.14031656E-13
  -8.03896141        -4.14259393E-13
  -7.92021084        -4.18346510E-13
  -7.80146122        -4.26210201E-13
  -7.68271112        -4.37640023E-13
  -7.56396103        -4.52318331E-13
  -7.44521093        -4.69847143E-13
  -7.32646084        -4.89779387E-13
  -7.20771122        -5.11653708E-13
  -7.08896112        -5.35029920E-13
  -6.97021103        -5.59524107E-13
  -6.85146093        -5.84840282E-13
  -6.73271084        -6.10797816E-13
  -6.61396122        -6.37352150E-13
  -6.49521112        -6.64607204E-13
  -6.37646103        -6.92819771E-13
  -6.25771093        -7.22393445E-13
  -6.13896084        -7.53864256E-13
  -6.02021122        -7.87876220E-13
  -5.90146112        -8.25149465E-13
  -5.78271103        -8.66441792E-13
  -5.66396093        -9.12504772E-13
  -5.54521084        -9.64037877E-13
  -5.42646122        -1.02164100E-12
  -5.30771112        -1.08576971E-12
  -5.18896103        -1.15669399E-12
  -5.07021093        -1.23446294E-12
  -4.95146084        -1.31887806E-12
  -4.83271122        -1.40947518E-12
  -4.71396112        -1.50551707E-12
  -4.59521103        -1.60599756E-12
  -4.47646093        -1.70965575E-12
  -4.35771084        -1.81500160E-12
  -4.23896122        -1.92035060E-12
  -4.12021112        -2.02386653E-12
  -4.00146103        -2.12361227E-12
  -3.88271117        -2.21760240E-12
  -3.76396108        -2.30386088E-12
  -3.64521098        -2.38047689E-12
  -3.52646112        -2.44566086E-12
  -3.40771103        -2.49779364E-12
  -3.28896117        -2.53547335E-12
  -3.17021108        -2.55755118E-12
  -3.05146098        -2.56316301E-12
  -2.93271112        -2.55174961E-12
  -2.81396103        -2.52306748E-12
  -2.69521117        -2.47719120E-12
  -2.57646108        -2.41450805E-12
  -2.45771098        -2.33570194E-12
  -2.33896112        -2.24173197E-12
  -2.22021103        -2.13380463E-12
  -2.10146117        -2.01334067E-12
  -1.98271108        -1.88193818E-12
  -1.86396110        -1.74133321E-12
  -1.74521101        -1.59335967E-12
  -1.62646103        -1.43990722E-12
  -1.50771105        -1.28288135E-12
  -1.38896108        -1.12416272E-12
  -1.27021110        -9.65569963E-13
  -1.15146101        -8.08823820E-13
  -1.03271103        -6.55514217E-13
 -0.913961053        -5.07069864E-13
 -0.795211077        -3.64731845E-13
 -0.676461041        -2.29530479E-13
 -0.557711065        -1.02267031E-13
 -0.438961059         1.65017858E-14
 -0.320211053         1.26472238E-13
 -0.201461062         2.27597130E-13
  -8.27110559E-02     3.20083912E-13
   3.60389426E-02     4.04385076E-13
  0.154788941         4.81181501E-13
  0.273538947         5.51358709E-13
  0.392288953         6.15974340E-13
  0.511038959         6.76220093E-13
  0.629788935         7.33374787E-13
  0.748538971         7.88753177E-13
  0.867288947         8.43648339E-13
  0.986038923         8.99272464E-13
   1.10478890         9.56695118E-13
   1.22353899         1.01678486E-12
   1.34228897         1.08015257E-12
   1.46103895         1.14710216E-12
   1.57978892         1.21759026E-12
   1.69853890         1.29119892E-12
   1.81728899         1.36711974E-12
   1.93603897         1.44415686E-12
   2.05478883         1.52074674E-12
   2.17353892         1.59499529E-12
   2.29228902         1.66473389E-12
   2.41103888         1.72759365E-12
   2.52978897         1.78109469E-12
   2.64853883         1.82274833E-12
   2.76728892         1.85017106E-12
   2.88603902         1.86120065E-12
   3.00478888         1.85401781E-12
   3.12353897         1.82725970E-12
   3.24228883         1.78012802E-12
   3.36103892         1.71247998E-12
   3.47978902         1.62490247E-12
   3.59853888         1.51876168E-12
   3.71728897         1.39622764E-12
   3.83603883         1.26026826E-12
   3.95478892         1.11461513E-12
   4.07353878         9.63698414E-13
   4.19228888         8.12553692E-13
   4.31103897         6.66701340E-13
   4.42978907         5.32005375E-13
   4.54853916         4.14512473E-13
   4.66728878         3.20279719E-13
   4.78603888         2.55196119E-13
   4.90478897         2.24802653E-13
   5.02353907         2.34120801E-13
   5.14228916         2.87492008E-13
   5.26103878         3.88435351E-13
   5.37978888         5.39529033E-13
   5.49853897         7.42317774E-13
   5.61728907         9.97251001E-13
   5.73603916         1.30365044E-12
   5.85478878         1.65971078E-12
   5.97353888         2.06253070E-12
   6.09228897         2.50817097E-12
   6.21103907         2.99174140E-12
   6.32978916         3.50750700E-12
   6.44853878         4.04901763E-12
   6.56728888         4.60924614E-12
   6.68603897         5.18074385E-12
   6.80478907         5.75579688E-12
   6.92353916         6.32659203E-12
   7.04228878         6.88537768E-12
   7.16103888         7.42462602E-12
   7.27978897         7.93718910E-12
   7.39853907         8.41644983E-12
   7.51728916         8.85646244E-12
   7.63603878         9.25208521E-12
   7.75478888         9.59910103E-12
   7.87353897         9.89432321E-12
   7.99228907         1.01356874E-11
   8.11103916         1.03223281E-11
   8.22978878         1.04546267E-11
   8.34853935         1.05342497E-11
   8.46728897         1.05641494E-11
   8.58603859         1.05485507E-11
   8.70478916         1.04928904E-11
   8.82353878         1.04037464E-11
   8.94228935         1.02887178E-11
   9.06103897         1.01562829E-11
   9.17978859         1.00156290E-11
   9.29853916         9.87644515E-12
   9.41728878         9.74870878E-12
   9.53603935         9.64243876E-12
   9.65478897         9.56745100E-12
   9.77353859         9.53311041E-12
   9.89228916         9.54809148E-12
   10.0110388         9.62015537E-12
   10.1297894         9.75595039E-12
   10.2485390         9.96085766E-12
   10.3672886         1.02388670E-11
   10.4860392         1.05925052E-11
   10.6047888         1.10228181E-11
   10.7235394         1.15293938E-11
   10.8422890         1.21104515E-11
   10.9610386         1.27629582E-11
   11.0797892         1.34828034E-11
   11.1985388         1.42649876E-11
   11.3172894         1.51038453E-11
   11.4360390         1.59932779E-11
   11.5547886         1.69269789E-11
   11.6735392         1.78986565E-11
   11.7922888         1.89022357E-11
   11.9110394         1.99320352E-11
   12.0297890         2.09828925E-11
   12.1485386         2.20502852E-11
   12.2672892         2.31303691E-11
   12.3860388         2.42200045E-11
   12.5047894         2.53167452E-11
   12.6235390         2.64187769E-11
   12.7422886         2.75248470E-11
   12.8610392         2.86341697E-11
   12.9797888         2.97463235E-11
   13.0985394         3.08611435E-11
   13.2172890         3.19786385E-11
   13.3360386         3.30988917E-11
   13.4547892         3.42220141E-11
   13.5735388         3.53480890E-11
   13.6922894         3.64771650E-11
   13.8110390         3.76092352E-11
   13.9297886         3.87442960E-11
   14.0485392         3.98823544E-11
   14.1672888         4.10234763E-11
   14.2860394         4.21678491E-11
   14.4047890         4.33158266E-11
   14.5235386         4.44679606E-11
   14.6422892         4.56250315E-11
   14.7610388         4.67880769E-11
   14.8797894         4.79583769E-11
   14.9985390         4.91374511E-11
   15.1172886         5.03270030E-11
   15.2360392         5.15289096E-11
   15.3547888         5.27451451E-11
   15.4735394         5.39777459E-11
   15.5922890         5.52287382E-11
   15.7110386         5.65000963E-11
   15.8297892         5.77937177E-11
   15.9485388         5.91113616E-11
   16.0672894         6.04546829E-11
   16.1860390         6.18251630E-11
   16.3047886         6.32241967E-11
   16.4235382         6.46530468E-11
   16.5422897         6.61128860E-11
   16.6610394         6.76048176E-11
   16.7797890         6.91298685E-11
   16.8985386         7.06890102E-11
   17.0172882         7.22830823E-11
   17.1360397         7.39128064E-11
   17.2547894         7.55786683E-11
   17.3735390         7.72808276E-11
   17.4922886         7.90190274E-11
   17.6110382         8.07924422E-11
   17.7297897         8.25995036E-11
   17.8485394         8.44378109E-11
   17.9672890         8.63039432E-11
   18.0860386         8.81933623E-11
   18.2047882         9.01003161E-11
   18.3235397         9.20177962E-11
   18.4422894         9.39374967E-11
   18.5610390         9.58499183E-11
   18.6797886         9.77444098E-11
   18.7985382         9.96093763E-11
   18.9172897         1.01432501E-10
   19.0360394         1.03200962E-10
   19.1547890         1.04901803E-10
   19.2735386         1.06522256E-10
   19.3922882         1.08050090E-10
   19.5110397         1.09473978E-10
   19.6297894         1.10783861E-10
   19.7485390         1.11971259E-10
   19.8672886         1.13029586E-10
   19.9860382         1.13954360E-10
   20.1047897         1.14743381E-10
   20.2235394         1.15396824E-10
   20.3422890         1.15917283E-10
   20.4610386         1.16309677E-10
   20.5797882         1.16581120E-10
   20.6985397         1.16740728E-10
   20.8172894         1.16799334E-10
   20.9360390         1.16769108E-10
   21.0547886         1.16663262E-10
   21.1735382         1.16495522E-10
   21.2922897         1.16279791E-10
   21.4110394         1.16029630E-10
   21.5297890         1.15757841E-10
   21.6485386         1.15476038E-10
   21.7672882         1.15194271E-10
   21.8860397         1.14920677E-10
   22.0047894         1.14661149E-10
   22.1235390         1.14419148E-10
   22.2422886         1.14195500E-10
   22.3610382         1.13988312E-10
   22.4797897         1.13792926E-10
   22.5985394         1.13602017E-10
   22.7172890         1.13405688E-10
   22.8360386         1.13191706E-10
   22.9547882         1.12945778E-10
   23.0735397         1.12651916E-10
   23.1922894         1.12292814E-10
   23.3110390         1.11850341E-10
   23.4297886         1.11306048E-10
   23.5485382         1.10641676E-10
   23.6672897         1.09839658E-10
   23.7860394         1.08883715E-10
   23.9047890         1.07759288E-10
   24.0235386         1.06454019E-10
   24.1422882         1.04958202E-10
   24.2610397         1.03265056E-10
   24.3797894         1.01371009E-10
   24.4985390         9.92758306E-11
   24.6172886         9.69826996E-11
   24.7360382         9.44981038E-11
   24.8547897         9.18317089E-11
   24.9735394         8.89960605E-11
   25.0922890         8.60061744E-11
   25.2110386         8.28790994E-11
   25.3297882         7.96333902E-11
   25.4485397         7.62884686E-11
   25.5672894         7.28640273E-11
   25.6860390         6.93793911E-11
   25.8047886         6.58528718E-11
   25.9235382         6.23011503E-11
   26.0422897         5.87387222E-11
   26.1610394         5.51774182E-11
   26.2797890         5.16259882E-11
   26.3985386         4.80897405E-11
   26.5172882         4.45703370E-11
   26.6360397         4.10656821E-11
   26.7547894         3.75698327E-11
   26.8735390         3.40731506E-11
   26.9922886         3.05623894E-11
   27.1110382         2.70209844E-11
   27.2297897         2.34293227E-11
   27.3485394         1.97652155E-11
   27.4672890         1.60042500E-11
   27.5860386         1.21203048E-11
   27.7047882         8.08611077E-12
   27.8235397         3.87373293E-12
   27.9422894        -5.44826716E-13
   28.0610390        -5.19708582E-12
   28.1797886        -1.01095044E-11
   28.2985382        -1.53069883E-11
   28.4172897        -2.08123380E-11
   28.5360394        -2.66457637E-11
   28.6547890        -3.28244688E-11
   28.7735386        -3.93622739E-11
   28.8922882        -4.62692488E-11
   29.0110397        -5.35515382E-11
   29.1297894        -6.12111681E-11
   29.2485390        -6.92460464E-11
   29.3672886        -7.76499628E-11
   29.4860382        -8.64127311E-11
   29.6047897        -9.55204804E-11
   29.7235394        -1.04956051E-10
   29.8422890        -1.14699389E-10
   29.9610386        -1.24728117E-10
   30.0797882        -1.35018122E-10
   30.1985397        -1.45544229E-10
   30.3172894        -1.56280933E-10
   30.4360390        -1.67202974E-10
   30.5547886        -1.78286080E-10
   30.6735382        -1.89507562E-10
   30.7922897        -2.00846881E-10
   30.9110394        -2.12286091E-10
   31.0297890        -2.23810193E-10
   31.1485386        -2.35407360E-10
   31.2672882        -2.47069115E-10
   31.3860397        -2.58790239E-10
   31.5047894        -2.70568817E-10
   31.6235390        -2.82405960E-10
   31.7422886        -2.94305497E-10
   31.8610382        -3.06273701E-10
   31.9797897        -3.18318844E-10
   32.0985374        -3.30450750E-10
   32.2172890        -3.42680467E-10
   32.3360405        -3.55019708E-10
   32.4547882        -3.67480629E-10
   32.5735397        -3.80075277E-10
   32.6922874        -3.92815475E-10
   32.8110390        -4.05712519E-10
   32.9297905        -4.18776819E-10
   33.0485382        -4.32017921E-10
   33.1672897        -4.45444237E-10
   33.2860374        -4.59063038E-10
   33.4047890        -4.72880179E-10
   33.5235405        -4.86900076E-10
   33.6422882        -5.01125752E-10
   33.7610397        -5.15558707E-10
   33.8797874        -5.30198718E-10
   33.9985390        -5.45043899E-10
   34.1172905        -5.60090696E-10
   34.2360382        -5.75333670E-10
   34.3547897        -5.90765714E-10
   34.4735374        -6.06377948E-10
   34.5922890        -6.22159713E-10
   34.7110405        -6.38098796E-10
   34.8297882        -6.54181542E-10
   34.9485397        -6.70393130E-10
   35.0672874        -6.86717350E-10
   35.1860390        -7.03137326E-10
   35.3047905        -7.19635462E-10
   35.4235382        -7.36193828E-10
   35.5422897        -7.52794216E-10
   35.6610374        -7.69418418E-10
   35.7797890        -7.86048338E-10
   35.8985405        -8.02665989E-10
   36.0172882        -8.19253332E-10
   36.1360397        -8.35792546E-10
   36.2547874        -8.52265369E-10
   36.3735390        -8.68653316E-10
   36.4922905        -8.84936957E-10
   36.6110382        -9.01096198E-10
   36.7297897        -9.17109721E-10
   36.8485374        -9.32954825E-10
   36.9672890        -9.48607526E-10
   37.0860405        -9.64042290E-10
   37.2047882        -9.79232362E-10
   37.3235397        -9.94150096E-10
   37.4422874        -1.00876707E-09
   37.5610390        -1.02305497E-09
   37.6797905        -1.03698594E-09
   37.7985382        -1.05053399E-09
   37.9172897        -1.06367504E-09
   38.0360374        -1.07638831E-09
   38.1547890        -1.08865694E-09
   38.2735405        -1.10046905E-09
   38.3922882        -1.11181797E-09
   38.5110397        -1.12270315E-09
   38.6297874        -1.13312992E-09
   38.7485390        -1.14311027E-09
   38.8672905        -1.15266174E-09
   38.9860382        -1.16180798E-09
   39.1047897        -1.17057686E-09
   39.2235374        -1.17900045E-09
   39.3422890        -1.18711352E-09
   39.4610405        -1.19495203E-09
   39.5797882        -1.20255206E-09
   39.6985397        -1.20994847E-09
   39.8172874        -1.21717314E-09
   39.9360390        -1.22425359E-09
   40.0547905        -1.23121202E-09
   40.1735382        -1.23806476E-09
   40.2922897        -1.24482025E-09
   40.4110374        -1.25147948E-09
   40.5297890        -1.25803512E-09
   40.6485405        -1.26447164E-09
   40.7672882        -1.27076527E-09
   40.8860397        -1.27688449E-09
   41.0047874        -1.28279043E-09
   41.1235390        -1.28843791E-09
   41.2422905        -1.29377564E-09
   41.3610382        -1.29874800E-09
   41.4797897        -1.30329492E-09
   41.5985374        -1.30735378E-09
   41.7172890        -1.31085975E-09
   41.8360405        -1.31374711E-09
   41.9547882        -1.31594979E-09
   42.0735397        -1.31740230E-09
   42.1922874        -1.31804057E-09
   42.3110390        -1.31780264E-09
   42.4297905        -1.31662903E-09
   42.5485382        -1.31446365E-09
   42.6672897        -1.31125399E-09
   42.7860374        -1.30695199E-09
   42.9047890        -1.30151401E-09
   43.0235405        -1.29490152E-09
   43.1422882        -1.28708111E-09
   43.2610397        -1.27802480E-09
   43.3797874        -1.26770994E-09
   43.4985390        -1.25611976E-09
   43.6172905        -1.24324218E-09
   43.7360382        -1.22907062E-09
   43.8547897        -1.21360322E-09
   43.9735374        -1.19684207E-09
   44.0922890        -1.17879317E-09
   44.2110405        -1.15946519E-09
   44.3297882        -1.13886889E-09
   44.4485397        -1.11701648E-09
   44.5672874        -1.09392029E-09
   44.6860390        -1.06959264E-09
   44.8047905        -1.04404452E-09
   44.9235382        -1.01728481E-09
   45.0422897        -9.89320070E-10
   45.1610374        -9.60153845E-10
   45.2797890        -9.29785970E-10
   45.3985405        -8.98212893E-10
   45.5172882        -8.65427452E-10
   45.6360397        -8.31418712E-10
   45.7547874        -7.96172628E-10
   45.8735390        -7.59672047E-10
   45.9922905        -7.21897320E-10
   46.1110382        -6.82826740E-10
   46.2297897        -6.42437159E-10
   46.3485374        -6.00704264E-10
   46.4672890        -5.57603574E-10
   46.5860405        -5.13110721E-10
   46.7047882        -4.67201944E-10
   46.8235397        -4.19854623E-10
   46.9422874        -3.71047776E-10
   47.0610390        -3.20762278E-10
   47.1797905        -2.68981448E-10
   47.2985382        -2.15691298E-10
   47.4172897        -1.60880920E-10
   47.5360374        -1.04542638E-10
   47.6547890        -4.66725929E-11
   47.7735405         1.27293098E-11
   47.8922882         7.36590580E-11
   48.0110397         1.36108139E-10
   48.1297874         2.00064063E-10
   48.2485390         2.65509836E-10
   48.3672905         3.32424172E-10
   48.4860382         4.00782213E-10
   48.6047897         4.70555372E-10
   48.7235374         5.41712342E-10
   48.8422890         6.14219897E-10
   48.9610405         6.88043345E-10
   49.0797882         7.63147934E-10
   49.1985397         8.39500247E-10
   49.3172874         9.17068477E-10
   49.4360390         9.95824423E-10
   49.5547905         1.07574449E-09
   49.6735382         1.15681009E-09
   49.7922897         1.23900945E-09
   49.9110374         1.32233735E-09
   50.0297890         1.40679557E-09
   50.1485405         1.49239332E-09
   50.2672882         1.57914637E-09
   50.3860397         1.66707681E-09
   50.5047874         1.75621251E-09
   50.6235390         1.84658566E-09
   50.7422905         1.93823113E-09
   50.8610382         2.03118566E-09
   50.9797897         2.12548645E-09
   51.0985374         2.22116880E-09
   51.2172890         2.31826602E-09
   51.3360405         2.41680742E-09
   51.4547882         2.51681698E-09
   51.5735397         2.61831334E-09
   51.6922874         2.72130896E-09
   51.8110390         2.82580892E-09
   51.9297905         2.93181213E-09
   52.0485382         3.03931169E-09
   52.1672897         3.14829318E-09
   52.2860374         3.25873706E-09
   52.4047890         3.37061867E-09
   52.5235405         3.48390738E-09
   52.6422882         3.59856900E-09
   52.7610397         3.71456466E-09
   52.8797874         3.83185039E-09
   52.9985390         3.95037869E-09
   53.1172905         4.07009537E-09
   53.2360382         4.19094315E-09
   53.3547897         4.31285629E-09
   53.4735374         4.43576420E-09
   53.5922890         4.55958871E-09
   53.7110405         4.68424322E-09
   53.8297882         4.80963491E-09
   53.9485397         4.93566032E-09
   54.0672874         5.06220887E-09
   54.1860390         5.18916243E-09
   54.3047905         5.31639399E-09
   54.4235382         5.44377121E-09
   54.5422897         5.57115554E-09
   54.6610374         5.69840530E-09
   54.7797890         5.82537618E-09
   54.8985405         5.95192429E-09
   55.0172882         6.07790840E-09
   55.1360397         6.20318907E-09
   55.2547874         6.32763486E-09
   55.3735390         6.45112053E-09
   55.4922905         6.57353150E-09
   55.6110382         6.69476163E-09
   55.7297897         6.81471768E-09
   55.8485374         6.93331792E-09
   55.9672890         7.05049219E-09
   56.0860405         7.16618276E-09
   56.2047882         7.28034388E-09
   56.3235397         7.39294181E-09
   56.4422874         7.50395301E-09
   56.5610390         7.61336327E-09
   56.6797905         7.72116948E-09
   56.7985382         7.82737519E-09
   56.9172897         7.93199106E-09
   57.0360374         8.03503397E-09
   57.1547890         8.13652434E-09
   57.2735405         8.23648794E-09
   57.3922882         8.33495051E-09
   57.5110397         8.43194137E-09
   57.6297874         8.52748983E-09
   57.7485390         8.62162608E-09
   57.8672905         8.71437678E-09
   57.9860382         8.80576767E-09
   58.1047897         8.89582097E-09
   58.2235374         8.98455266E-09