  -37.8452110         0.00000000    
  -37.7264595         0.00000000    
  -37.6077118         0.00000000    
  -37.4889603         0.00000000    
  -37.3702126         0.00000000    
  -37.2514610         0.00000000    
  -37.1327095        -0.00000000    
  -37.0139618         2.36957317E-30
  -36.8952103         3.34593404E-29
  -36.7764626         2.47477785E-28
  -36.6577110         1.28874979E-27
  -36.5389595         5.27562594E-27
  -36.4202118         1.80475382E-26
  -36.3014603         5.35753097E-26
  -36.1827126         1.41518207E-25
  -36.0639610         3.38534776E-25
  -35.9452095         7.42788963E-25
  -35.8264618         1.50884173E-24
  -35.7077103         2.85667675E-24
  -35.5889626         5.06420973E-24
  -35.4702110         8.42800611E-24
  -35.3514595         1.31733452E-23
  -35.2327118         1.92939285E-23
  -35.1139603         2.63054615E-23
  -34.9952126         3.29075883E-23
  -34.8764610         3.65664545E-23
  -34.7577095         3.30547771E-23
  -34.6389618         1.60156576E-23
  -34.5202103        -2.33536528E-23
  -34.4014626        -9.63782985E-23
  -34.2827110        -2.16611461E-22
  -34.1639595        -3.99048836E-22
  -34.0452118        -6.58767417E-22
  -33.9264603        -1.00896951E-21
  -33.8077126        -1.45850511E-21
  -33.6889610        -2.00905490E-21
  -33.5702095        -2.65226578E-21
  -33.4514618        -3.36722872E-21
  -33.3327103        -4.11873058E-21
  -33.2139626        -4.85671059E-21
  -33.0952110        -5.51724460E-21
  -32.9764595        -6.02519772E-21
  -32.8577118        -6.29843510E-21
  -32.7389603        -6.25313444E-21
  -32.6202126        -5.80943121E-21
  -32.5014610        -4.89633489E-21
  -32.3827095        -3.45467903E-21
  -32.2639618        -1.43686543E-21
  -32.1452103         1.19759981E-21
  -32.0264626         4.49130881E-21
  -31.9077110         8.50270503E-21
  -31.7889614         1.33232826E-20
  -31.6702118         1.90961931E-20
  -31.5514603         2.60332480E-20
  -31.4327106         3.44267304E-20
  -31.3139610         4.46521142E-20
  -31.1952114         5.71581739E-20
  -31.0764618         7.24419836E-20
  -30.9577103         9.10080007E-20
  -30.8389606         1.13312874E-19
  -30.7202110         1.39700130E-19
  -30.6014614         1.70331985E-19
  -30.4827118         2.05127777E-19
  -30.3639603         2.43720134E-19
  -30.2452106         2.85440436E-19
  -30.1264610         3.29343641E-19
  -30.0077114         3.74278910E-19
  -29.8889618         4.19007796E-19
  -29.7702103         4.62363770E-19
  -29.6514606         5.03440577E-19
  -29.5327110         5.41786654E-19
  -29.4139614         5.77578759E-19
  -29.2952118         6.11741991E-19
  -29.1764603         6.45984321E-19
  -29.0577106         6.82718482E-19
  -28.9389610         7.24854028E-19
  -28.8202114         7.75460059E-19
  -28.7014618         8.37316677E-19
  -28.5827103         9.12399137E-19
  -28.4639606         1.00135621E-18
  -28.3452110         1.10306582E-18
  -28.2264614         1.21435584E-18
  -28.1077118         1.32997780E-18
  -27.9889603         1.44290098E-18
  -27.8702106         1.54496266E-18
  -27.7514610         1.62786125E-18
  -27.6327114         1.68442138E-18
  -27.5139618         1.71000215E-18
  -27.3952103         1.70385671E-18
  -27.2764606         1.67021900E-18
  -27.1577110         1.61887466E-18
  -27.0389614         1.56499408E-18
  -26.9202118         1.52806760E-18
  -26.8014603         1.52987985E-18
  -26.6827106         1.59159797E-18
  -26.5639610         1.73019756E-18
  -26.4452114         1.95461393E-18
  -26.3264618         2.26213735E-18
  -26.2077103         2.63566316E-18
  -26.0889606         3.04242778E-18
  -25.9702110         3.43479387E-18
  -25.8514614         3.75348092E-18
  -25.7327118         3.93338237E-18
  -25.6139603         3.91176938E-18
  -25.4952106         3.63829892E-18
  -25.3764610         3.08586221E-18
  -25.2577114         2.26096482E-18
  -25.1389618         1.21210622E-18
  -25.0202103         3.45340636E-20
  -24.9014606        -1.13012641E-18
  -24.7827110        -2.10054658E-18
  -24.6639614        -2.66930088E-18
  -24.5452118        -2.62330798E-18
  -24.4264603        -1.77014914E-18
  -24.3077106         3.16136669E-20
  -24.1889610         2.84087385E-18
  -24.0702114         6.60463063E-18
  -23.9514618         1.11347932E-17
  -23.8327103         1.60951761E-17
  -23.7139606         2.10024086E-17
  -23.5952110         2.52436944E-17
  -23.4764614         2.81131062E-17
  -23.3577118         2.88664527E-17
  -23.2389603         2.67927539E-17
  -23.1202106         2.12982646E-17
  -23.0014610         1.19968610E-17
  -22.8827114        -1.20127739E-18
  -22.7639618        -1.80120861E-17
  -22.6452103        -3.77212690E-17
  -22.5264606        -5.91590971E-17
  -22.4077110        -8.07149938E-17
  -22.2889614        -1.00398279E-16
  -22.1702118        -1.15948051E-16
  -22.0514603        -1.24990868E-16
  -21.9327106        -1.25240161E-16
  -21.8139610        -1.14725941E-16
  -21.6952114        -9.20386662E-17
  -21.5764618        -5.65668918E-17
  -21.4577103        -8.70538112E-18
  -21.3389606         4.99905908E-17
  -21.2202110         1.16727969E-16
  -21.1014614         1.87495428E-16
  -20.9827118         2.57193375E-16
  -20.8639603         3.19880034E-16
  -20.7452106         3.69129017E-16
  -20.6264610         3.98483447E-16
  -20.5077114         4.01979893E-16
  -20.3889618         3.74705750E-16
  -20.2702103         3.13346260E-16
  -20.1514606         2.16671504E-16
  -20.0327110         8.59142144E-17
  -19.9139614        -7.50077453E-17
  -19.7952118        -2.59461015E-16
  -19.6764603        -4.58282835E-16
  -19.5577106        -6.60190396E-16
  -19.4389610        -8.52401866E-16
  -19.3202114        -1.02143629E-15
  -19.2014618        -1.15404173E-15
  -19.0827103        -1.23818461E-15
  -18.9639606        -1.26402070E-15
  -18.8452110        -1.22476634E-15
  -18.7264614        -1.11738818E-15
  -18.6077118        -9.43041379E-16
  -18.4889603        -7.07205701E-16
  -18.3702106        -4.19488885E-16
  -18.2514610        -9.31013882E-17
  -18.1327114         2.55968857E-16
  -18.0139618         6.10019682E-16
  -17.8952103         9.50849329E-16
  -17.7764606         1.26101892E-15
  -17.6577110         1.52504767E-15
  -17.5389614         1.73042944E-15
  -17.4202118         1.86837151E-15
  -17.3014603         1.93418131E-15
  -17.1827106         1.92725999E-15
  -17.0639610         1.85070367E-15
  -16.9452114         1.71055043E-15
  -16.8264618         1.51475940E-15
  -16.7077103         1.27203543E-15
  -16.5889606         9.90641242E-16
  -16.4702110         6.77347260E-16
  -16.3514614         3.36660815E-16
  -16.2327118        -2.95426298E-17
  -16.1139603        -4.21907032E-16
  -15.9952106        -8.42972536E-16
  -15.8764610        -1.29606946E-15
  -15.7577114        -1.78382492E-15
  -15.6389608        -2.30643069E-15
  -15.5202112        -2.85986550E-15
  -15.4014606        -3.43429847E-15
  -15.2827110        -4.01290033E-15
  -15.1639614        -4.57127588E-15
  -15.0452108        -5.07767326E-15
  -14.9264612        -5.49407423E-15
  -14.8077106        -5.77816019E-15
  -14.6889610        -5.88606710E-15
  -14.5702114        -5.77572878E-15
  -14.4514608        -5.41052587E-15
  -14.3327112        -4.76287219E-15
  -14.2139606        -3.81734541E-15
  -14.0952110        -2.57294156E-15
  -13.9764614        -1.04409379E-15
  -13.8577108         7.39846910E-16
  -13.7389612         2.73683651E-15
  -13.6202106         4.89608633E-15
  -13.5014610         7.16358549E-15
  -13.3827114         9.48886457E-15
  -13.2639608         1.18324887E-14
  -13.1452112         1.41736649E-14
  -13.0264606         1.65171950E-14
  -12.9077110         1.88990211E-14
  -12.7889614         2.13896267E-14
  -12.6702108         2.40946298E-14
  -12.5514612         2.71521256E-14
  -12.4327106         3.07265335E-14
  -12.3139610         3.49990151E-14
  -12.1952114         4.01547963E-14
  -12.0764608         4.63680574E-14
  -11.9577112         5.37853690E-14
  -11.8389606         6.25087818E-14
  -11.7202110         7.25799358E-14
  -11.6014614         8.39665861E-14
  -11.4827108         9.65527300E-14
  -11.3639612         1.10133684E-13
  -11.2452106         1.24416848E-13
  -11.1264610         1.39028640E-13
  -11.0077114         1.53527839E-13
  -10.8889608         1.67424709E-13
  -10.7702112         1.80205108E-13
  -10.6514606         1.91358336E-13
  -10.5327110         2.00406776E-13
  -10.4139614         2.06935597E-13
  -10.2952108         2.10620299E-13
  -10.1764612         2.11249841E-13
  -10.0577106         2.08743816E-13
  -9.93896103         2.03161760E-13
  -9.82021141         1.94703642E-13
  -9.70146084         1.83701036E-13
  -9.58271122         1.70598927E-13
  -9.46396065         1.55929198E-13
  -9.34521103         1.40276937E-13
  -9.22646141         1.24241817E-13
  -9.10771084         1.08396981E-13
  -8.98896122         9.32478853E-14
  -8.87021065         7.91944228E-14
  -8.75146103         6.64986526E-14
  -8.63271141         5.52608530E-14
  -8.51396084         4.54059364E-14
  -8.39521122         3.66812429E-14
  -8.27646065         2.86668001E-14
  -8.15771103         2.07974490E-14
  -8.03896141         1.23961332E-14
  -7.92021084         2.71623921E-15
  -7.80146122        -9.00936430E-15
  -7.68271112        -2.35152999E-14
  -7.56396103        -4.14506144E-14
  -7.44521093        -6.33286351E-14
  -7.32646084        -8.94834134E-14
  -7.20771122        -1.20035438E-13
  -7.08896112        -1.54869688E-13
  -6.97021103        -1.93627110E-13
  -6.85146093        -2.35711190E-13
  -6.73271084        -2.80308871E-13
  -6.61396122        -3.26425871E-13
  -6.49521112        -3.72933726E-13
  -6.37646103        -4.18626397E-13
  -6.25771093        -4.62283423E-13
  -6.13896084        -5.02735440E-13
  -6.02021122        -5.38929090E-13
  -5.90146112        -5.69986116E-13
  -5.78271103        -5.95254531E-13
  -5.66396093        -6.14347711E-13
  -5.54521084        -6.27169811E-13
  -5.42646122        -6.33925150E-13
  -5.30771112        -6.35111484E-13
  -5.18896103        -6.31497133E-13
  -5.07021093        -6.24083847E-13
  -4.95146084        -6.14057145E-13
  -4.83271122        -6.02727178E-13
  -4.71396112        -5.91463619E-13
  -4.59521103        -5.81628983E-13
  -4.47646093        -5.74513798E-13
  -4.35771084        -5.71277509E-13
  -4.23896122        -5.72899475E-13
  -4.12021112        -5.80141946E-13
  -4.00146103        -5.93527885E-13
  -3.88271117        -6.13334362E-13
  -3.76396108        -6.39602087E-13
  -3.64521098        -6.72160840E-13
  -3.52646112        -7.10666931E-13
  -3.40771103        -7.54652525E-13
  -3.28896117        -8.03582624E-13
  -3.17021108        -8.56915125E-13
  -3.05146098        -9.14160783E-13
  -2.93271112        -9.74938988E-13
  -2.81396103        -1.03902607E-12
  -2.69521117        -1.10639026E-12
  -2.57646108        -1.17721544E-12
  -2.45771098        -1.25190765E-12
  -2.33896112        -1.33108639E-12
  -2.22021103        -1.41556005E-12
  -2.10146117        -1.50628631E-12
  -1.98271108        -1.60432117E-12
  -1.86396110        -1.71075925E-12
  -1.74521101        -1.82666577E-12
  -1.62646103        -1.95300980E-12
  -1.50771105        -2.09059723E-12
  -1.38896108        -2.24000918E-12
  -1.27021110        -2.40154879E-12
  -1.15146101        -2.57520025E-12
  -1.03271103        -2.76059817E-12
 -0.913961053        -2.95701354E-12
 -0.795211077        -3.16335218E-12
 -0.676461041        -3.37816710E-12
 -0.557711065        -3.59968327E-12
 -0.438961059        -3.82583201E-12
 -0.320211053        -4.05429726E-12
 -0.201461062        -4.28256259E-12
  -8.27110559E-02    -4.50796735E-12
   3.60389426E-02    -4.72776375E-12
  0.154788941        -4.93917103E-12
  0.273538947        -5.13943185E-12
  0.392288953        -5.32586432E-12
  0.511038959        -5.49591319E-12
  0.629788935        -5.64719669E-12
  0.748538971        -5.77754814E-12
  0.867288947        -5.88505893E-12
  0.986038923        -5.96811272E-12
   1.10478890        -6.02542148E-12
   1.22353899        -6.05605323E-12
   1.34228897        -6.05946023E-12
   1.46103895        -6.03549676E-12
   1.57978892        -5.98443647E-12
   1.69853890        -5.90697933E-12
   1.81728899        -5.80425031E-12
   1.93603897        -5.67779157E-12
   2.05478883        -5.52954210E-12
   2.17353892        -5.36180995E-12
   2.29228902        -5.17723364E-12
   2.41103888        -4.97873574E-12
   2.52978897        -4.76946998E-12
   2.64853883        -4.55276485E-12
   2.76728892        -4.33206205E-12
   2.88603902        -4.11086096E-12
   3.00478888        -3.89266050E-12
   3.12353897        -3.68091148E-12
   3.24228883        -3.47897557E-12
   3.36103892        -3.29009172E-12
   3.47978902        -3.11734883E-12
   3.59853888        -2.96367076E-12
   3.71728897        -2.83180163E-12
   3.83603883        -2.72429562E-12
   3.95478892        -2.64350152E-12
   4.07353878        -2.59154612E-12
   4.19228888        -2.57030118E-12
   4.31103897        -2.58134247E-12
   4.42978907        -2.62588974E-12
   4.54853916        -2.70473075E-12
   4.66728878        -2.81812984E-12
   4.78603888        -2.96572294E-12
   4.90478897        -3.14640436E-12
   5.02353907        -3.35821583E-12
   5.14228916        -3.59823933E-12
   5.26103878        -3.86250970E-12
   5.37978888        -4.14595355E-12
   5.49853897        -4.44236705E-12
   5.61728907        -4.74444008E-12
   5.73603916        -5.04382907E-12
   5.85478878        -5.33129313E-12
   5.97353888        -5.59688190E-12
   6.09228897        -5.83018312E-12
   6.21103907        -6.02061370E-12
   6.32978916        -6.15775269E-12
   6.44853878        -6.23169875E-12
   6.56728888        -6.23343131E-12
   6.68603897        -6.15517056E-12
   6.80478907        -5.99070273E-12
   6.92353916        -5.73566802E-12
   7.04228878        -5.38777963E-12
   7.16103888        -4.94697859E-12
   7.27978897        -4.41550138E-12
   7.39853907        -3.79786220E-12
   7.51728916        -3.10074731E-12
   7.63603878        -2.33283228E-12
   7.75478888        -1.50452459E-12
   7.87353897        -6.27651631E-13
   7.99228907         2.84892254E-13
   8.11103916         1.21952036E-12
   8.22978878         2.16232956E-12
   8.34853935         3.09945819E-12
   8.46728897         4.01740967E-12
   8.58603859         4.90333121E-12
   8.70478916         5.74523155E-12
   8.82353878         6.53214158E-12
   8.94228935         7.25420635E-12
   9.06103897         7.90272448E-12
   9.17978859         8.47013258E-12
   9.29853916         8.94996056E-12
   9.41728878         9.33675273E-12
   9.53603935         9.62599445E-12
   9.65478897         9.81403413E-12
   9.77353859         9.89802858E-12
   9.89228916         9.87592733E-12
   10.0110388         9.74648487E-12
   10.1297894         9.50931434E-12
   10.2485390         9.16499255E-12
   10.3672886         8.71518222E-12
   10.4860392         8.16278295E-12
   10.6047888         7.51209425E-12
   10.7235394         6.76896733E-12
   10.8422890         5.94093481E-12
   10.9610386         5.03729870E-12
   11.0797892         4.06916514E-12
   11.1985388         3.04941402E-12
   11.3172894         1.99258795E-12
   11.4360390         9.14702992E-13
   11.5547886        -1.67012468E-13
   11.6735392        -1.23445969E-12
   11.7922888        -2.26907100E-12
   11.9110394        -3.25225372E-12
   12.0297890        -4.16587034E-12
   12.1485386        -4.99271978E-12
   12.2672892        -5.71701063E-12
   12.3860388        -6.32480353E-12
   12.5047894        -6.80439515E-12
   12.6235390        -7.14663571E-12
   12.7422886        -7.34516441E-12
   12.8610392        -7.39654692E-12
   12.9797888        -7.30032527E-12
   13.0985394        -7.05895802E-12
   13.2172890        -6.67767447E-12
   13.3360386        -6.16424490E-12
   13.4547892        -5.52866780E-12
   13.5735388        -4.78280740E-12
   13.6922894        -3.93998289E-12
   13.8110390        -3.01453133E-12
   13.9297886        -2.02136224E-12
   14.0485392        -9.75524999E-13
   14.1672888         1.08209225E-13
   14.2860394         1.21572511E-12
   14.4047890         2.33388634E-12
   14.5235386         3.45081689E-12
   14.6422892         4.55611460E-12
   14.7610388         5.64099765E-12
   14.8797894         6.69839618E-12
   14.9985390         7.72298111E-12
   15.1172886         8.71113771E-12
   15.2360392         9.66088928E-12
   15.3547888         1.05717900E-11
   15.4735394         1.14447792E-11
   15.5922890         1.22820209E-11
   15.7110386         1.30867340E-11
   15.8297892         1.38630270E-11
   15.9485388         1.46157374E-11
   16.0672894         1.53502905E-11
   16.1860390         1.60725860E-11
   16.3047886         1.67889105E-11
   16.4235382         1.75058822E-11
   16.5422897         1.82304102E-11
   16.6610394         1.89697286E-11
   16.7797890         1.97313815E-11
   16.8985386         2.05232949E-11
   17.0172882         2.13537989E-11
   17.1360397         2.22316904E-11
   17.2547894         2.31662380E-11
   17.3735390         2.41672012E-11
   17.4922886         2.52448010E-11
   17.6110382         2.64096349E-11
   17.7297897         2.76725726E-11
   17.8485394         2.90445550E-11
   17.9672890         3.05364067E-11
   18.0860386         3.21585675E-11
   18.2047882         3.39207759E-11
   18.3235397         3.58317681E-11
   18.4422894         3.78989340E-11
   18.5610390         4.01280016E-11
   18.6797886         4.25227492E-11
   18.7985382         4.50847554E-11
   18.9172897         4.78132117E-11
   19.0360394         5.07048188E-11
   19.1547890         5.37537688E-11
   19.2735386         5.69518321E-11
   19.3922882         6.02885242E-11
   19.5110397         6.37513722E-11
   19.6297894         6.73262904E-11
   19.7485390         7.09979783E-11
   19.8672886         7.47503864E-11
   19.9860382         7.85672707E-11
   20.1047897         8.24326232E-11
   20.2235394         8.63312061E-11
   20.3422890         9.02489472E-11
   20.4610386         9.41733705E-11
   20.5797882         9.80937831E-11
   20.6985397         1.02001532E-10
   20.8172894         1.05890026E-10
   20.9360390         1.09754712E-10
   21.0547886         1.13592948E-10
   21.1735382         1.17403767E-10
   21.2922897         1.21187588E-10
   21.4110394         1.24945818E-10
   21.5297890         1.28680566E-10
   21.6485386         1.32394151E-10
   21.7672882         1.36088890E-10
   21.8860397         1.39766615E-10
   22.0047894         1.43428588E-10
   22.1235390         1.47075241E-10
   22.2422886         1.50706142E-10
   22.3610382         1.54320001E-10
   22.4797897         1.57914751E-10
   22.5985394         1.61487712E-10
   22.7172890         1.65035832E-10
   22.8360386         1.68555905E-10
   22.9547882         1.72044878E-10
   23.0735397         1.75500087E-10
   23.1922894         1.78919463E-10
   23.3110390         1.82301729E-10
   23.4297886         1.85646457E-10
   23.5485382         1.88954116E-10
   23.6672897         1.92225971E-10
   23.7860394         1.95463951E-10
   23.9047890         1.98670427E-10
   24.0235386         2.01847941E-10
   24.1422882         2.04998837E-10
   24.2610397         2.08124989E-10
   24.3797894         2.11227411E-10
   24.4985390         2.14306017E-10
   24.6172886         2.17359367E-10
   24.7360382         2.20384502E-10
   24.8547897         2.23376914E-10
   24.9735394         2.26330538E-10
   25.0922890         2.29237948E-10
   25.2110386         2.32090597E-10
   25.3297882         2.34879144E-10
   25.4485397         2.37593778E-10
   25.5672894         2.40224896E-10
   25.6860390         2.42763309E-10
   25.8047886         2.45200887E-10
   25.9235382         2.47530996E-10
   26.0422897         2.49748749E-10
   26.1610394         2.51851456E-10
   26.2797890         2.53838728E-10
   26.3985386         2.55712646E-10
   26.5172882         2.57477706E-10
   26.6360397         2.59140626E-10
   26.7547894         2.60710148E-10
   26.8735390         2.62196764E-10
   26.9922886         2.63612243E-10
   27.1110382         2.64969130E-10
   27.2297897         2.66280303E-10
   27.3485394         2.67558503E-10
   27.4672890         2.68815692E-10
   27.5860386         2.70062639E-10
   27.7047882         2.71308559E-10
   27.8235397         2.72560557E-10
   27.9422894         2.73823464E-10
   28.0610390         2.75099415E-10
   28.1797886         2.76387802E-10
   28.2985382         2.77684958E-10
   28.4172897         2.78984169E-10
   28.5360394         2.80275636E-10
   28.6547890         2.81546370E-10
   28.7735386         2.82780355E-10
   28.8922882         2.83958607E-10
   29.0110397         2.85059337E-10
   29.1297894         2.86057983E-10
   29.2485390         2.86927676E-10
   29.3672886         2.87639385E-10
   29.4860382         2.88162383E-10
   29.6047897         2.88464530E-10
   29.7235394         2.88512880E-10
   29.8422890         2.88274182E-10
   29.9610386         2.87715546E-10
   30.0797882         2.86804996E-10
   30.1985397         2.85512169E-10
   30.3172894         2.83809060E-10
   30.4360390         2.81670659E-10
   30.5547886         2.79075540E-10
   30.6735382         2.76006468E-10
   30.7922897         2.72450812E-10
   30.9110394         2.68400968E-10
   31.0297890         2.63854494E-10
   31.1485386         2.58814220E-10
   31.2672882         2.53288224E-10
   31.3860397         2.47289467E-10
   31.5047894         2.40835546E-10
   31.6235390         2.33948222E-10
   31.7422886         2.26652683E-10
   31.8610382         2.18976989E-10
   31.9797897         2.10951298E-10
   32.0985374         2.02607042E-10
   32.2172890         1.93976238E-10
   32.3360405         1.85090679E-10
   32.4547882         1.75981202E-10
   32.5735397         1.66677033E-10
   32.6922874         1.57205138E-10
   32.8110390         1.47589635E-10
   32.9297905         1.37851272E-10
   33.0485382         1.28006938E-10
   33.1672897         1.18069166E-10
   33.2860374         1.08045725E-10
   33.4047890         9.79391845E-11
   33.5235405         8.77465184E-11
   33.6422882         7.74587061E-11
   33.7610397         6.70604475E-11
   33.8797874         5.65297600E-11
   33.9985390         4.58378994E-11
   34.1172905         3.49490437E-11
   34.2360382         2.38204491E-11
   34.3547897         1.24026241E-11
   34.4735374         6.39491986E-13
   34.5922890        -1.15307954E-11
   34.7110405        -2.41752503E-11
   34.8297882        -3.73650243E-11
   34.9485397        -5.11741587E-11
   35.0672874        -6.56781296E-11
   35.1860390        -8.09523282E-11
   35.3047905        -9.70702754E-11
   35.4235382        -1.14101992E-10
   35.5422897        -1.32112099E-10
   35.6610374        -1.51158225E-10
   35.7797890        -1.71289399E-10
   35.8985405        -1.92544786E-10
   36.0172882        -2.14952445E-10
   36.1360397        -2.38528586E-10
   36.2547874        -2.63277011E-10
   36.3735390        -2.89189034E-10
   36.4922905        -3.16243448E-10
   36.6110382        -3.44407364E-10
   36.7297897        -3.73636566E-10
   36.8485374        -4.03876765E-10
   36.9672890        -4.35064568E-10
   37.0860405        -4.67128891E-10
   37.2047882        -4.99992325E-10
   37.3235397        -5.33572297E-10
   37.4422874        -5.67782543E-10
   37.5610390        -6.02534522E-10
   37.6797905        -6.37738085E-10
   37.7985382        -6.73302969E-10
   37.9172897        -7.09139525E-10
   38.0360374        -7.45159545E-10
   38.1547890        -7.81276766E-10
   38.2735405        -8.17407975E-10
   38.3922882        -8.53472959E-10
   38.5110397        -8.89395613E-10
   38.6297874        -9.25104049E-10
   38.7485390        -9.60531654E-10
   38.8672905        -9.95616922E-10
   38.9860382        -1.03030495E-09
   39.1047897        -1.06454745E-09
   39.2235374        -1.09830323E-09
   39.3422890        -1.13153908E-09
   39.4610405        -1.16423016E-09
   39.5797882        -1.19635990E-09
   39.6985397        -1.22792088E-09
   39.8172874        -1.25891431E-09
   39.9360390        -1.28935007E-09
   40.0547905        -1.31924605E-09
   40.1735382        -1.34862832E-09
   40.2922897        -1.37752953E-09
   40.4110374        -1.40598833E-09
   40.5297890        -1.43404866E-09
   40.6485405        -1.46175794E-09
   40.7672882        -1.48916646E-09
   40.8860397        -1.51632584E-09
   41.0047874        -1.54328827E-09
   41.1235390        -1.57010505E-09
   41.2422905        -1.59682600E-09
   41.3610382        -1.62349856E-09
   41.4797897        -1.65016711E-09
   41.5985374        -1.67687242E-09
   41.7172890        -1.70365155E-09
   41.8360405        -1.73053749E-09
   41.9547882        -1.75755943E-09
   42.0735397        -1.78474191E-09
   42.1922874        -1.81210580E-09
   42.3110390        -1.83966786E-09
   42.4297905        -1.86744087E-09
   42.5485382        -1.89543359E-09
   42.6672897        -1.92365146E-09
   42.7860374        -1.95209471E-09
   42.9047890        -1.98076089E-09
   43.0235405        -2.00964267E-09
   43.1422882        -2.03872896E-09
   43.2610397        -2.06800399E-09
   43.3797874        -2.09744733E-09
   43.4985390        -2.12703477E-09
   43.6172905        -2.15673723E-09
   43.7360382        -2.18652096E-09
   43.8547897        -2.21634888E-09
   43.9735374        -2.24617880E-09
   44.0922890        -2.27596475E-09
   44.2110405        -2.30565789E-09
   44.3297882        -2.33520514E-09
   44.4485397        -2.36455056E-09
   44.5672874        -2.39363507E-09
   44.6860390        -2.42239651E-09
   44.8047905        -2.45077025E-09
   44.9235382        -2.47868903E-09
   45.0422897        -2.50608179E-09
   45.1610374        -2.53287569E-09
   45.2797890        -2.55899346E-09
   45.3985405        -2.58435606E-09
   45.5172882        -2.60887978E-09
   45.6360397        -2.63247890E-09
   45.7547874        -2.65506372E-09
   45.8735390        -2.67654143E-09
   45.9922905        -2.69681744E-09
   46.1110382        -2.71579492E-09
   46.2297897        -2.73337553E-09
   46.3485374        -2.74946088E-09
   46.4672890        -2.76395329E-09
   46.5860405        -2.77675682E-09
   46.7047882        -2.78777823E-09
   46.8235397        -2.79692847E-09
   46.9422874        -2.80412404E-09
   47.0610390        -2.80928658E-09
   47.1797905        -2.81234547E-09
   47.2985382        -2.81323720E-09
   47.4172897        -2.81190626E-09
   47.5360374        -2.80830559E-09
   47.6547890        -2.80239543E-09
   47.7735405        -2.79414492E-09
   47.8922882        -2.78352985E-09
   48.0110397        -2.77053358E-09
   48.1297874        -2.75514545E-09
   48.2485390        -2.73736167E-09
   48.3672905        -2.71718270E-09
   48.4860382        -2.69461475E-09
   48.6047897        -2.66966826E-09
   48.7235374        -2.64235811E-09
   48.8422890        -2.61270405E-09
   48.9610405        -2.58072941E-09
   49.0797882        -2.54646260E-09
   49.1985397        -2.50993626E-09
   49.3172874        -2.47118837E-09
   49.4360390        -2.43026155E-09
   49.5547905        -2.38720377E-09
   49.6735382        -2.34206654E-09
   49.7922897        -2.29490693E-09
   49.9110374        -2.24578489E-09
   50.0297890        -2.19476282E-09
   50.1485405        -2.14190465E-09
   50.2672882        -2.08727347E-09
   50.3860397        -2.03093053E-09
   50.5047874        -1.97293337E-09
   50.6235390        -1.91333283E-09
   50.7422905        -1.85217242E-09
   50.8610382        -1.78948523E-09
   50.9797897        -1.72529313E-09
   51.0985374        -1.65960490E-09
   51.2172890        -1.59241464E-09
   51.3360405        -1.52370250E-09
   51.4547882        -1.45343260E-09
   51.5735397        -1.38155454E-09
   51.6922874        -1.30800359E-09
   51.8110390        -1.23270116E-09
   51.9297905        -1.15555687E-09
   52.0485382        -1.07646969E-09
   52.1672897        -9.95329374E-10
   52.2860374        -9.12019238E-10
   52.4047890        -8.26417490E-10
   52.5235405        -7.38399286E-10
   52.6422882        -6.47838394E-10
   52.7610397        -5.54609969E-10
   52.8797874        -4.58590943E-10
   52.9985390        -3.59662300E-10
   53.1172905        -2.57711075E-10
   53.2360382        -1.52630325E-10
   53.3547897        -4.43215291E-11
   53.4735374         6.73039749E-11
   53.5922890         1.82324419E-10
   53.7110405         3.00805714E-10
   53.8297882         4.22799962E-10
   53.9485397         5.48343759E-10
   54.0672874         6.77457035E-10
   54.1860390         8.10141121E-10
   54.3047905         9.46376977E-10
   54.4235382         1.08612419E-09
   54.5422897         1.22931898E-09
   54.6610374         1.37587364E-09
   54.7797890         1.52567536E-09
   54.8985405         1.67858538E-09
   55.0172882         1.83444115E-09
   55.1360397         1.99305417E-09
   55.2547874         2.15421303E-09
   55.3735390         2.31768471E-09
   55.4922905         2.48321719E-09
   55.6110382         2.65054112E-09
   55.7297897         2.81937429E-09
   55.8485374         2.98942537E-09
   55.9672890         3.16039550E-09
   56.0860405         3.33198580E-09
   56.2047882         3.50389873E-09
   56.3235397         3.67584252E-09
   56.4422874         3.84753607E-09
   56.5610390         4.01871159E-09
   56.6797905         4.18911839E-09
   56.7985382         4.35852376E-09
   56.9172897         4.52671944E-09
   57.0360374         4.69351935E-09
   57.1547890         4.85876450E-09
   57.2735405         5.02232211E-09
   57.3922882         5.18408694E-09
   57.5110397         5.34398392E-09
   57.6297874         5.50196422E-09
   57.7485390         5.65800828E-09
   57.8672905         5.81212456E-09
   57.9860382         5.96434990E-09
   58.1047897         6.11474649E-09
   58.2235374         6.26340224E-09