  -37.8452110         0.00000000    
  -37.7302094         0.00000000    
  -37.6152115         0.00000000    
  -37.5002098         0.00000000    
  -37.3852119         0.00000000    
  -37.2702103         0.00000000    
  -37.1552124         0.00000000    
  -37.0402107         1.52477275E-30
  -36.9252129         2.14209316E-29
  -36.8102112         1.59237814E-28
  -36.6952095         8.34417141E-28
  -36.5802116         3.43864430E-27
  -36.4652100         1.18490066E-26
  -36.3502121         3.54583024E-26
  -36.2352104         9.45058877E-26
  -36.1202126         2.28355511E-25
  -36.0052109         5.06735255E-25
  -35.8902092         1.04259634E-24
  -35.7752113         2.00300875E-24
  -35.6602097         3.61144979E-24
  -35.5452118         6.13126874E-24
  -35.4302101         9.81678705E-24
  -35.3152122         1.48164202E-23
  -35.2002106         2.10128469E-23
  -35.0852127         2.77897995E-23
  -34.9702110         3.37248797E-23
  -34.8552094         3.62229750E-23
  -34.7402115         3.11251034E-23
  -34.6252098         1.23504150E-23
  -34.5102119        -2.83481994E-23
  -34.3952103        -1.01417567E-22
  -34.2802124        -2.19222477E-22
  -34.1652107        -3.95354695E-22
  -34.0502129        -6.43466898E-22
  -33.9352112        -9.75618840E-22
  -33.8202095        -1.40019059E-21
  -33.7052116        -1.91950533E-21
  -33.5902100        -2.52738776E-21
  -33.4752121        -3.20695561E-21
  -33.3602104        -3.92899482E-21
  -33.2452126        -4.65125678E-21
  -33.1302109        -5.31896077E-21
  -33.0152092        -5.86665450E-21
  -32.9002113        -6.22141078E-21
  -32.7852097        -6.30706678E-21
  -32.6702118        -6.04899734E-21
  -32.5552101        -5.37864257E-21
  -32.4402122        -4.23685343E-21
  -32.3252106        -2.57504536E-21
  -32.2102127        -3.53257972E-22
  -32.0952110         2.46550693E-21
  -31.9802113         5.92485279E-21
  -31.8652115         1.00879902E-20
  -31.7502117         1.50530053E-20
  -31.6352119         2.09684437E-20
  -31.5202103         2.80466476E-20
  -31.4052105         3.65718941E-20
  -31.2902107         4.69001843E-20
  -31.1752110         5.94481782E-20
  -31.0602112         7.46694000E-20
  -30.9452114         9.30175068E-20
  -30.8302116         1.14898153E-19
  -30.7152119         1.40613169E-19
  -30.6002102         1.70302827E-19
  -30.4852104         2.03893998E-19
  -30.3702106         2.41063049E-19
  -30.2552109         2.81222616E-19
  -30.1402111         3.23540039E-19
  -30.0252113         3.66993697E-19
  -29.9102116         4.10467596E-19
  -29.7952118         4.52881851E-19
  -29.6802101         4.93348612E-19
  -29.5652103         5.31337140E-19
  -29.4502106         5.66828151E-19
  -29.3352108         6.00431330E-19
  -29.2202110         6.33440489E-19
  -29.1052113         6.67802968E-19
  -28.9902115         7.05987176E-19
  -28.8752117         7.50741214E-19
  -28.7602119         8.04752799E-19
  -28.6452103         8.70233916E-19
  -28.5302105         9.48474862E-19
  -28.4152107         1.03942337E-18
  -28.3002110         1.14135891E-18
  -28.1852112         1.25073265E-18
  -28.0702114         1.36223753E-18
  -27.9552116         1.46915404E-18
  -27.8402119         1.56399040E-18
  -27.7252102         1.63939070E-18
  -27.6102104         1.68924426E-18
  -27.4952106         1.70988242E-18
  -27.3802109         1.70120209E-18
  -27.2652111         1.66753718E-18
  -27.1502113         1.61808170E-18
  -27.0352116         1.56669652E-18
  -26.9202118         1.53097462E-18
  -26.8052101         1.53052060E-18
  -26.6902103         1.58450251E-18
  -26.5752106         1.70865447E-18
  -26.4602108         1.91202819E-18
  -26.3452110         2.19389640E-18
  -26.2302113         2.54129033E-18
  -26.1152115         2.92766888E-18
  -26.0002117         3.31318592E-18
  -25.8852119         3.64690035E-18
  -25.7702103         3.87110146E-18
  -25.6552105         3.92766448E-18
  -25.5402107         3.76607764E-18
  -25.4252110         3.35246500E-18
  -25.3102112         2.67867366E-18
  -25.1952114         1.77025006E-18
  -25.0802116         6.92050888E-19
  -24.9652119        -4.49787420E-19
  -24.8502102        -1.51059506E-18
  -24.7352104        -2.31538338E-18
  -24.6202106        -2.67279261E-18
  -24.5052109        -2.39441966E-18
  -24.3902111        -1.31849384E-18
  -24.2752113         6.63842479E-19
  -24.1602116         3.58202623E-18
  -24.0452118         7.36223005E-18
  -23.9302101         1.18093524E-17
  -23.8152103         1.65980358E-17
  -23.7002106         2.12755734E-17
  -23.5852108         2.52789141E-17
  -23.4702110         2.79669434E-17
  -23.3552113         2.86679558E-17
  -23.2402115         2.67406052E-17
  -23.1252117         2.16451114E-17
  -23.0102119         1.30197525E-17
  -22.8952103         7.56300178E-19
  -22.7802105        -1.49330172E-17
  -22.6652107        -3.34650707E-17
  -22.5502110        -5.38598307E-17
  -22.4352112        -7.47458864E-17
  -22.3202114        -9.44030263E-17
  -22.2052116        -1.10844783E-16
  -22.0902119        -1.21940941E-16
  -21.9752102        -1.25576221E-16
  -21.8602104        -1.19837427E-16
  -21.7452106        -1.03217410E-16
  -21.6302109        -7.48210672E-17
  -21.5152111        -3.45552980E-17
  -21.4002113         1.67158561E-17
  -21.2852116         7.70702772E-17
  -21.1702118         1.43498234E-16
  -21.0552101         2.11958070E-16
  -20.9402103         2.77525342E-16
  -20.8252106         3.34637015E-16
  -20.7102108         3.77423879E-16
  -20.5952110         4.00116447E-16
  -20.4802113         3.97500413E-16
  -20.3652115         3.65391140E-16
  -20.2502117         3.01090990E-16
  -20.1352119         2.03789549E-16
  -20.0202103         7.48681768E-17
  -19.9052105        -8.19274023E-17
  -19.7902107        -2.60474675E-16
  -19.6752110        -4.52440637E-16
  -19.5602112        -6.47631704E-16
  -19.4452114        -8.34517294E-16
  -19.3302116        -1.00090241E-15
  -19.2152119        -1.13470895E-15
  -19.1002102        -1.22481303E-15
  -18.9852104        -1.26187718E-15
  -18.8702106        -1.23911148E-15
  -18.7552109        -1.15289718E-15
  -18.6402111        -1.00321799E-15
  -18.5252113        -7.93849337E-16
  -18.4102116        -5.32281274E-16
  -18.2952118        -2.29365881E-16
  -18.1802101         1.01293249E-16
  -18.0652103         4.44170154E-16
  -17.9502106         7.82802598E-16
  -17.8352108         1.10085855E-15
  -17.7202110         1.38319337E-15
  -17.6052113         1.61680770E-15
  -17.4902115         1.79161995E-15
  -17.3752117         1.90098249E-15
  -17.2602119         1.94189143E-15
  -17.1452103         1.91486854E-15
  -17.0302105         1.82352937E-15
  -16.9152107         1.67387305E-15
  -16.8002110         1.47337686E-15
  -16.6852112         1.22998512E-15
  -16.5702114         9.51112544E-16
  -16.4552116         6.42778469E-16
  -16.3402119         3.08984649E-16
  -16.2252102        -4.85691637E-17
  -16.1102104        -4.30372252E-16
  -15.9952106        -8.38569818E-16
  -15.8802109        -1.27603544E-15
  -15.7652111        -1.74512081E-15
  -15.6502113        -2.24620072E-15
  -15.5352106        -2.77616340E-15
  -15.4202108        -3.32702810E-15
  -15.3052111        -3.88486367E-15
  -15.1902113        -4.42918991E-15
  -15.0752115        -4.93298902E-15
  -14.9602108        -5.36342321E-15
  -14.8452110        -5.68328445E-15
  -14.7302113        -5.85311583E-15
  -14.6152115        -5.83388648E-15
  -14.5002108        -5.59001045E-15
  -14.3852110        -5.09244339E-15
  -14.2702112        -4.32154897E-15
  -14.1552114        -3.26940784E-15
  -14.0402107        -1.94126039E-15
  -13.9252110        -3.55801351E-16
  -13.8102112         1.45585323E-15
  -13.6952114         3.45262085E-15
  -13.5802107         5.58729444E-15
  -13.4652109         7.81159534E-15
  -13.3502111         1.00821315E-14
  -13.2352114         1.23668225E-14
  -13.1202106         1.46512627E-14
  -13.0052109         1.69444232E-14
  -12.8902111         1.92830811E-14
  -12.7752113         2.17343928E-14
  -12.6602106         2.43961091E-14
  -12.5452108         2.73941179E-14
  -12.4302111         3.08770784E-14
  -12.3152113         3.50082715E-14
  -12.2002115         3.99548863E-14
  -12.0852108         4.58753146E-14
  -11.9702110         5.29051392E-14
  -11.8552113         6.11428022E-14
  -11.7402115         7.06359071E-14
  -11.6252108         8.13693459E-14
  -11.5102110         9.32561997E-14
  -11.3952112         1.06132496E-13
  -11.2802114         1.19756445E-13
  -11.1652107         1.33812788E-13
  -11.0502110         1.47922202E-13
  -10.9352112         1.61655940E-13
  -10.8202114         1.74554625E-13
  -10.7052107         1.86150777E-13
  -10.5902109         1.95993409E-13
  -10.4752111         2.03673531E-13
  -10.3602114         2.08848713E-13
  -10.2452106         2.11264993E-13
  -10.1302109         2.10774730E-13
  -10.0152111         2.07348746E-13
  -9.90021133         2.01081786E-13
  -9.78521061         1.92190407E-13
  -9.67021084         1.81003175E-13
  -9.55521107         1.67943350E-13
  -9.44021130         1.53504908E-13
  -9.32521152         1.38222970E-13
  -9.21021080         1.22640477E-13
  -9.09521103         1.07273030E-13
  -8.98021126         9.25741688E-14
  -8.86521149         7.89032874E-14
  -8.75021076         6.64984086E-14
  -8.63521099         5.54558230E-14
  -8.52021122         4.57181222E-14
  -8.40521145         3.70718200E-14
  -8.29021072         2.91548808E-14
  -8.17521095         2.14744147E-14
  -8.06021118         1.34334851E-14
  -7.94521093         4.36575519E-15
  -7.83021116        -6.42370136E-15
  -7.71521091        -1.96140626E-14
  -7.60021114        -3.58232460E-14
  -7.48521090        -5.55641281E-14
  -7.37021112        -7.92051971E-14
  -7.25521088        -1.06938120E-13
  -7.14021111        -1.38754473E-13
  -7.02521086        -1.74433330E-13
  -6.91021109        -2.13540665E-13
  -6.79521084        -2.55441040E-13
  -6.68021107        -2.99321142E-13
  -6.56521130        -3.44224351E-13
  -6.45021105        -3.89094437E-13
  -6.33521128        -4.32826057E-13
  -6.22021103        -4.74319477E-13
  -6.10521126        -5.12536845E-13
  -5.99021101        -5.46555965E-13
  -5.87521124        -5.75619576E-13
  -5.76021099        -5.99177121E-13
  -5.64521122        -6.16915698E-13
  -5.53021097        -6.28780123E-13
  -5.41521120        -6.34979211E-13
  -5.30021095        -6.35979117E-13
  -5.18521118        -6.32482944E-13
  -5.07021093        -6.25399201E-13
  -4.95521116        -6.15799458E-13
  -4.84021091        -6.04868206E-13
  -4.72521114        -5.93847996E-13
  -4.61021090        -5.83982136E-13
  -4.49521112        -5.76459507E-13
  -4.38021088        -5.72362795E-13
  -4.26521111        -5.72624955E-13
  -4.15021086        -5.77995063E-13
  -4.03521109        -5.89015544E-13
  -3.92021108        -6.06012961E-13
  -3.80521107        -6.29101263E-13
  -3.69021106        -6.58198647E-13
  -3.57521105        -6.93055639E-13
  -3.46021104        -7.33293146E-13
  -3.34521103        -7.78448378E-13
  -3.23021102        -8.28025148E-13
  -3.11521101        -8.81545271E-13
  -3.00021100        -9.38598700E-13
  -2.88521099        -9.98888472E-13
  -2.77021098        -1.06226790E-12
  -2.65521097        -1.12876787E-12
  -2.54021096        -1.19861152E-12
  -2.42521095        -1.27221682E-12
  -2.31021094        -1.35018526E-12
  -2.19521117        -1.43327808E-12
  -2.08021116        -1.52238042E-12
  -1.96521103        -1.61845700E-12
  -1.85021102        -1.72249888E-12
  -1.73521101        -1.83546733E-12
  -1.62021101        -1.95823522E-12
  -1.50521111        -2.09153007E-12
  -1.39021111        -2.23588227E-12
  -1.27521110        -2.39157891E-12
  -1.16021109        -2.55862822E-12
  -1.04521108        -2.73673293E-12
 -0.930211067        -2.92527634E-12
 -0.815211058        -3.12331909E-12
 -0.700211048        -3.32960807E-12
 -0.585211039        -3.54259504E-12
 -0.470211059        -3.76046503E-12
 -0.355211049        -3.98117260E-12
 -0.240211055        -4.20248298E-12
 -0.125211060        -4.42201614E-12
  -1.02110580E-02    -4.63729749E-12
  0.104788944        -4.84580388E-12
  0.219788939        -5.04501302E-12
  0.334788948        -5.23244772E-12
  0.449788928        -5.40572274E-12
  0.564788938        -5.56258338E-12
  0.679788947        -5.70094666E-12
  0.794788957        -5.81893474E-12
  0.909788966        -5.91491005E-12
   1.02478898        -5.98750346E-12
   1.13978899        -6.03564507E-12
   1.25478899        -6.05858376E-12
   1.36978889        -6.05591185E-12
   1.48478889        -6.02757904E-12
   1.59978890        -5.97390496E-12
   1.71478891        -5.89558437E-12
   1.82978892        -5.79368368E-12
   1.94478893        -5.66963664E-12
   2.05978894        -5.52522394E-12
   2.17478895        -5.36254765E-12
   2.28978896        -5.18400470E-12
   2.40478897        -4.99224056E-12
   2.51978898        -4.79010972E-12
   2.63478899        -4.58062451E-12
   2.74978900        -4.36690658E-12
   2.86478901        -4.15213480E-12
   2.97978902        -3.93949847E-12
   3.09478903        -3.73215391E-12
   3.20978904        -3.53318633E-12
   3.32478905        -3.34557989E-12
   3.43978906        -3.17219211E-12
   3.55478883        -3.01573718E-12
   3.66978884        -2.87877317E-12
   3.78478885        -2.76368988E-12
   3.89978886        -2.67270060E-12
   4.01478910        -2.60782628E-12
   4.12978888        -2.57087580E-12
   4.24478912        -2.56341584E-12
   4.35978889        -2.58672966E-12
   4.47478914        -2.64175964E-12
   4.58978891        -2.72904095E-12
   4.70478916        -2.84861848E-12
   4.81978893        -2.99995792E-12
   4.93478870        -3.18184866E-12
   5.04978895        -3.39231269E-12
   5.16478872        -3.62851372E-12
   5.27978897        -3.88669088E-12
   5.39478874        -4.16210946E-12
   5.50978899        -4.44904790E-12
   5.62478876        -4.74081755E-12
   5.73978901        -5.02983332E-12
   5.85478878        -5.30772431E-12
   5.96978903        -5.56549511E-12
   6.08478880        -5.79373181E-12
   6.19978905        -5.98284920E-12
   6.31478882        -6.12336657E-12
   6.42978907        -6.20620959E-12
   6.54478884        -6.22301950E-12
   6.65978909        -6.16645840E-12
   6.77478886        -6.03049511E-12
   6.88978910        -5.81066141E-12
   7.00478888        -5.50425504E-12
   7.11978912        -5.11049493E-12
   7.23478889        -4.63060363E-12
   7.34978914        -4.06782290E-12
   7.46478891        -3.42735757E-12
   7.57978916        -2.71624888E-12
   7.69478893        -1.94318585E-12
   7.80978870        -1.11826184E-12
   7.92478895        -2.52692967E-13
   8.03978920         6.41494128E-13
   8.15478897         1.55178409E-12
   8.26978874         2.46548875E-12
   8.38478851         3.37004881E-12
   8.49978924         4.25329867E-12
   8.61478901         5.10369438E-12
   8.72978878         5.91048998E-12
   8.84478855         6.66386477E-12
   8.95978928         7.35499422E-12
   9.07478905         7.97607987E-12
   9.18978882         8.52033721E-12
   9.30478859         8.98194540E-12
   9.41978931         9.35599515E-12
   9.53478909         9.63840813E-12
   9.64978886         9.82588230E-12
   9.76478863         9.91583725E-12
   9.87978935         9.90639255E-12
   9.99478912         9.79637812E-12
   10.1097889         9.58536982E-12
   10.2247887         9.27376492E-12
   10.3397894         8.86288699E-12
   10.4547892         8.35510133E-12
   10.5697889         7.75395893E-12
   10.6847887         7.06431918E-12
   10.7997885         6.29247435E-12
   10.9147892         5.44623634E-12
   11.0297890         4.53499001E-12
   11.1447887         3.56968990E-12
   11.2597885         2.56279850E-12
   11.3747892         1.52816561E-12
   11.4897890         4.80836562E-13
   11.6047888        -5.63201937E-13
   11.7197886        -1.58732944E-12
   11.8347893        -2.57465056E-12
   11.9497890        -3.50838174E-12
   12.0647888        -4.37226384E-12
   12.1797886        -5.15097123E-12
   12.2947893        -5.83051185E-12
   12.4097891        -6.39859086E-12
   12.5247889        -6.84493304E-12
   12.6397886        -7.16154219E-12
   12.7547894        -7.34289279E-12
   12.8697891        -7.38604317E-12
   12.9847889        -7.29066980E-12
   13.0997887        -7.05901700E-12
   13.2147894        -6.69577675E-12
   13.3297892        -6.20788707E-12
   13.4447889        -5.60427486E-12
   13.5597887        -4.89555098E-12
   13.6747885        -4.09366117E-12
   13.7897892        -3.21151569E-12
   13.9047890        -2.26261371E-12
   14.0197887        -1.26066052E-12
   14.1347885        -2.19212872E-13
   14.2497892         8.48654643E-13
   14.3647890         1.93064727E-12
   14.4797888         3.01549757E-12
   14.5947886         4.09317632E-12
   14.7097893         5.15503655E-12
   14.8247890         6.19391300E-12
   14.9397888         7.20417909E-12
   15.0547886         8.18173480E-12
   15.1697893         9.12397501E-12
   15.2847891         1.00297019E-11
   15.3997889         1.08990239E-11
   15.5147886         1.17332307E-11
   15.6297894         1.25346409E-11
   15.7447891         1.33064601E-11
   15.8597889         1.40526479E-11
   15.9747887         1.47777676E-11
   16.0897884         1.54868826E-11
   16.2047882         1.61854558E-11
   16.3197899         1.68792740E-11
   16.4347897         1.75744124E-11
   16.5497894         1.82772009E-11
   16.6647892         1.89942298E-11
   16.7797890         1.97323755E-11
   16.8947887         2.04988301E-11
   17.0097885         2.13011223E-11
   17.1247883         2.21471869E-11
   17.2397881         2.30453660E-11
   17.3547897         2.40044113E-11
   17.4697895         2.50334944E-11
   17.5847893         2.61421162E-11
   17.6997890         2.73400417E-11
   17.8147888         2.86371604E-11
   17.9297886         3.00433116E-11
   18.0447884         3.15680676E-11
   18.1597881         3.32205062E-11
   18.2747898         3.50089402E-11
   18.3897896         3.69406311E-11
   18.5047894         3.90215187E-11
   18.6197891         4.12559674E-11
   18.7347889         4.36465135E-11
   18.8497887         4.61936947E-11
   18.9647884         4.88958943E-11
   19.0797882         5.17493340E-11
   19.1947899         5.47480221E-11
   19.3097897         5.78838678E-11
   19.4247894         6.11468723E-11
   19.5397892         6.45253434E-11
   19.6547890         6.80062326E-11
   19.7697887         7.15755163E-11
   19.8847885         7.52185328E-11
   19.9997883         7.89205090E-11
   20.1147881         8.26669289E-11
   20.2297897         8.64439423E-11
   20.3447895         9.02387540E-11
   20.4597893         9.40399286E-11
   20.5747890         9.78376200E-11
   20.6897888         1.01623758E-10
   20.8047886         1.05392091E-10
   20.9197884         1.09138198E-10
   21.0347881         1.12859361E-10
   21.1497898         1.16554377E-10
   21.2647896         1.20223331E-10
   21.3797894         1.23867347E-10
   21.4947891         1.27488187E-10
   21.6097889         1.31087974E-10
   21.7247887         1.34668887E-10
   21.8397884         1.38232856E-10
   21.9547882         1.41781323E-10
   22.0697899         1.45315121E-10
   22.1847897         1.48834306E-10
   22.2997894         1.52338156E-10
   22.4147892         1.55825186E-10
   22.5297890         1.59293301E-10
   22.6447887         1.62739947E-10
   22.7597885         1.66162223E-10
   22.8747883         1.69557257E-10
   22.9897881         1.72922288E-10
   23.1047897         1.76254997E-10
   23.2197895         1.79553553E-10
   23.3347893         1.82816901E-10
   23.4497890         1.86044707E-10
   23.5647888         1.89237445E-10
   23.6797886         1.92396266E-10
   23.7947884         1.95522903E-10
   23.9097881         1.98619524E-10
   24.0247898         2.01688374E-10
   24.1397896         2.04731662E-10
   24.2547894         2.07751094E-10
   24.3697891         2.10747725E-10
   24.4847889         2.13721665E-10
   24.5997887         2.16671875E-10
   24.7147884         2.19596022E-10
   24.8297882         2.22490373E-10
   24.9447899         2.25349864E-10
   25.0597897         2.28168123E-10
   25.1747894         2.30937741E-10
   25.2897892         2.33650488E-10
   25.4047890         2.36297593E-10
   25.5197887         2.38870229E-10
   25.6347885         2.41359821E-10
   25.7497883         2.43758430E-10
   25.8647881         2.46059312E-10
   25.9797897         2.48257054E-10
   26.0947895         2.50348020E-10
   26.2097893         2.52330545E-10
   26.3247890         2.54205046E-10
   26.4397888         2.55974159E-10
   26.5547886         2.57642491E-10
   26.6697884         2.59216704E-10
   26.7847881         2.60705180E-10
   26.8997898         2.62117689E-10
   27.0147896         2.63465111E-10
   27.1297894         2.64758965E-10
   27.2447891         2.66010936E-10
   27.3597889         2.67232597E-10
   27.4747887         2.68434830E-10
   27.5897884         2.69627348E-10
   27.7047882         2.70818590E-10
   27.8197899         2.72015133E-10
   27.9347897         2.73221473E-10
   28.0497894         2.74439832E-10
   28.1647892         2.75669876E-10
   28.2797890         2.76908829E-10
   28.3947887         2.78151002E-10
   28.5097885         2.79388096E-10
   28.6247883         2.80609036E-10
   28.7397881         2.81799972E-10
   28.8547897         2.82944501E-10
   28.9697895         2.84023638E-10
   29.0847893         2.85015983E-10
   29.1997890         2.85898083E-10
   29.3147888         2.86644347E-10
   29.4297886         2.87227658E-10
   29.5447884         2.87619456E-10
   29.6597881         2.87790236E-10
   29.7747898         2.87709995E-10
   29.8897896         2.87348700E-10
   30.0047894         2.86676738E-10
   30.1197891         2.85665630E-10
   30.2347889         2.84288371E-10
   30.3497887         2.82520313E-10
   30.4647884         2.80339446E-10
   30.5797882         2.77727036E-10
   30.6947899         2.74668094E-10
   30.8097897         2.71151768E-10
   30.9247894         2.67171535E-10
   31.0397892         2.62725508E-10
   31.1547890         2.57816435E-10
   31.2697887         2.52451532E-10
   31.3847885         2.46642540E-10
   31.4997883         2.40405168E-10
   31.6147881         2.33758873E-10
   31.7297897         2.26726166E-10
   31.8447895         2.19332288E-10
   31.9597893         2.11604359E-10
   32.0747871         2.03570827E-10
   32.1897888         1.95260808E-10
   32.3047905         1.86703403E-10
   32.4197884         1.77927062E-10
   32.5347900         1.68958972E-10
   32.6497879         1.59824529E-10
   32.7647896         1.50546797E-10
   32.8797874         1.41146012E-10
   32.9947891         1.31639186E-10
   33.1097908         1.22039670E-10
   33.2247887         1.12356763E-10
   33.3397903         1.02595370E-10
   33.4547882         9.27556226E-11
   33.5697899         8.28326643E-11
   33.6847878         7.28161836E-11
   33.7997894         6.26902696E-11
   33.9147873         5.24330926E-11
   34.0297890         4.20168171E-11
   34.1447906         3.14075051E-11
   34.2597885         2.05651399E-11
   34.3747902         9.44379470E-12
   34.4897881        -2.00801181E-12
   34.6047897        -1.38468828E-11
   34.7197876        -2.61337948E-11
   34.8347893        -3.89332767E-11
   34.9497871        -5.23123767E-11
   35.0647888        -6.63394895E-11
   35.1797905        -8.10828835E-11
   35.2947884        -9.66094635E-11
   35.4097900        -1.12983213E-10
   35.5247879        -1.30263605E-10
   35.6397896        -1.48504251E-10
   35.7547874        -1.67751563E-10
   35.8697891        -1.88043428E-10
   35.9847908        -2.09408366E-10
   36.0997887        -2.31864680E-10
   36.2147903        -2.55419824E-10
   36.3297882        -2.80070300E-10
   36.4447899        -3.05801579E-10
   36.5597878        -3.32588318E-10
   36.6747894        -3.60395241E-10
   36.7897873        -3.89177357E-10
   36.9047890        -4.18881319E-10
   37.0197906        -4.49446230E-10
   37.1347885        -4.80804785E-10
   37.2497902        -5.12884513E-10
   37.3647881        -5.45608947E-10
   37.4797897        -5.78898596E-10
   37.5947876        -6.12672135E-10
   37.7097893        -6.46847576E-10
   37.8247871        -6.81342538E-10
   37.9397888        -7.16075588E-10
   38.0547905        -7.50966678E-10
   38.1697884        -7.85937537E-10
   38.2847900        -8.20912782E-10
   38.3997879        -8.55819582E-10
   38.5147896        -8.90589102E-10
   38.6297874        -9.25156063E-10
   38.7447891        -9.59459734E-10
   38.8597908        -9.93444105E-10
   38.9747887        -1.02705877E-09
   39.0897903        -1.06025910E-09
   39.2047882        -1.09300680E-09
   39.3197899        -1.12526999E-09
   39.4347878        -1.15702470E-09
   39.5497894        -1.18825383E-09
   39.6647873        -1.21894805E-09
   39.7797890        -1.24910604E-09
   39.8947906        -1.27873390E-09
   40.0097885        -1.30784494E-09
   40.1247902        -1.33646005E-09
   40.2397881        -1.36460609E-09
   40.3547897        -1.39231560E-09
   40.4697876        -1.41962631E-09
   40.5847893        -1.44657963E-09
   40.6997871        -1.47322010E-09
   40.8147888        -1.49959434E-09
   40.9297905        -1.52574964E-09
   41.0447884        -1.55173352E-09
   41.1597900        -1.57759272E-09
   41.2747879        -1.60337232E-09
   41.3897896        -1.62911518E-09
   41.5047874        -1.65486103E-09
   41.6197891        -1.68064662E-09
   41.7347908        -1.70650571E-09
   41.8497887        -1.73246772E-09
   41.9647903        -1.75855885E-09
   42.0797882        -1.78480164E-09
   42.1947899        -1.81121473E-09
   42.3097878        -1.83781323E-09
   42.4247894        -1.86460891E-09
   42.5397873        -1.89161020E-09
   42.6547890        -1.91882110E-09
   42.7697906        -1.94624339E-09
   42.8847885        -1.97387440E-09
   42.9997902        -2.00170858E-09
   43.1147881        -2.02973593E-09
   43.2297897        -2.05794337E-09
   43.3447876        -2.08631357E-09
   43.4597893        -2.11482543E-09
   43.5747871        -2.14345408E-09
   43.6897888        -2.17217067E-09
   43.8047905        -2.20094254E-09
   43.9197884        -2.22973351E-09
   44.0347900        -2.25850361E-09
   44.1497879        -2.28720953E-09
   44.2647896        -2.31580533E-09
   44.3797874        -2.34424125E-09
   44.4947891        -2.37246534E-09
   44.6097908        -2.40042342E-09
   44.7247887        -2.42805775E-09
   44.8397903        -2.45530885E-09
   44.9547882        -2.48211451E-09
   45.0697899        -2.50840970E-09
   45.1847878        -2.53412691E-09
   45.2997894        -2.55919597E-09
   45.4147873        -2.58354427E-09
   45.5297890        -2.60709543E-09
   45.6447906        -2.62977085E-09
   45.7597885        -2.65148903E-09
   45.8747902        -2.67216582E-09
   45.9897881        -2.69171552E-09
   46.1047897        -2.71004952E-09
   46.2197876        -2.72707945E-09
   46.3347893        -2.74271583E-09
   46.4497871        -2.75686984E-09
   46.5647888        -2.76945400E-09
   46.6797905        -2.78038370E-09
   46.7947884        -2.78957701E-09
   46.9097900        -2.79695711E-09
   47.0247879        -2.80245116E-09
   47.1397896        -2.80599344E-09
   47.2547874        -2.80752355E-09
   47.3697891        -2.80698864E-09
   47.4847908        -2.80434276E-09
   47.5997887        -2.79954704E-09
   47.7147903        -2.79256973E-09
   47.8297882        -2.78338574E-09
   47.9447899        -2.77197665E-09
   48.0597878        -2.75832979E-09
   48.1747894        -2.74243783E-09
   48.2897873        -2.72429879E-09
   48.4047890        -2.70391531E-09
   48.5197906        -2.68129385E-09
   48.6347885        -2.65644506E-09
   48.7497902        -2.62938404E-09
   48.8647881        -2.60012856E-09
   48.9797897        -2.56870103E-09
   49.0947876        -2.53512766E-09
   49.2097893        -2.49943866E-09
   49.3247871        -2.46166887E-09
   49.4397888        -2.42185716E-09
   49.5547905        -2.38004638E-09
   49.6697884        -2.33628428E-09
   49.7847900        -2.29062169E-09
   49.8997879        -2.24311303E-09
   50.0147896        -2.19381469E-09
   50.1297874        -2.14278462E-09
   50.2447891        -2.09008055E-09
   50.3597908        -2.03575867E-09
   50.4747887        -1.97987182E-09
   50.5897903        -1.92246863E-09
   50.7047882        -1.86359062E-09
   50.8197899        -1.80327153E-09
   50.9347878        -1.74153514E-09
   51.0497894        -1.67839431E-09
   51.1647873        -1.61384983E-09
   51.2797890        -1.54788982E-09
   51.3947906        -1.48048918E-09
   51.5097885        -1.41160927E-09
   51.6247902        -1.34119849E-09
   51.7397881        -1.26919319E-09
   51.8547897        -1.19551802E-09
   51.9697876        -1.12008769E-09
   52.0847893        -1.04280773E-09
   52.1997871        -9.63576441E-10
   52.3147888        -8.82286799E-10
   52.4297905        -7.98827837E-10
   52.5447884        -7.13085813E-10
   52.6597900        -6.24947150E-10
   52.7747879        -5.34298272E-10
   52.8897896        -4.41028519E-10
   53.0047874        -3.45030365E-10
   53.1197891        -2.46201337E-10
   53.2347908        -1.44445123E-10
   53.3497887        -3.96723071E-11
   53.4647903         6.81982873E-11
   53.5797882         1.79238374E-10
   53.6947899         2.93508662E-10
   53.8097878         4.11058604E-10
   53.9247894         5.31923838E-10
   54.0397873         6.56126320E-10
   54.1547890         7.83671350E-10
   54.2697906         9.14547438E-10
   54.3847885         1.04872433E-09
   54.4997902         1.18615162E-09
   54.6147881         1.32675837E-09
   54.7297897         1.47045187E-09
   54.8447876         1.61711700E-09
   54.9597893         1.76661641E-09
   55.0747871         1.91879113E-09
   55.1897888         2.07346074E-09