  -75.1732025         0.00000000    
  -75.0581970         0.00000000    
  -74.9431992         0.00000000    
  -74.8282013         0.00000000    
  -74.7132034         0.00000000    
  -74.5981979         0.00000000    
  -74.4832001         0.00000000    
  -74.3682022         1.52477275E-30
  -74.2531967         2.13907336E-29
  -74.1381989         1.58782729E-28
  -74.0232010         8.30788304E-28
  -73.9082031         3.41838044E-27
  -73.7931976         1.17601458E-26
  -73.6781998         3.51328110E-26
  -73.5632019         9.34714076E-26
  -73.4481964         2.25428837E-25
  -73.3331985         4.99229884E-25
  -73.2182007         1.02491481E-24
  -73.1032028         1.96435575E-24
  -72.9881973         3.53243591E-24
  -72.8731995         5.97934202E-24
  -72.7582016         9.54080249E-24
  -72.6432037         1.43413098E-23
  -72.5281982         2.02363080E-23
  -72.4132004         2.65842181E-23
  -72.2982025         3.19491854E-23
  -72.1831970         3.37507039E-23
  -72.0681992         2.78961537E-23
  -71.9532013         8.45467039E-24
  -71.8382034        -3.25478046E-23
  -71.7231979        -1.05117047E-22
  -71.6082001        -2.20962691E-22
  -71.4932022        -3.92765817E-22
  -71.3781967        -6.32984666E-22
  -71.2631989        -9.52195351E-22
  -71.1482010        -1.35703261E-21
  -71.0332031        -1.84788130E-21
  -70.9181976        -2.41655283E-21
  -70.8031998        -3.04424478E-21
  -70.6882019        -3.70013034E-21
  -70.5731964        -4.34090491E-21
  -70.4581985        -4.91155533E-21
  -70.3432007        -5.34748800E-21
  -70.2282028        -5.57794463E-21
  -70.1131973        -5.53041931E-21
  -69.9981995        -5.13551327E-21
  -69.8832016        -4.33145898E-21
  -69.7682037        -3.06736524E-21
  -69.6531982        -1.30420897E-21
  -69.5382004         9.87293476E-22
  -69.4232025         3.83251276E-21
  -69.3081970         7.26251088E-21
  -69.1931992         1.13269056E-20
  -69.0782013         1.61087285E-20
  -68.9632034         2.17393017E-20
  -68.8481979         2.84105521E-20
  -68.7332001         3.63818041E-20
  -68.6182022         4.59781170E-20
  -68.5031967         5.75776772E-20
  -68.3881989         7.15866853E-20
  -68.2732010         8.84018067E-20
  -68.1582031         1.08361836E-19
  -68.0431976         1.31692698E-19
  -67.9281998         1.58451681E-19
  -67.8132019         1.88478699E-19
  -67.6981964         2.21363329E-19
  -67.5831985         2.56436562E-19
  -67.4682007         2.92794821E-19
  -67.3532028         3.29360857E-19
  -67.2381973         3.64982899E-19
  -67.1231995         3.98566949E-19
  -67.0082016         4.29232266E-19
  -66.8932037         4.56473521E-19
  -66.7781982         4.80307696E-19
  -66.6632004         5.01382035E-19
  -66.5482025         5.21016563E-19
  -66.4331970         5.41159703E-19
  -66.3181992         5.64242436E-19
  -66.2032013         5.92926372E-19
  -66.0882034         6.29756692E-19
  -65.9731979         6.76747840E-19
  -65.8582001         7.34945580E-19
  -65.7432022         8.04024105E-19
  -65.6281967         8.81986705E-19
  -65.5131989         9.65038430E-19
  -65.3982010         1.04769321E-18
  -65.2832031         1.12315587E-18
  -65.1681976         1.18399159E-18
  -65.0531998         1.22305116E-18
  -64.9382019         1.23458175E-18
  -64.8231964         1.21539829E-18
  -64.7081985         1.16596370E-18
  -64.5932007         1.09118823E-18
  -64.4782028         1.00076570E-18
  -64.3631973         9.08882896E-19
  -64.2481995         8.33188270E-19
  -64.1332016         7.92993807E-19
  -64.0182037         8.06781408E-19
  -63.9031982         8.89208509E-19
  -63.7882004         1.04792100E-18
  -63.6731987         1.28058509E-18
  -63.5582008         1.57261541E-18
  -63.4431992         1.89608842E-18
  -63.3282013         2.21028119E-18
  -63.2131996         2.46415595E-18
  -63.0982018         2.60091703E-18
  -62.9832001         2.56451612E-18
  -62.8681984         2.30770549E-18
  -62.7532005         1.80092915E-18
  -62.6381989         1.04109241E-18
  -62.5232010         5.90437127E-20
  -62.4081993        -1.07548565E-18
  -62.2932014        -2.25269736E-18
  -62.1781998        -3.32631265E-18
  -62.0632019        -4.12258380E-18
  -61.9482002        -4.45488748E-18
  -61.8331985        -4.14343330E-18
  -61.7182007        -3.03893977E-18
  -61.6031990        -1.04844481E-18
  -61.4882011         1.83918750E-18
  -61.3731995         5.53096302E-18
  -61.2582016         9.81378742E-18
  -61.1431999         1.43479159E-17
  -61.0281982         1.86725022E-17
  -60.9132004         2.22252313E-17
  -60.7981987         2.43769366E-17
  -60.6832008         2.44807841E-17
  -60.5681992         2.19340439E-17
  -60.4532013         1.62488878E-17
  -60.3381996         7.12707997E-18
  -60.2232018        -5.46795791E-18
  -60.1082001        -2.12491003E-17
  -59.9931984        -3.95613984E-17
  -59.8782005        -5.93634902E-17
  -59.7631989        -7.92412094E-17
  -59.6482010        -9.74581815E-17
  -59.5331993        -1.12045756E-16
  -59.4182014        -1.20931344E-16
  -59.3031998        -1.22100514E-16
  -59.1882019        -1.13784530E-16
  -59.0732002        -9.46610339E-17
  -58.9581985        -6.40524793E-17
  -58.8432007        -2.21044778E-17
  -58.7281990         3.00746989E-17
  -58.6132011         9.03321264E-17
  -58.4981995         1.55461992E-16
  -58.3832016         2.21283387E-16
  -58.2681999         2.82810907E-16
  -58.1531982         3.34517557E-16
  -58.0382004         3.70681470E-16
  -57.9231987         3.85799473E-16
  -57.8082008         3.75042446E-16
  -57.6931992         3.34720686E-16
  -57.5782013         2.62722277E-16
  -57.4631996         1.58885289E-16
  -57.3482018         2.52656611E-17
  -57.2332001        -1.33733466E-16
  -57.1181984        -3.11396575E-16
  -57.0032005        -4.98910347E-16
  -56.8881989        -6.85759251E-16
  -56.7732010        -8.60288907E-16
  -56.6581993        -1.01040803E-15
  -56.5432014        -1.12438647E-15
  -56.4281998        -1.19169447E-15
  -56.3132019        -1.20381900E-15
  -56.1982002        -1.15499337E-15
  -56.0831985        -1.04277358E-15
  -55.9682007        -8.68407771E-16
  -55.8531990        -6.36956336E-16
  -55.7382011        -3.57139081E-16
  -55.6231995        -4.09078135E-17
  -55.5082016         2.97232914E-16
  -55.3931999         6.41112991E-16
  -55.2781982         9.73925153E-16
  -55.1632004         1.27931452E-15
  -55.0481987         1.54243863E-15
  -54.9332008         1.75090710E-15
  -54.8181992         1.89551532E-15
  -54.7032013         1.97070728E-15
  -54.5881996         1.97472073E-15
  -54.4732018         1.90939946E-15
  -54.3582001         1.77968991E-15
  -54.2431984         1.59287341E-15
  -54.1282005         1.35760863E-15
  -54.0131989         1.08289234E-15
  -53.8982010         7.77049603E-16
  -53.7831993         4.46876636E-16
  -53.6682014         9.70445515E-17
  -53.5531998        -2.70147500E-16
  -53.4382019        -6.54614696E-16
  -53.3232002        -1.05791038E-15
  -53.2081985        -1.48226541E-15
  -53.0932007        -1.92932273E-15
  -52.9781990        -2.39869185E-15
  -52.8632011        -2.88647843E-15
  -52.7481995        -3.38396968E-15
  -52.6332016        -3.87665254E-15
  -52.5181999        -4.34373276E-15
  -52.4031982        -4.75828297E-15
  -52.2882004        -5.08809642E-15
  -52.1731987        -5.29725935E-15
  -52.0582008        -5.34837101E-15
  -51.9431992        -5.20527369E-15
  -51.8282013        -4.83607574E-15
  -51.7131996        -4.21619162E-15
  -51.5982018        -3.33109111E-15
  -51.4832001        -2.17843173E-15
  -51.3681984        -7.69270452E-16
  -51.2532005         8.71894582E-16
  -51.1381989         2.70842808E-15
  -51.0232010         4.69426337E-15
  -50.9081993         6.77795383E-15
  -50.7932014         8.90785587E-15
  -50.6781998         1.10381259E-14
  -50.5632019         1.31350636E-14
  -50.4482002         1.51832604E-14
  -50.3331985         1.71909640E-14
  -50.2182007         1.91940461E-14
  -50.1031990         2.12580231E-14
  -49.9882011         2.34776544E-14
  -49.8731995         2.59738604E-14
  -49.7582016         2.88877673E-14
  -49.6431999         3.23720678E-14
  -49.5281982         3.65799615E-14
  -49.4132004         4.16523336E-14
  -49.2981987         4.77038690E-14
  -49.1832008         5.48091066E-14
  -49.0681992         6.29894628E-14
  -48.9532013         7.22022946E-14
  -48.8381996         8.23330865E-14
  -48.7232018         9.31915813E-14
  -48.6082001         1.04512624E-13
  -48.4931984         1.15962036E-13
  -48.3782005         1.27147668E-13
  -48.2631989         1.37635251E-13
  -48.1482010         1.46968443E-13
  -48.0331993         1.54692001E-13
  -47.9182014         1.60376757E-13
  -47.8031998         1.63644855E-13
  -47.6882019         1.64193651E-13
  -47.5732002         1.61816524E-13
  -47.4581985         1.56418972E-13
  -47.3432007         1.48028765E-13
  -47.2281990         1.36799101E-13
  -47.1132011         1.23004024E-13
  -46.9981995         1.07026252E-13
  -46.8832016         8.93375678E-14
  -46.7681999         7.04727685E-14
  -46.6531982         5.09986781E-14
  -46.5382004         3.14797728E-14
  -46.4231987         1.24427827E-14
  -46.3082008        -5.65773328E-15
  -46.1931992        -2.24703323E-14
  -46.0782013        -3.77722044E-14
  -45.9631996        -5.14872772E-14
  -45.8482018        -6.36953462E-14
  -45.7332001        -7.46315715E-14
  -45.6181984        -8.46756747E-14
  -45.5032005        -9.43313895E-14
  -45.3881989        -1.04196891E-13
  -45.2732010        -1.14927843E-13
  -45.1581993        -1.27195116E-13
  -45.0432014        -1.41639684E-13
  -44.9281998        -1.58827134E-13
  -44.8132019        -1.79204999E-13
  -44.6982002        -2.03065212E-13
  -44.5831985        -2.30514419E-13
  -44.4682007        -2.61454161E-13
  -44.3531990        -2.95572242E-13
  -44.2382011        -3.32346347E-13
  -44.1231995        -3.71060198E-13
  -44.0082016        -4.10831091E-13
  -43.8931999        -4.50648254E-13
  -43.7781982        -4.89419486E-13
  -43.6632004        -5.26024103E-13
  -43.5481987        -5.59369012E-13
  -43.4332008        -5.88444820E-13
  -43.3181992        -6.12379288E-13
  -43.2032013        -6.30484272E-13
  -43.0881996        -6.42294486E-13
  -42.9732018        -6.47595042E-13
  -42.8582001        -6.46436463E-13
  -42.7431984        -6.39136042E-13
  -42.6282005        -6.26266237E-13
  -42.5131989        -6.08628978E-13
  -42.3982010        -5.87219238E-13
  -42.2831993        -5.63178573E-13
  -42.1682014        -5.37741238E-13
  -42.0531998        -5.12176998E-13
  -41.9382019        -4.87732250E-13
  -41.8232002        -4.65574194E-13
  -41.7081985        -4.46740301E-13
  -41.5932007        -4.32096091E-13
  -41.4781990        -4.22303631E-13
  -41.3632011        -4.17802511E-13
  -41.2481995        -4.18804070E-13
  -41.1332016        -4.25299119E-13
  -41.0181999        -4.37078433E-13
  -40.9031982        -4.53765037E-13
  -40.7882004        -4.74855778E-13
  -40.6731987        -4.99769497E-13
  -40.5582008        -5.27899122E-13
  -40.4431992        -5.58664334E-13
  -40.3282013        -5.91560980E-13
  -40.2131996        -6.26205305E-13
  -40.0982018        -6.62368435E-13
  -39.9832001        -7.00001255E-13
  -39.8681984        -7.39245633E-13
  -39.7532005        -7.80432901E-13
  -39.6381989        -8.24068732E-13
  -39.5232010        -8.70805760E-13
  -39.4081993        -9.21404337E-13
  -39.2932014        -9.76685312E-13
  -39.1781998        -1.03747534E-12
  -39.0632019        -1.10454939E-12
  -38.9482002        -1.17857319E-12
  -38.8331985        -1.26004719E-12
  -38.7182007        -1.34925740E-12
  -38.6031990        -1.44623343E-12
  -38.4882011        -1.55071680E-12
  -38.3731995        -1.66214091E-12
  -38.2582016        -1.77962181E-12
  -38.1431999        -1.90196253E-12
  -38.0281982        -2.02766840E-12
  -37.9132004        -2.15497151E-12
  -37.7981987        -2.28186675E-12
  -37.6832008        -2.40615188E-12
  -37.5681992        -2.52547549E-12
  -37.4532013        -2.63738597E-12
  -37.3381996        -2.73938337E-12
  -37.2232018        -2.82897143E-12
  -37.1082001        -2.90370440E-12
  -36.9931984        -2.96123759E-12
  -36.8782005        -2.99936920E-12
  -36.7631989        -3.01608131E-12
  -36.6482010        -3.00957675E-12
  -36.5331993        -2.97831248E-12
  -36.4182014        -2.92102909E-12
  -36.3031998        -2.83677725E-12
  -36.1882019        -2.72493985E-12
  -36.0732002        -2.58525146E-12
  -35.9581985        -2.41781269E-12
  -35.8432007        -2.22309974E-12
  -35.7281990        -2.00196999E-12
  -35.6132011        -1.75565823E-12
  -35.4981995        -1.48576995E-12
  -35.3832016        -1.19426355E-12
  -35.2681999        -8.83426795E-13
  -35.1531982        -5.55844704E-13
  -35.0382004        -2.14360580E-13
  -34.9231987         1.37969904E-13
  -34.8082008         4.97928413E-13
  -34.6931992         8.62187708E-13
  -34.5782013         1.22736619E-12
  -34.4631996         1.59008039E-12
  -34.3482018         1.94699573E-12
  -34.2332001         2.29487046E-12
  -34.1181984         2.63059453E-12
  -34.0032005         2.95121870E-12
  -33.8881989         3.25397825E-12
  -33.7732010         3.53630992E-12
  -33.6581993         3.79586163E-12
  -33.5432014         4.03050206E-12
  -33.4281998         4.23832627E-12
  -33.3132019         4.41766979E-12
  -33.1982002         4.56712489E-12
  -33.0831985         4.68556574E-12
  -32.9682007         4.77218872E-12
  -32.8531990         4.82656016E-12
  -32.7382011         4.84868048E-12
  -32.6231995         4.83905667E-12
  -32.5082016         4.79878333E-12
  -32.3931999         4.72962685E-12
  -32.2781982         4.63410560E-12
  -32.1632004         4.51556110E-12
  -32.0481987         4.37821047E-12
  -31.9332008         4.22717373E-12
  -31.8181992         4.06847039E-12
  -31.7031994         3.90897167E-12
  -31.5881996         3.75631731E-12
  -31.4731998         3.61877845E-12
  -31.3582001         3.50508099E-12
  -31.2432003         3.42418455E-12
  -31.1282005         3.38502447E-12
  -31.0132008         3.39622861E-12
  -30.8981991         3.46581466E-12
  -30.7831993         3.60088673E-12
  -30.6681995         3.80734073E-12
  -30.5531998         4.08959585E-12
  -30.4382000         4.45036412E-12
  -30.3232002         4.89047171E-12
  -30.2082005         5.40874203E-12
  -30.0932007         6.00194981E-12
  -29.9782009         6.66484099E-12
  -29.8631992         7.39023426E-12
  -29.7481995         8.16918408E-12
  -29.6331997         8.99120969E-12
  -29.5181999         9.84457047E-12
  -29.4032001         1.07165821E-11
  -29.2882004         1.15939532E-11
  -29.1732006         1.24631217E-11
  -29.0582008         1.33105913E-11
  -28.9431992         1.41232390E-11
  -28.8281994         1.48885782E-11
  -28.7131996         1.55949836E-11
  -28.5981998         1.62318648E-11
  -28.4832001         1.67897710E-11
  -28.3682003         1.72604604E-11
  -28.2532005         1.76369041E-11
  -28.1382008         1.79132559E-11
  -28.0231991         1.80847975E-11
  -27.9081993         1.81478478E-11
  -27.7931995         1.80996919E-11
  -27.6781998         1.79384858E-11
  -27.5632000         1.76632164E-11
  -27.4482002         1.72736409E-11
  -27.3332005         1.67702970E-11
  -27.2182007         1.61545291E-11
  -27.1032009         1.54285421E-11
  -26.9881992         1.45954897E-11
  -26.8731995         1.36595865E-11
  -26.7581997         1.26262065E-11
  -26.6431999         1.15020077E-11
  -26.5282001         1.02950122E-11
  -26.4132004         9.01467269E-12
  -26.2982006         7.67189177E-12
  -26.1832008         6.27898167E-12
  -26.0681992         4.84957734E-12
  -25.9531994         3.39847464E-12
  -25.8381996         1.94141166E-12
  -25.7231998         4.94786395E-13
  -25.6082001        -9.24674074E-13
  -25.4932003        -2.30028843E-12
  -25.3782005        -3.61582032E-12
  -25.2632008        -4.85589216E-12
  -25.1481991        -6.00639026E-12
  -25.0331993        -7.05484759E-12
  -24.9181995        -7.99078945E-12
  -24.8031998        -8.80602449E-12
  -24.6882000        -9.49486843E-12
  -24.5732002        -1.00542890E-11
  -24.4582005        -1.04839791E-11
  -24.3432007        -1.07863354E-11
  -24.2282009        -1.09663632E-11
  -24.1131992        -1.10314960E-11
  -23.9981995        -1.09913493E-11
  -23.8831997        -1.08574226E-11
  -23.7681999        -1.06427410E-11
  -23.6532001        -1.03614773E-11
  -23.5382004        -1.00285518E-11
  -23.4232006        -9.65922568E-12
  -23.3082008        -9.26871167E-12
  -23.1931992        -8.87180520E-12
  -23.0781994        -8.48255060E-12
  -22.9631996        -8.11394615E-12
  -22.8481998        -7.77770817E-12
  -22.7332001        -7.48408106E-12
  -22.6182003        -7.24170593E-12
  -22.5032005        -7.05754682E-12
  -22.3882008        -6.93686731E-12
  -22.2731991        -6.88325699E-12
  -22.1581993        -6.89870296E-12
  -22.0431995        -6.98369704E-12
  -21.9281998        -7.13736318E-12
  -21.8132000        -7.35761885E-12
  -21.6982002        -7.64133114E-12
  -21.5832005        -7.98448894E-12
  -21.4682007        -8.38236251E-12
  -21.3532009        -8.82964622E-12
  -21.2381992        -9.32059464E-12
  -21.1231995        -9.84912412E-12
  -21.0081997        -1.04088942E-11
  -20.8931999        -1.09933651E-11
  -20.7782001        -1.15958181E-11
  -20.6632004        -1.22093672E-11
  -20.5482006        -1.28269435E-11
  -20.4332008        -1.34412698E-11
  -20.3181992        -1.40448295E-11
  -20.2031994        -1.46298373E-11
  -20.0881996        -1.51882291E-11
  -19.9731998        -1.57116542E-11
  -19.8582001        -1.61915151E-11
  -19.7432003        -1.66190291E-11
  -19.6282005        -1.69853281E-11
  -19.5132008        -1.72815946E-11
  -19.3981991        -1.74992451E-11
  -19.2831993        -1.76301404E-11
  -19.1681995        -1.76668194E-11
  -19.0531998        -1.76027682E-11
  -18.9382000        -1.74326734E-11
  -18.8232002        -1.71526855E-11
  -18.7082005        -1.67606606E-11
  -18.5932007        -1.62563522E-11
  -18.4782009        -1.56415783E-11
  -18.3631992        -1.49202994E-11
  -18.2481995        -1.40986467E-11
  -18.1331997        -1.31848638E-11
  -18.0181999        -1.21891698E-11
  -17.9032001        -1.11235474E-11
  -17.7882004        -1.00014467E-11
  -17.6732006        -8.83744293E-12
  -17.5582008        -7.64683109E-12
  -17.4431992        -6.44519984E-12
  -17.3281994        -5.24798174E-12
  -17.2131996        -4.07002166E-12
  -17.0981998        -2.92516770E-12
  -16.9832001        -1.82590878E-12
  -16.8682003        -7.83080361E-13
  -16.7532005         1.94355247E-13
  -16.6382008         1.09944085E-12
  -16.5231991         1.92726455E-12
  -16.4081993         2.67490587E-12
  -16.2931995         3.34130293E-12
  -16.1781998         3.92703751E-12
  -16.0632000         4.43406553E-12
  -15.9482002         4.86540062E-12
  -15.8332005         5.22477677E-12
  -15.7181997         5.51631006E-12
  -15.6032000         5.74417857E-12
  -15.4882002         5.91233659E-12
  -15.3732004         6.02428784E-12
  -15.2581997         6.08292149E-12
  -15.1431999         6.09041550E-12
  -15.0282001         6.04822225E-12
  -14.9132004         5.95712498E-12
  -14.7981997         5.81735484E-12
  -14.6831999         5.62876525E-12
  -14.5682001         5.39103874E-12
  -14.4532003         5.10391469E-12
  -14.3381996         4.76741736E-12
  -14.2231998         4.38206632E-12
  -14.1082001         3.94904725E-12
  -13.9932003         3.47032949E-12
  -13.8781996         2.94872959E-12
  -13.7631998         2.38789695E-12
  -13.6482000         1.79223520E-12
  -13.5332003         1.16675604E-12
  -13.4181995         5.16872406E-13
  -13.3031998        -1.51848830E-13
  -13.1882000        -8.33964787E-13
  -13.0732002        -1.52444127E-12
  -12.9582005        -2.21892903E-12
  -12.8431997        -2.91400346E-12
  -12.7282000        -3.60735877E-12
  -12.6132002        -4.29793267E-12
  -12.4982004        -4.98595349E-12
  -12.3831997        -5.67290355E-12
  -12.2681999        -6.36139752E-12
  -12.1532001        -7.05497162E-12
  -12.0382004        -7.75780655E-12
  -11.9231997        -8.47438526E-12
  -11.8081999        -9.20911351E-12
  -11.6932001        -9.96591438E-12
  -11.5782003        -1.07478271E-11
  -11.4631996        -1.15566298E-11
  -11.3481998        -1.23925054E-11
  -11.2332001        -1.32537748E-11
  -11.1182003        -1.41367066E-11
  -11.0031996        -1.50354174E-11
  -10.8881998        -1.59418728E-11
  -10.7732000        -1.68459743E-11
  -10.6582003        -1.77357590E-11
  -10.5431995        -1.85976599E-11
  -10.4281998        -1.94168553E-11
  -10.3132000        -2.01776616E-11
  -10.1982002        -2.08639720E-11
  -10.0832005        -2.14597090E-11
  -9.96819973        -2.19492740E-11
  -9.85319996        -2.23179964E-11
  -9.73820019        -2.25525276E-11
  -9.62320042        -2.26412205E-11
  -9.50819969        -2.25744388E-11
  -9.39319992        -2.23448135E-11
  -9.27820015        -2.19474508E-11
  -9.16320038        -2.13800817E-11
  -9.04819965        -2.06431417E-11
  -8.93319988        -1.97398209E-11
  -8.81820011        -1.86760520E-11
  -8.70320034        -1.74604688E-11
  -8.58819962        -1.61043089E-11
  -8.47319984        -1.46212990E-11
  -8.35820007        -1.30274923E-11
  -8.24320030        -1.13410678E-11
  -8.12819958        -9.58209553E-12
  -8.01319981        -7.77226113E-12
  -7.89820004        -5.93454149E-12
  -7.78319979        -4.09283588E-12
  -7.66820002        -2.27155838E-12
  -7.55320024        -4.95167980E-13
  -7.43820000         1.21231736E-12
  -7.32320023         2.82786099E-12
  -7.20819998         4.32994829E-12
  -7.09320021         5.69915729E-12
  -6.97819996         6.91869001E-12
  -6.86320019         7.97489939E-12
  -6.74819994         8.85774874E-12
  -6.63320017         9.56121293E-12
  -6.51819992         1.00835789E-11
  -6.40320015         1.04276631E-11
  -6.28819990         1.06008874E-11
  -6.17320013         1.06152413E-11
  -6.05819988         1.04871311E-11
  -5.94320011         1.02370811E-11
  -5.82819986         9.88934368E-12
  -5.71320009         9.47139242E-12
  -5.59819984         9.01333869E-12
  -5.48320007         8.54728354E-12
  -5.36819983         8.10662648E-12
  -5.25320005         7.72535941E-12
  -5.13819981         7.43735629E-12
  -5.02320004         7.27568917E-12
  -4.90819979         7.27197729E-12
  -4.79320002         7.45577818E-12
  -4.67820024         7.85404207E-12
  -4.56320000         8.49060319E-12
  -4.44820023         9.38574739E-12
  -4.33319998         1.05558036E-11
  -4.21820021         1.20128022E-11
  -4.10319996         1.37641426E-11
  -3.98819995         1.58123098E-11
  -3.87319994         1.81546063E-11
  -3.75819993         2.07829171E-11
  -3.64319992         2.36834979E-11
  -3.52819991         2.68368019E-11
  -3.41319990         3.02173772E-11
  -3.29820013         3.37938115E-11
  -3.18320012         3.75287926E-11
  -3.06820011         4.13792542E-11
  -2.95320010         4.52966935E-11
  -2.83820009         4.92276081E-11
  -2.72320008         5.31141034E-11
  -2.60820007         5.68947008E-11
  -2.49320006         6.05052813E-11
  -2.37820005         6.38802344E-11
  -2.26320004         6.69536926E-11
  -2.14820004         6.96609367E-11
  -2.03320003         7.19398152E-11
  -1.91820002         7.37322564E-11
  -1.80320001         7.49857121E-11
  -1.68820000         7.56545243E-11
  -1.57319999         7.57012092E-11
  -1.45819998         7.50974977E-11
  -1.34319997         7.38252376E-11
  -1.22819996         7.18769766E-11
  -1.11320007         6.92562813E-11
 -0.998199999         6.59778343E-11
 -0.883199990         6.20671708E-11
 -0.768200040         5.75601823E-11
 -0.653200030         5.25023670E-11
 -0.538200021         4.69479004E-11
 -0.423200011         4.09585282E-11
 -0.308200002         3.46023210E-11
 -0.193200007         2.79523991E-11
  -7.82000124E-02     2.10856263E-11
   3.67999896E-02     1.40813177E-11
  0.151799992         7.02003082E-12
  0.266799986        -1.75748935E-14
  0.381799996        -6.95175775E-12
  0.496799976        -1.37045930E-11
  0.611800015        -2.02007681E-11
  0.726799965        -2.63682513E-11
  0.841799974        -3.21388853E-11
  0.956799984        -3.74488877E-11
   1.07179999        -4.22393127E-11
   1.18680000        -4.64564706E-11
   1.30180001        -5.00523338E-11
   1.41680002        -5.29849324E-11
   1.53180003        -5.52187532E-11
   1.64680004        -5.67251628E-11
   1.76179993        -5.74827512E-11
   1.87679994        -5.74777552E-11
   1.99179995        -5.67043357E-11
   2.10680008        -5.51648553E-11
   2.22180009        -5.28700451E-11
   2.33680010        -4.98390322E-11
   2.45179987        -4.60992598E-11
   2.56679988        -4.16862378E-11
   2.68179989        -3.66431364E-11
   2.79679990        -3.10202107E-11
   2.91179991        -2.48740924E-11
   3.02679992        -1.82669262E-11
   3.14179993        -1.12653992E-11
   3.25679994        -3.93969839E-12
   3.37179995         3.63757700E-12
   3.48679996         1.13925154E-11
   3.60179996         1.92509567E-11
   3.71679997         2.71394886E-11
   3.83179998         3.49863472E-11
   3.94679999         4.27222112E-11
   4.06180000         5.02808281E-11
   4.17679977         5.75995432E-11
   4.29180002         6.46196568E-11
   4.40679979         7.12866641E-11
   4.52180004         7.75503620E-11
   4.63679981         8.33649261E-11
   4.75180006         8.86888132E-11
   4.86679983         9.34847269E-11
   4.98180008         9.77194853E-11
   5.09679985         1.01363945E-10
   5.21180010         1.04392869E-10
   5.32679987         1.06784942E-10
   5.44180012         1.08522663E-10
   5.55679989         1.09592412E-10
   5.67180014         1.09984431E-10
   5.78679991         1.09692894E-10
   5.90180016         1.08715925E-10
   6.01679993         1.07055642E-10
   6.13180017         1.04718130E-10
   6.24679995         1.01713429E-10
   6.36180019         9.80554388E-11
   6.47679996         9.37617900E-11
   6.59180021         8.88536467E-11
   6.70679998         8.33555308E-11
   6.82179976         7.72950592E-11
   6.93680000         7.07027006E-11
   7.05179977         6.36115258E-11
   7.16680002         5.60570028E-11
   7.28179979         4.80767821E-11
   7.39680004         3.97105890E-11
   7.51179981         3.10001087E-11
   7.62680006         2.19889627E-11
   7.74179983         1.27227100E-11
   7.85680008         3.24888510E-12
   7.97179985        -6.38295016E-12
   8.08679962        -1.61211773E-11
   8.20180035        -2.59121058E-11
   8.31680012        -3.57000540E-11
   8.43179989        -4.54274986E-11
   8.54679966        -5.50353409E-11
   8.66180038        -6.44632750E-11
   8.77680016        -7.36503497E-11
   8.89179993        -8.25355340E-11
   9.00679970        -9.10585635E-11
   9.12180042        -9.91607144E-11
   9.23680019        -1.06785768E-10
   9.35179996        -1.13880912E-10
   9.46679974        -1.20397678E-10
   9.58180046        -1.26292823E-10
   9.69680023        -1.31529079E-10
   9.81180000        -1.36075762E-10
   9.92679977        -1.39909362E-10
   10.0417995        -1.43013698E-10
   10.1568003        -1.45380125E-10
   10.2718000        -1.47007434E-10
   10.3867998        -1.47901608E-10
   10.5017996        -1.48075371E-10
   10.6168003        -1.47547780E-10
   10.7318001        -1.46343576E-10
   10.8467999        -1.44492585E-10
   10.9617996        -1.42029125E-10
   11.0768003        -1.38991457E-10
   11.1918001        -1.35421271E-10
   11.3067999        -1.31363392E-10
   11.4217997        -1.26865435E-10
   11.5368004        -1.21977692E-10
   11.6518002        -1.16753107E-10
   11.7667999        -1.11247220E-10
   11.8817997        -1.05518247E-10
   11.9968004        -9.96271121E-11
   12.1118002        -9.36373826E-11
   12.2268000        -8.76151721E-11
   12.3417997        -8.16288218E-11
   12.4568005        -7.57484353E-11
   12.5718002        -7.00451641E-11
   12.6868000        -6.45903331E-11
   12.8017998        -5.94543026E-11
   12.9167995        -5.47051224E-11
   13.0318003        -5.04070605E-11
   13.1468000        -4.66190073E-11
   13.2617998        -4.33928241E-11
   13.3767996        -4.07717089E-11
   13.4918003        -3.87886702E-11
   13.6068001        -3.74651421E-11
   13.7217999        -3.68098468E-11
   13.8367996        -3.68179098E-11
   13.9518003        -3.74703636E-11
   14.0668001        -3.87339327E-11
   14.1817999        -4.05612523E-11
   14.2967997        -4.28914126E-11
   14.4118004        -4.56508546E-11
   14.5268002        -4.87545525E-11
   14.6417999        -5.21074711E-11
   14.7567997        -5.56061967E-11
   14.8718004        -5.91406923E-11
   14.9868002        -6.25961227E-11
   15.1018000        -6.58547175E-11
   15.2167997        -6.87975302E-11
   15.3318005        -7.13061554E-11
   15.4468002        -7.32643460E-11
   15.5618000        -7.45594628E-11
   15.6767998        -7.50837933E-11
   15.7917995        -7.47358425E-11
   15.9068003        -7.34214078E-11
   16.0217991        -7.10547038E-11
   16.1368008        -6.75593609E-11
   16.2518005        -6.28694596E-11
   16.3668003        -5.69305748E-11
   16.4818001        -4.97008511E-11
   16.5967999        -4.11520991E-11
   16.7117996        -3.12709476E-11
   16.8267994        -2.00599485E-11
   16.9417992        -7.53869623E-12
   17.0568008         6.25516999E-12
   17.1718006         2.12651112E-11
   17.2868004         3.74150051E-11
   17.4018002         5.46087620E-11
   17.5167999         7.27302871E-11
   17.6317997         9.16437759E-11
   17.7467995         1.11194422E-10
   17.8617992         1.31209696E-10