 0.   3.382550388E-19
 0.169376865   3.382248984E-19
 0.33875373   3.381710541E-19
 0.50813061   3.381027083E-19
 0.67750746   3.380309762E-19
 0.84688431   3.379676969E-19
 1.01626122   3.379202891E-19
 1.18563807   3.378917514E-19
 1.35501492   3.378802484E-19
 1.52439177   3.378795763E-19
 1.69376862   3.378788784E-19
 1.86314547   3.378686937E-19
 2.03252244   3.378397166E-19
 2.20189929   3.377890776E-19
 2.37127614   3.377175265E-19
 2.54065299   3.376316806E-19
 2.71002984   3.375406908E-19
 2.87940669   3.374554653E-19
 3.04878354   3.373859305E-19
 3.21816039   3.373379798E-19
 3.38753724   3.373129318E-19
 3.55691409   3.373075551E-19
 3.72629094   3.373133712E-19
 3.89566779   3.373196526E-19
 4.06504488   3.37315646E-19
 4.23442173   3.372927951E-19
 4.40379858   3.372468866E-19
 4.57317543   3.371794455E-19
 4.74255228   3.37095952E-19
 4.91192913   3.370065906E-19
 5.08130598   3.369210291E-19
 5.25068283   3.368496589E-19
 5.42005968   3.367973656E-19
 5.58943653   3.367659069E-19
 5.75881338   3.367498027E-19
 5.92819023   3.367415051E-19
 6.09756708   3.367311395E-19
 6.26694393   3.367086763E-19
 6.43632078   3.366672139E-19
 6.60569763   3.366039604E-19
 6.77507448   3.365205961E-19
 6.94445133   3.36422963E-19
 7.11382818   3.363211164E-19
 7.28320503   3.362258355E-19
 7.45258188   3.361453405E-19
 7.62195873   3.360858869E-19
 7.79133558   3.3604794E-19
 7.96071243   3.360285271E-19
 8.13008976   3.360198417E-19
 8.29946613   3.360126555E-19
 8.46884346   3.359963963E-19
 8.63821983   3.359642138E-19
 8.80759716   3.359148673E-19
 8.97697353   3.358490289E-19
 9.14635086   3.35772282E-19
 9.31572723   3.35694191E-19
 9.48510456   3.356245527E-19
 9.65448093   3.355708894E-19
 9.82385826   3.355382675E-19
 9.99323463   3.355266094E-19
 10.162612   3.355321929E-19
 10.3319883   3.355481678E-19
 10.5013657   3.355645304E-19
 10.670742   3.35571122E-19
 10.8401194   3.35561687E-19
 11.0094957   3.355314174E-19
 11.1788731   3.35481709E-19
 11.3482494   3.354181712E-19
 11.5176268   3.353496961E-19
 11.6870031   3.35287244E-19
 11.8563805   3.352387764E-19
 12.0257568   3.35211893E-19
 12.1951342   3.352079639E-19
 12.3645105   3.352236545E-19
 12.5338879   3.352516494E-19
 12.7032642   3.35281919E-19
 12.8726416   3.353033999E-19
 13.0420179   3.353075875E-19
 13.2113953   3.352899323E-19
 13.3807716   3.352502277E-19
 13.550149   3.351940569E-19
 13.7195253   3.351293042E-19
 13.8889027   3.35067369E-19
 14.058279   3.350192116E-19
 14.2276564   3.349925609E-19
 14.3970327   3.349903379E-19
 14.5664101   3.350105004E-19
 14.7357864   3.35044725E-19
 14.9051638   3.350826977E-19
 15.0745401   3.351133034E-19
 15.2439175   3.351258404E-19
 15.4132938   3.351160952E-19
 15.5826712   3.350850242E-19
 15.7520475   3.350383143E-19
 15.9214249   3.34988089E-19
 16.0908012   3.34945851E-19
 16.2601795   3.349224056E-19
 16.4295559   3.349241893E-19
 16.5989323   3.349507107E-19
 16.7683086   3.349966193E-19
 16.9376869   3.350504894E-19
 17.1070633   3.351006631E-19
 17.2764397   3.351336727E-19
 17.445816   3.351404711E-19
 17.6151943   3.351160693E-19
 17.7845707   3.350639052E-19
 17.9539471   3.349921215E-19
 18.1233234   3.349136168E-19
 18.2927017   3.348436684E-19
 18.4620781   3.347945545E-19
 18.6314545   3.347730737E-19
 18.8008308   3.347799496E-19
 18.9702091   3.348090819E-19
 19.1395855   3.348495621E-19
 19.3089619   3.348882327E-19
 19.4783382   3.349122468E-19
 19.6477165   3.349140563E-19
 19.8170929   3.348906884E-19
 19.9864693   3.348466928E-19
 20.1558456   3.347911424E-19
 20.3252239   3.347358247E-19
 20.4946003   3.346926821E-19
 20.6639767   3.346715114E-19
 20.833353   3.346755181E-19
 21.0027313   3.347033062E-19
 21.1721077   3.347462679E-19
 21.3414841   3.347949423E-19
 21.5108604   3.348382142E-19
 21.6802387   3.348671396E-19
 21.8496151   3.348774794E-19
 22.0189915   3.348702674E-19
 22.1883678   3.348494587E-19
 22.3577461   3.348238678E-19
 22.5271225   3.348022318E-19
 22.6964989   3.347904445E-19
 22.8658752   3.347914526E-19
 23.0352535   3.348054371E-19
 23.2046299   3.348283655E-19
 23.3740063   3.34853181E-19
 23.5433826   3.348722578E-19
 23.7127609   3.34876523E-19
 23.8821373   3.348559469E-19
 24.0515137   3.348033692E-19
 24.22089   3.347133099E-19
 24.3902683   3.345867513E-19
 24.5596447   3.344328698E-19
 24.7290211   3.3427356E-19
 24.8983994   3.341448559E-19
 25.0677757   3.340925367E-19
 25.2371521   3.341619423E-19
 25.4065285   3.343862892E-19
 25.5759068   3.347698942E-19
 25.7452831   3.35271114E-19
 25.9146595   3.357974335E-19
 26.0840359   3.362070947E-19
 26.2534142   3.36332852E-19
 26.4227905   3.360176445E-19
 26.5921669   3.351609439E-19
 26.7615433   3.337685662E-19
 26.9309216   3.319894041E-19
 27.1002979   3.301219664E-19
 27.2696743   3.285893558E-19
 27.4390507   3.278722936E-19
 27.608429   3.284081257E-19
 27.7778053   3.304725358E-19
 27.9471817   3.340711851E-19
 28.1165581   3.388686776E-19
 28.2859364   3.441817879E-19
 28.4553127   3.490532096E-19
 28.6246891   3.524048162E-19
 28.7940655   3.532487731E-19
 28.9634438   3.509166924E-19
 29.1328201   3.452530643E-19
 29.3021965   3.367280375E-19
 29.4715729   3.264261492E-19
 29.6409512   3.15899242E-19
 29.8103275   3.069012488E-19
 29.9797039   3.010539091E-19
 30.1490803   2.995161027E-19
 30.3184586   3.027272696E-19
 30.4878349   3.103024087E-19
 30.6572113   3.210949702E-19
 30.8265877   3.334351349E-19
 30.995966   3.454870789E-19
 31.1653423   3.556351374E-19
 31.3347187   3.628167971E-19
 31.5040951   3.667110858E-19
 31.6734734   3.67732809E-19
 31.8428497   3.668329916E-19
 32.0122261   3.651539442E-19
 32.1816025   3.636298639E-19
 32.3509789   3.626343779E-19
 32.520359   3.617735672E-19
 32.6897354   3.598828133E-19
 32.8591118   3.552489475E-19
 33.0284882   3.460123127E-19
 33.1978645   3.306757896E-19
 33.3672409   3.086165887E-19
 33.5366173   2.805004354E-19
 33.7059937   2.485140849E-19
 33.8753738   2.163600494E-19
 34.0447502   1.890027437E-19
 34.2141266   1.721781873E-19
 34.383503   1.717087882E-19
 34.5528793   1.926752576E-19
 34.7222557   2.385191064E-19
 34.8916321   3.101577555E-19
 35.0610085   4.052153869E-19
 35.2303886   5.174973227E-19
 35.399765   6.368467155E-19
 35.5691414   7.495271197E-19
 35.7385178   8.392280329E-19
 35.9078941   8.887125104E-19
 36.0772705   8.820178275E-19
 36.2466469   8.069666448E-19
 36.4160233   6.576377968E-19
 36.5854034   4.363645531E-19
 36.7547798   1.548392797E-19
 36.9241562   -1.659816352E-19
 37.0935326   -4.973048617E-19
 37.2629089   -8.051205845E-19
 37.4322853   -1.053651704E-18
 37.6016617   -1.209101378E-18
 37.7710381   -1.24312249E-18
 37.9404182   -1.135525007E-18
 38.1097946   -8.75979409E-19
 38.279171   -4.647561835E-19
 38.4485474   8.719249445E-20
 38.6179237   7.583547912E-19
 38.7873001   1.516585815E-18
 38.9566765   2.318680522E-18
 39.1260529   3.109829767E-18
 39.295433   3.823620461E-18
 39.4648094   4.383534055E-18
 39.6341858   4.706928173E-18
 39.8035622   4.712171258E-18
 39.9729385   4.328911597E-18
 40.1423149   3.510590916E-18
 40.3116913   2.24739451E-18
 40.4810715   5.771589652E-19
 40.6504478   -1.408445495E-18
 40.8198242   -3.564749739E-18
 40.9892006   -5.703213041E-18
 41.158577   -7.608686034E-18
 41.3279533   -9.063025061E-18
 41.4973297   -9.871896031E-18
 41.6667061   -9.890696192E-18
 41.8360863   -9.045461535E-18
 42.0054626   -7.345309246E-18
 42.174839   -4.884400188E-18
 42.3442154   -1.833187541E-18
 42.5135918   1.579470877E-18
 42.6829681   5.090364438E-18
 42.8523445   8.42840465E-18
 43.0217209   1.133981654E-17
 43.1911011   1.360906164E-17
 43.3604774   1.507365275E-17
 43.5298538   1.563234211E-17
 43.6992302   1.524726968E-17
 43.8686066   1.394132521E-17
 44.0379829   1.179223387E-17
 44.2073593   8.924583978E-18
 44.3767357   5.500667115E-18
 44.5461159   1.710451929E-18
 44.7154922   -2.239074107E-18
 44.8848686   -6.135097274E-18
 45.054245   -9.770174322E-18
 45.2236214   -1.295269134E-17
 45.3929977   -1.551558391E-17
 45.5623741   -1.732243919E-17
 45.7317505   -1.827057181E-17
 45.9011307   -1.829138367E-17
 46.070507   -1.734904794E-17
 46.2398834   -1.543921198E-17
 46.4092598   -1.258940934E-17
 46.5786362   -8.862566938E-18
 46.7480125   -4.363828131E-18
 46.9173889   7.502591745E-19
 47.0867653   6.26245455E-18
 47.2561455   1.188861613E-17
 47.4255219   1.727802125E-17
 47.5948982   2.202298732E-17
 47.7642746   2.56793407E-17
 47.933651   2.779749713E-17
 48.1030273   2.796201674E-17
 48.2724037   2.583604345E-17
 48.4417801   2.120631852E-17
 48.6111603   1.402431624E-17
 48.7805367   4.439794744E-18
 48.949913   -7.176043277E-18
 49.1192894   -2.021967403E-17
 49.2886658   -3.385811713E-17
 49.4580421   -4.704708848E-17
 49.6274185   -5.856651157E-17
 49.7967987   -6.707569868E-17
 49.9661751   -7.11908759E-17
 50.1355515   -6.95859867E-17
 50.3049278   -6.111564399E-17
 50.4743042   -4.495509908E-17
 50.6436806   -2.074746324E-17
 50.8130569   1.125620429E-17
 50.9824333   5.008205054E-17
 51.1518135   9.396335669E-17
 51.3211899   1.403335864E-16
 51.4905663   1.858959916E-16
 51.6599426   2.267764486E-16
 51.829319   2.587561775E-16
 51.9986954   2.77571188E-16
 52.1680717   2.792565454E-16
 52.3374481   2.605072593E-16
 52.5068283   2.190242707E-16
 52.6762047   1.538152672E-16
 52.8455811   6.542354768E-17
 53.0149574   -4.393484128E-17
 53.1843338   -1.703382728E-16
 53.3537102   -3.082359777E-16
 53.5230865   -4.5063111E-16
 53.6924629   -5.893636718E-16
 53.8618431   -7.154791485E-16
 54.0312195   -8.196684362E-16
 54.2005959   -8.927588562E-16
 54.3699722   -9.262332807E-16
 54.5393486   -9.127558218E-16
 54.708725   -8.466738053E-16
 54.8781013   -7.244714091E-16
 55.0474777   -5.451469638E-16
 55.2168579   -3.10488953E-16
 55.3862343   -2.523205767E-17
 55.5556107   3.029209254E-16
 55.724987   6.634165331E-16
 55.8943634   1.043106146E-15
 56.0637398   1.42663017E-15
 56.2331161   1.79691687E-15
 56.4024925   2.135777906E-15
 56.5718727   2.42458226E-15
 56.7412491   2.644982774E-15
 56.9106255   2.779676259E-15
 57.0800018   2.813171118E-15
 57.2493782   2.732535911E-15
 57.4187546   2.528104298E-15
 57.588131   2.194107772E-15
 57.7575111   1.729214162E-15
 57.9268875   1.13694702E-15
 58.0962639   4.259711222E-16
 58.2656403   -3.897731162E-16
 58.4350166   -1.291092193E-15
 58.604393   -2.25372788E-15
 58.7737694   -3.248715036E-15
 58.9431458   -4.242910006E-15
 59.1125259   -5.19969767E-15
 59.2819023   -6.079876711E-15
 59.4512787   -6.842724324E-15
 59.6206551   -7.447238186E-15
 59.7900314   -7.853543797E-15
 59.9594078   -8.024447941E-15
 60.1287842   -7.927086586E-15
 60.2981606   -7.534639281E-15
 60.4675407   -6.828026608E-15
 60.6369171   -5.797535219E-15
 60.8062935   -4.444292512E-15
 60.9756699   -2.781527238E-15
 61.1450462   -8.355574508E-16
 61.3144226   1.353543191E-15
 61.483799   3.731648542E-15
 61.6531754   6.230661705E-15
 61.8225555   8.769021242E-15
 61.9919319   1.125262942E-14
 62.1613083   1.357622121E-14
 62.3306847   1.562517781E-14
 62.500061   1.727776789E-14
 62.6694374   1.840780641E-14
 62.8388138   1.888767768E-14
 63.0081902   1.859164644E-14
 63.1775703   1.739938997E-14
 63.3469467   1.51995895E-14
 63.5163231   1.189345389E-14
 63.6856995   7.398057759E-15
 63.8550758   1.649285698E-15
 64.0244522   -5.395686271E-15
 64.1938324   -1.375650455E-14
 64.363205   -2.342842649E-14
 64.5325851   -3.438174157E-14
 64.7019577   -4.656193644E-14
 64.8713379   -5.989042677E-14
 65.0407181   -7.426595824E-14
 65.2100906   -8.956642258E-14
 65.3794708   -1.056512259E-13
 65.5488434   -1.223639923E-13
 65.7182236   -1.395355321E-13
 65.8875961   -1.569870807E-13
 66.0569763   -1.745337815E-13
 66.2263489   -1.919880677E-13
 66.3957291   -2.091631583E-13
 66.5651093   -2.258763922E-13
 66.7344818   -2.419522644E-13
 66.903862   -2.572252578E-13
 67.0732346   -2.715420933E-13
 67.2426147   -2.847637761E-13
 67.4119873   -2.967667616E-13
 67.5813675   -3.074442014E-13
 67.7507477   -3.167065406E-13
 67.9201202   -3.244818693E-13
 68.0895004   -3.307163571E-13
 68.258873   -3.35374442E-13
 68.4282532   -3.384392918E-13
 68.5976257   -3.399130749E-13
 68.7670059   -3.398177193E-13
 68.9363785   -3.381953192E-13
 69.1057587   -3.351087582E-13
 69.2751389   -3.306420621E-13
 69.4445114   -3.249006966E-13
 69.6138916   -3.18011161E-13
 69.7832642   -3.1012069E-13
 69.9526443   -3.013961964E-13
 70.1220169   -2.920227265E-13
 70.2913971   -2.822018606E-13
 70.4607773   -2.721492736E-13
 70.6301498   -2.620922956E-13
 70.79953   -2.522668489E-13
 70.9689026   -2.429139518E-13
 71.1382828   -2.342761673E-13
 71.3076553   -2.265934429E-13
 71.4770355   -2.200985704E-13
 71.6464081   -2.150126865E-13
 71.8157883   -2.115403935E-13
 71.9851685   -2.098651114E-13
 72.154541   -2.101444019E-13
 72.3239212   -2.12505862E-13
 72.4932938   -2.170434378E-13
 72.662674   -2.238145514E-13
 72.8320465   -2.328380273E-13
 73.0014267   -2.440930487E-13
 73.1708069   -2.57518914E-13
 73.3401794   -2.730160661E-13
 73.5095596   -2.904478687E-13
 73.6789322   -3.096435055E-13
 73.8483124   -3.304015861E-13
 74.0176849   -3.524945906E-13
 74.1870651   -3.75674047E-13
 74.3564453   -3.996759521E-13
 74.5258179   -4.242268971E-13
 74.6951981   -4.490499227E-13
 74.8645706   -4.738707256E-13
 75.0339508   -4.984236765E-13
 75.2033234   -5.22457186E-13
 75.3727036   -5.457390182E-13
 75.5420761   -5.680610604E-13
 75.7114563   -5.892431183E-13
 75.8808365   -6.091366018E-13
 76.050209   -6.276269652E-13
 76.2195892   -6.446356036E-13
 76.3889618   -6.601211548E-13
 76.558342   -6.74079282E-13
 76.7277145   -6.865418607E-13
 76.8970947   -6.975748646E-13
 77.0664749   -7.072754925E-13
 77.2358475   -7.157677229E-13
 77.4052277   -7.231973267E-13
 77.5746002   -7.297257958E-13
 77.7439804   -7.35523567E-13
 77.913353   -7.407635161E-13
 78.0827332   -7.456138029E-13
 78.2521057   -7.502312031E-13
 78.4214859   -7.547548741E-13
 78.5908661   -7.593011506E-13
 78.7602386   -7.639581784E-13
 78.9296188   -7.687828781E-13
 79.0989914   -7.737974215E-13
 79.2683716   -7.789876058E-13
 79.4377441   -7.843017685E-13
 79.6071243   -7.896505173E-13
 79.7765045   -7.949075968E-13
 79.9458771   -7.999117319E-13
 80.1152573   -8.044693926E-13
 80.2846298   -8.083581005E-13
 80.45401   -8.113315792E-13
 80.6233826   -8.131253375E-13
 80.7927628   -8.134630664E-13
 80.9621429   -8.120643914E-13
 81.1315155   -8.08652624E-13
 81.3008957   -8.029632731E-13
 81.4702682   -7.94753098E-13
 81.6396484   -7.838084023E-13
 81.809021   -7.699535454E-13
 81.9784012   -7.530584771E-13
 82.1477737   -7.330452976E-13
 82.3171539   -7.098931902E-13
 82.4865341   -6.836421078E-13
 82.6559067   -6.543941821E-13
 82.8252869   -6.22312694E-13
 82.9946594   -5.876192545E-13
 83.1640396   -5.505887087E-13
 83.3334122   -5.115413843E-13
 83.5027924   -4.708340922E-13
 83.6721725   -4.288491762E-13
 83.8415451   -3.859823973E-13
 84.0109253   -3.426303295E-13
 84.1802979   -2.991774038E-13
 84.349678   -2.559835482E-13
 84.5190506   -2.133725461E-13
 84.6884308   -1.716218855E-13
 84.8578033   -1.309544243E-13
 85.0271835   -9.153206079E-14
 85.1965637   -5.345195654E-14
 85.3659363   -1.674514511E-14
 85.5353165   1.862250893E-14
 85.704689   5.274657799E-14
 85.8740692   8.577848447E-14
 86.0434418   1.179175708E-13
 86.212822   1.494017583E-13
 86.3822021   1.804969206E-13
 86.5515747   2.114849637E-13
 86.7209549   2.42651873E-13
 86.8903275   2.742753941E-13
 87.0597076   3.066132146E-13
 87.2290802   3.398920414E-13
 87.3984604   3.742976523E-13
 87.5678329   4.099670093E-13
 87.7372131   4.469818612E-13
 87.9065933   4.853649492E-13
 88.0759659   5.250778653E-13
 88.2453461   5.660222725E-13
 88.4147186   6.080420997E-13
 88.5840988   6.509294514E-13
 88.7534714   6.944312204E-13
 88.9228516   7.382585754E-13
 89.0922318   7.820970434E-13
 89.2616043   8.25618328E-13
 89.4309845   8.684922898E-13
 89.6003571   9.10398818E-13
 89.7697372   9.510395943E-13
 89.9391098   9.90147634E-13
 90.10849   1.027496122E-12
 90.2778702   1.062903888E-12
 90.4472427   1.09623866E-12
 90.6166229   1.127417495E-12
 90.7859955   1.156404725E-12
 90.9553757   1.18320707E-12
 91.1247482   1.207866923E-12
 91.2941284   1.230454757E-12
 91.463501   1.251060128E-12
 91.6328812   1.26978289E-12
 91.8022614   1.286724742E-12
 91.9716339   1.301980767E-12
 92.1410141   1.315632607E-12
 92.3103867   1.327742929E-12
 92.4797668   1.338350437E-12
 92.6491394   1.347468036E-12
 92.8185196   1.355081954E-12
 92.9878998   1.361153486E-12
 93.1572723   1.365623435E-12
 93.3266525   1.368418183E-12
 93.4960251   1.369458908E-12
 93.6654053   1.368671019E-12
 93.8347778   1.365995967E-12
 94.004158   1.361402852E-12
 94.1735306   1.354899266E-12
 94.3429108   1.346540501E-12
 94.512291   1.336437254E-12
 94.6816635   1.324759313E-12
 94.8510437   1.311736744E-12
 95.0204163   1.297656752E-12
 95.1897964   1.28285826E-12
 95.359169   1.267721171E-12
 95.5285492   1.252654772E-12
 95.6979294   1.238081577E-12
 95.8673019   1.224420088E-12
 96.0366821   1.212065821E-12
 96.2060547   1.201371901E-12
 96.3754349   1.19263063E-12
 96.5448074   1.186055377E-12
 96.7141876   1.181766815E-12
 96.8835602   1.17978034E-12
 97.0529404   1.18E-12
 97.2223206   1.182215133E-12
 97.3916931   1.18610254E-12
 97.5610733   1.191233201E-12
 97.7304459   1.197082689E-12
 97.899826   1.203046235E-12
 98.0691986   1.208455536E-12
 98.2385788   1.212599574E-12
 98.407959   1.214746077E-12
 98.5773315   1.214165053E-12
 98.7467117   1.210153397E-12
 98.9160843   1.20205896E-12
 99.0854645   1.189305598E-12
 99.254837   1.171416046E-12
 99.4242172   1.148033383E-12
 99.5935974   1.118939468E-12
 99.76297   1.084069683E-12
 99.9323502   1.043521389E-12
 100.101723   9.975590232E-13
 100.271103   9.46611821E-13
 100.440475   8.912655228E-13
 100.609856   8.322495796E-13
 100.779228   7.704172044E-13
 100.948608   7.067217905E-13
 101.117989   6.421887761E-13
 101.287361   5.7788442E-13
 101.456741   5.148823533E-13
 101.626114   4.542294546E-13
 101.795494   3.969108842E-13
 101.964867   3.438167448E-13
 102.134247   2.957107486E-13
 102.303627   2.532026238E-13
 102.473   2.167249263E-13
 102.64238   1.865160993E-13
 102.811752   1.626102952E-13
 102.981133   1.448353021E-13
 103.150505   1.328181814E-13
 103.319885   1.259993629E-13
 103.489258   1.236543555E-13
 103.658638   1.249223435E-13
 103.828018   1.28840989E-13
 103.997391   1.343857073E-13
 104.166771   1.405119375E-13
 104.336143   1.461990251E-13
 104.505524   1.504932247E-13
 104.674896   1.525484789E-13
 104.844276   1.516633092E-13
 105.013657   1.473119315E-13
 105.183029   1.391686788E-13
 105.352409   1.271247783E-13
 105.521782   1.112969919E-13
 105.691162   9.202710751E-14
 105.860535   6.987331991E-14
 106.029915   4.559277489E-14
 106.199295   2.011671062E-14
 106.368668   -5.481035429E-15
 106.538048   -3.002090086E-14
 106.70742   -5.225819574E-14
 106.876801   -7.092631061E-14
 107.046173   -8.478062545E-14
 107.215553   -9.264185014E-14
 107.384926   -9.343724118E-14
 107.554306   -8.62381252E-14
 107.723686   -7.029247247E-14
 107.893059   -4.505122946E-14
 108.062439   -1.018773451E-14
 108.231812   3.439049989E-14
 108.401192   8.853773834E-14
 108.570564   1.518734005E-13
 108.739944   2.237925557E-13
 108.909325   3.034829603E-13
 109.078697   3.899478396E-13
 109.248077   4.820328164E-13
 109.41745   5.784566077E-13
 109.58683   6.778440114E-13
 109.756203   7.78759327E-13
 109.925583   8.797404537E-13
 110.094955   9.793313079E-13
 110.264336   1.076113591E-12
 110.433716   1.168735573E-12
 110.603088   1.255939363E-12
 110.772469   1.336585139E-12
 110.941841   1.409672075E-12
 111.111221   1.474356336E-12
 111.280594   1.529964957E-12
 111.449974   1.576006144E-12
 111.619354   1.61217643E-12
 111.788727   1.638362514E-12
 111.958107   1.65463975E-12
 112.12748   1.661266827E-12
 112.29686   1.65867515E-12
 112.466232   1.647455609E-12
 112.635612   1.628341234E-12
 112.804985   1.602187783E-12
 112.974365   1.569951742E-12
 113.143745   1.532667439E-12
 113.313118   1.49142363E-12
 113.482498   1.447340403E-12
 113.651871   1.401545221E-12
 113.821251   1.355150584E-12
 113.990623   1.309232453E-12
 114.160004   1.264809871E-12
 114.329384   1.222826202E-12
 114.498756   1.184133087E-12
 114.668137   1.149475263E-12
 114.837509   1.119479075E-12
 115.006889   1.094643256E-12
 115.176262   1.075331664E-12
 115.345642   1.061770788E-12
 115.515022   1.0540478E-12
 115.684395   1.052112607E-12
 115.853775   1.055780571E-12
 116.023148   1.064737491E-12
 116.192528   1.078545131E-12
 116.3619   1.096647512E-12
 116.531281   1.118378719E-12
 116.700653   1.142972002E-12
 116.870033   1.169571276E-12
 117.039413   1.197244452E-12
 117.208786   1.225001112E-12
 117.378166   1.251811372E-12
 117.547539   1.276628434E-12
 117.716919   1.298413417E-12
 117.886292   1.316160722E-12
 118.055672   1.328924926E-12
 118.225052   1.335846581E-12
 118.394424   1.336177696E-12
 118.563805   1.329304722E-12
 118.733177   1.314769582E-12
 118.902557   1.292287674E-12
 119.07193   1.261762613E-12
 119.24131   1.223297071E-12
 119.410683   1.177200048E-12
 119.580063   1.123987622E-12
 119.749443   1.064379921E-12
 119.918816   9.992911446E-13
 120.088196   9.298124336E-13
 120.257568   8.571907832E-13
 120.426949   7.828002027E-13
 120.596321   7.081110871E-13
 120.765701   6.346557936E-13
 120.935081   5.639940012E-13
 121.104454   4.976771491E-13
 121.273834   4.372157475E-13
 121.443207   3.840471235E-13
 121.612587   3.395053878E-13
 121.78196   3.047936794E-13
 121.95134   2.809589584E-13
 122.12072   2.688692368E-13
 122.290092   2.691949311E-13
 122.459473   2.823942252E-13
 122.628845   3.087032041E-13
 122.798225   3.481335771E-13
 122.967598   4.004759577E-13
 123.136978   4.653102448E-13
 123.306351   5.420229153E-13
 123.475731   6.298276787E-13
 123.645111   7.277910913E-13
 123.814484   8.348590374E-13
 123.983864   9.498824253E-13
 124.153236   1.071642341E-12
 124.322617   1.198873574E-12
 124.491989   1.330285057E-12
 124.661369   1.46458041E-12
 124.83075   1.600475828E-12
 125.000122   1.736717866E-12
 125.169502   1.872099914E-12
 125.338875   2.005476948E-12
 125.508255   2.1357781E-12
 125.677628   2.262014577E-12
 125.847008   2.383286494E-12
 126.01638   2.498782865E-12
 126.18576   2.607780094E-12
 126.355141   2.709638069E-12
 126.524513   2.80379474E-12
 126.693893   2.889758962E-12
 126.863266   2.967106378E-12
 127.032646   3.035475083E-12
 127.202019   3.094563668E-12
 127.371399   3.144130789E-12
 127.540779   3.183993433E-12
 127.710152   3.214028002E-12
 127.879532   3.234167491E-12
 128.048904   3.244398673E-12
 128.218277   3.244757978E-12
 128.387665   3.235329539E-12
 128.557037   3.216243461E-12
 128.72641   3.187676468E-12
 128.895798   3.149858846E-12
 129.06517   3.103079209E-12
 129.234543   3.047695126E-12
 129.403915   2.98414158E-12
 129.573303   2.912936602E-12
 129.742676   2.834686045E-12
 129.912048   2.750080112E-12
 130.081436   2.659888802E-12
 130.250809   2.564949772E-12
 130.420181   2.466154668E-12
 130.589554   2.364432001E-12
 130.758942   2.260729798E-12
 130.928314   2.155997169E-12
 131.097687   2.051170215E-12
 131.267059   1.947155111E-12
 131.436447   1.84481575E-12
 131.60582   1.744956068E-12
 131.775192   1.648306708E-12
 131.94458   1.555506158E-12
 132.113953   1.467083182E-12
 132.283325   1.383440237E-12
 132.452698   1.304838941E-12
 132.622086   1.231391074E-12
 132.791458   1.16305598E-12
 132.960831   1.099643922E-12
 133.130219   1.040825087E-12
 133.299591   9.861438922E-13
 133.468964   9.350376376E-13
 133.638336   8.868555846E-13
 133.807724   8.408787447E-13
 133.977097   7.963402073E-13
 134.146469   7.524414035E-13
 134.315857   7.083717835E-13
 134.485229   6.633222617E-13
 134.654602   6.165009909E-13
 134.823975   5.671497885E-13
 134.993362   5.145585564E-13
 135.162735   4.580796463E-13
 135.332108   3.971415753E-13
 135.501495   3.312565337E-13
 135.670868   2.600251557E-13
 135.84024   1.831350013E-13
 136.009613   1.003533194E-13
 136.179001   1.151891709E-14
 136.348373   -8.346978436E-14
 136.517746   -1.846633198E-13
 136.687119   -2.920675312E-13
 136.856506   -4.056477376E-13
 137.025879   -5.25329346E-13
 137.195251   -6.509947746E-13
 137.364639   -7.824836157E-13
 137.534012   -9.195890577E-13
 137.703384   -1.062059512E-12
 137.872757   -1.209599586E-12
 138.042145   -1.361873938E-12
 138.211517   -1.51851177E-12
 138.38089   -1.679112903E-12
 138.550278   -1.843248427E-12
 138.71965   -2.010459074E-12
 138.889023   -2.180252073E-12
 139.058395   -2.352091612E-12
 139.227783   -2.525387451E-12
 139.397156   -2.699487986E-12
 139.566528   -2.873675473E-12
 139.735916   -3.047167119E-12
 139.905289   -3.2191205E-12
 140.074661   -3.38864852E-12
 140.244034   -3.55483698E-12
 140.413422   -3.716759973E-12
 140.582794   -3.873501346E-12
 140.752167   -4.024171187E-12
 140.921555   -4.167921216E-12
 141.090927   -4.3039604E-12
 141.2603   -4.431564924E-12
 141.429672   -4.550092508E-12
 141.59906   -4.658988906E-12
 141.768433   -4.757803092E-12
 141.937805   -4.846195927E-12
 142.107193   -4.923949269E-12
 142.276566   -4.990976382E-12
 142.445938   -5.047329742E-12
 142.615311   -5.093201902E-12
 142.784698   -5.128923328E-12
 142.954071   -5.154956323E-12
 143.123444   -5.171889392E-12
 143.292816   -5.18042163E-12
 143.462204   -5.181361416E-12
 143.631577   -5.175614277E-12
 143.800949   -5.16418245E-12
 143.970337   -5.148156207E-12
 144.139709   -5.128708656E-12
 144.309082   -5.107085761E-12
 144.478455   -5.084588566E-12
 144.647842   -5.062552374E-12
 144.817215   -5.04231986E-12
 144.986588   -5.025214186E-12
 145.155975   -5.012500831E-12
 145.325348   -5.005362878E-12
 145.49472   -5.00486718E-12
 145.664093   -5.01194225E-12
 145.833481   -5.027360472E-12
 146.002853   -5.051725097E-12
 146.172226   -5.08546677E-12
 146.341614   -5.128836592E-12
 146.510986   -5.181906119E-12
 146.680359   -5.244559561E-12
 146.849731   -5.316491605E-12
 147.019119   -5.397197012E-12
 147.188492   -5.485972787E-12
 147.357864   -5.581909501E-12
 147.527252   -5.683908205E-12
 147.696625   -5.790692145E-12
 147.865997   -5.90082757E-12
 148.03537   -6.012757132E-12
 148.204758   -6.124831111E-12
 148.37413   -6.235343405E-12
 148.543503   -6.342563627E-12
 148.712891   -6.444777004E-12
 148.882263   -6.540310394E-12
 149.051636   -6.627565684E-12
 149.221008   -6.705044072E-12
 149.390396   -6.771373826E-12
 149.559769   -6.825331966E-12
 149.729141   -6.865875056E-12
 149.898514   -6.892161755E-12
 150.067902   -6.903578403E-12
 150.237274   -6.899752904E-12
 150.406647   -6.880566429E-12
 150.576035   -6.846144311E-12
 150.745407   -6.796843036E-12
 150.91478   -6.733220318E-12
 151.084152   -6.656003006E-12
 151.25354   -6.56605369E-12
 151.422913   -6.464336445E-12
 151.592285   -6.351894271E-12
 151.761673   -6.229829586E-12
 151.931046   -6.099291645E-12
 152.100418   -5.961469166E-12
 152.269791   -5.817583828E-12
 152.439178   -5.668881163E-12
 152.608551   -5.516616677E-12
 152.777924   -5.3620333E-12
 152.947311   -5.206334929E-12
 153.116684   -5.050656074E-12
 153.286057   -4.896028027E-12
 153.455429   -4.743354581E-12
 153.624817   -4.593391206E-12
 153.794189   -4.446739418E-12
 153.963562   -4.303848077E-12
 154.13295   -4.165023361E-12
 154.302322   -4.030437876E-12
 154.471695   -3.900143229E-12
 154.641068   -3.774072634E-12
 154.810455   -3.652046113E-12
 154.979828   -3.533768764E-12
 155.1492   -3.418834226E-12
 155.318588   -3.306730974E-12
 155.487961   -3.196857926E-12
 155.657333   -3.088545912E-12
 155.826706   -2.981093887E-12
 155.996094   -2.873805794E-12
 156.165466   -2.766032412E-12
 156.334839   -2.657212341E-12
 156.504211   -2.546906696E-12
 156.673599   -2.434825995E-12
 156.842972   -2.320842954E-12
 157.012344   -2.205001589E-12
 157.181732   -2.087514406E-12
 157.351105   -1.968760224E-12
 157.520477   -1.84927876E-12
 157.68985   -1.729770624E-12
 157.859238   -1.611095914E-12
 158.02861   -1.494267817E-12
 158.197983   -1.380442527E-12
 158.367371   -1.270898209E-12
 158.536743   -1.167003885E-12
 158.706116   -1.070178559E-12
 158.875488   -9.818463317E-13
 159.044876   -9.033892883E-13
 159.214249   -8.361052193E-13
 159.383621   -7.811738994E-13
 159.553009   -7.396332353E-13
 159.722382   -7.123667433E-13
 159.891754   -7.000989415E-13
 160.061127   -7.033970303E-13
 160.230515   -7.226748496E-13
 160.399887   -7.581929876E-13
 160.56926   -8.100539553E-13
 160.738647   -8.781890688E-13
 160.90802   -9.623444619E-13
 161.077393   -1.062062981E-12
 161.246765   -1.176675511E-12
 161.416153   -1.305301895E-12
 161.585526   -1.446866173E-12
 161.754898   -1.600127474E-12
 161.924286   -1.763720029E-12
 162.093658   -1.936198597E-12
 162.263031   -2.116084651E-12
 162.432404   -2.301906062E-12
 162.601791   -2.492226044E-12
 162.771164   -2.685662239E-12
 162.940536   -2.880894958E-12
 163.109909   -3.076664791E-12
 163.279297   -3.271767406E-12
 163.448669   -3.465045091E-12
 163.618042   -3.655378951E-12
 163.78743   -3.841687385E-12
 163.956802   -4.022931294E-12
 164.126175   -4.198121885E-12
 164.295547   -4.366333684E-12
 164.464935   -4.526720578E-12
 164.634308   -4.678529265E-12
 164.80368   -4.821109657E-12
 164.973068   -4.953925291E-12
 165.142441   -5.076559832E-12
 165.311813   -5.18872445E-12
 165.481186   -5.290269525E-12
 165.650574   -5.38119202E-12
 165.819946   -5.46164329E-12
 165.989319   -5.531930816E-12
 166.158707   -5.592509962E-12
 166.328079   -5.643968366E-12
 166.497452   -5.686996013E-12
 166.666824   -5.722347943E-12
 166.836212   -5.750797841E-12
 167.005585   -5.773085569E-12
 167.174957   -5.789866416E-12
 167.344345   -5.801662969E-12
 167.513718   -5.808826944E-12
 167.68309   -5.811508826E-12
 167.852463   -5.809648769E-12
 168.021851   -5.802975288E-12