 0.   1.064134936E-17
 0.169056863   1.064133861E-17
 0.338113725   1.064132124E-17
 0.507170618   1.064130304E-17
 0.67622745   1.064128981E-17
 0.845284343   1.064128319E-17
 1.01434124   1.064127988E-17
 1.18339813   1.064127492E-17
 1.3524549   1.064126582E-17
 1.52151179   1.064125093E-17
 1.69056869   1.064123604E-17
 1.85962558   1.06412228E-17
 2.02868247   1.064121536E-17
 2.19773936   1.064121205E-17
 2.36679626   1.064120874E-17
 2.53585315   1.064120295E-17
 2.7049098   1.064119054E-17
 2.87396669   1.064117317E-17
 3.04302359   1.06411558E-17
 3.21208048   1.064114174E-17
 3.38113737   1.064113512E-17
 3.55019426   1.064113678E-17
 3.71925116   1.064114174E-17
 3.88830805   1.064114339E-17
 4.05736494   1.06411376E-17
 4.22642183   1.064112437E-17
 4.39547873   1.064110617E-17
 4.56453562   1.06410888E-17
 4.73359251   1.064107805E-17
 4.9026494   1.064107308E-17
 5.0717063   1.064107308E-17
 5.24076319   1.064107226E-17
 5.4098196   1.064106812E-17
 5.5788765   1.06410582E-17
 5.74793339   1.064104661E-17
 5.91699028   1.064103752E-17
 6.08604717   1.064103255E-17
 6.25510406   1.064103173E-17
 6.42416096   1.064103255E-17
 6.59321785   1.064102924E-17
 6.76227474   1.064101849E-17
 6.93133163   1.064100029E-17
 7.10038853   1.064097961E-17
 7.26944542   1.064096307E-17
 7.43850231   1.06409548E-17
 7.6075592   1.064095562E-17
 7.7766161   1.06409639E-17
 7.94567299   1.064097465E-17
 8.11472988   1.064098375E-17
 8.28378677   1.064099037E-17
 8.45284367   1.06409945E-17
 8.62190056   1.064099947E-17
 8.79095745   1.064100774E-17
 8.96001434   1.064102014E-17
 9.12907124   1.064103421E-17
 9.29812813   1.064104661E-17
 9.46718502   1.064105489E-17
 9.63624191   1.064106068E-17
 9.80529881   1.064106564E-17
 9.9743557   1.064107308E-17
 10.1434126   1.064108632E-17
 10.3124695   1.064110534E-17
 10.4815264   1.064112685E-17
 10.6505823   1.06411467E-17
 10.8196392   1.064116159E-17
 10.9886961   1.064116986E-17
 11.157753   1.064117317E-17
 11.3268099   1.064117648E-17
 11.4958668   1.064118393E-17
 11.6649237   1.064119551E-17
 11.8339806   1.064121122E-17
 12.0030375   1.064123025E-17
 12.1720943   1.064124845E-17
 12.3411512   1.064126582E-17
 12.5102081   1.064128319E-17
 12.679265   1.064130056E-17
 12.8483219   1.064132041E-17
 13.0173788   1.064133861E-17
 13.1864357   1.064135681E-17
 13.3554926   1.06413717E-17
 13.5245495   1.064138493E-17
 13.6936064   1.064139568E-17
 13.8626633   1.064140561E-17
 14.0317202   1.064141636E-17
 14.2007771   1.064143125E-17
 14.3698339   1.064145028E-17
 14.5388908   1.064147344E-17
 14.7079477   1.064149908E-17
 14.8770046   1.06415239E-17
 15.0460615   1.064154706E-17
 15.2151184   1.064156774E-17
 15.3841753   1.064158511E-17
 15.5532322   1.064160248E-17
 15.7222891   1.064161985E-17
 15.891346   1.064163888E-17
 16.0604019   1.064166204E-17
 16.2294598   1.064168851E-17
 16.3985157   1.064171829E-17
 16.5675735   1.064174889E-17
 16.7366295   1.064178032E-17
 16.9056873   1.064181258E-17
 17.0747433   1.064184319E-17
 17.2438011   1.064187131E-17
 17.4128571   1.064189696E-17
 17.5819149   1.064192094E-17
 17.7509708   1.064194328E-17
 17.9200287   1.064196313E-17
 18.0890846   1.064198298E-17
 18.2581425   1.064200532E-17
 18.4271984   1.064203013E-17
 18.5962563   1.064206074E-17
 18.7653122   1.064209465E-17
 18.93437   1.064212691E-17
 19.103426   1.064215917E-17
 19.2724838   1.06421873E-17
 19.4415398   1.064220963E-17
 19.6105976   1.064222948E-17
 19.7796535   1.064224768E-17
 19.9487114   1.064226588E-17
 20.1177673   1.064228573E-17
 20.2868252   1.064230558E-17
 20.4558811   1.064232461E-17
 20.624939   1.064234446E-17
 20.7939949   1.064236349E-17
 20.9630527   1.064238334E-17
 21.1321087   1.064240567E-17
 21.3011646   1.064243214E-17
 21.4702225   1.06424644E-17
 21.6392784   1.064250163E-17
 21.8083363   1.064254216E-17
 21.9773922   1.064258269E-17
 22.14645   1.064262405E-17
 22.315506   1.064266458E-17
 22.4845638   1.06427018E-17
 22.6536198   1.064273572E-17
 22.8226776   1.064276467E-17
 22.9917336   1.064278452E-17
 23.1607914   1.064279114E-17
 23.3298473   1.06427779E-17
 23.4989052   1.064274068E-17
 23.6679611   1.064267864E-17
 23.837019   1.064259841E-17
 24.0060749   1.064251651E-17
 24.1751328   1.064245696E-17
 24.3441887   1.064245282E-17
 24.5132465   1.064253802E-17
 24.6823025   1.064273985E-17
 24.8513603   1.064306907E-17
 25.0204163   1.064350913E-17
 25.1894741   1.064400379E-17
 25.35853   1.064445625E-17
 25.5275879   1.064473419E-17
 25.6966438   1.064469035E-17
 25.8657017   1.064419404E-17
 26.0347576   1.064317164E-17
 26.2038155   1.064165046E-17
 26.3728714   1.063979261E-17
 26.5419292   1.063790416E-17
 26.7109852   1.063641358E-17
 26.880043   1.063581387E-17
 27.049099   1.063657074E-17
 27.2181568   1.063900431E-17
 27.3872128   1.06431766E-17
 27.5562706   1.064880061E-17
 27.7253265   1.065519306E-17
 27.8943844   1.066131833E-17
 28.0634403   1.066589926E-17
 28.2324982   1.066761979E-17
 28.4015541   1.066538061E-17
 28.57061   1.065856382E-17
 28.7396679   1.064725791E-17
 28.9087238   1.063239265E-17
 29.0777817   1.061572827E-17
 29.2468376   1.05996851E-17
 29.4158955   1.058701435E-17
 29.5849514   1.058037292E-17
 29.7540092   1.058184282E-17
 29.9230652   1.059251262E-17
 30.092123   1.061217718E-17
 30.261179   1.063924171E-17
 30.4302368   1.067084331E-17
 30.5992928   1.070318939E-17
 30.7683506   1.073206543E-17
 30.9374065   1.075342489E-17
 31.1064644   1.076396565E-17
 31.2755203   1.076160902E-17
 31.4445782   1.074579746E-17
 31.6136341   1.07175633E-17
 31.782692   1.067937651E-17
 31.9517479   1.063481298E-17
 32.1208038   1.058808803E-17
 32.2898636   1.054357827E-17
 32.4589195   1.050537493E-17
 32.6279755   1.04769497E-17
 32.7970314   1.046095781E-17
 32.9660912   1.045914712E-17
 33.1351471   1.04723514E-17
 33.304203   1.050050532E-17
 33.473259   1.054264355E-17
 33.6423187   1.059685118E-17
 33.8113747   1.066019006E-17
 33.9804306   1.072864339E-17
 34.1494865   1.079714387E-17
 34.3185463   1.08597449E-17
 34.4876022   1.090998867E-17
 34.6566582   1.094146951E-17
 34.8257141   1.094855845E-17
 34.9947739   1.092720561E-17
 35.1638298   1.087571114E-17
 35.3328857   1.079534971E-17
 35.5019417   1.069072708E-17
 35.6709976   1.056980072E-17
 35.8400574   1.044349355E-17
 36.0091133   1.032488991E-17
 36.1781693   1.022806015E-17
 36.3472252   1.016658161E-17
 36.5162849   1.015188757E-17
 36.6853409   1.01916245E-17
 36.8543968   1.028821438E-17
 37.0234528   1.043784308E-17
 37.1925125   1.063006083E-17
 37.3615685   1.084812135E-17
 37.5306244   1.107011264E-17
 37.6996803   1.127082802E-17
 37.8687401   1.142423032E-17
 38.037796   1.150629077E-17
 38.206852   1.149790233E-17
 38.3759079   1.138759697E-17
 38.5449677   1.117372115E-17
 38.7140236   1.086584618E-17
 38.8830795   1.048517766E-17
 39.0521355   1.006385901E-17
 39.2211952   9.643110281E-18
 39.3902512   9.270259447E-18
 39.5593071   8.994759499E-18
 39.728363   8.863368477E-18
 39.8974228   8.9147488E-18
 40.0664787   9.173795298E-18
 40.2355347   9.646184084E-18
 40.4045906   1.031373869E-17
 40.5736504   1.113143237E-17
 40.7427063   1.202687523E-17
 40.9117622   1.290314653E-17
 41.0808182   1.364554196E-17
 41.2498779   1.413241385E-17
 41.4189339   1.424961211E-17
 41.5879898   1.390732808E-17
 41.7570457   1.305741985E-17
 41.9261055   1.170882098E-17
 42.0951614   9.938340141E-18
 42.2642174   7.894404144E-18
 42.4332733   5.791864882E-18
 42.6023293   3.896950023E-18
 42.771389   2.502759848E-18
 42.9404449   1.897011556E-18
 43.1095009   2.325071939E-18
 43.2785568   3.952309912E-18
 43.4476166   6.830429432E-18
 43.6166725   1.087244212E-17
 43.7857285   1.584048557E-17
 43.9547844   2.134950018E-17
 44.1238441   2.688826682E-17
 44.2929001   3.185735582E-17
 44.461956   3.562151068E-17
 44.631012   3.75720522E-17
 44.8000717   3.719333914E-17
 44.9691277   3.412631224E-17
 45.1381836   2.822192019E-17
 45.3072395   1.957791257E-17
 45.4762993   8.553865615E-18
 45.6453552   -4.238340696E-18
 45.8144112   -1.796889904E-17
 45.9834671   -3.164650418E-17
 46.1525269   -4.419164446E-17
 46.3215828   -5.451937491E-17
 46.4906387   -6.162324833E-17
 46.6596947   -6.465216536E-17
 46.8287544   -6.297310121E-17
 46.9978104   -5.621493635E-17
 47.1668663   -4.429129656E-17
 47.3359222   -2.740314539E-17
 47.504982   -6.024212472E-18
 47.6740379   1.912601884E-17
 47.8430939   4.711634997E-17
 48.0121498   7.683983127E-17
 48.1812096   1.070477062E-16
 48.3502655   1.363790014E-16
 48.5193214   1.633855087E-16
 48.6883774   1.865536994E-16
 48.8574371   2.043273491E-16
 49.0264931   2.151355028E-16
 49.195549   2.174311341E-16
 49.3646049   2.097457395E-16
 49.5336647   1.907639164E-16
 49.7027206   1.594199916E-16
 49.8717766   1.150158643E-16
 50.0408325   5.735646545E-17
 50.2098885   -1.310551462E-17
 50.3789482   -9.512665718E-17
 50.5480042   -1.865473996E-16
 50.7170601   -2.842014443E-16
 50.886116   -3.838796198E-16
 51.0551758   -4.803656722E-16
 51.2242317   -5.67559985E-16
 51.3932877   -6.386992646E-16
 51.5623436   -6.866748402E-16
 51.7314034   -7.044422033E-16
 51.9004593   -6.85503923E-16
 52.0695152   -6.244412649E-16
 52.2385712   -5.17458939E-16
 52.4076309   -3.629046488E-16
 52.5766869   -1.617193816E-16
 52.7457428   8.222315579E-17
 52.9147987   3.619266434E-16
 53.0838585   6.672623803E-16
 53.2529144   9.851592452E-16
 53.4219704   1.300000015E-15
 53.5910263   1.594217439E-15
 53.7600861   1.849066995E-15
 53.929142   2.045544122E-15
 54.0981979   2.165399072E-15
 54.2672539   2.19219623E-15
 54.4363136   2.112362951E-15
 54.6053696   1.916164498E-15
 54.7744255   1.598554989E-15
 54.9434814   1.159852591E-15
 55.1125412   6.062006222E-16
 55.2815971   -5.021214289E-17
 55.4506531   -7.911893885E-16
 55.619709   -1.592827458E-15
 55.7887688   -2.426073885E-15
 55.9578247   -3.257533285E-15
 56.1268806   -4.050498001E-15
 56.2959366   -4.766181549E-15
 56.4649963   -5.36511897E-15
 56.6340523   -5.808699113E-15
 56.8031082   -6.060776965E-15
 56.9721642   -6.089325364E-15
 57.1412201   -5.868054523E-15
 57.3102798   -5.377955331E-15
 57.4793358   -4.608689749E-15
 57.6483917   -3.559773275E-15
 57.8174477   -2.241484442E-15
 57.9865074   -6.754556771E-16
 58.1555634   1.10511171E-15
 58.3246193   3.055626041E-15
 58.4936752   5.120709731E-15
 58.662735   7.235224992E-15
 58.8317909   9.325729411E-15
 59.0008469   1.131232491E-14
 59.1699028   1.311089011E-14
 59.3389626   1.463564004E-14
 59.5080185   1.580197223E-14
 59.6770744   1.652951762E-14
 59.8461304   1.674534162E-14
 60.0151901   1.638719068E-14
 60.1842461   1.540668228E-14
 60.353302   1.377236185E-14
 60.5223579   1.147248783E-14
 60.6914177   8.51746008E-15
 60.8604736   4.941774867E-15
 61.0295296   8.054172656E-16
 61.1985855   -3.805399277E-15
 61.3676453   -8.778213243E-15
 61.5367012   -1.397505345E-14
 61.7057571   -1.923398202E-14
 61.8748131   -2.437142658E-14
 62.0438728   -2.918530624E-14
 62.2129288   -3.345890934E-14
 62.3819847   -3.696545294E-14
 62.5510406   -3.947328372E-14
 62.7201004   -4.075155469E-14
 62.8891563   -4.057630019E-14
 63.0582123   -3.87367513E-14
 63.2272682   -3.504166832E-14
 63.396328   -2.932560878E-14
 63.5653839   -2.145479737E-14
 63.7344398   -1.133260034E-14
 63.9034958   1.095807794E-15
 64.0725555   1.583956863E-14
 64.2416077   3.285931165E-14
 64.4106674   5.206548896E-14
 64.5797272   7.331791153E-14
 64.7487793   9.642656953E-14
 64.9178391   1.211537923E-13
 65.0868912   1.472175924E-13
 65.2559509   1.742962599E-13
 65.4250107   2.020340953E-13
 65.5940628   2.300479685E-13
 65.7631226   2.579347326E-13
 65.9321823   2.852792872E-13
 66.1012344   3.116629405E-13
 66.2702942   3.366718796E-13
 66.4393463   3.599056816E-13
 66.6084061   3.809853095E-13
 66.7774658   3.99560864E-13
 66.9465179   4.153184144E-13
 67.1155777   4.279859345E-13
 67.2846375   4.373386148E-13
 67.4536896   4.432025222E-13
 67.6227493   4.454576627E-13
 67.7918015   4.440394992E-13
 67.9608612   4.389396019E-13
 68.129921   4.302050252E-13
 68.2989731   4.179372777E-13
 68.4680328   4.022896653E-13
 68.6370926   3.834647985E-13
 68.8061447   3.617110409E-13
 68.9752045   3.373190399E-13
 69.1442566   3.106180406E-13
 69.3133163   2.819719284E-13
 69.4823761   2.51775624E-13
 69.6514282   2.204510852E-13
 69.820488   1.884436888E-13
 69.9895477   1.562184762E-13
 70.1585999   1.242559522E-13
 70.3276596   9.304763991E-14
 70.4967117   6.309100513E-14
 70.6657715   3.488379494E-14
 70.8348312   8.917476471E-15
 71.0038834   -1.433002886E-14
 71.1729431   -3.440245661E-14
 71.3419952   -5.087393384E-14
 71.511055   -6.335831518E-14
 71.6801147   -7.151847474E-14
 71.8491669   -7.507570818E-14
 72.0182266   -7.381856221E-14
 72.1872864   -6.761074583E-14
 72.3563385   -5.639762542E-14
 72.5253983   -4.021114089E-14
 72.6944504   -1.917238747E-14
 72.8635101   6.507876106E-15
 73.0325699   3.653140277E-14
 73.201622   7.051711239E-14
 73.3706818   1.08008112E-13
 73.5397415   1.484812029E-13
 73.7087936   1.913579972E-13
 73.8778534   2.360177483E-13
 74.0469055   2.818112497E-13
 74.2159653   3.280749695E-13
 74.385025   3.74145593E-13
 74.5540771   4.193737642E-13
 74.7231369   4.631370699E-13
 74.8921967   5.048519654E-13
 75.0612488   5.439839659E-13
 75.2303085   5.800566191E-13
 75.3993607   6.126589036E-13
 75.5684204   6.414503802E-13
 75.7374802   6.661657987E-13
 75.9065323   6.866173754E-13
 76.075592   7.026959852E-13
 76.2446518   7.14370891E-13
 76.4137039   7.216883883E-13
 76.5827637   7.247688777E-13
 76.7518158   7.238026367E-13
 76.9208755   7.190442903E-13
 77.0899353   7.108062511E-13
 77.2589874   6.994501549E-13
 77.4280472   6.853774276E-13
 77.5971069   6.690184431E-13
 77.7661591   6.508204891E-13
 77.9352188   6.312356779E-13
 78.1042709   6.10707936E-13
 78.2733307   5.896606445E-13
 78.4423904   5.684841703E-13
 78.6114426   5.475256208E-13
 78.7805023   5.270788688E-13
 78.9495544   5.073778854E-13
 79.1186142   4.885914806E-13
 79.287674   4.708206481E-13
 79.4567261   4.540992961E-13
 79.6257858   4.383961185E-13
 79.7948456   4.236195813E-13
 79.9638977   4.096241304E-13
 80.1329575   3.962178079E-13
 80.3020096   3.831706003E-13
 80.4710693   3.702236271E-13
 80.6401291   3.570981943E-13
 80.8091812   3.435044675E-13
 80.978241   3.291496578E-13
 81.1473007   3.137451507E-13
 81.3163528   2.970129297E-13
 81.4854126   2.786907261E-13
 81.6544647   2.58536763E-13
 81.8235245   2.363332783E-13
 81.9925842   2.118902655E-13
 82.1616364   1.850480625E-13
 82.3306961   1.556800207E-13
 82.4997559   1.236947421E-13
 82.668808   8.903792146E-14
 82.8378677   5.169415988E-14
 83.0069199   1.168881073E-14
 83.1759796   -3.091057006E-14
 83.3450394   -7.599289579E-14
 83.5140915   -1.234027664E-13
 83.6831512   -1.729401941E-13
 83.852211   -2.243615721E-13
 84.0212631   -2.773814164E-13
 84.1903229   -3.316751171E-13
 84.359375   -3.868826646E-13
 84.5284348   -4.426135565E-13
 84.6974945   -4.984531126E-13
 84.8665466   -5.539691969E-13
 85.0356064   -6.087205935E-13
 85.2046585   -6.622655441E-13
 85.3737183   -7.141713436E-13
 85.542778   -7.640239895E-13
 85.7118301   -8.114375057E-13
 85.8808899   -8.560634298E-13
 86.0499496   -8.975988355E-13
 86.2190018   -9.357945191E-13
 86.3880615   -9.704605826E-13
 86.5571136   -1.0014718E-12
 86.7261734   -1.028770385E-12
 86.8952332   -1.052367395E-12
 87.0642853   -1.072340892E-12
 87.233345   -1.088833559E-12
 87.4024048   -1.102046948E-12
 87.5714569   -1.112234003E-12
 87.7405167   -1.119689953E-12
 87.9095688   -1.124741251E-12
 88.0786285   -1.127733323E-12
 88.2476883   -1.129018537E-12
 88.4167404   -1.128943185E-12
 88.5858002   -1.127835889E-12
 88.7548599   -1.125995564E-12
 88.923912   -1.12368231E-12
 89.0929718   -1.121108957E-12
 89.2620239   -1.118435314E-12
 89.4310837   -1.115764165E-12
 89.6001434   -1.113140396E-12
 89.7691956   -1.110550562E-12
 89.9382553   -1.107926901E-12
 90.1073151   -1.105150693E-12
 90.2763672   -1.102059741E-12
 90.4454269   -1.098455094E-12
 90.6144791   -1.094110696E-12
 90.7835388   -1.088782927E-12
 90.9525986   -1.082222094E-12
 91.1216507   -1.074182952E-12
 91.2907104   -1.064436191E-12
 91.4597702   -1.052778633E-12
 91.6288223   -1.039042875E-12
 91.7978821   -1.02310532E-12
 91.9669342   -1.004893217E-12
 92.135994   -9.843888942E-13
 92.3050537   -9.616322495E-13
 92.4741058   -9.36721512E-13
 92.6431656   -9.098108551E-13
 92.8122177   -8.811055184E-13
 92.9812775   -8.508547057E-13
 93.1503372   -8.193432911E-13
 93.3193893   -7.868808686E-13
 93.4884491   -7.537903136E-13
 93.6575089   -7.203955314E-13
 93.826561   -6.870086097E-13
 93.9956207   -6.539180547E-13
 94.1646729   -6.213772986E-13
 94.3337326   -5.895954298E-13
 94.5027924   -5.587297118E-13
 94.6718445   -5.288811381E-13
 94.8409042   -5.000924262E-13
 95.009964   -4.723488311E-13
 95.1790161   -4.455823731E-13
 95.3480759   -4.196773679E-13
 95.517128   -3.94478585E-13
 95.6861877   -3.698009509E-13
 95.8552475   -3.454402563E-13
 96.0242996   -3.211850003E-13
 96.1933594   -2.968272058E-13
 96.3624191   -2.721731532E-13
 96.5314713   -2.470524057E-13
 96.700531   -2.213249522E-13
 96.8695831   -1.948863976E-13
 97.0386429   -1.676705649E-13
 97.2077026   -1.396502814E-13
 97.3767548   -1.108354334E-13
 97.5458145   -8.126913855E-14
 97.7148743   -5.102277108E-14
 97.8839264   -2.018904046E-14
 98.0529861   1.112591159E-14
 98.2220383   4.281006159E-14
 98.391098   7.475310383E-14
 98.5601578   1.068525354E-13
 98.7292099   1.390186658E-13
 98.8982697   1.711783926E-13
 99.0673294   2.032769298E-13
 99.2363815   2.352781869E-13
 99.4054413   2.671626754E-13
 99.5744934   2.989238902E-13
 99.7435532   3.305622648E-13
 99.9126129   3.620777452E-13
 100.081665   3.934614949E-13
 100.250725   4.246863549E-13
 100.419777   4.556982504E-13
 100.588837   4.864071385E-13
 100.757896   5.166797979E-13
 100.926949   5.463339742E-13
 101.096008   5.751351001E-13
 101.265068   6.027948323E-13
 101.43412   6.289737611E-13
 101.60318   6.532868322E-13
 101.772232   6.753126704E-13
 101.941292   6.946058312E-13
 102.110352   7.107116002E-13
 102.279404   7.231835573E-13
 102.448463   7.31601574E-13
 102.617523   7.355916007E-13
 102.786575   7.348442601E-13
 102.955635   7.291331167E-13
 103.124687   7.183299637E-13
 103.293747   7.02417291E-13
 103.462807   6.814961464E-13
 103.631859   6.557902008E-13
 103.800919   6.256439594E-13
 103.969978   5.915168529E-13
 104.13903   5.53972829E-13
 104.30809   5.136656074E-13
 104.477142   4.713203027E-13
 104.646202   4.277128781E-13
 104.815262   3.836467277E-13
 104.984314   3.399292566E-13
 105.153374   2.973481108E-13
 105.322433   2.566484351E-13
 105.491486   2.185121387E-13
 105.660545   1.835387989E-13
 105.829597   1.52229588E-13
 105.998657   1.249738838E-13
 106.167717   1.020393554E-13
 106.336769   8.356580402E-14
 106.505829   6.956334651E-14
 106.674881   5.991455026E-14
 106.843941   5.43808908E-14
 107.013   5.261273662E-14
 107.182053   5.416298988E-14
 107.351112   5.850375252E-14
 107.520172   6.504615368E-14
 107.689224   7.316272832E-14
 107.858284   8.221175748E-14
 108.027336   9.156268951E-14
 108.196396   1.006211851E-13
 108.365456   1.088523125E-13
 108.534508   1.15801032E-13
 108.703568   1.211089741E-13
 108.872627   1.245267181E-13
 109.041679   1.259212325E-13
 109.210739   1.252781922E-13
 109.379791   1.226990108E-13
 109.548851   1.18392099E-13
 109.717911   1.126590683E-13
 109.886963   1.05877133E-13
 110.056023   9.847819852E-14
 110.225082   9.092748933E-14
 110.394135   8.370195948E-14
 110.563194   7.727096686E-14
 110.732246   7.207932574E-14
 110.901306   6.853309695E-14
 111.070366   6.698882714E-14
 111.239418   6.774663702E-14
 111.408478   7.104604042E-14
 111.577538   7.706612041E-14
 111.74659   8.592832798E-14
 111.915649   9.770133379E-14
 112.084702   1.124064492E-13
 112.253761   1.300233928E-13
 112.422821   1.504951356E-13
 112.591873   1.737323664E-13
 112.760933   1.996167717E-13
 112.929993   2.280038409E-13
 113.099045   2.587249534E-13
 113.268105   2.915886662E-13
 113.437157   3.263803615E-13
 113.606216   3.628616504E-13
 113.775276   4.007680418E-13
 113.944328   4.398070992E-13
 114.113388   4.7965695E-13
 114.28244   5.199654726E-13
 114.4515   5.603516783E-13
 114.62056   6.004067686E-13
 114.789612   6.396989058E-13
 114.958672   6.777771703E-13
 115.127731   7.141788246E-13
 115.296783   7.484382038E-13
 115.465843   7.800980456E-13
 115.634895   8.087234766E-13
 115.803955   8.339171367E-13
 115.973015   8.553369059E-13
 116.142067   8.727132515E-13
 116.311127   8.858673343E-13
 116.480186   8.94728844E-13
 116.649239   8.993528036E-13
 116.818298   8.99934966E-13
 116.98735   8.968244441E-13
 117.15641   8.905314095E-13
 117.32547   8.817294768E-13
 117.494522   8.712514759E-13
 117.663582   8.600782304E-13
 117.832642   8.493198549E-13
 118.001694   8.401916315E-13
 118.170753   8.339827852E-13
 118.339806   8.320216261E-13
 118.508865   8.356354888E-13
 118.677925   8.461095323E-13
 118.846977   8.646429926E-13
 119.016037   8.923077121E-13
 119.185097   9.300081321E-13
 119.354149   9.784461652E-13
 119.523209   1.038092138E-12
 119.692261   1.109161916E-12
 119.86132   1.191602372E-12
 120.03038   1.285085319E-12
 120.199432   1.389010543E-12
 120.368492   1.502517186E-12
 120.537552   1.624505109E-12
 120.706604   1.753663187E-12
 120.875664   1.888504977E-12
 121.044716   2.027408406E-12
 121.213776   2.168656747E-12
 121.382835   2.310484269E-12
 121.551888   2.451114181E-12
 121.720947   2.588799184E-12
 121.889999   2.721854643E-12
 122.059059   2.848686564E-12
 122.228119   2.967813495E-12
 122.397171   3.077883001E-12
 122.566231   3.177677739E-12
 122.735291   3.266116761E-12
 122.904343   3.342250738E-12
 123.073402   3.405251775E-12
 123.242455   3.454400177E-12
 123.411514   3.489071879E-12
 123.580574   3.508720224E-12
 123.749626   3.512864045E-12
 123.918686   3.50107031E-12
 124.087746   3.472943287E-12
 124.256798   3.428112178E-12
 124.425858   3.36622505E-12
 124.59491   3.286945152E-12
 124.763969   3.189951992E-12
 124.933029   3.074948065E-12
 125.102081   2.941666875E-12
 125.271141   2.789884643E-12
 125.440201   2.619435268E-12
 125.609253   2.43022681E-12
 125.778313   2.222260136E-12
 125.947365   1.995650173E-12
 126.116425   1.750644768E-12
 126.285484   1.487647245E-12
 126.454536   1.207232122E-12
 126.623596   9.101600766E-13
 126.792656   5.973878618E-13
 126.961708   2.70074978E-13
 127.130768   -7.041387601E-14
 127.29982   -4.22507759E-13
 127.46888   -7.844331196E-13
 127.637939   -1.154220491E-12
 127.806992   -1.529717867E-12
 127.976051   -1.908607387E-12
 128.145111   -2.288428344E-12
 128.314163   -2.666603483E-12
 128.483215   -3.040467617E-12
 128.652283   -3.407302652E-12
 128.821335   -3.764373795E-12
 128.990387   -4.10897141E-12
 129.159454   -4.438458281E-12
 129.328506   -4.750314291E-12
 129.497559   -5.042188889E-12
 129.666626   -5.311947063E-12
 129.835678   -5.557709674E-12
 130.00473   -5.777894222E-12
 130.173782   -5.971242164E-12
 130.34285   -6.136845806E-12
 130.511902   -6.274163914E-12
 130.680954   -6.383033425E-12
 130.850021   -6.463666841E-12
 131.019073   -6.516646164E-12
 131.188126   -6.542902938E-12
 131.357193   -6.543693972E-12
 131.526245   -6.520569241E-12
 131.695297   -6.475339362E-12
 131.864365   -6.410040901E-12
 132.033417   -6.326899508E-12
 132.202469   -6.228299126E-12
 132.371536   -6.116745131E-12
 132.540588   -5.99483397E-12
 132.709641   -5.865221503E-12
 132.878693   -5.73059742E-12
 133.04776   -5.593662686E-12
 133.216812   -5.457109157E-12
 133.385864   -5.3235992E-12
 133.554932   -5.195742708E-12
 133.723984   -5.076072375E-12
 133.893036   -4.967012045E-12
 134.062103   -4.870843312E-12
 134.231155   -4.789673432E-12
 134.400208   -4.725394121E-12
 134.569275   -4.679650764E-12
 134.738327   -4.653806854E-12
 134.907379   -4.648913633E-12
 135.076431   -4.665678868E-12
 135.245499   -4.70444907E-12
 135.414551   -4.765194749E-12
 135.583603   -4.847508246E-12
 135.75267   -4.950617173E-12
 135.921722   -5.073404804E-12
 136.090775   -5.214443027E-12
 136.259842   -5.372033113E-12
 136.428894   -5.544252123E-12
 136.597946   -5.729007112E-12
 136.767014   -5.924094115E-12
 136.936066   -6.127256254E-12
 137.105118   -6.336245764E-12
 137.274185   -6.548877326E-12
 137.443237   -6.763074909E-12
 137.612289   -6.976902563E-12
 137.781342   -7.1885887E-12
 137.950409   -7.39654258E-12
 138.119461   -7.599357775E-12
 138.288513   -7.795814341E-12
 138.457581   -7.984880118E-12
 138.626633   -8.16569902E-12
 138.795685   -8.337583228E-12
 138.964752   -8.500000183E-12
 139.133804   -8.652556102E-12
 139.302856   -8.794982104E-12
 139.471924   -8.92712293E-12
 139.640976   -9.048924804E-12
 139.810028   -9.160418084E-12
 139.979095   -9.261705118E-12
 140.148148   -9.352931624E-12
 140.3172   -9.434265001E-12
 140.486252   -9.505867447E-12
 140.655319   -9.567869066E-12
 140.824371   -9.620350523E-12
 140.993423   -9.663322226E-12
 141.162491   -9.696710448E-12
 141.331543   -9.720333045E-12
 141.500595   -9.733890777E-12
 141.669662   -9.736949962E-12
 141.838715   -9.728938141E-12
 142.007767   -9.709148416E-12
 142.176834   -9.676756792E-12
 142.345886   -9.630849937E-12
 142.514938   -9.570456407E-12
 142.68399   -9.494581336E-12
 142.853058   -9.40224721E-12
 143.02211   -9.292532889E-12
 143.191162   -9.164620451E-12
 143.360229   -9.01783509E-12
 143.529282   -8.851687612E-12
 143.698334   -8.665905667E-12
 143.867401   -8.460449355E-12
 144.036453   -8.235519038E-12
 144.205505   -7.991547528E-12
 144.374573   -7.729186215E-12
 144.543625   -7.449281643E-12
 144.712677   -7.152852963E-12
 144.881744   -6.841061138E-12
 145.050797   -6.515176853E-12
 145.219849   -6.176538881E-12
 145.388901   -5.826510281E-12
 145.557968   -5.466435898E-12
 145.72702   -5.097605064E-12
 145.896072   -4.72122428E-12
 146.06514   -4.338397263E-12
 146.234192   -3.950117577E-12
 146.403244   -3.557257787E-12
 146.572311   -3.160574233E-12
 146.741364   -2.760710063E-12
 146.910416   -2.358202826E-12
 147.079483   -1.953505066E-12
 147.248535   -1.547008832E-12
 147.417587   -1.139069958E-12
 147.586655   -7.300359319E-13
 147.755707   -3.202636724E-13
 147.924759   8.986502541E-14
 148.093811   4.999315848E-13
 148.262878   9.094668378E-13
 148.431931   1.317938814E-12
 148.600983   1.724734721E-12
 148.77005   2.129148637E-12
 148.939102   2.530368927E-12
 149.108154   2.927474669E-12
 149.277222   3.319439992E-12
 149.446274   3.705144264E-12
 149.615326   4.083382937E-12
 149.784393   4.452887278E-12
 149.953445   4.812338462E-12
 150.122498   5.160397283E-12
 150.29155   5.495730607E-12
 150.460617   5.8170504E-12
 150.629669   6.123153633E-12
 150.798721   6.412959573E-12
 150.967789   6.685539709E-12
 151.136841   6.940142905E-12
 151.305893   7.176210581E-12
 151.47496   7.393387118E-12
 151.644012   7.591533305E-12
 151.813065   7.770728505E-12
 151.982132   7.931270224E-12
 152.151184   8.07366847E-12
 152.320236   8.198624939E-12
 152.489304   8.307006992E-12
 152.658356   8.399810361E-12
 152.827408   8.478124452E-12
 152.99646   8.543093316E-12
 153.165527   8.59588789E-12
 153.334579   8.637668705E-12
 153.503632   8.669558994E-12
 153.672699   8.692602194E-12
 153.841751   8.707731584E-12
 154.010803   8.715731262E-12
 154.179871   8.71720144E-12
 154.348923   8.712530697E-12
 154.517975   8.701871688E-12
 154.687042   8.68511079E-12
 154.856094   8.661853353E-12
 155.025146   8.631402884E-12
 155.194214   8.592739367E-12
 155.363266   8.54452533E-12
 155.532318   8.485111051E-12
 155.70137   8.412567518E-12
 155.870438   8.324729794E-12
 156.03949   8.219249066E-12
 156.208542   8.093661158E-12
 156.377609   7.94544118E-12
 156.546661   7.772075518E-12
 156.715714   7.571129487E-12
 156.884781   7.340322794E-12
 157.053833   7.077608465E-12
 157.222885   6.781256112E-12
 157.391953   6.449929566E-12
 157.561005   6.082758429E-12
 157.730057   5.679399225E-12
 157.899109   5.240084408E-12
 158.068176   4.765663125E-12
 158.237228   4.257634609E-12
 158.406281   3.718168134E-12
 158.575348   3.150114284E-12
 158.7444   2.556991945E-12
 158.913452   1.942951225E-12
 159.08252   1.312715128E-12
 159.251572   6.714992061E-13
 159.420624   2.491866746E-14
 159.589691   -6.211119943E-13
 159.758743   -1.260484555E-12
 159.927795   -1.887009863E-12
 160.096863   -2.494535611E-12
 160.265915   -3.077068548E-12
 160.434967   -3.62889753E-12
 160.604019   -4.14470628E-12
 160.773087   -4.619670098E-12
 160.942139   -5.049525468E-12
 161.111191   -5.430619062E-12
 161.280258   -5.759933763E-12
 161.44931   -6.035105141E-12
 161.618362   -6.254423195E-12
 161.78743   -6.416820634E-12
 161.956482   -6.521851201E-12
 162.125534   -6.569646303E-12
 162.294601   -6.560861229E-12
 162.463654   -6.496610975E-12
 162.632706   -6.378402147E-12
 162.801773   -6.208076154E-12
 162.970825   -5.987753262E-12
 163.139877   -5.719781419E-12
 163.308929   -5.406685082E-12
 163.477997   -5.051106668E-12
 163.647049   -4.655747576E-12
 163.816101   -4.223317442E-12
 163.985168   -3.756491212E-12
 164.154221   -3.257890702E-12
 164.323273   -2.730078533E-12
 164.49234   -2.175563332E-12
 164.661392   -1.596808623E-12
 164.830444   -9.962378145E-13
 164.999512   -3.762401089E-13
 165.168564   2.608228303E-13
 165.337616   9.126057115E-13
 165.506668   1.576763459E-12
 165.675735   2.250937934E-12
 165.844788   2.932752565E-12
 166.01384   3.619824492E-12
 166.182907   4.30978777E-12
 166.351959   5.000319169E-12
 166.521011   5.689159647E-12
 166.690079   6.374128655E-12
 166.859131   7.053125011E-12
 167.028183   7.724128628E-12
 167.19725   8.385203989E-12
 167.366302   9.03452313E-12
 167.535355   9.670390357E-12
 167.704422   1.029127217E-11
 167.873474   1.089582591E-11
 168.042526   1.148290577E-11
 168.211578   1.205157328E-11