   0.00000000         0.00000000    
  0.165000007         0.00000000    
  0.330000013         0.00000000    
  0.495000005         0.00000000    
  0.660000026         0.00000000    
  0.824999988         0.00000000    
  0.990000010         0.00000000    
   1.15499997         0.00000000    
   1.32000005         0.00000000    
   1.48500001         0.00000000    
   1.64999998         0.00000000    
   1.81500006         0.00000000    
   1.98000002         0.00000000    
   2.14499998         0.00000000    
   2.30999994         0.00000000    
   2.47499990         0.00000000    
   2.64000010         0.00000000    
   2.80500007         0.00000000    
   2.97000003         0.00000000    
   3.13499999         0.00000000    
   3.29999995         0.00000000    
   3.46499991         0.00000000    
   3.63000011         0.00000000    
   3.79500008         0.00000000    
   3.96000004         0.00000000    
   4.12500000         0.00000000    
   4.28999996         0.00000000    
   4.45499992         0.00000000    
   4.61999989         0.00000000    
   4.78499985         0.00000000    
   4.94999981         0.00000000    
   5.11499977         0.00000000    
   5.28000021         0.00000000    
   5.44500017         0.00000000    
   5.61000013         0.00000000    
   5.77500010         0.00000000    
   5.94000006         0.00000000    
   6.10500002         0.00000000    
   6.26999998         0.00000000    
   6.43499994         0.00000000    
   6.59999990         0.00000000    
   6.76499987         0.00000000    
   6.92999983         0.00000000    
   7.09499979         0.00000000    
   7.26000023         0.00000000    
   7.42500019         0.00000000    
   7.59000015         0.00000000    
   7.75500011         0.00000000    
   7.92000008         0.00000000    
   8.08500004         0.00000000    
   8.25000000         0.00000000    
   8.41499996         0.00000000    
   8.57999992         0.00000000    
   8.74499989         0.00000000    
   8.90999985         0.00000000    
   9.07499981         0.00000000    
   9.23999977         0.00000000    
   9.40499973         0.00000000    
   9.56999969         0.00000000    
   9.73499966         0.00000000    
   9.89999962         0.00000000    
   10.0649996         0.00000000    
   10.2299995         0.00000000    
   10.3950005         0.00000000    
   10.5600004         0.00000000    
   10.7250004         0.00000000    
   10.8900003         0.00000000    
   11.0550003         0.00000000    
   11.2200003         5.59980346E-33
   11.3850002         2.40456744E-32
   11.5500002         3.10938974E-32
   11.7150002         3.52429737E-33
   11.8800001        -3.34701622E-32
   12.0450001        -7.05648436E-32
   12.2100000        -8.61251503E-32
   12.3750000        -4.88357623E-31
   12.5400000        -1.35867070E-30
   12.7049999        -2.12102740E-30
   12.8699999        -1.66086142E-30
   13.0349998         2.49160096E-30
   13.1999998         1.17947463E-29
   13.3649998         2.01083622E-29
   13.5299997         1.77416787E-29
   13.6949997        -8.08920444E-30
   13.8599997        -5.92781616E-29
   14.0249996        -1.17913568E-28
   14.1899996        -1.69988294E-28
   14.3549995        -1.88250961E-28
   14.5200005        -1.53776394E-28
   14.6850004        -4.80259370E-29
   14.8500004         1.27018896E-28
   15.0150003         3.30738818E-28
   15.1800003         4.90910202E-28
   15.3450003         5.24142123E-28
   15.5100002         3.68980131E-28
   15.6750002         6.97733047E-30
   15.8400002        -5.24760347E-28
   16.0049992        -1.09065750E-27
   16.1700001        -1.47901617E-27
   16.3349991        -1.44947327E-27
   16.5000000        -7.94043872E-28
   16.6650009         5.63393153E-28
   16.8299999         2.48977559E-27
   16.9950008         4.58707325E-27
   17.1599998         6.20596373E-27
   17.3250008         6.53121209E-27
   17.4899998         4.77111126E-27
   17.6550007         4.40999824E-28
   17.8199997        -6.31905781E-27
   17.9850006        -1.44654549E-26
   18.1499996        -2.19584302E-26
   18.3150005        -2.59914107E-26
   18.4799995        -2.36476109E-26
   18.6450005        -1.29398518E-26
   18.8099995         5.98924770E-27
   18.9750004         2.99322085E-26
   19.1399994         5.24648523E-26
   19.3050003         6.50112598E-26
   19.4699993         5.92208297E-26
   19.6350002         3.02228698E-26
   19.7999992        -2.01926960E-26
   19.9650002        -8.17554981E-26
   20.1299992        -1.36417347E-25
   20.2950001        -1.62106750E-25
   20.4599991        -1.39024520E-25
   20.6250000        -5.68867875E-26
   20.7900009         7.91885879E-26
   20.9549999         2.46422718E-25
   21.1200008         4.07110110E-25
   21.2849998         5.16181322E-25
   21.4500008         5.31778532E-25
   21.6149998         4.25895402E-25
   21.7800007         1.92000486E-25
   21.9449997        -1.52446310E-25
   22.1100006        -5.68875258E-25
   22.2749996        -1.00423344E-24
   22.4400005        -1.39839164E-24
   22.6049995        -1.68929514E-24
   22.7700005        -1.81418405E-24
   22.9349995        -1.70769453E-24
   23.1000004        -1.30048059E-24
   23.2649994        -5.24005885E-25
   23.4300003         6.72721006E-25
   23.5949993         2.29132815E-24
   23.7600002         4.23956372E-24
   23.9249992         6.28399931E-24
   24.0900002         8.01750971E-24
   24.2549992         8.86405923E-24
   24.4200001         8.14242032E-24
   24.5849991         5.20157487E-24
   24.7500000        -3.76939089E-25
   24.9150009        -8.53823285E-24
   25.0799999        -1.85284352E-23
   25.2450008        -2.87568641E-23
   25.4099998        -3.68237115E-23
   25.5750008        -3.97759004E-23
   25.7399998        -3.46155762E-23
   25.9050007        -1.90276611E-23
   26.0699997         7.77651428E-24
   26.2350006         4.42680467E-23
   26.3999996         8.60749358E-23
   26.5650005         1.25941012E-22
   26.7299995         1.54341204E-22
   26.8950005         1.60823066E-22
   27.0599995         1.35994243E-22
   27.2250004         7.39016950E-23
   27.3899994        -2.56148122E-23
   27.5550003        -1.55123035E-22
   27.7199993        -2.98897781E-22
   27.8850002        -4.33761366E-22
   28.0499992        -5.31676650E-22
   28.2150002        -5.63972590E-22
   28.3799992        -5.06702752E-22
   28.5450001        -3.46287395E-22
   28.7099991        -8.43597313E-23
   28.8750000         2.59303982E-22
   29.0400009         6.46692216E-22
   29.2049999         1.02480004E-21
   29.3700008         1.33210915E-21
   29.5349998         1.50755646E-21
   29.7000008         1.50066921E-21
   29.8649998         1.28117897E-21
   30.0300007         8.46362983E-22
   30.1949997         2.24636587E-22
   30.3600006        -5.25506975E-22
   30.5249996        -1.32134267E-21
   30.6900005        -2.06585167E-21
   30.8549995        -2.66033341E-21
   31.0200005        -3.01778449E-21
   31.1849995        -3.07498375E-21
   31.3500004        -2.80142668E-21
   31.5149994        -2.20378808E-21
   31.6800003        -1.32535993E-21
   31.8449993        -2.40756006E-22
   32.0099983         9.53041818E-22
   32.1749992         2.14770035E-21
   32.3400002         3.23481863E-21
   32.5050011         4.11587140E-21
   32.6699982         4.70971922E-21
   32.8349991         4.95727685E-21
   33.0000000         4.82362741E-21
   33.1650009         4.29838751E-21
   33.3300018         3.39530096E-21
   33.4949989         2.15190552E-21
   33.6599998         6.29628132E-22
   33.8250008        -1.08594365E-21
   33.9900017        -2.88543943E-21
   34.1549988        -4.63792415E-21
   34.3199997        -6.19612845E-21
   34.4850006        -7.40548226E-21
   34.6500015        -8.11702722E-21
   34.8149986        -8.20339813E-21
   34.9799995        -7.57629263E-21
   35.1450005        -6.20309850E-21
   35.3100014        -4.12028397E-21
   35.4749985        -1.44111867E-21
   35.6399994         1.64414546E-21
   35.8050003         4.87681011E-21
   35.9700012         7.94728233E-21
   36.1349983         1.05210362E-20
   36.2999992         1.22712947E-20
   36.4650002         1.29158533E-20
   36.6300011         1.22544635E-20
   36.7949982         1.02025176E-20
   36.9599991         6.81650220E-21
   37.1250000         2.30688677E-21
   37.2900009        -2.96484958E-21
   37.4550018        -8.50680135E-21
   37.6199989        -1.37345537E-20
   37.7849998        -1.80240814E-20
   37.9500008        -2.07750579E-20
   38.1150017        -2.14788174E-20
   38.2799988        -1.97840099E-20
   38.4449997        -1.55529148E-20
   38.6100006        -8.90203859E-21
   38.7750015        -2.21369188E-22
   38.9399986         9.83125080E-21
   39.1049995         2.03624337E-20
   39.2700005         3.03020298E-20
   39.4350014         3.84859706E-20
   39.5999985         4.37592083E-20
   39.7649994         4.50932826E-20
   39.9300003         4.17112415E-20
   40.0950012         3.32110528E-20
   40.2599983         1.96762761E-20
   40.4249992         1.76031204E-21
   40.5900002        -1.92718187E-20
   40.7550011        -4.15604846E-20
   40.9199982        -6.27419790E-20
   41.0849991        -8.01216318E-20
   41.2500000        -9.09289985E-20
   41.4150009        -9.26426389E-20
   41.5800018        -8.33570647E-20
   41.7449989        -6.21516823E-20
   41.9099998        -2.94111628E-20
   42.0750008         1.29569967E-20
   42.2400017         6.14581043E-20
   42.4049988         1.11137570E-19
   42.5699997         1.55917742E-19
   42.7350006         1.89137678E-19
   42.9000015         2.04260013E-19
   43.0649986         1.95682783E-19
   43.2299995         1.59571838E-19
   43.3950005         9.46165826E-20
   43.5600014         2.60797304E-21
   43.7249985        -1.11252497E-19
   43.8899994        -2.38383397E-19
   44.0550003        -3.67232572E-19
   44.2200012        -4.84064957E-19
   44.3849983        -5.74088212E-19
   44.5499992        -6.22830037E-19
   44.7150002        -6.17648784E-19
   44.8800011        -5.49229987E-19
   45.0449982        -4.12911966E-19
   45.2099991        -2.09689251E-19
   45.3750000         5.32352116E-20
   45.5400009         3.62436863E-19
   45.7050018         6.98832477E-19
   45.8699989         1.03879492E-18
   46.0349998         1.35573579E-18
   46.2000008         1.62202229E-18
   46.3650017         1.81105405E-18
   46.5299988         1.89931153E-18
   46.6949997         1.86819279E-18
   46.8600006         1.70548833E-18
   47.0250015         1.40638520E-18
   47.1899986         9.73958953E-19
   47.3549995         4.19161549E-19
   47.5200005        -2.39631509E-19
   47.6850014        -9.77415017E-19
   47.8499985        -1.76358050E-18
   48.0149994        -2.56306400E-18
   48.1800003        -3.33752591E-18
   48.3450012        -4.04650510E-18
   48.5099983        -4.64853046E-18
   48.6749992        -5.10219974E-18
   48.8400002        -5.36727845E-18
   49.0050011        -5.40589083E-18
   49.1699982        -5.18387803E-18
   49.3349991        -4.67239959E-18
   49.5000000        -3.84983381E-18
   49.6650009        -2.70398228E-18
   49.8300018        -1.23454132E-18
   49.9949989         5.44258839E-19
   50.1599998         2.60101650E-18
   50.3250008         4.88476621E-18
   50.4900017         7.32312095E-18
   50.6549988         9.82129739E-18
   50.8199997         1.22623785E-17
   50.9850006         1.45091582E-17
   51.1500015         1.64078454E-17
   51.3149986         1.77937932E-17
   51.4799995         1.84992757E-17
   51.6450005         1.83631466E-17
   51.8100014         1.72420157E-17
   51.9749985         1.50223857E-17
   52.1399994         1.16330372E-17
   52.3050003         7.05678203E-18
   52.4700012         1.34065546E-18
   52.6349983        -5.39639231E-18
   52.7999992        -1.29591988E-17
   52.9650002        -2.10762212E-17
   53.1300011        -2.94040407E-17
   53.2949982        -3.75367812E-17
   53.4599991        -4.50204133E-17
   53.6250000        -5.13715391E-17
   53.7900009        -5.61000046E-17
   53.9550018        -5.87342969E-17
   54.1199989        -5.88485802E-17
   54.2849998        -5.60899460E-17
   54.4500008        -5.02044236E-17
   54.6150017        -4.10602993E-17
   54.7799988        -2.86673867E-17
   54.9449997        -1.31909822E-17
   55.1100006         5.04037419E-18
   55.2750015         2.55340481E-17
   55.4399986         4.76397369E-17
   55.6049995         7.05631980E-17
   55.7700005         9.33870964E-17
   55.9350014         1.15098490E-16
   56.0999985         1.34622189E-16
   56.2649994         1.50859215E-16
   56.4300003         1.62729098E-16
   56.5950012         1.69214935E-16
   56.7599983         1.69409633E-16
   56.9249992         1.62561862E-16
   57.0900002         1.48120016E-16
   57.2550011         1.25772428E-16
   57.4199982         9.54822853E-17
   57.5849991         5.75152907E-17
   57.7500000         1.24587562E-17
   57.9150009        -3.87693300E-17
   58.0800018        -9.49223634E-17
   58.2449989        -1.54438961E-16
   58.4099998        -2.15469154E-16
   58.5750008        -2.75912645E-16
   58.7400017        -3.33469036E-16
   58.9049988        -3.85698994E-16
   59.0699997        -4.30095511E-16
   59.2350006        -4.64163573E-16
   59.4000015        -4.85506686E-16
   59.5649986        -4.91918143E-16
   59.7299995        -4.81474703E-16
   59.8950005        -4.52629790E-16
   60.0600014        -4.04303675E-16
   60.2249985        -3.35967731E-16
   60.3899994        -2.47719021E-16
   60.5550003        -1.40342652E-16
   60.7200012        -1.53586462E-17
   60.8849983         1.24949536E-16
   61.0499992         2.77527513E-16
   61.2150002         4.38565523E-16
   61.3800011         6.03538768E-16
   61.5449982         7.67272990E-16
   61.7099991         9.24036712E-16
   61.8750000         1.06765771E-15
   62.0400009         1.19166567E-15
   62.2050018         1.28945477E-15
   62.3699989         1.35446805E-15
   62.5349998         1.38039615E-15
   62.7000008         1.36138852E-15
   62.8650017         1.29227179E-15
   63.0299988         1.16876793E-15
   63.1949997         9.87707967E-16
   63.3600006         7.47233778E-16
   63.5250015         4.46981139E-16
   63.6899986         8.82374073E-17
   63.8549995        -3.25932667E-16
   64.0199966        -7.90598795E-16
   64.1849976        -1.29892026E-15
   64.3499985        -1.84214864E-15
   64.5149994        -2.40968189E-15
   64.6800003        -2.98916889E-15
   64.8450012        -3.56667024E-15
   65.0100021        -4.12686734E-15
   65.1750031        -4.65332627E-15
   65.3399963        -5.12880017E-15
   65.5049973        -5.53557969E-15
   65.6699982        -5.85587207E-15
   65.8349991        -6.07220852E-15
   66.0000000        -6.16786861E-15
   66.1650009        -6.12731225E-15
   66.3300018        -5.93660956E-15
   66.4950027        -5.58385803E-15
   66.6600037        -5.05957597E-15
   66.8249969        -4.35706252E-15
   66.9899979        -3.47271819E-15
   67.1549988        -2.40631028E-15
   67.3199997        -1.16118243E-15
   67.4850006         2.55603018E-16
   67.6500015         1.83319169E-15
   67.8150024         3.55693783E-15
   67.9800034         5.40848240E-15
   68.1449966         7.36590439E-15
   68.3099976         9.40395206E-15
   68.4749985         1.14943404E-14
   68.6399994         1.36061189E-14
   68.8050003         1.57061067E-14
   68.9700012         1.77593705E-14
   69.1350021         1.97297741E-14
   69.3000031         2.15805411E-14
   69.4649963         2.32748730E-14
   69.6299973         2.47765794E-14
   69.7949982         2.60507473E-14
   69.9599991         2.70643866E-14
   70.1250000         2.77871174E-14
   70.2900009         2.81918298E-14
   70.4550018         2.82553488E-14
   70.6200027         2.79590566E-14
   70.7850037         2.72895059E-14
   70.9499969         2.62389936E-14
   71.1149979         2.48060680E-14
   71.2799988         2.29959857E-14
   71.4449997         2.08210829E-14
   71.6100006         1.83010633E-14
   71.7750015         1.54631590E-14
   71.9400024         1.23421899E-14
   72.1050034         8.98047624E-15
   72.2699966         5.42761094E-15
   72.4349976         1.74007619E-15
   72.5999985        -2.01930368E-15
   72.7649994        -5.78206586E-15
   72.9300003        -9.47498424E-15
   73.0950012        -1.30210902E-14
   73.2600021        -1.63408461E-14
   73.4250031        -1.93534374E-14
   73.5899963        -2.19781638E-14
   73.7549973        -2.41359192E-14
   73.9199982        -2.57507113E-14
   74.0849991        -2.67511995E-14
   74.2500000        -2.70722335E-14
   74.4150009        -2.66563318E-14
   74.5800018        -2.54550883E-14
   74.7450027        -2.34304526E-14
   74.9100037        -2.05559108E-14
   75.0749969        -1.68174614E-14
   75.2399979        -1.22144353E-14
   75.4049988        -6.76011066E-15
   75.5699997        -4.82103731E-16
   75.7350006         6.57745563E-15
   75.9000015         1.43619806E-14
   76.0650024         2.28007293E-14
   76.2300034         3.18093499E-14
   76.3949966         4.12906403E-14
   76.5599976         5.11355959E-14
   76.7249985         6.12246256E-14
   76.8899994         7.14290348E-14
   77.0550003         8.16126680E-14
   77.2200012         9.16338132E-14
   77.3850021         1.01347194E-13
   77.5500031         1.10606165E-13
   77.7149963         1.19265031E-13
   77.8799973         1.27181374E-13
   78.0449982         1.34218523E-13
   78.2099991         1.40248002E-13
   78.3750000         1.45151862E-13
   78.5400009         1.48825003E-13
   78.7050018         1.51177383E-13
   78.8700027         1.52136035E-13
   79.0350037         1.51646816E-13
   79.1999969         1.49676061E-13
   79.3649979         1.46211683E-13
   79.5299988         1.41264279E-13
   79.6949997         1.34867635E-13
   79.8600006         1.27079066E-13
   80.0250015         1.17979316E-13
   80.1900024         1.07672104E-13
   80.3550034         9.62833532E-14
   80.5199966         8.39599860E-14
   80.6849976         7.08684752E-14
   80.8499985         5.71929995E-14
   81.0149994         4.31333300E-14
   81.1800003         2.89024074E-14
   81.3450012         1.47237501E-14
   81.5100021         8.28518713E-16
   81.6750031        -1.25475522E-14
   81.8399963        -2.51673919E-14
   82.0049973        -3.67959718E-14
   82.1699982        -4.72037096E-14
   82.3349991        -5.61699701E-14
   82.5000000        -6.34865221E-14
   82.6650009        -6.89609435E-14
   82.8300018        -7.24199211E-14
   82.9950027        -7.37124120E-14
   83.1600037        -7.27125947E-14
   83.3249969        -6.93225452E-14
   83.4899979        -6.34746772E-14
   83.6549988        -5.51337405E-14
   83.8199997        -4.42985492E-14
   83.9850006        -3.10031948E-14
   84.1500015        -1.53178268E-14
   84.3150024         2.65098506E-15
   84.4800034         2.27604326E-14
   84.6449966         4.48321562E-14
   84.8099976         6.86534095E-14
   84.9749985         9.39787798E-14
   85.1399994         1.20532341E-13
   85.3050003         1.48010307E-13
   85.4700012         1.76084123E-13
   85.6350021         2.04404012E-13
   85.8000031         2.32602701E-13
   85.9649963         2.60299757E-13
   86.1299973         2.87105924E-13
   86.2949982         3.12627718E-13
   86.4599991         3.36472359E-13
   86.6250000         3.58252463E-13
   86.7900009         3.77590916E-13
   86.9550018         3.94125840E-13
   87.1200027         4.07515113E-13
   87.2850037         4.17441011E-13
   87.4499969         4.23614404E-13
   87.6149979         4.25778878E-13
   87.7799988         4.23714259E-13
   87.9449997         4.17240109E-13
   88.1100006         4.06218299E-13
   88.2750015         3.90555481E-13
   88.4400024         3.70205169E-13
   88.6050034         3.45169016E-13
   88.7699966         3.15497709E-13
   88.9349976         2.81291537E-13
   89.0999985         2.42699903E-13
   89.2649994         1.99920728E-13
   89.4300003         1.53199231E-13
   89.5950012         1.02826046E-13
   89.7600021         4.91349752E-14
   89.9250031        -7.49992448E-15
   90.0899963        -6.66675442E-14
   90.2549973        -1.27923551E-13
   90.4199982        -1.90794578E-13
   90.5849991        -2.54782848E-13
   90.7500000        -3.19371022E-13
   90.9150009        -3.84027364E-13
   91.0800018        -4.48211184E-13
   91.2450027        -5.11378320E-13
   91.4100037        -5.72987025E-13
   91.5749969        -6.32503490E-13
   91.7399979        -6.89407841E-13
   91.9049988        -7.43199610E-13
   92.0699997        -7.93403266E-13
   92.2350006        -8.39573799E-13
   92.4000015        -8.81301434E-13
   92.5650024        -9.18216675E-13
   92.7300034        -9.49994532E-13
   92.8949966        -9.76358317E-13
   93.0599976        -9.97083492E-13
   93.2249985        -1.01200016E-12
   93.3899994        -1.02099568E-12
   93.5550003        -1.02401605E-12
   93.7200012        -1.02106724E-12
   93.8850021        -1.01221549E-12
   94.0500031        -9.97586562E-13
   94.2149963        -9.77365107E-13
   94.3799973        -9.51792898E-13
   94.5449982        -9.21165921E-13
   94.7099991        -8.85831610E-13
   94.8750000        -8.46184722E-13
   95.0400009        -8.02662949E-13
   95.2050018        -7.55741932E-13
   95.3700027        -7.05929727E-13
   95.5350037        -6.53760737E-13
   95.6999969        -5.99789315E-13
   95.8649979        -5.44583259E-13
   96.0299988        -4.88716869E-13
   96.1949997        -4.32764366E-13
   96.3600006        -3.77292463E-13
   96.5250015        -3.22854075E-13
   96.6900024        -2.69981195E-13
   96.8550034        -2.19178544E-13
   97.0199966        -1.70917561E-13
   97.1849976        -1.25630680E-13
   97.3499985        -8.37060794E-14
   97.5149994        -4.54832739E-14
   97.6800003        -1.12489626E-14
   97.8450012         1.87663876E-14
   98.0100021         4.43912248E-14
   98.1750031         6.55151321E-14
   98.3399963         8.20900219E-14
   98.5049973         9.41306766E-14
   98.6699982         1.01714542E-13
   98.8349991         1.04980762E-13
   99.0000000         1.04128613E-13
   99.1650009         9.94149899E-14
   99.3300018         9.11514177E-14
   99.4950027         7.97004945E-14
   99.6600037         6.54714930E-14
   99.8249969         4.89154141E-14
   99.9899979         3.05194272E-14
   100.154999         1.08010643E-14
   100.320000        -9.69831125E-15
   100.485001        -3.04200634E-14
   100.650002        -5.07950480E-14
   100.815002        -7.02509543E-14
   100.980003        -8.82196131E-14
   101.144997        -1.04144266E-13
   101.309998        -1.17486953E-13
   101.474998        -1.27735848E-13
   101.639999        -1.34412162E-13
   101.805000        -1.37076860E-13
   101.970001        -1.35336973E-13
   102.135002        -1.28851438E-13
   102.300003        -1.17336276E-13
   102.464996        -1.00569374E-13
   102.629997        -7.83942681E-14
   102.794998        -5.07235076E-14
   102.959999        -1.75408004E-14
   103.125000         2.10975087E-14
   103.290001         6.50620508E-14
   103.455002         1.14150985E-13
   103.620003         1.68091534E-13
   103.785004         2.26542350E-13
   103.949997         2.89097034E-13
   104.114998         3.55288200E-13
   104.279999         4.24592707E-13
   104.445000         4.96437527E-13
   104.610001         5.70206371E-13
   104.775002         6.45246768E-13
   104.940002         7.20877947E-13
   105.105003         7.96398863E-13
   105.269997         8.71096381E-13
   105.434998         9.44254115E-13
   105.599998         1.01516061E-12
   105.764999         1.08311808E-12
   105.930000         1.14745052E-12
   106.095001         1.20751228E-12
   106.260002         1.26269524E-12
   106.425003         1.31243670E-12
   106.589996         1.35622557E-12
   106.754997         1.39360864E-12
   106.919998         1.42419605E-12
   107.084999         1.44766490E-12
   107.250000         1.46376422E-12
   107.415001         1.47231673E-12
   107.580002         1.47322139E-12
   107.745003         1.46645380E-12
   107.910004         1.45206698E-12
   108.074997         1.43018952E-12
   108.239998         1.40102470E-12
   108.404999         1.36484693E-12
   108.570000         1.32199850E-12
   108.735001         1.27288555E-12
   108.900002         1.21797266E-12
   109.065002         1.15777765E-12
   109.230003         1.09286506E-12
   109.394997         1.02384030E-12
   109.559998         9.51341978E-13
   109.724998         8.76034922E-13
   109.889999         7.98602178E-13
   110.055000         7.19737854E-13
   110.220001         6.40138983E-13
   110.385002         5.60497774E-13
   110.550003         4.81494131E-13
   110.714996         4.03787979E-13
   110.879997         3.28011977E-13
   111.044998         2.54764309E-13
   111.209999         1.84602198E-13
   111.375000         1.18035478E-13
   111.540001         5.55213698E-14
   111.705002        -2.54069100E-15
   111.870003        -5.58130948E-14
   112.035004        -1.04023391E-13
   112.199997        -1.46966884E-13
   112.364998        -1.84508401E-13
   112.529999        -2.16583343E-13
   112.695000        -2.43197579E-13
   112.860001        -2.64426502E-13
   113.025002        -2.80413334E-13
   113.190002        -2.91366052E-13
   113.355003        -2.97554245E-13
   113.519997        -2.99304743E-13
   113.684998        -2.96996856E-13
   113.849998        -2.91056946E-13
   114.014999        -2.81952684E-13
   114.180000        -2.70186651E-13
   114.345001        -2.56289646E-13
   114.510002        -2.40813391E-13
   114.675003        -2.24323733E-13
   114.839996        -2.07393130E-13
   115.004997        -1.90593716E-13
   115.169998        -1.74490197E-13
   115.334999        -1.59633184E-13
   115.500000        -1.46552665E-13
   115.665001        -1.35751802E-13
   115.830002        -1.27701045E-13
   115.995003        -1.22832720E-13
   116.160004        -1.21536096E-13
   116.324997        -1.24153278E-13
   116.489998        -1.30975404E-13
   116.654999        -1.42239614E-13
   116.820000        -1.58126618E-13
   116.985001        -1.78758741E-13
   117.150002        -2.04198678E-13
   117.315002        -2.34448528E-13
   117.480003        -2.69449719E-13
   117.644997        -3.09083217E-13
   117.809998        -3.53170753E-13
   117.974998        -4.01476107E-13
   118.139999        -4.53707357E-13
   118.305000        -5.09519347E-13
   118.470001        -5.68516805E-13
   118.635002        -6.30257673E-13
   118.800003        -6.94257152E-13
   118.964996        -7.59991896E-13
   119.129997        -8.26905330E-13
   119.294998        -8.94412474E-13
   119.459999        -9.61906011E-13
   119.625000        -1.02876204E-12
   119.790001        -1.09434662E-12
   119.955002        -1.15802181E-12
   120.120003        -1.21915238E-12
   120.285004        -1.27711286E-12
   120.449997        -1.33129337E-12
   120.614998        -1.38110693E-12
   120.779999        -1.42599571E-12
   120.945000        -1.46543758E-12
   121.110001        -1.49895179E-12
   121.275002        -1.52610433E-12
   121.440002        -1.54651281E-12
   121.605003        -1.55985131E-12
   121.769997        -1.56585313E-12
   121.934998        -1.56431454E-12
   122.099998        -1.55509655E-12
   122.264999        -1.53812716E-12
   122.430000        -1.51340095E-12
   122.595001        -1.48098038E-12
   122.760002        -1.44099348E-12
   122.925003        -1.39363336E-12
   123.089996        -1.33915524E-12
   123.254997        -1.27787364E-12
   123.419998        -1.21015936E-12
   123.584999        -1.13643502E-12
   123.750000        -1.05717106E-12
   123.915001        -9.72880522E-13
   124.080002        -8.84113095E-13
   124.245003        -7.91450781E-13
   124.410004        -6.95501111E-13
   124.574997        -5.96891623E-13
   124.739998        -4.96263566E-13
   124.904999        -3.94265675E-13
   125.070000        -2.91548280E-13
   125.235001        -1.88757132E-13
   125.400002        -8.65272209E-14
   125.565002         1.45229423E-14
   125.730003         1.13797386E-13
   125.894997         2.10727676E-13
   126.059998         3.04778094E-13
   126.224998         3.95450708E-13
   126.389999         4.82289176E-13
   126.555000         5.64882993E-13
   126.720001         6.42871010E-13
   126.885002         7.15944014E-13
   127.050003         7.83847976E-13
   127.214996         8.46385516E-13
   127.379997         9.03417640E-13
   127.544998         9.54864334E-13
   127.709999         1.00070419E-12
   127.875000         1.04097438E-12
   128.039993         1.07576903E-12
   128.205002         1.10523786E-12
   128.369995         1.12958362E-12
   128.535004         1.14905947E-12
   128.699997         1.16396530E-12
   128.865005         1.17464339E-12
   129.029999         1.18147430E-12
   129.195007         1.18487143E-12
   129.360001         1.18527605E-12
   129.524994         1.18315112E-12
   129.690002         1.17897586E-12
   129.854996         1.17323946E-12
   130.020004         1.16643392E-12
   130.184998         1.15904758E-12
   130.350006         1.15155802E-12
   130.514999         1.14442472E-12
   130.679993         1.13808214E-12
   130.845001         1.13293251E-12
   131.009995         1.12933903E-12
   131.175003         1.12761970E-12
   131.339996         1.12804080E-12
   131.505005         1.13081083E-12
   131.669998         1.13607539E-12
   131.835007         1.14391222E-12
   132.000000         1.15432772E-12
   132.164993         1.16725401E-12
   132.330002         1.18254679E-12
   132.494995         1.19998499E-12
   132.660004         1.21927002E-12
   132.824997         1.24002815E-12
   132.990005         1.26181184E-12
   133.154999         1.28410325E-12
   133.320007         1.30631899E-12
   133.485001         1.32781568E-12