 0.   1.064134936E-17
 0.169376865   1.064133861E-17
 0.33875373   1.064132124E-17
 0.50813061   1.064130387E-17
 0.67750746   1.064129063E-17
 0.84688431   1.064128319E-17
 1.01626122   1.064127905E-17
 1.18563807   1.064127326E-17
 1.35501492   1.064126499E-17
 1.52439177   1.064125176E-17
 1.69376862   1.064123769E-17
 1.86314547   1.064122529E-17
 2.03252244   1.064121619E-17
 2.20189929   1.06412104E-17
 2.37127614   1.064120461E-17
 2.54065299   1.064119882E-17
 2.71002984   1.064118806E-17
 2.87940669   1.0641174E-17
 3.04878354   1.064115746E-17
 3.21816039   1.064114422E-17
 3.38753724   1.064113678E-17
 3.55691409   1.064113512E-17
 3.72629094   1.064113678E-17
 3.89566779   1.064113678E-17
 4.06504488   1.064113264E-17
 4.23442173   1.064112354E-17
 4.40379858   1.064111031E-17
 4.57317543   1.064109459E-17
 4.74255228   1.064108218E-17
 4.91192913   1.064107308E-17
 5.08130598   1.064106812E-17
 5.25068283   1.064106481E-17
 5.42005968   1.064106068E-17
 5.58943653   1.064105489E-17
 5.75881338   1.064104744E-17
 5.92819023   1.064104E-17
 6.09756708   1.064103503E-17
 6.26694393   1.064103173E-17
 6.43632078   1.064102924E-17
 6.60569763   1.064102428E-17
 6.77507448   1.064101435E-17
 6.94445133   1.064099864E-17
 7.11382818   1.064098127E-17
 7.28320503   1.064096555E-17
 7.45258188   1.064095645E-17
 7.62195873   1.064095562E-17
 7.79133558   1.064096224E-17
 7.96071243   1.064097217E-17
 8.13008976   1.064098209E-17
 8.29946613   1.064099037E-17
 8.46884346   1.064099698E-17
 8.63821983   1.06410036E-17
 8.80759716   1.064101187E-17
 8.97697353   1.064102345E-17
 9.14635086   1.064103669E-17
 9.31572723   1.06410491E-17
 9.48510456   1.06410582E-17
 9.65448093   1.064106564E-17
 9.82385826   1.064107143E-17
 9.99323463   1.064108053E-17
 10.162612   1.064109376E-17
 10.3319883   1.064111113E-17
 10.5013657   1.064113016E-17
 10.670742   1.064114836E-17
 10.8401194   1.064116242E-17
 11.0094957   1.064117069E-17
 11.1788731   1.064117565E-17
 11.3482494   1.064117979E-17
 11.5176268   1.064118724E-17
 11.6870031   1.064119882E-17
 11.8563805   1.06412137E-17
 12.0257568   1.064123108E-17
 12.1951342   1.064124845E-17
 12.3645105   1.064126582E-17
 12.5338879   1.064128236E-17
 12.7032642   1.064130056E-17
 12.8726416   1.064132041E-17
 13.0420179   1.064134026E-17
 13.2113953   1.064135929E-17
 13.3807716   1.064137583E-17
 13.550149   1.064138741E-17
 13.7195253   1.064139568E-17
 13.8889027   1.064140396E-17
 14.058279   1.064141554E-17
 14.2276564   1.064143208E-17
 14.3970327   1.064145359E-17
 14.5664101   1.06414784E-17
 14.7357864   1.064150239E-17
 14.9051638   1.064152638E-17
 15.0745401   1.064154789E-17
 15.2439175   1.064156774E-17
 15.4132938   1.064158594E-17
 15.5826712   1.064160413E-17
 15.7520475   1.064162399E-17
 15.9214249   1.064164549E-17
 16.0908012   1.064166865E-17
 16.2601795   1.064169512E-17
 16.4295559   1.06417249E-17
 16.5989323   1.064175634E-17
 16.7683086   1.06417886E-17
 16.9376869   1.064182168E-17
 17.1070633   1.064185229E-17
 17.2764397   1.064188124E-17
 17.445816   1.064190606E-17
 17.6151943   1.064192756E-17
 17.7845707   1.064194659E-17
 17.9539471   1.064196644E-17
 18.1233234   1.064198629E-17
 18.2927017   1.064201028E-17
 18.4620781   1.06420384E-17
 18.6314545   1.064206984E-17
 18.8008308   1.064210292E-17
 18.9702091   1.064213518E-17
 19.1395855   1.064216414E-17
 19.3089619   1.064218895E-17
 19.4783382   1.064220963E-17
 19.6477165   1.064222866E-17
 19.8170929   1.064224851E-17
 19.9864693   1.064226919E-17
 20.1558456   1.064228987E-17
 20.3252239   1.064231055E-17
 20.4946003   1.06423304E-17
 20.6639767   1.06423486E-17
 20.833353   1.064236597E-17
 21.0027313   1.064238665E-17
 21.1721077   1.064241229E-17
 21.3414841   1.064244207E-17
 21.5108604   1.064247681E-17
 21.6802387   1.064251486E-17
 21.8496151   1.064255291E-17
 22.0189915   1.064259179E-17
 22.1883678   1.064263067E-17
 22.3577461   1.064267037E-17
 22.5271225   1.064271007E-17
 22.6964989   1.064274564E-17
 22.8658752   1.064277542E-17
 23.0352535   1.064279197E-17
 23.2046299   1.064279197E-17
 23.3740063   1.064276963E-17
 23.5433826   1.064272331E-17
 23.7127609   1.064265465E-17
 23.8821373   1.064257442E-17
 24.0515137   1.064249832E-17
 24.22089   1.064245282E-17
 24.3902683   1.064246937E-17
 24.5596447   1.064258186E-17
 24.7290211   1.064281678E-17
 24.8983994   1.064317826E-17
 25.0677757   1.064364148E-17
 25.2371521   1.064413862E-17
 25.4065285   1.064455882E-17
 25.5759068   1.064476148E-17
 25.7452831   1.06445977E-17
 25.9146595   1.064394836E-17
 26.0840359   1.06427688E-17
 26.2534142   1.064112437E-17
 26.4227905   1.063922103E-17
 26.5921669   1.063740702E-17
 26.7615433   1.063613647E-17
 26.9309216   1.063590569E-17
 27.1002979   1.063714646E-17
 27.2696743   1.064011355E-17
 27.4390507   1.064477306E-17
 27.608429   1.065071718E-17
 27.7778053   1.06571452E-17
 27.9471817   1.066292637E-17
 28.1165581   1.066674381E-17
 28.2859364   1.066731373E-17
 28.4553127   1.066365677E-17
 28.6246891   1.065535684E-17
 28.7940655   1.064277046E-17
 28.9634438   1.062710862E-17
 29.1328201   1.06103822E-17
 29.3021965   1.059516621E-17
 29.4715729   1.058423668E-17
 29.6409512   1.058011318E-17
 29.8103275   1.058459236E-17
 29.9797039   1.059835334E-17
 30.1490803   1.062072279E-17
 30.3184586   1.064964681E-17
 30.4878349   1.06818961E-17
 30.6572113   1.071346214E-17
 30.8265877   1.074011307E-17
 30.995966   1.07579901E-17
 31.1653423   1.076416831E-17
 31.3347187   1.075707772E-17
 31.5040951   1.073672742E-17
 31.6734734   1.070469155E-17
 31.8428497   1.066388507E-17
 32.0122261   1.061817342E-17
 32.1816025   1.057188439E-17
 32.3509789   1.052933505E-17
 32.520359   1.049442472E-17
 32.6897354   1.047034135E-17
 32.8591118   1.045941595E-17
 33.0284882   1.046306464E-17
 33.1978645   1.048179615E-17
 33.3672409   1.051521921E-17
 33.5366173   1.056202605E-17
 33.7059937   1.061992538E-17
 33.8753738   1.068557127E-17
 34.0447502   1.075453414E-17
 34.2141266   1.082137364E-17
 34.383503   1.087988095E-17
 34.5528793   1.092353128E-17
 34.7222557   1.094611248E-17
 34.8916321   1.094249605E-17
 35.0610085   1.090945183E-17
 35.2303886   1.084637849E-17
 35.399765   1.075584109E-17
 35.5691414   1.064380774E-17
 35.7385178   1.051950649E-17
 35.9078941   1.039487187E-17
 36.0772705   1.028357969E-17
 36.2466469   1.019972673E-17
 36.4160233   1.015625012E-17
 36.5854034   1.016325138E-17
 36.7547798   1.022639834E-17
 36.9241562   1.034563229E-17
 37.0935326   1.051438127E-17
 37.2629089   1.071945755E-17
 37.4322853   1.094172594E-17
 37.6016617   1.115756879E-17
 37.7710381   1.134104407E-17
 37.9404182   1.14665497E-17
 38.1097946   1.151175678E-17
 38.279171   1.146049061E-17
 38.4485474   1.130526024E-17
 38.6179237   1.104915023E-17
 38.7873001   1.070682071E-17
 38.9566765   1.030444614E-17
 39.1260529   9.878504377E-18
 39.295433   9.47341087E-18
 39.4648094   9.138071022E-18
 39.6341858   8.92148205E-18
 39.8035622   8.867600333E-18
 39.9729385   9.009733123E-18
 40.1423149   9.364864094E-18
 40.3116913   9.92844127E-18
 40.4810715   1.067034535E-17
 40.6504478   1.153288297E-17
 40.8198242   1.24317057E-17
 40.9892006   1.326039592E-17
 41.158577   1.389916712E-17
 41.3279533   1.422753797E-17
 41.4973297   1.414017942E-17
 41.6667061   1.356437486E-17
 41.8360863   1.24768739E-17
 42.0054626   1.091757227E-17
 42.174839   8.997327068E-18
 42.3442154   6.8976635E-18
 42.5135918   4.860898746E-18
 42.6829681   3.17034568E-18
 42.8523445   2.121637207E-18
 43.0217209   1.987547508E-18
 43.1911011   2.979919811E-18
 43.3604774   5.213136652E-18
 43.5298538   8.673896967E-18
 43.6992302   1.320187537E-17
 43.8686066   1.848495717E-17
 44.0379829   2.407142732E-17
 44.2073593   2.939969304E-17
 44.3767357   3.384402859E-17
 44.5461159   3.677293617E-17
 44.7154922   3.761476119E-17
 44.8848686   3.592395769E-17
 45.054245   3.144075458E-17
 45.2236214   2.413720637E-17
 45.3929977   1.424360678E-17
 45.5623741   2.251268404E-18
 45.7317505   -1.110995959E-17
 45.9011307   -2.491809134E-17
 46.070507   -3.812523751E-17
 46.2398834   -4.963715972E-17
 46.4092598   -5.839813068E-17
 46.5786362   -6.347247346E-17
 46.7480125   -6.411512662E-17
 46.9173889   -5.982514297E-17
 47.0867653   -5.037866758E-17
 47.2561455   -3.584090214E-17
 47.4255219   -1.655907887E-17
 47.5948982   6.859412187E-18
 47.7642746   3.357854662E-17
 47.933651   6.256937752E-17
 48.1030273   9.264536019E-17
 48.2724037   1.224941594E-16
 48.4417801   1.507045387E-16
 48.6111603   1.757894459E-16
 48.7805367   1.962076119E-16
 48.949913   2.103884787E-16
 49.1192894   2.167653397E-16
 49.2886658   2.138223105E-16
 49.4580421   2.001597353E-16
 49.6274185   1.745813122E-16
 49.7967987   1.362032288E-16
 49.9661751   8.458338662E-17
 50.1355515   1.98641882E-17
 50.3049278   -5.708106062E-17
 50.4743042   -1.445117617E-16
 50.6436806   -2.397109858E-16
 50.8130569   -3.389222609E-16
 50.9824333   -4.373518304E-16
 51.1518135   -5.292526552E-16
 51.3211899   -6.081026346E-16
 51.4905663   -6.668824331E-16
 51.6599426   -6.98448757E-16
 51.829319   -6.959916732E-16
 51.9986954   -6.535517227E-16
 52.1680717   -5.665670506E-16
 52.3374481   -4.324116166E-16
 52.5068283   -2.508829269E-16
 52.6762047   -2.459492346E-17
 52.8455811   2.407635566E-16
 53.0149574   5.363408916E-16
 53.1843338   8.502284849E-16
 53.3537102   1.167773831E-15
 53.5230865   1.472098581E-15
 53.6924629   1.744806662E-15
 53.8618431   1.966851373E-15
 54.0312195   2.119521227E-15
 54.2005959   2.185495141E-15
 54.3699722   2.149904722E-15
 54.5393486   2.001353142E-15
 54.708725   1.732823899E-15
 54.8781013   1.342435307E-15
 55.0474777   8.339924515E-16
 55.2168579   2.173062232E-16
 55.3862343   -4.917418541E-16
 55.5556107   -1.271397407E-15
 55.724987   -2.094494368E-15
 55.8943634   -2.929169316E-15
 56.0637398   -3.739812245E-15
 56.2331161   -4.488230229E-15
 56.4024925   -5.1349924E-15
 56.5718727   -5.640925179E-15
 56.7412491   -5.968704484E-15
 56.9106255   -6.084506593E-15
 57.0800018   -5.959656054E-15
 57.2493782   -5.572210479E-15
 57.4187546   -4.908422098E-15
 57.588131   -3.964012126E-15
 57.7575111   -2.74519376E-15
 57.9268875   -1.269387821E-15
 58.0962639   4.344140554E-16
 58.2656403   2.325681423E-15
 58.4350166   4.352791778E-15
 58.604393   6.453907826E-15
 58.7737694   8.558279445E-15
 58.9431458   1.058796351E-14
 59.1125259   1.245993089E-14
 59.2819023   1.408852537E-14
 59.4512787   1.538822712E-14
 59.6206551   1.627665288E-14
 59.7900314   1.667773822E-14
 59.9594078   1.65249843E-14
 60.1287842   1.576470955E-14
 60.2981606   1.435918204E-14
 60.4675407   1.228952565E-14
 60.6369171   9.558308565E-15
 60.8062935   6.191682095E-15
 60.9756699   2.240987657E-15
 61.1450462   -2.216264036E-15
 61.3144226   -7.076115359E-15
 61.483799   -1.22086484E-14
 61.6531754   -1.745925148E-14
 61.8225555   -2.265070794E-14
 61.9919319   -2.758606738E-14
 62.1613083   -3.205230948E-14
 62.3306847   -3.58247164E-14
 62.500061   -3.867189568E-14
 62.6694374   -4.036135711E-14
 62.8388138   -4.066551647E-14
 63.0081902   -3.936797719E-14
 63.1775703   -3.626993047E-14
 63.3469467   -3.119648772E-14
 63.5163231   -2.400276396E-14
 63.6856995   -1.457950548E-14
 63.8550758   -2.858074241E-15
 64.0244522   1.118538347E-14
 64.1938324   2.752675475E-14
 64.363205   4.609192802E-14
 64.5325851   6.675590663E-14
 64.7019577   8.934330733E-14
 64.8713379   1.136300188E-13
 65.0407181   1.393463117E-13
 65.2100906   1.661810202E-13
 65.3794708   1.93787003E-13
 65.5488434   2.217874728E-13
 65.7182236   2.497832941E-13
 65.8875961   2.773608437E-13
 66.0569763   3.041003322E-13
 66.2263489   3.295844229E-13
 66.3957291   3.534066486E-13
 66.5651093   3.751797863E-13
 66.7344818   3.945435016E-13
 66.903862   4.111717748E-13
 67.0732346   4.247789186E-13
 67.2426147   4.351252431E-13
 67.4119873   4.420210942E-13
 67.5813675   4.453302419E-13
 67.7507477   4.449717504E-13
 67.9201202   4.409208729E-13
 68.0895004   4.332088616E-13
 68.258873   4.219219104E-13
 68.4282532   4.071990683E-13
 68.5976257   3.892296641E-13
 68.7670059   3.682500539E-13
 68.9363785   3.445400974E-13
 69.1057587   3.184194716E-13
 69.2751389   2.902437405E-13
 69.4445114   2.604007775E-13
 69.6138916   2.293068621E-13
 69.7832642   1.974030341E-13
 69.9526443   1.65151245E-13
 70.1220169   1.330302513E-13
 70.2913971   1.015312102E-13
 70.4607773   7.115266492E-14
 70.6301498   4.23950866E-14
 70.79953   1.575437067E-14
 70.9689026   -8.285233292E-15
 71.1382828   -2.925928271E-14
 71.3076553   -4.673172927E-14
 71.4770355   -6.030425318E-14
 71.6464081   -6.962569491E-14
 71.8157883   -7.440162581E-14
 71.9851685   -7.440329277E-14
 72.154541   -6.947579041E-14
 72.3239212   -5.954502706E-14
 72.4932938   -4.462292894E-14
 72.662674   -2.481060299E-14
 72.8320465   -2.993035124E-16
 73.0014267   2.863122134E-14
 73.1708069   6.161684932E-14
 73.3401794   9.82158216E-14
 73.5095596   1.379177127E-13
 73.6789322   1.801543533E-13
 73.8483124   2.243125255E-13
 74.0176849   2.69747549E-13
 74.1870651   3.157976539E-13
 74.3564453   3.61798265E-13
 74.5258179   4.070962588E-13
 74.6951981   4.510629337E-13
 74.8645706   4.931063153E-13
 75.0339508   5.326817546E-13
 75.2033234   5.693010625E-13
 75.3727036   6.02540099E-13
 75.5420761   6.320447095E-13
 75.7114563   6.5753517E-13
 75.8808365   6.788088971E-13
 76.050209   6.957419666E-13
 76.2195892   7.082892215E-13
 76.3889618   7.164830795E-13
 76.558342   7.204307138E-13
 76.7277145   7.203103673E-13
 76.8970947   7.163657688E-13
 77.0664749   7.0889979E-13
 77.2358475   6.982665856E-13
 77.4052277   6.848616184E-13
 77.5746002   6.69111305E-13
 77.7439804   6.514613068E-13
 77.913353   6.323638444E-13
 78.0827332   6.122651214E-13
 78.2521057   5.915923133E-13
 78.4214859   5.707414793E-13
 78.5908661   5.50066557E-13
 78.7602386   5.298696052E-13
 78.9296188   5.103930516E-13
 79.0989914   4.918145969E-13
 79.2683716   4.742443417E-13
 79.4377441   4.577244074E-13
 79.6071243   4.422313481E-13
 79.7765045   4.276802165E-13
 79.9458771   4.139310151E-13
 80.1152573   4.007960413E-13
 80.2846298   3.880483445E-13
 80.45401   3.754308333E-13
 80.6233826   3.626652472E-13
 80.7927628   3.494612098E-13
 80.9621429   3.355239806E-13
 81.1315155   3.205623158E-13
 81.3008957   3.042944586E-13
 81.4702682   2.864540744E-13
 81.6396484   2.667946159E-13
 81.809021   2.450936318E-13
 81.9784012   2.211558437E-13
 82.1477737   1.948161549E-13
 82.3171539   1.659422247E-13
 82.4865341   1.344367055E-13
 82.6559067   1.002393833E-13
 82.8252869   6.332914336E-14
 82.9946594   2.372577741E-14
 83.1640396   -1.850830517E-14
 83.3334122   -6.326701858E-14
 83.5027924   -1.1039953E-13
 83.6721725   -1.597103255E-13
 83.8415451   -2.109596948E-13
 84.0109253   -2.638653456E-13
 84.1802979   -3.1810508E-13
 84.349678   -3.733205151E-13
 84.5190506   -4.291219615E-13
 84.6884308   -4.85094495E-13
 84.8578033   -5.408051936E-13
 85.0271835   -5.958113777E-13
 85.1965637   -6.496690664E-13
 85.3659363   -7.019425731E-13
 85.5353165   -7.522143173E-13
 85.704689   -8.000939321E-13
 85.8740692   -8.452282385E-13
 86.0434418   -8.873094317E-13
 86.212822   -9.260827782E-13
 86.3822021   -9.613532843E-13
 86.5515747   -9.929904121E-13
 86.7209549   -1.020931278E-12
 86.8903275   -1.045181519E-12
 87.0597076   -1.065815079E-12
 87.2290802   -1.082969977E-12
 87.3984604   -1.096844078E-12
 87.5678329   -1.107686642E-12
 87.7372131   -1.115790078E-12
 87.9065933   -1.121478127E-12
 88.0759659   -1.125094267E-12
 88.2453461   -1.126989452E-12
 88.4147186   -1.127508677E-12
 88.5840988   -1.126979478E-12
 88.7534714   -1.125700119E-12
 88.9228516   -1.123930376E-12
 89.0922318   -1.121882752E-12
 89.2616043   -1.119716949E-12
 89.4309845   -1.117535643E-12
 89.6003571   -1.11538361E-12
 89.7697372   -1.113247298E-12
 89.9391098   -1.111058728E-12
 90.10849   -1.108699178E-12
 90.2778702   -1.106005695E-12
 90.4472427   -1.102778676E-12
 90.6166229   -1.098791305E-12
 90.7859955   -1.093799313E-12
 90.9553757   -1.087552032E-12
 91.1247482   -1.079803673E-12
 91.2941284   -1.070323951E-12
 91.463501   -1.058908928E-12
 91.6328812   -1.045390337E-12
 91.8022614   -1.029643927E-12
 91.9716339   -1.011596297E-12
 92.1410141   -9.912292341E-13
 92.3103867   -9.685827444E-13
 92.4797668   -9.437550567E-13
 92.6491394   -9.169003447E-13
 92.8185196   -8.882240646E-13
 92.9878998   -8.579759624E-13
 93.1572723   -8.264410207E-13
 93.3266525   -7.939290501E-13
 93.4960251   -7.607630888E-13
 93.6654053   -7.272669337E-13
 93.8347778   -6.937526183E-13
 94.004158   -6.605082692E-13
 94.1735306   -6.277867766E-13
 94.3429108   -5.95796253E-13
 94.512291   -5.646934743E-13
 94.6816635   -5.345783495E-13
 94.8510437   -5.054928915E-13
 95.0204163   -4.774219214E-13
 95.1897964   -4.502971889E-13
 95.359169   -4.240031178E-13
 95.5285492   -3.983851823E-13
 95.6979294   -3.732596101E-13
 95.8673019   -3.484243059E-13
 96.0366821   -3.236702627E-13
 96.2060547   -2.987927831E-13
 96.3754349   -2.736019419E-13
 96.5448074   -2.479315852E-13
 96.7141876   -2.216462962E-13
 96.8835602   -1.946465721E-13
 97.0529404   -1.668710607E-13
 97.2223206   -1.382972784E-13
 97.3916931   -1.089395569E-13
 97.5610733   -7.88451742E-14
 97.7304459   -4.808848632E-14
 97.899826   -1.67643592E-14
 98.0691986   1.501935275E-14
 98.2385788   4.714976375E-14
 98.407959   7.951599719E-14
 98.5773315   1.12015513E-13
 98.7467117   1.445593048E-13
 98.9160843   1.770749617E-13
 99.0854645   2.095088019E-13
 99.254837   2.41825738E-13
 99.4242172   2.740069456E-13
 99.5935974   3.060458245E-13
 99.76297   3.379421038E-13
 99.9323502   3.696938318E-13
 100.101723   4.012890823E-13
 100.271103   4.326967116E-13
 100.440475   4.638575223E-13
 100.609856   4.94675698E-13
 100.779228   5.250116205E-13
 100.948608   5.546760425E-13
 101.117989   5.834266447E-13
 101.287361   6.109675483E-13
 101.456741   6.369523507E-13
 101.626114   6.609903055E-13
 101.795494   6.826558633E-13
 101.964867   7.015014654E-13
 102.134247   7.170729939E-13
 102.303627   7.289265762E-13
 102.473   7.366478304E-13
 102.64238   7.398710008E-13
 102.811752   7.382978235E-13
 102.981133   7.317157947E-13
 103.150505   7.200129165E-13
 103.319885   7.031898393E-13
 103.489258   6.813669637E-13
 103.658638   6.547875306E-13
 103.828018   6.238150187E-13
 103.997391   5.889269649E-13
 104.166771   5.507032005E-13
 104.336143   5.098111061E-13
 104.505524   4.669871261E-13
 104.674896   4.230149217E-13
 104.844276   3.787021966E-13
 105.013657   3.34856871E-13
 105.183029   2.92263311E-13
 105.352409   2.516596686E-13
 105.521782   2.13717607E-13
 105.691162   1.790237067E-13
 105.860535   1.4806388E-13
 106.029915   1.212103063E-13
 106.199295   9.871200672E-14
 106.368668   8.068926657E-14
 106.538048   6.713225353E-14
 106.70742   5.790410062E-14
 106.876801   5.274780788E-14
 107.046173   5.129714877E-14
 107.215553   5.309080202E-14
 107.384926   5.758969554E-14
 107.554306   6.419729792E-14
 107.723686   7.228245102E-14
 107.893059   8.120404577E-14
 108.062439   9.033659237E-14
 108.231812   9.909525186E-14
 108.401192   1.069586043E-13
 108.570564   1.134887201E-13
 108.739944   1.183469555E-13
 108.909325   1.213054722E-13
 109.078697   1.222536476E-13
 109.248077   1.211995185E-13
 109.41745   1.182654913E-13
 109.58683   1.136789095E-13
 109.756203   1.077568685E-13
 109.925583   1.008879192E-13
 110.094955   9.351089239E-14
 110.264336   8.609327579E-14
 110.433716   7.911015322E-14
 110.603088   7.302523793E-14
 110.772469   6.827467059E-14
 110.941841   6.525364288E-14
 111.111221   6.430607051E-14
 111.280594   6.571851489E-14
 111.449974   6.971699829E-14
 111.619354   7.646770858E-14
 111.788727   8.608067194E-14
 111.958107   9.861438109E-14
 112.12748   1.140815822E-13
 112.29686   1.324547161E-13
 112.466232   1.536702758E-13
 112.635612   1.776332038E-13
 112.804985   2.042194538E-13
 112.974365   2.332789994E-13
 113.143745   2.646374873E-13
 113.313118   2.980972674E-13
 113.482498   3.334375961E-13
 113.651871   3.704123867E-13
 113.821251   4.087488269E-13
 113.990623   4.481448307E-13
 114.160004   4.882679005E-13
 114.329384   5.287548285E-13
 114.498756   5.692132421E-13
 114.668137   6.092240427E-13
 114.837509   6.48345635E-13
 115.006889   6.861193471E-13
 115.176262   7.220764785E-13
 115.345642   7.55748708E-13
 115.515022   7.866798033E-13
 115.684395   8.144402579E-13
 115.853775   8.386437703E-13
 116.023148   8.589644837E-13
 116.192528   8.751549832E-13
 116.3619   8.870645646E-13
 116.531281   8.946566361E-13
 116.700653   8.980254149E-13
 116.870033   8.974106722E-13
 117.039413   8.93209443E-13
 117.208786   8.859817177E-13
 117.378166   8.764519058E-13
 117.547539   8.655015723E-13
 117.716919   8.541562097E-13
 117.886292   8.435642592E-13
 118.055672   8.349706018E-13
 118.225052   8.296841946E-13
 118.394424   8.290415338E-13
 118.563805   8.343658338E-13
 118.733177   8.469249607E-13
 118.902557   8.678876845E-13
 119.07193   8.982818829E-13
 119.24131   9.389563779E-13
 119.410683   9.905471625E-13
 119.580063   1.05344932E-12
 119.749443   1.127798267E-12
 119.918816   1.213456961E-12
 120.088196   1.310012645E-12
 120.257568   1.416783032E-12
 120.426949   1.532830069E-12
 120.596321   1.656984662E-12
 120.765701   1.787877246E-12
 120.935081   1.923974435E-12
 121.104454   2.063621192E-12
 121.273834   2.205082688E-12
 121.443207   2.346587117E-12
 121.612587   2.486365714E-12
 121.78196   2.622689609E-12
 121.95134   2.753902141E-12
 122.12072   2.878445095E-12
 122.290092   2.994878651E-12
 122.459473   3.101892658E-12
 122.628845   3.198313576E-12
 122.798225   3.283102306E-12
 122.967598   3.3553466E-12
 123.136978   3.414251304E-12
 123.306351   3.459123829E-12
 123.475731   3.489360276E-12
 123.645111   3.504429819E-12
 123.814484   3.503859746E-12
 123.983864   3.487221796E-12
 124.153236   3.454120236E-12
 124.322617   3.404181667E-12
 124.491989   3.337050688E-12
 124.661369   3.252387075E-12
 124.83075   3.149868821E-12
 125.000122   3.029200805E-12
 125.169502   2.890122603E-12
 125.338875   2.732423012E-12
 125.508255   2.55595523E-12
 125.677628   2.360654424E-12
 125.847008   2.146557238E-12
 126.01638   1.913822616E-12
 126.18576   1.662751534E-12
 126.355141   1.393807595E-12
 126.524513   1.107632757E-12
 126.693893   8.050596864E-13
 126.863266   4.871213025E-13
 127.032646   1.550553577E-13
 127.202019   -1.896932996E-13
 127.371399   -5.454727382E-13
 127.540779   -9.104303682E-13
 127.710152   -1.282520205E-12
 127.879532   -1.659519852E-12
 128.048904   -2.039047967E-12
 128.218277   -2.418588767E-12
 128.387665   -2.795519458E-12
 128.557037   -3.167142113E-12
 128.72641   -3.53071912E-12
 128.895798   -3.883511134E-12
 129.06517   -4.222823046E-12
 129.234543   -4.546049301E-12
 129.403915   -4.850723989E-12
 129.573303   -5.134571154E-12
 129.742676   -5.395546857E-12
 129.912048   -5.63188168E-12
 130.081436   -5.84211542E-12
 130.250809   -6.025125711E-12
 130.420181   -6.180148841E-12
 130.589554   -6.30679493E-12
 130.758942   -6.405054872E-12
 130.928314   -6.475291657E-12
 131.097687   -6.518233002E-12
 131.267059   -6.534947496E-12
 131.436447   -6.526814245E-12
 131.60582   -6.495492078E-12
 131.775192   -6.442888324E-12
 131.94458   -6.371118477E-12
 132.113953   -6.282476709E-12
 132.283325   -6.17939944E-12
 132.452698   -6.064432376E-12
 132.622086   -5.940197119E-12
 132.791458   -5.809364274E-12
 132.960831   -5.674629603E-12
 133.130219   -5.538691901E-12
 133.299591   -5.404232617E-12
 133.468964   -5.273896337E-12
 133.638336   -5.150266932E-12
 133.807724   -5.035835464E-12
 133.977097   -4.932970265E-12
 134.146469   -4.843880505E-12
 134.315857   -4.770581499E-12
 134.485229   -4.714858712E-12
 134.654602   -4.678232628E-12
 134.823975   -4.661927094E-12
 134.993362   -4.66683853E-12
 135.162735   -4.693508169E-12
 135.332108   -4.742104279E-12
 135.501495   -4.812416958E-12
 135.670868   -4.903860304E-12
 135.84024   -5.015493663E-12
 136.009613   -5.146046783E-12
 136.179001   -5.293957547E-12
 136.348373   -5.457416203E-12
 136.517746   -5.63441481E-12
 136.687119   -5.822804912E-12
 136.856506   -6.020356956E-12
 137.025879   -6.224821006E-12
 137.195251   -6.433984855E-12
 137.364639   -6.645724769E-12
 137.534012   -6.858045815E-12
 137.703384   -7.069105717E-12
 137.872757   -7.277238707E-12
 138.042145   -7.480956826E-12
 138.211517   -7.678963368E-12
 138.38089   -7.87014464E-12
 138.550278   -8.053567362E-12
 138.71965   -8.22847606E-12
 138.889023   -8.394272256E-12
 139.058395   -8.550504922E-12
 139.227783   -8.696853133E-12
 139.397156   -8.833119132E-12
 139.566528   -8.959207508E-12
 139.735916   -9.075117394E-12
 139.905289   -9.180925117E-12
 140.074661   -9.276763385E-12
 140.244034   -9.362796129E-12
 140.413422   -9.439195085E-12
 140.582794   -9.506112043E-12
 140.752167   -9.563658893E-12
 140.921555   -9.611881603E-12
 141.090927   -9.650748083E-12
 141.2603   -9.680126492E-12
 141.429672   -9.699767899E-12
 141.59906   -9.709295E-12
 141.768433   -9.708192583E-12
 141.937805   -9.695807525E-12
 142.107193   -9.671358332E-12
 142.276566   -9.633961164E-12
 142.445938   -9.582654115E-12
 142.615311   -9.516435383E-12
 142.784698   -9.434299696E-12
 142.954071   -9.335284282E-12
 143.123444   -9.218509636E-12
 143.292816   -9.083224624E-12
 143.462204   -8.92884898E-12
 143.631577   -8.755002799E-12
 143.800949   -8.561534294E-12
 143.970337   -8.348531068E-12
 144.139709   -8.11631231E-12
 144.309082   -7.865427927E-12
 144.478455   -7.596632524E-12
 144.647842   -7.310866322E-12
 144.817215   -7.009224798E-12
 144.986588   -6.692925294E-12
 145.155975   -6.363266251E-12
 145.325348   -6.02158861E-12
 145.49472   -5.669228541E-12
 145.664093   -5.307484053E-12
 145.833481   -4.937580293E-12
 146.002853   -4.560650902E-12
 146.172226   -4.177718067E-12
 146.341614   -3.789687748E-12
 146.510986   -3.397348809E-12
 146.680359   -3.001368685E-12
 146.849731   -2.602309861E-12
 147.019119   -2.200644181E-12
 147.188492   -1.796777137E-12
 147.357864   -1.391070093E-12
 147.527252   -9.838675014E-13
 147.696625   -5.755167393E-13
 147.865997   -1.663831968E-13
 148.03537   2.431354543E-13
 148.204758   6.525947859E-13
 148.37413   1.06149139E-12
 148.543503   1.46924519E-12
 148.712891   1.875183385E-12
 148.882263   2.27853153E-12
 149.051636   2.678406325E-12
 149.221008   3.073818977E-12
 149.390396   3.463681165E-12
 149.559769   3.846815661E-12
 149.729141   4.221972164E-12
 149.898514   4.587841392E-12
 150.067902   4.943080667E-12
 150.237274   5.286341243E-12
 150.406647   5.616309501E-12
 150.576035   5.931740342E-12
 150.745407   6.231500992E-12
 150.91478   6.514600491E-12
 151.084152   6.780215278E-12
 151.25354   7.027709577E-12
 151.422913   7.256642769E-12
 151.592285   7.466786738E-12
 151.761673   7.658131941E-12
 151.931046   7.830888715E-12
 152.100418   7.985482067E-12
 152.269791   8.1225391E-12
 152.439178   8.24285952E-12
 152.608551   8.347379211E-12
 152.777924   8.437140743E-12
 152.947311   8.513250001E-12
 153.116684   8.5768493E-12
 153.286057   8.629085294E-12
 153.455429   8.671071673E-12
 153.624817   8.703858814E-12
 153.794189   8.72839561E-12
 153.963562   8.745489576E-12
 154.13295   8.755774751E-12
 154.302322   8.759680481E-12
 154.471695   8.757401922E-12
 154.641068   8.748880093E-12
 154.810455   8.733776723E-12
 154.979828   8.711455168E-12
 155.1492   8.680959597E-12
 155.318588   8.64101412E-12
 155.487961   8.59002279E-12
 155.657333   8.526097363E-12
 155.826706   8.447101525E-12
 155.996094   8.350701207E-12
 156.165466   8.234426162E-12
 156.334839   8.095735887E-12
 156.504211   7.932077738E-12
 156.673599   7.74096412E-12
 156.842972   7.520038411E-12
 157.012344   7.267159964E-12
 157.181732   6.980484767E-12
 157.351105   6.658548279E-12
 157.520477   6.300336555E-12
 157.68985   5.905354331E-12
 157.859238   5.473674899E-12
 158.02861   5.00598174E-12
 158.197983   4.503607556E-12
 158.367371   3.968555085E-12
 158.536743   3.403515534E-12
 158.706116   2.81185665E-12
 158.875488   2.19759779E-12
 159.044876   1.565351147E-12
 159.214249   9.202457589E-13
 159.383621   2.678384858E-13
 159.553009   -3.859862462E-13
 159.722382   -1.035120882E-12
 159.891754   -1.673346683E-12
 160.061127   -2.29444957E-12
 160.230515   -2.89234435E-12
 160.399887   -3.461198776E-12
 160.56926   -3.995551286E-12
 160.738647   -4.49040978E-12
 160.90802   -4.941330331E-12
 161.077393   -5.344466623E-12
 161.246765   -5.696604646E-12
 161.416153   -5.995179613E-12
 161.585526   -6.238279858E-12
 161.754898   -6.424642502E-12
 161.924286   -6.553633504E-12
 162.093658   -6.625209062E-12
 162.263031   -6.639863138E-12
 162.432404   -6.598562842E-12
 162.601791   -6.502683808E-12
 162.771164   -6.353949051E-12
 162.940536   -6.154374753E-12
 163.109909   -5.906220825E-12
 163.279297   -5.611938865E-12
 163.448669   -5.274111443E-12
 163.618042   -4.895395721E-12
 163.78743   -4.478466209E-12
 163.956802   -4.0259753E-12
 164.126175   -3.540525945E-12
 164.295547   -3.024667756E-12
 164.464935   -2.480900468E-12
 164.634308   -1.911680449E-12
 164.80368   -1.319427315E-12
 164.973068   -7.06528152E-13
 165.142441   -7.534183238E-14
 165.311813   5.717865417E-13
 165.481186   1.232513115E-12
 165.650574   1.904478311E-12
 165.819946   2.585303499E-12
 165.989319   3.272598772E-12
 166.158707   3.963986691E-12
 166.328079   4.657126681E-12
 166.497452   5.349740182E-12
 166.666824   6.039621928E-12
 166.836212   6.724643412E-12
 167.005585   7.402751155E-12
 167.174957   8.071976247E-12
 167.344345   8.730447788E-12
 167.513718   9.376424116E-12
 167.68309   1.000832143E-11
 167.852463   1.062473807E-11
 168.021851   1.122446927E-11
 168.191223   1.18065115E-11
 168.360596   1.237007111E-11
 168.529968   1.291457045E-11