   0.00000000         0.00000000    
  0.165000007         0.00000000    
  0.330000013         0.00000000    
  0.495000005         0.00000000    
  0.660000026         0.00000000    
  0.824999988         0.00000000    
  0.990000010         0.00000000    
   1.15499997         0.00000000    
   1.32000005         0.00000000    
   1.48500001         0.00000000    
   1.64999998         0.00000000    
   1.81500006         0.00000000    
   1.98000002         0.00000000    
   2.14499998         0.00000000    
   2.30999994         0.00000000    
   2.47499990         0.00000000    
   2.64000010         0.00000000    
   2.80500007         0.00000000    
   2.97000003         0.00000000    
   3.13499999         0.00000000    
   3.29999995         0.00000000    
   3.46499991         0.00000000    
   3.63000011         0.00000000    
   3.79500008         0.00000000    
   3.96000004         0.00000000    
   4.12500000         0.00000000    
   4.28999996         0.00000000    
   4.45499992         0.00000000    
   4.61999989         0.00000000    
   4.78499985         0.00000000    
   4.94999981         0.00000000    
   5.11499977         0.00000000    
   5.28000021         0.00000000    
   5.44500017         0.00000000    
   5.61000013         0.00000000    
   5.77500010         0.00000000    
   5.94000006         0.00000000    
   6.10500002         0.00000000    
   6.26999998         0.00000000    
   6.43499994         0.00000000    
   6.59999990         0.00000000    
   6.76499987         0.00000000    
   6.92999983         0.00000000    
   7.09499979         0.00000000    
   7.26000023         0.00000000    
   7.42500019         0.00000000    
   7.59000015         0.00000000    
   7.75500011         0.00000000    
   7.92000008         0.00000000    
   8.08500004         0.00000000    
   8.25000000         0.00000000    
   8.41499996         0.00000000    
   8.57999992         0.00000000    
   8.74499989         0.00000000    
   8.90999985         0.00000000    
   9.07499981         0.00000000    
   9.23999977         0.00000000    
   9.40499973         0.00000000    
   9.56999969         0.00000000    
   9.73499966         0.00000000    
   9.89999962         0.00000000    
   10.0649996         0.00000000    
   10.2299995         0.00000000    
   10.3950005         0.00000000    
   10.5600004         0.00000000    
   10.7250004         0.00000000    
   10.8900003         0.00000000    
   11.0550003         0.00000000    
   11.2200003        -3.36361684E-33
   11.3850002        -1.25631664E-32
   11.5500002        -1.99608359E-32
   11.7150002        -2.85215249E-32
   11.8800001        -2.46208482E-32
   12.0450001         1.49343854E-32
   12.2100000         7.80879781E-32
   12.3750000         3.91093577E-31
   12.5400000         9.57734398E-31
   12.7049999         1.80031079E-30
   12.8699999         2.81353877E-30
   13.0349998         2.30431875E-30
   13.1999998        -1.77417306E-30
   13.3649998        -1.10967758E-29
   13.5299997        -2.22787363E-29
   13.6949997        -2.37796015E-29
   13.8599997        -6.23030851E-30
   14.0249996         2.34051029E-29
   14.1899996         4.42289541E-29
   14.3549995         1.35176328E-29
   14.5200005        -1.06934287E-28
   14.6850004        -3.17926906E-28
   14.8500004        -6.02124086E-28
   15.0150003        -9.08834111E-28
   15.1800003        -1.13012231E-27
   15.3450003        -1.12668288E-27
   15.5100002        -7.86893086E-28
   15.6750002        -6.97588497E-29
   15.8400002         9.28910390E-28
   16.0049992         2.00002047E-27
   16.1700001         2.85585674E-27
   16.3349991         3.22655107E-27
   16.5000000         3.00310718E-27
   16.6650009         2.30223586E-27
   16.8299999         1.46548805E-27
   16.9950008         9.51324074E-28
   17.1599998         1.12733452E-27
   17.3250008         2.04593753E-27
   17.4899998         3.32232661E-27
   17.6550007         4.19182889E-27
   17.8199997         3.78482250E-27
   17.9850006         1.53121301E-27
   18.1499996        -2.52379272E-27
   18.3150005        -7.65965835E-27
   18.4799995        -1.28359410E-26
   18.6450005        -1.73749958E-26
   18.8099995        -2.16855197E-26
   18.9750004        -2.75562457E-26
   19.1399994        -3.76076340E-26
   19.3050003        -5.37560019E-26
   19.4699993        -7.50428465E-26
   19.6350002        -9.56811672E-26
   19.7999992        -1.04481878E-25
   19.9650002        -8.66522536E-26
   20.1299992        -2.82708304E-26
   20.2950001         7.73638971E-26
   20.4599991         2.23447243E-25
   20.6250000         3.86106442E-25
   20.7900009         5.26006732E-25
   20.9549999         5.96339105E-25
   21.1200008         5.56267585E-25
   21.2849998         3.86548031E-25
   21.4500008         1.02259583E-25
   21.6149998        -2.42757547E-25
   21.7800007        -5.63631650E-25
   21.9449997        -7.64956152E-25
   22.1100006        -7.70428332E-25
   22.2749996        -5.54089195E-25
   22.4400005        -1.63394454E-25
   22.6049995         2.75197332E-25
   22.7700005         5.74000438E-25
   22.9349995         5.25377468E-25
   23.1000004        -3.99974820E-26
   23.2649994        -1.19010396E-24
   23.4300003        -2.83912913E-24
   23.5949993        -4.72056298E-24
   23.7600002        -6.39688610E-24
   23.9249992        -7.31043081E-24
   24.0900002        -6.87248600E-24
   24.2549992        -4.58057054E-24
   24.4200001        -1.48180187E-25
   24.5849991         6.37254461E-24
   24.7500000         1.44969805E-23
   24.9150009         2.32650842E-23
   25.0799999         3.12699351E-23
   25.2450008         3.67733822E-23
   25.4099998         3.79153088E-23
   25.5750008         3.30085530E-23
   25.7399998         2.08927113E-23
   25.9050007         1.29974557E-24
   26.0699997        -2.48331046E-23
   26.2350006        -5.51761124E-23
   26.3999996        -8.60144964E-23
   26.5650005        -1.12499807E-22
   26.7299995        -1.29161862E-22
   26.8950005        -1.30655523E-22
   27.0599995        -1.12672019E-22
   27.2250004        -7.29049724E-23
   27.3899994        -1.19303497E-23
   27.5550003         6.61562736E-23
   27.7199993         1.53502235E-22
   27.8850002         2.38797763E-22
   28.0499992         3.08209395E-22
   28.2150002         3.46972808E-22
   28.3799992         3.41574096E-22
   28.5450001         2.82324205E-22
   28.7099991         1.65995949E-22
   28.8750000        -1.92835471E-24
   29.0400009        -2.05926472E-22
   29.2049999        -4.20540209E-22
   29.3700008        -6.12308180E-22
   29.5349998        -7.43672176E-22
   29.7000008        -7.78648224E-22
   29.8649998        -6.89639470E-22
   30.0300007        -4.64381286E-22
   30.1949997        -1.11728200E-22
   30.3600006         3.35086327E-22
   30.5249996         8.18900981E-22
   30.6900005         1.26351960E-21
   30.8549995         1.58308435E-21
   31.0200005         1.69513117E-21
   31.1849995         1.53570170E-21
   31.3500004         1.07419449E-21
   31.5149994         3.25266814E-22
   31.6800003        -6.44844388E-22
   31.8449993        -1.71969456E-21
   32.0099983        -2.74280126E-21
   32.1749992        -3.53636918E-21
   32.3400002        -3.92680449E-21
   32.5050011        -3.77379425E-21
   32.6699982        -2.99861979E-21
   32.8349991        -1.60685812E-21
   33.0000000         2.99124569E-22
   33.1650009         2.52138767E-21
   33.3300018         4.78299620E-21
   33.4949989         6.75925952E-21
   33.6599998         8.12039168E-21
   33.8250008         8.58015466E-21
   33.9900017         7.94347278E-21
   34.1549988         6.14557431E-21
   34.3199997         3.27587575E-21
   34.4850006        -4.18246454E-22
   34.6500015        -4.54993644E-21
   34.8149986        -8.63249484E-21
   34.9799995        -1.21359052E-20
   35.1450005        -1.45534464E-20
   35.3100014        -1.54698785E-20
   35.4749985        -1.46222704E-20
   35.6399994        -1.19452732E-20
   35.8050003        -7.59438155E-21
   35.9700012        -1.94327284E-21
   36.1349983         4.44571290E-21
   36.2999992         1.08758757E-20
   36.4650002         1.65902607E-20
   36.6300011         2.08581686E-20
   36.7949982         2.30647601E-20
   36.9599991         2.27934578E-20
   37.1250000         1.98907033E-20
   37.2900009         1.45037380E-20
   37.4550018         7.08440370E-21
   37.6199989        -1.64443263E-21
   37.7849998        -1.07586406E-20
   37.9500008        -1.92326003E-20
   38.1150017        -2.60578469E-20
   38.2799988        -3.03660103E-20
   38.4449997        -3.15396245E-20
   38.6100006        -2.92951216E-20
   38.7750015        -2.37259957E-20
   38.9399986        -1.52994518E-20
   39.1049995        -4.80687942E-21
   39.2700005         6.72464032E-21
   39.4350014         1.81470809E-20
   39.5999985         2.83165443E-20
   39.7649994         3.62123064E-20
   39.9300003         4.10361265E-20
   40.0950012         4.22823516E-20
   40.2599983         3.97747374E-20
   40.4249992         3.36706292E-20
   40.5900002         2.44367700E-20
   40.7550011         1.28021928E-20
   40.9199982        -3.06172316E-22
   41.0849991        -1.38408190E-20
   41.2500000        -2.67205882E-20
   41.4150009        -3.79235040E-20
   41.5800018        -4.65805307E-20
   41.7449989        -5.20623180E-20
   41.9099998        -5.40481299E-20
   42.0750008        -5.25640483E-20
   42.2400017        -4.79786986E-20
   42.4049988        -4.09489558E-20
   42.5699997        -3.23159109E-20
   42.7350006        -2.29617922E-20
   42.9000015        -1.36486401E-20
   43.0649986        -4.86783472E-21
   43.2299995         3.26782285E-21
   43.3950005         1.10606149E-20
   43.5600014         1.91747138E-20
   43.7249985         2.84906238E-20
   43.8899994         3.98824874E-20
   44.0550003         5.39511106E-20
   44.2200012         7.07579602E-20
   44.3849983         8.96117974E-20
   44.5499992         1.08955248E-19
   44.7150002         1.26388105E-19
   44.8800011         1.38845006E-19
   45.0449982         1.42923394E-19
   45.2099991         1.35335059E-19
   45.3750000         1.13434082E-19
   45.5400009         7.57583898E-20
   45.7050018         2.25139143E-20
   45.8699989        -4.40716240E-20
   46.0349998        -1.19592261E-19
   46.2000008        -1.97558751E-19
   46.3650017        -2.69777564E-19
   46.5299988        -3.27020168E-19
   46.6949997        -3.59955528E-19
   46.8600006        -3.60282833E-19
   47.0250015        -3.21965707E-19
   47.1899986        -2.42435626E-19
   47.3549995        -1.23611867E-19
   47.5200005         2.74276935E-20
   47.6850014         1.98273319E-19
   47.8499985         3.71631389E-19
   48.0149994         5.26456516E-19
   48.1800003         6.39757771E-19
   48.3450012         6.88982927E-19
   48.5099983         6.54794002E-19
   48.6749992         5.23964531E-19
   48.8400002         2.92072770E-19
   49.0050011        -3.43615932E-20
   49.1699982        -4.36632766E-19
   49.3349991        -8.83769589E-19
   49.5000000        -1.33379058E-18
   49.6650009        -1.73633234E-18
   49.8300018        -2.03653500E-18
   49.9949989        -2.17992325E-18
   50.1599998        -2.11788512E-18
   50.3250008        -1.81327978E-18
   50.4900017        -1.24562874E-18
   50.6549988        -4.15390665E-19
   50.8199997         6.53147550E-19
   50.9850006         1.91071318E-18
   51.1500015         3.28384293E-18
   51.3149986         4.67769851E-18
   51.4799995         5.98081692E-18
   51.6450005         7.07155961E-18
   51.8100014         7.82589208E-18
   51.9749985         8.12604532E-18
   52.1399994         7.86950187E-18
   52.3050003         6.97776560E-18
   52.4700012         5.40432456E-18
   52.6349983         3.14131764E-18
   52.7999992         2.24414126E-19
   52.9650002        -3.26441163E-18
   53.1300011        -7.19646223E-18
   53.2949982        -1.13983727E-17
   53.4599991        -1.56566496E-17
   53.6250000        -1.97246048E-17
   53.7900009        -2.33315242E-17
   53.9550018        -2.61938503E-17
   54.1199989        -2.80281018E-17
   54.2849998        -2.85652134E-17
   54.4500008        -2.75659296E-17
   54.6150017        -2.48367514E-17
   54.7799988        -2.02458791E-17
   54.9449997        -1.37384228E-17
   55.1100006        -5.35007351E-18
   55.2750015         4.78175741E-18
   55.4399986         1.64103187E-17
   55.6049995         2.91763840E-17
   55.7700005         4.26104887E-17
   55.9350014         5.61412246E-17
   56.0999985         6.91098880E-17
   56.2649994         8.07914451E-17
   56.4300003         9.04214686E-17
   56.5950012         9.72281459E-17
   56.7599983         1.00468232E-16
   56.9249992         9.94655636E-17
   57.0900002         9.36503979E-17
   57.2550011         8.25979877E-17
   57.4199982         6.60645597E-17
   57.5849991         4.40190516E-17
   57.7500000         1.66688921E-17
   57.9150009        -1.55217100E-17
   58.0800018        -5.18224187E-17
   58.2449989        -9.12374922E-17
   58.4099998        -1.32517828E-16
   58.5750008        -1.74184623E-16
   58.7400017        -2.14565225E-16
   58.9049988        -2.51840577E-16
   59.0699997        -2.84103638E-16
   59.2350006        -3.09426933E-16
   59.4000015        -3.25937696E-16
   59.5649986        -3.31897684E-16
   59.7299995        -3.25784700E-16
   59.8950005        -3.06373326E-16
   60.0600014        -2.72810678E-16
   60.2249985        -2.24685495E-16
   60.3899994        -1.62086610E-16
   60.5550003        -8.56486761E-17
   60.7200012         3.41660169E-18
   60.8849983         1.03306084E-16
   61.0499992         2.11628654E-16
   61.2150002         3.25427729E-16
   61.3800011         4.41223115E-16
   61.5449982         5.55072496E-16
   61.7099991         6.62651927E-16
   61.8750000         7.59354661E-16
   62.0400009         8.40406185E-16
   62.2050018         9.00993922E-16
   62.3699989         9.36406993E-16
   62.5349998         9.42185558E-16
   62.7000008         9.14271799E-16
   62.8650017         8.49161276E-16
   63.0299988         7.44048087E-16
   63.1949997         5.96960181E-16
   63.3600006         4.06880164E-16
   63.5250015         1.73847332E-16
   63.6899986        -1.00961477E-16
   63.8549995        -4.15175475E-16
   64.0199966        -7.65200194E-16
   64.1849976        -1.14621377E-15
   64.3499985        -1.55219031E-15
   64.5149994        -1.97595041E-15
   64.6800003        -2.40923466E-15
   64.8450012        -2.84280224E-15
   65.0100021        -3.26655122E-15
   65.1750031        -3.66965844E-15
   65.3399963        -4.04073510E-15
   65.5049973        -4.36800449E-15
   65.6699982        -4.63948744E-15
   65.8349991        -4.84320734E-15
   66.0000000        -4.96740100E-15
   66.1650009        -5.00074530E-15
   66.3300018        -4.93258287E-15
   66.4950027        -4.75315842E-15
   66.6600037        -4.45384874E-15
   66.8249969        -4.02739221E-15
   66.9899979        -3.46810758E-15
   67.1549988        -2.77209510E-15
   67.3199997        -1.93742397E-15
   67.4850006        -9.64292483E-16
   67.6500015         1.44837830E-16
   67.8150024         1.38514070E-15
   67.9800034         2.74935460E-15
   68.1449966         4.22775150E-15
   68.3099976         5.80814007E-15
   68.4749985         7.47591364E-15
   68.6399994         9.21413197E-15
   68.8050003         1.10036551E-14
   68.9700012         1.28233063E-14
   69.1350021         1.46500887E-14
   69.3000031         1.64594409E-14
   69.4649963         1.82255419E-14
   69.6299973         1.99216406E-14
   69.7949982         2.15204560E-14
   69.9599991         2.29945898E-14
   70.1250000         2.43170013E-14
   70.2900009         2.54614902E-14
   70.4550018         2.64032435E-14
   70.6200027         2.71193827E-14
   70.7850037         2.75895368E-14
   70.9499969         2.77964263E-14
   71.1149979         2.77264411E-14
   71.2799988         2.73702078E-14
   71.4449997         2.67231153E-14
   71.6100006         2.57858039E-14
   71.7750015         2.45645772E-14
   71.9400024         2.30717324E-14
   72.1050034         2.13257875E-14
   72.2699966         1.93516027E-14
   72.4349976         1.71803574E-14
   72.5999985         1.48494091E-14
   72.7649994         1.24020006E-14
   72.9300003         9.88683538E-15
   73.0950012         7.35751283E-15
   73.2600021         4.87184002E-15
   73.4250031         2.49101590E-15
   73.5899963         2.78724768E-16
   73.7549973        -1.69987072E-15
   73.9199982        -3.37920512E-15
   74.0849991        -4.69443701E-15
   74.2500000        -5.58261797E-15
   74.4150009        -5.98387400E-15
   74.5800018        -5.84258001E-15
   74.7450027        -5.10851203E-15
   74.9100037        -3.73794962E-15
   75.0749969        -1.69471059E-15
   75.2399979         1.04889784E-15
   75.4049988         4.51123903E-15
   75.5699997         8.70063434E-15
   75.7350006         1.36147959E-14
   75.9000015         1.92403957E-14
   76.0650024         2.55528241E-14
   76.2300034         3.25161244E-14
   76.3949966         4.00830932E-14
   76.5599976         4.81955818E-14
   76.7249985         5.67849804E-14
   76.8899994         6.57728808E-14
   77.0550003         7.50719203E-14
   77.2200012         8.45867904E-14
   77.3850021         9.42154205E-14
   77.5500031         1.03850244E-13
   77.7149963         1.13379710E-13
   77.8799973         1.22689782E-13
   78.0449982         1.31665593E-13
   78.2099991         1.40193223E-13
   78.3750000         1.48161363E-13
   78.5400009         1.55463207E-13
   78.7050018         1.61998263E-13
   78.8700027         1.67674048E-13
   79.0350037         1.72407932E-13
   79.1999969         1.76128792E-13
   79.3649979         1.78778514E-13
   79.5299988         1.80313487E-13
   79.6949997         1.80705846E-13
   79.8600006         1.79944492E-13
   80.0250015         1.78036093E-13
   80.1900024         1.75005559E-13
   80.3550034         1.70896500E-13
   80.5199966         1.65771219E-13
   80.6849976         1.59710637E-13
   80.8499985         1.52813607E-13
   81.0149994         1.45196274E-13
   81.1800003         1.36990842E-13
   81.3450012         1.28344343E-13
   81.5100021         1.19416833E-13
   81.6750031         1.10379547E-13
   81.8399963         1.01412748E-13
   82.0049973         9.27033041E-14
   82.1699982         8.44421850E-14
   82.3349991         7.68217480E-14
   82.5000000         7.00329077E-14
   82.6650009         6.42622349E-14
   82.8300018         5.96890159E-14
   82.9950027         5.64823287E-14
   83.1600037         5.47982036E-14
   83.3249969         5.47767703E-14
   83.4899979         5.65397271E-14
   83.6549988         6.01878505E-14
   83.8199997         6.57988204E-14
   83.9850006         7.34253085E-14
   84.1500015         8.30933629E-14
   84.3150024         9.48011878E-14
   84.4800034         1.08518168E-13
   84.6449966         1.24184463E-13
   84.8099976         1.41710767E-13
   84.9749985         1.60978788E-13
   85.1399994         1.81841751E-13
   85.3050003         2.04125616E-13
   85.4700012         2.27630469E-13
   85.6350021         2.52132408E-13
   85.8000031         2.77385536E-13
   85.9649963         3.03124659E-13
   86.1299973         3.29067638E-13
   86.2949982         3.54918541E-13
   86.4599991         3.80370675E-13
   86.6250000         4.05109485E-13
   86.7900009         4.28816135E-13
   86.9550018         4.51170703E-13
   87.1200027         4.71855411E-13
   87.2850037         4.90557898E-13
   87.4499969         5.06974562E-13
   87.6149979         5.20813698E-13
   87.7799988         5.31798618E-13
   87.9449997         5.39670576E-13
   88.1100006         5.44191753E-13
   88.2750015         5.45147857E-13
   88.4400024         5.42350886E-13
   88.6050034         5.35641247E-13
   88.7699966         5.24890027E-13
   88.9349976         5.10001004E-13
   89.0999985         4.90912324E-13
   89.2649994         4.67597478E-13
   89.4300003         4.40067064E-13
   89.5950012         4.08368814E-13
   89.7600021         3.72588570E-13
   89.9250031         3.32849904E-13
   90.0899963         2.89313956E-13
   90.2549973         2.42178781E-13
   90.4199982         1.91678040E-13
   90.5849991         1.38079611E-13
   90.7500000         8.16836426E-14
   90.9150009         2.28202619E-14
   91.0800018        -3.81531083E-14
   91.2450027        -1.00854756E-13
   91.4100037        -1.64882146E-13
   91.5749969        -2.29815516E-13
   91.7399979        -2.95222045E-13
   91.9049988        -3.60659961E-13
   92.0699997        -4.25683170E-13
   92.2350006        -4.89845848E-13
   92.4000015        -5.52707294E-13
   92.5650024        -6.13836781E-13
   92.7300034        -6.72818409E-13
   92.8949966        -7.29255848E-13
   93.0599976        -7.82777380E-13
   93.2249985        -8.33039909E-13
   93.3899994        -8.79733569E-13
   93.5550003        -9.22585250E-13
   93.7200012        -9.61362608E-13
   93.8850021        -9.95876341E-13
   94.0500031        -1.02598301E-12
   94.2149963        -1.05158634E-12
   94.3799973        -1.07263916E-12
   94.5449982        -1.08914256E-12
   94.7099991        -1.10114695E-12
   94.8750000        -1.10874970E-12
   95.0400009        -1.11209447E-12
   95.2050018        -1.11136859E-12
   95.3700027        -1.10680009E-12
   95.5350037        -1.09865394E-12
   95.6999969        -1.08722861E-12
   95.8649979        -1.07285144E-12
   96.0299988        -1.05587360E-12
   96.1949997        -1.03666565E-12
   96.3600006        -1.01561197E-12
   96.5250015        -9.93105229E-13
   96.6900024        -9.69541613E-13
   96.8550034        -9.45314790E-13
   97.0199966        -9.20811170E-13
   97.1849976        -8.96404641E-13
   97.3499985        -8.72451634E-13
   97.5149994        -8.49286407E-13
   97.6800003        -8.27217147E-13
   97.8450012        -8.06521787E-13
   98.0100021        -7.87444600E-13
   98.1750031        -7.70193262E-13
   98.3399963        -7.54935719E-13
   98.5049973        -7.41798875E-13
   98.6699982        -7.30866377E-13
   98.8349991        -7.22177851E-13
   99.0000000        -7.15727987E-13
   99.1650009        -7.11466855E-13
   99.3300018        -7.09300457E-13
   99.4950027        -7.09091640E-13
   99.6600037        -7.10661510E-13
   99.8249969        -7.13791927E-13
   99.9899979        -7.18227994E-13
   100.154999        -7.23680989E-13
   100.320000        -7.29832210E-13
   100.485001        -7.36336285E-13
   100.650002        -7.42825940E-13
   100.815002        -7.48916120E-13
   100.980003        -7.54209195E-13
   101.144997        -7.58299727E-13
   101.309998        -7.60779623E-13
   101.474998        -7.61243607E-13
   101.639999        -7.59294157E-13
   101.805000        -7.54547304E-13
   101.970001        -7.46637181E-13
   102.135002        -7.35221779E-13
   102.300003        -7.19987112E-13
   102.464996        -7.00652210E-13
   102.629997        -6.76972963E-13
   102.794998        -6.48746193E-13
   102.959999        -6.15813010E-13
   103.125000        -5.78061362E-13
   103.290001        -5.35428581E-13
   103.455002        -4.87903175E-13
   103.620003        -4.35525612E-13
   103.785004        -3.78389242E-13
   103.949997        -3.16639862E-13
   104.114998        -2.50475205E-13
   104.279999        -1.80143294E-13
   104.445000        -1.05940728E-13
   104.610001        -2.82098445E-14
   104.775002         5.26641414E-14
   104.940002         1.36256918E-13
   105.105003         2.22109237E-13
   105.269997         3.09731489E-13
   105.434998         3.98608745E-13
   105.599998         4.88206209E-13
   105.764999         5.77974842E-13
   105.930000         6.67357500E-13
   106.095001         7.55795003E-13
   106.260002         8.42732514E-13
   106.425003         9.27625815E-13
   106.589996         1.00994777E-12
   106.754997         1.08919416E-12
   106.919998         1.16489034E-12
   107.084999         1.23659590E-12
   107.250000         1.30391065E-12
   107.415001         1.36647887E-12
   107.580002         1.42399363E-12
   107.745003         1.47619970E-12
   107.910004         1.52289650E-12
   108.074997         1.56393930E-12
   108.239998         1.59924092E-12
   108.404999         1.62877123E-12
   108.570000         1.65255678E-12
   108.735001         1.67067879E-12
   108.900002         1.68327158E-12
   109.065002         1.69051914E-12
   109.230003         1.69265177E-12
   109.394997         1.68994181E-12
   109.559998         1.68269923E-12
   109.724998         1.67126653E-12
   109.889999         1.65601289E-12
   110.055000         1.63732916E-12
   110.220001         1.61562127E-12
   110.385002         1.59130456E-12
   110.550003         1.56479712E-12
   110.714996         1.53651375E-12
   110.879997         1.50685985E-12
   111.044998         1.47622528E-12
   111.209999         1.44497923E-12
   111.375000         1.41346396E-12
   111.540001         1.38199066E-12
   111.705002         1.35083503E-12
   111.870003         1.32023299E-12
   112.035004         1.29037818E-12
   112.199997         1.26141968E-12
   112.364998         1.23346049E-12
   112.529999         1.20655677E-12
   112.695000         1.18071774E-12
   112.860001         1.15590686E-12
   113.025002         1.13204324E-12
   113.190002         1.10900362E-12
   113.355003         1.08662580E-12
   113.519997         1.06471147E-12
   113.684998         1.04303035E-12
   113.849998         1.02132473E-12
   114.014999         9.99313371E-13
   114.180000         9.76697130E-13
   114.345001         9.53163655E-13
   114.510002         9.28392562E-13
   114.675003         9.02061466E-13
   114.839996         8.73850254E-13
   115.004997         8.43446894E-13
   115.169998         8.10552580E-13
   115.334999         7.74886286E-13
   115.500000         7.36189755E-13
   115.665001         6.94231294E-13
   115.830002         6.48810107E-13
   115.995003         5.99759663E-13
   116.160004         5.46950560E-13
   116.324997         4.90293299E-13
   116.489998         4.29740174E-13
   116.654999         3.65286848E-13
   116.820000         2.96973465E-13
   116.985001         2.24884578E-13
   117.150002         1.49149234E-13
   117.315002         6.99400187E-14
   117.480003        -1.25283830E-14
   117.644997        -9.80010886E-14
   117.809998        -1.86185499E-13
   117.974998        -2.76754260E-13
   118.139999        -3.69348351E-13
   118.305000        -4.63580834E-13
   118.470001        -5.59040715E-13
   118.635002        -6.55296726E-13
   118.800003        -7.51901742E-13
   118.964996        -8.48396657E-13
   119.129997        -9.44315372E-13
   119.294998        -1.03918827E-12
   119.459999        -1.13254740E-12
   119.625000        -1.22392992E-12
   119.790001        -1.31288307E-12
   119.955002        -1.39896818E-12
   120.120003        -1.48176436E-12
   120.285004        -1.56087318E-12
   120.449997        -1.63592143E-12
   120.614998        -1.70656501E-12
   120.779999        -1.77249263E-12
   120.945000        -1.83342751E-12
   121.110001        -1.88913078E-12
   121.275002        -1.93940328E-12
   121.440002        -1.98408672E-12
   121.605003        -2.02306596E-12
   121.769997        -2.05626813E-12
   121.934998        -2.08366440E-12
   122.099998        -2.10526843E-12
   122.264999        -2.12113638E-12
   122.430000        -2.13136540E-12
   122.595001        -2.13609187E-12
   122.760002        -2.13548948E-12
   122.925003        -2.12976576E-12
   123.089996        -2.11915945E-12
   123.254997        -2.10393682E-12
   123.419998        -2.08438843E-12
   123.584999        -2.06082460E-12
   123.750000        -2.03357101E-12
   123.915001        -2.00296507E-12
   124.080002        -1.96934938E-12
   124.245003        -1.93307046E-12
   124.410004        -1.89447091E-12
   124.574997        -1.85388770E-12
   124.739998        -1.81164729E-12
   124.904999        -1.76806183E-12
   125.070000        -1.72342598E-12
   125.235001        -1.67801450E-12
   125.400002        -1.63207924E-12
   125.565002        -1.58584756E-12
   125.730003        -1.53952014E-12
   125.894997        -1.49327111E-12
   126.059998        -1.44724727E-12
   126.224998        -1.40156712E-12
   126.389999        -1.35632228E-12
   126.555000        -1.31157845E-12
   126.720001        -1.26737618E-12
   126.885002        -1.22373270E-12
   127.050003        -1.18064456E-12
   127.214996        -1.13808930E-12
   127.379997        -1.09602876E-12
   127.544998        -1.05441101E-12
   127.709999        -1.01317446E-12
   127.875000        -9.72250167E-13
   128.039993        -9.31565480E-13
   128.205002        -8.91047381E-13
   128.369995        -8.50625126E-13
   128.535004        -8.10233879E-13
   128.699997        -7.69817315E-13
   128.865005        -7.29330279E-13
   129.029999        -6.88740894E-13
   129.195007        -6.48032626E-13
   129.360001        -6.07205692E-13
   129.524994        -5.66277656E-13
   129.690002        -5.25283972E-13
   129.854996        -4.84278037E-13
   130.020004        -4.43330377E-13
   130.184998        -4.02527756E-13
   130.350006        -3.61971792E-13
   130.514999        -3.21777273E-13
   130.679993        -2.82069913E-13
   130.845001        -2.42983910E-13
   131.009995        -2.04658962E-13
   131.175003        -1.67237480E-13
   131.339996        -1.30860871E-13
   131.505005        -9.56660085E-14
   131.669998        -6.17813702E-14
   131.835007        -2.93232439E-14
   132.000000         1.60812360E-15
   132.164993         3.09321660E-14
   132.330002         5.85912070E-14
   132.494995         8.45536206E-14
   132.660004         1.08815931E-13
   132.824997         1.31404843E-13
   132.990005         1.52378517E-13
   133.154999         1.71827247E-13
   133.320007         1.89873657E-13
   133.485001         2.06672448E-13