 0.   2.901068612E-18
 0.169376865   2.901130031E-18
 0.33875373   2.901242114E-18
 0.50813061   2.901384389E-18
 0.67750746   2.901532247E-18
 0.84688431   2.901664182E-18
 1.01626122   2.901762203E-18
 1.18563807   2.901819486E-18
 1.35501492   2.901841613E-18
 1.52439177   2.901842233E-18
 1.69376862   2.90184244E-18
 1.86314547   2.901863119E-18
 2.03252244   2.901921022E-18
 2.20189929   2.90202442E-18
 2.37127614   2.902171451E-18
 2.54065299   2.902348468E-18
 2.71002984   2.902535824E-18
 2.87940669   2.902709946E-18
 3.04878354   2.902849739E-18
 3.21816039   2.90294259E-18
 3.38753724   2.90298519E-18
 3.55691409   2.902985603E-18
 3.72629094   2.902962029E-18
 3.89566779   2.9029368E-18
 4.06504488   2.902933077E-18
 4.23442173   2.902968026E-18
 4.40379858   2.903050951E-18
 4.57317543   2.90317813E-18
 4.74255228   2.903336328E-18
 4.91192913   2.90350528E-18
 5.08130598   2.90366141E-18
 5.25068283   2.90378404E-18
 5.42005968   2.903860967E-18
 5.58943653   2.903891366E-18
 5.75881338   2.903884335E-18
 5.92819023   2.903858693E-18
 6.09756708   2.903836979E-18
 6.26694393   2.903840908E-18
 6.43632078   2.903887024E-18
 6.60569763   2.903980702E-18
 6.77507448   2.904116153E-18
 6.94445133   2.904279521E-18
 7.11382818   2.904448059E-18
 7.28320503   2.904597985E-18
 7.45258188   2.904710275E-18
 7.62195873   2.904773554E-18
 7.79133558   2.904787203E-18
 7.96071243   2.904763835E-18
 8.13008976   2.904721235E-18
 8.29946613   2.904683598E-18
 8.46884346   2.904671604E-18
 8.63821983   2.904700142E-18
 8.80759716   2.904774175E-18
 8.97697353   2.904886258E-18
 9.14635086   2.90501902E-18
 9.31572723   2.905150956E-18
 9.48510456   2.905258696E-18
 9.65448093   2.905325077E-18
 9.82385826   2.905340793E-18
 9.99323463   2.905308327E-18
 10.162612   2.905241325E-18
 10.3319883   2.905160675E-18
 10.5013657   2.905089331E-18
 10.670742   2.905049419E-18
 10.8401194   2.905053762E-18
 11.0094957   2.905105254E-18
 11.1788731   2.905194382E-18
 11.3482494   2.90530357E-18
 11.5176268   2.905408209E-18
 11.6870031   2.90548617E-18
 11.8563805   2.905520705E-18
 12.0257568   2.905504368E-18
 12.1951342   2.905441916E-18
 12.3645105   2.905348858E-18
 12.5338879   2.905248149E-18
 12.7032642   2.90516357E-18
 12.8726416   2.905114973E-18
 13.0420179   2.90511456E-18
 13.2113953   2.905161088E-18
 13.3807716   2.905244634E-18
 13.550149   2.905345136E-18
 13.7195253   2.90543716E-18
 13.8889027   2.905499819E-18
 14.058279   2.905517397E-18
 14.2276564   2.905483482E-18
 14.3970327   2.90540552E-18
 14.5664101   2.905298194E-18
 14.7357864   2.90518425E-18
 14.9051638   2.905087056E-18
 15.0745401   2.90502419E-18
 15.2439175   2.905004131E-18
 15.4132938   2.905026258E-18
 15.5826712   2.905077543E-18
 15.7520475   2.905136687E-18
 15.9214249   2.905180734E-18
 16.0908012   2.90519066E-18
 16.2601795   2.90515261E-18
 16.4295559   2.905066583E-18
 16.5989323   2.904941472E-18
 16.7683086   2.904797336E-18
 16.9376869   2.904657542E-18
 17.1070633   2.904545253E-18
 17.2764397   2.90447763E-18
 17.445816   2.904463362E-18
 17.6151943   2.904498103E-18
 17.7845707   2.90456862E-18
 17.9539471   2.90465382E-18
 18.1233234   2.904730127E-18
 18.2927017   2.90477769E-18
 18.4620781   2.904782447E-18
 18.6314545   2.904742535E-18
 18.8008308   2.9046654E-18
 18.9702091   2.904570068E-18
 19.1395855   2.90447701E-18
 19.3089619   2.904407734E-18
 19.4783382   2.904376508E-18
 19.6477165   2.904388295E-18
 19.8170929   2.904436685E-18
 19.9864693   2.904504514E-18
 20.1558456   2.904570482E-18
 20.3252239   2.904612461E-18
 20.4946003   2.904613702E-18
 20.6639767   2.904565932E-18
 20.833353   2.904472667E-18
 21.0027313   2.904348797E-18
 21.1721077   2.904215828E-18
 21.3414841   2.904096714E-18
 21.5108604   2.904012135E-18
 21.6802387   2.90397243E-18
 21.8496151   2.903978841E-18
 22.0189915   2.904020613E-18
 22.1883678   2.904079963E-18
 22.3577461   2.904135798E-18
 22.5271225   2.904170126E-18
 22.6964989   2.904172814E-18
 22.8658752   2.90414469E-18
 23.0352535   2.904098368E-18
 23.2046299   2.904052046E-18
 23.3740063   2.904023508E-18
 23.5433826   2.90402661E-18
 23.7127609   2.904061145E-18
 23.8821373   2.904114498E-18
 24.0515137   2.904161234E-18
 24.22089   2.904166817E-18
 24.3902683   2.904095473E-18
 24.5596447   2.903922592E-18
 24.7290211   2.903642385E-18
 24.8983994   2.903276978E-18
 25.0677757   2.902879104E-18
 25.2371521   2.902529207E-18
 25.4065285   2.902325927E-18
 25.5759068   2.902369974E-18
 25.7452831   2.902743653E-18
 25.9146595   2.903486048E-18
 26.0840359   2.904573997E-18
 26.2534142   2.905909273E-18
 26.4227905   2.907319203E-18
 26.5921669   2.908567625E-18
 26.7615433   2.909383846E-18
 26.9309216   2.909505027E-18
 27.1002979   2.908722101E-18
 27.2696743   2.906930221E-18
 27.4390507   2.904172401E-18
 27.608429   2.900666396E-18
 27.7778053   2.89681008E-18
 27.9471817   2.893160145E-18
 28.1165581   2.890378751E-18
 28.2859364   2.88914315E-18
 28.4553127   2.890035057E-18
 28.6246891   2.893412022E-18
 28.7940655   2.899283143E-18
 28.9634438   2.907218493E-18
 29.1328201   2.916310242E-18
 29.3021965   2.925215462E-18
 29.4715729   2.932295508E-18
 29.6409512   2.935845147E-18
 29.8103275   2.934400269E-18
 29.9797039   2.927071242E-18
 30.1490803   2.913848553E-18
 30.3184586   2.8958125E-18
 30.4878349   2.875180754E-18
 30.6572113   2.855150783E-18
 30.8265877   2.839519964E-18
 30.995966   2.832113182E-18
 31.1653423   2.83608551E-18
 31.3347187   2.853207322E-18
 31.5040951   2.883261482E-18
 31.6734734   2.923692002E-18
 31.8428497   2.969601147E-18
 32.0122261   3.014172947E-18
 32.1816025   3.04951155E-18
 32.3509789   3.067814162E-18
 32.520359   3.062728449E-18
 32.6897354   3.030678922E-18
 32.8591118   2.971924283E-18
 33.0284882   2.891120938E-18
 33.1978645   2.797224152E-18
 33.3672409   2.702658176E-18
 33.5366173   2.62180003E-18
 33.7059937   2.568949599E-18
 33.8753738   2.556077842E-18
 34.0447502   2.590691008E-18
 34.2141266   2.674175659E-18
 34.383503   2.8009293E-18
 34.5528793   2.958477842E-18
 34.7222557   3.128624965E-18
 34.8916321   3.289536203E-18
 35.0610085   3.41849945E-18
 35.2303886   3.494998561E-18
 35.399765   3.503690575E-18
 35.5691414   3.436871132E-18
 35.7385178   3.296076927E-18
 35.9078941   3.092584085E-18
 36.0772705   2.846680246E-18
 36.2466469   2.585741779E-18
 36.4160233   2.341279923E-18
 36.5854034   2.145256109E-18
 36.7547798   2.026062485E-18
 36.9241562   2.004639127E-18
 37.0935326   2.091234184E-18
 37.2629089   2.283278019E-18
 37.4322853   2.564753933E-18
 37.6016617   2.907291285E-18
 37.7710381   3.27298618E-18
 37.9404182   3.618693909E-18
 38.1097946   3.901305542E-18
 38.279171   4.083303061E-18
 38.4485474   4.137818813E-18
 38.6179237   4.052413656E-18
 38.7873001   3.831015456E-18
 38.9566765   3.493685825E-18
 39.1260529   3.074271547E-18
 39.295433   2.616302381E-18
 39.4648094   2.167787061E-18
 39.6341858   1.775669743E-18
 39.8035622   1.480708718E-18
 39.9729385   1.313378765E-18
 40.1423149   1.291172068E-18
 40.3116913   1.417407584E-18
 40.4810715   1.681451907E-18
 40.6504478   2.060129712E-18
 40.8198242   2.520074185E-18
 40.9892006   3.020797629E-18
 41.158577   3.518340771E-18
 41.3279533   3.969354796E-18
 41.4973297   4.33542978E-18
 41.6667061   4.587338123E-18
 41.8360863   4.708676006E-18
 42.0054626   4.698270901E-18
 42.174839   4.570669193E-18
 42.3442154   4.354209261E-18
 42.5135918   4.086521207E-18
 42.6829681   3.80784075E-18
 42.8523445   3.553057955E-18
 43.0217209   3.343930359E-18
 43.1911011   3.183105975E-18
 43.3604774   3.051507744E-18
 43.5298538   2.91018435E-18
 43.6992302   2.706936147E-18
 43.8686066   2.387110485E-18
 44.0379829   1.907008654E-18
 44.2073593   1.247667951E-18
 44.3767357   4.264293902E-19
 44.5461159   -4.961810334E-19
 44.7154922   -1.416184804E-18
 44.8848686   -2.193504727E-18
 45.054245   -2.666862348E-18
 45.2236214   -2.674996222E-18
 45.3929977   -2.08194598E-18
 45.5623741   -8.033918287E-19
 45.7317505   1.169460919E-18
 45.9011307   3.752048659E-18
 46.070507   6.758065191E-18
 46.2398834   9.903208953E-18
 46.4092598   1.282281985E-17
 46.5786362   1.510365459E-17
 46.7480125   1.63284907E-17
 46.9173889   1.613034124E-17
 47.0867653   1.425114239E-17
 47.2561455   1.059825904E-17
 47.4255219   5.290983033E-18
 47.5948982   -1.311059351E-18
 47.7642746   -8.604918376E-18
 47.933651   -1.577213564E-17
 48.1030273   -2.183966756E-17
 48.2724037   -2.577226782E-17
 48.4417801   -2.659009964E-17
 48.6111603   -2.350100853E-17
 48.7805367   -1.603311443E-17
 48.949913   -4.151314265E-18
 49.1192894   1.165920751E-17
 49.2886658   3.035727371E-17
 49.4580421   5.036846018E-17
 49.6274185   6.967116645E-17
 49.7967987   8.594360242E-17
 49.9661751   9.676207266E-17
 50.1355515   9.983455895E-17
 50.3049278   9.324860647E-17
 50.4743042   7.570984962E-17
 50.6436806   4.674747374E-17
 50.8130569   6.86540966E-18
 50.9824333   -4.237789546E-17
 51.1518135   -9.837188525E-17
 51.3211899   -1.575428078E-16
 51.4905663   -2.155263291E-16
 51.6599426   -2.674147601E-16
 51.829319   -3.080639506E-16
 51.9986954   -3.324407648E-16
 52.1680717   -3.359888534E-16
 52.3374481   -3.149894773E-16
 52.5068283   -2.66894126E-16
 52.6762047   -1.906084462E-16
 52.8455811   -8.67095055E-17
 53.0149574   4.241631634E-17
 53.1843338   1.925238391E-16
 53.3537102   3.575512682E-16
 53.5230865   5.297548928E-16
 53.6924629   6.999337116E-16
 53.8618431   8.577397613E-16
 54.0312195   9.9206934E-16
 54.2005959   1.091529431E-15
 54.3699722   1.144972445E-15
 54.5393486   1.142088192E-15
 54.708725   1.074040212E-15
 54.8781013   9.341225456E-16
 55.0474777   7.184099884E-16
 55.2168579   4.263631131E-16
 55.3862343   6.134655311E-17
 55.5556107   -3.689865042E-16
 55.724987   -8.524904335E-16
 55.8943634   -1.372540764E-15
 56.0637398   -1.908295773E-15
 56.2331161   -2.435218876E-15
 56.4024925   -2.925860382E-15
 56.5718727   -3.350877374E-15
 56.7412491   -3.680259476E-15
 56.9106255   -3.884711631E-15
 57.0800018   -3.937138311E-15
 57.2493782   -3.814166068E-15
 57.4187546   -3.497642138E-15
 57.588131   -2.976039884E-15
 57.7575111   -2.245704783E-15
 57.9268875   -1.311877429E-15
 58.0962639   -1.894229177E-16
 58.2656403   1.096786753E-15
 58.4350166   2.511896746E-15
 58.604393   4.011535756E-15
 58.7737694   5.542748555E-15
 58.9431458   7.045399403E-15
 59.1125259   8.454017312E-15
 59.2819023   9.700034965E-15
 59.4512787   1.071435099E-14
 59.6206551   1.143011755E-14
 59.7900314   1.17856537E-14
 59.9594078   1.172736851E-14
 60.1287842   1.121258424E-14
 60.2981606   1.021215447E-14
 60.4675407   8.712784183E-15
 60.6369171   6.71897154E-15
 60.8062935   4.254495722E-15
 60.9756699   1.363392385E-15
 61.1450462   -1.889616368E-15
 61.3144226   -5.419288844E-15
 61.483799   -9.120651723E-15
 61.6531754   -1.287039458E-14
 61.8225555   -1.652890098E-14
 61.9919319   -1.994285203E-14
 62.1613083   -2.294837395E-14
 62.3306847   -2.537462021E-14
 62.500061   -2.704773898E-14
 62.6694374   -2.779501855E-14
 62.8388138   -2.744916145E-14
 63.0081902   -2.58524586E-14
 63.1775703   -2.286075009E-14
 63.3469467   -1.834706229E-14
 63.5163231   -1.220473341E-14
 63.6856995   -4.349996569E-15
 63.8550758   5.276056844E-15
 64.0244522   1.670613924E-14
 64.1938324   2.994606042E-14
 64.363205   4.497464751E-14
 64.5325851   6.174404656E-14
 64.7019577   8.01805928E-14
 64.8713379   1.001859254E-13
 65.0407181   1.216383765E-13
 65.2100906   1.443945468E-13
 65.3794708   1.682910403E-13
 65.5488434   1.931462938E-13
 65.7182236   2.187625623E-13
 65.8875961   2.449279928E-13
 66.0569763   2.714188737E-13
 66.2263489   2.98001966E-13
 66.3957291   3.244371731E-13
 66.5651093   3.504800887E-13
 66.7344818   3.758850598E-13
 66.903862   4.004077072E-13
 67.0732346   4.238082053E-13
 67.2426147   4.458541013E-13
 67.4119873   4.663229438E-13
 67.5813675   4.85005482E-13
 67.7507477   5.017081585E-13
 67.9201202   5.162558749E-13
 68.0895004   5.284948369E-13
 68.258873   5.382951571E-13
 68.4282532   5.455536739E-13
 68.5976257   5.50196607E-13
 68.7670059   5.521825944E-13
 68.9363785   5.515052933E-13
 69.1057587   5.481958203E-13
 69.2751389   5.423256787E-13
 69.4445114   5.340088723E-13
 69.6138916   5.234035319E-13
 69.7832642   5.107132707E-13
 69.9526443   4.961874553E-13
 70.1220169   4.801207717E-13
 70.2913971   4.628510032E-13
 70.4607773   4.447563737E-13
 70.6301498   4.262505876E-13
 70.79953   4.077765686E-13
 70.9689026   3.897988974E-13
 71.1382828   3.727944331E-13
 71.3076553   3.572419866E-13
 71.4770355   3.436110717E-13
 71.6464081   3.323502226E-13
 71.8157883   3.23875204E-13
 71.9851685   3.185581139E-13
 72.154541   3.167171657E-13
 72.3239212   3.186082312E-13
 72.4932938   3.244179556E-13
 72.662674   3.342593671E-13
 72.8320465   3.481690847E-13
 73.0014267   3.661073994E-13
 73.1708069   3.879597923E-13
 73.3401794   4.135408921E-13
 73.5095596   4.425998684E-13
 73.6789322   4.748271546E-13
 73.8483124   5.098626057E-13
 74.0176849   5.473043893E-13
 74.1870651   5.867186077E-13
 74.3564453   6.276489203E-13
 74.5258179   6.696271142E-13
 74.6951981   7.121827542E-13
 74.8645706   7.548529943E-13
 75.0339508   7.971917939E-13
 75.2033234   8.387780488E-13
 75.3727036   8.79223235E-13
 75.5420761   9.181776433E-13
 75.7114563   9.553354201E-13
 75.8808365   9.904382002E-13
 76.050209   1.023277275E-12
 76.2195892   1.053694783E-12
 76.3889618   1.081582957E-12
 76.558342   1.106882598E-12
 76.7277145   1.12958037E-12
 76.8970947   1.149704572E-12
 77.0664749   1.167321448E-12
 77.2358475   1.182530419E-12
 77.4052277   1.195458337E-12
 77.5746002   1.206255148E-12
 77.7439804   1.215087709E-12
 77.913353   1.222136216E-12
 78.0827332   1.227588669E-12
 78.2521057   1.231636971E-12
 78.4214859   1.234472051E-12
 78.5908661   1.236280501E-12
 78.7602386   1.237240128E-12
 78.9296188   1.237516274E-12
 79.0989914   1.237257584E-12
 79.2683716   1.236592426E-12
 79.4377441   1.235624558E-12
 79.6071243   1.234429442E-12
 79.7765045   1.233050662E-12
 79.9458771   1.231496892E-12
 80.1152573   1.229739509E-12
 80.2846298   1.227710641E-12
 80.45401   1.225302195E-12
 80.6233826   1.222366934E-12
 80.7927628   1.218718811E-12
 80.9621429   1.214135888E-12
 81.1315155   1.208363379E-12
 81.3008957   1.201118415E-12
 81.4702682   1.192094817E-12
 81.6396484   1.18096971E-12
 81.809021   1.167410244E-12
 81.9784012   1.151081617E-12
 82.1477737   1.131655316E-12
 82.3171539   1.108817682E-12
 82.4865341   1.082279774E-12
 82.6559067   1.051786371E-12
 82.8252869   1.017125837E-12
 82.9946594   9.781385771E-13
 83.1640396   9.347262547E-13
 83.3334122   8.868580241E-13
 83.5027924   8.345774159E-13
 83.6721725   7.780056438E-13
 83.8415451   7.173437734E-13
 84.0109253   6.528721791E-13
 84.1802979   5.849471298E-13
 84.349678   5.139954217E-13
 84.5190506   4.405057861E-13
 84.6884308   3.650175594E-13
 84.8578033   2.881072388E-13
 85.0271835   2.103728568E-13
 85.1965637   1.324166606E-13
 85.3659363   5.48265792E-14
 85.5353165   -2.184281639E-14
 85.704689   -9.708875278E-14
 85.8740692   -1.704776186E-13
 86.0434418   -2.416602075E-13
 86.212822   -3.103837716E-13
 86.3822021   -3.765002362E-13
 86.5515747   -4.399701361E-13
 86.7209549   -5.008613424E-13
 86.8903275   -5.59343316E-13
 87.0597076   -6.156765093E-13
 87.2290802   -6.701974587E-13
 87.3984604   -7.233003259E-13
 87.5678329   -7.754162438E-13
 87.7372131   -8.269908738E-13
 87.9065933   -8.784616914E-13
 88.0759659   -9.30235923E-13
 88.2453461   -9.826701085E-13
 88.4147186   -1.036051887E-12
 88.5840988   -1.090585413E-12
 88.7534714   -1.146379107E-12
 88.9228516   -1.203439041E-12
 89.0922318   -1.26166395E-12
 89.2616043   -1.320847403E-12
 89.4309845   -1.38068116E-12
 89.6003571   -1.440764391E-12
 89.7697372   -1.500615387E-12
 89.9391098   -1.559688034E-12
 90.10849   -1.617389816E-12
 90.2778702   -1.673102629E-12
 90.4472427   -1.726205333E-12
 90.6166229   -1.776097281E-12
 90.7859955   -1.822221627E-12
 90.9553757   -1.86408766E-12
 91.1247482   -1.901292708E-12
 91.2941284   -1.933539917E-12
 91.463501   -1.960654078E-12
 91.6328812   -1.98259356E-12
 91.8022614   -1.999457024E-12
 91.9716339   -2.011486464E-12
 92.1410141   -2.019063085E-12
 92.3103867   -2.022699933E-12
 92.4797668   -2.023025844E-12
 92.6491394   -2.020767017E-12
 92.8185196   -2.016721425E-12
 92.9878998   -2.011729542E-12
 93.1572723   -2.006641815E-12
 93.3266525   -2.00228549E-12
 93.4960251   -1.999429485E-12
 93.6654053   -1.998751858E-12
 93.8347778   -2.000810542E-12
 94.004158   -2.006018181E-12
 94.1735306   -2.014624145E-12
 94.3429108   -2.026703024E-12
 94.512291   -2.042150954E-12
 94.6816635   -2.060688209E-12
 94.8510437   -2.081872435E-12
 95.0204163   -2.105114043E-12
 95.1897964   -2.12970158E-12
 95.359169   -2.154827532E-12
 95.5285492   -2.179621067E-12
 95.6979294   -2.203179262E-12
 95.8673019   -2.224601796E-12
 96.0366821   -2.243022174E-12
 96.2060547   -2.257638304E-12
 96.3754349   -2.267739382E-12
 96.5448074   -2.272728446E-12
 96.7141876   -2.272137773E-12
 96.8835602   -2.26564145E-12
 97.0529404   -2.2530582E-12
 97.2223206   -2.234351376E-12
 97.3916931   -2.209620724E-12
 97.5610733   -2.179090892E-12
 97.7304459   -2.143094513E-12
 97.899826   -2.102054858E-12
 98.0691986   -2.056463723E-12
 98.2385788   -2.006860823E-12
 98.407959   -1.953811895E-12
 98.5773315   -1.897888097E-12
 98.7467117   -1.83964519E-12
 98.9160843   -1.779607278E-12
 99.0854645   -1.718250217E-12
 99.254837   -1.655988497E-12
 99.4242172   -1.593165812E-12
 99.5935974   -1.530049633E-12
 99.76297   -1.466828612E-12
 99.9323502   -1.40361518E-12
 100.101723   -1.340451621E-12
 100.271103   -1.277320697E-12
 100.440475   -1.214157247E-12
 100.609856   -1.150864668E-12
 100.779228   -1.087330638E-12
 100.948608   -1.023444892E-12
 101.117989   -9.591149489E-13
 101.287361   -8.94282749E-13
 101.456741   -8.289372877E-13
 101.626114   -7.631262701E-13
 101.795494   -6.969651635E-13
 101.964867   -6.306423482E-13
 102.134247   -5.644224779E-13
 102.303627   -4.986457753E-13
 102.473   -4.337245623E-13
 102.64238   -3.701362676E-13
 102.811752   -3.08413966E-13
 102.981133   -2.491341009E-13
 103.150505   -1.929023076E-13
 103.319885   -1.403380043E-13
 103.489258   -9.205847483E-14
 103.658638   -4.86626493E-14
 103.828018   -1.071550634E-14
 103.997391   2.126685601E-14
 104.166771   4.683134373E-14
 104.336143   6.560075698E-14
 104.505524   7.728565102E-14
 104.674896   8.169507415E-14
 104.844276   7.874590872E-14
 105.013657   6.847070111E-14
 105.183029   5.10234487E-14
 105.352409   2.66830896E-14
 105.521782   -4.146146232E-15
 105.691162   -4.093818654E-14
 105.860535   -8.3052746E-14
 106.029915   -1.297476259E-13
 106.199295   -1.801959732E-13
 106.368668   -2.335080913E-13
 106.538048   -2.887575704E-13
 106.70742   -3.450106683E-13
 106.876801   -4.01357902E-13
 107.046173   -4.569460045E-13
 107.215553   -5.110086616E-13
 107.384926   -5.628941323E-13
 107.554306   -6.12088017E-13
 107.723686   -6.58229493E-13
 107.893059   -7.011205852E-13
 108.062439   -7.407280084E-13
 108.231812   -7.771775844E-13
 108.401192   -8.107426948E-13
 108.570564   -8.418279095E-13
 108.739944   -8.709483872E-13
 108.909325   -8.987074865E-13
 109.078697   -9.257735637E-13
 109.248077   -9.528562835E-13
 109.41745   -9.806835248E-13
 109.58683   -1.009980185E-12
 109.756203   -1.041447419E-12
 109.925583   -1.075743661E-12
 110.094955   -1.11346609E-12
 110.264336   -1.15513404E-12
 110.433716   -1.201172842E-12
 110.603088   -1.251898758E-12
 110.772469   -1.307504994E-12
 110.941841   -1.368049771E-12
 111.111221   -1.433446786E-12
 111.280594   -1.503456431E-12
 111.449974   -1.577682212E-12
 111.619354   -1.655569128E-12
 111.788727   -1.736407784E-12
 111.958107   -1.819342853E-12
 112.12748   -1.903388254E-12
 112.29686   -1.987448183E-12
 112.466232   -2.070343679E-12
 112.635612   -2.150844607E-12
 112.804985   -2.227706084E-12
 112.974365   -2.299706215E-12
 113.143745   -2.365684038E-12
 113.313118   -2.424576382E-12
 113.482498   -2.475450183E-12
 113.651871   -2.51752872E-12
 113.821251   -2.550213729E-12
 113.990623   -2.573097551E-12
 114.160004   -2.585971801E-12
 114.329384   -2.588826072E-12
 114.498756   -2.581843159E-12
 114.668137   -2.565387356E-12
 114.837509   -2.539990353E-12
 115.006889   -2.506332164E-12
 115.176262   -2.465219652E-12
 115.345642   -2.417563545E-12
 115.515022   -2.364352204E-12
 115.684395   -2.306627328E-12
 115.853775   -2.245456642E-12
 116.023148   -2.181910251E-12
 116.192528   -2.11703528E-12
 116.3619   -2.051835264E-12
 116.531281   -1.987250425E-12
 116.700653   -1.924139233E-12
 116.870033   -1.863264317E-12
 117.039413   -1.805278149E-12
 117.208786   -1.750711989E-12
 117.378166   -1.699966773E-12
 117.547539   -1.653306615E-12
 117.716919   -1.610855763E-12
 117.886292   -1.572598171E-12
 118.055672   -1.538382702E-12
 118.225052   -1.507932342E-12
 118.394424   -1.480859055E-12
 118.563805   -1.456683732E-12
 118.733177   -1.434862103E-12
 118.902557   -1.414814663E-12
 119.07193   -1.395959737E-12
 119.24131   -1.377748284E-12
 119.410683   -1.359698378E-12
 119.580063   -1.341426102E-12
 119.749443   -1.322673308E-12
 119.918816   -1.303328973E-12
 120.088196   -1.283442103E-12
 120.257568   -1.263227695E-12
 120.426949   -1.243064896E-12
 120.596321   -1.223484747E-12
 120.765701   -1.205153815E-12
 120.935081   -1.188849041E-12
 121.104454   -1.175430413E-12
 121.273834   -1.165809311E-12
 121.443207   -1.16091609E-12
 121.612587   -1.161666791E-12
 121.78196   -1.168930621E-12
 121.95134   -1.183498178E-12
 122.12072   -1.206051101E-12
 122.290092   -1.23713496E-12
 122.459473   -1.277133455E-12
 122.628845   -1.326248681E-12
 122.798225   -1.384485734E-12
 122.967598   -1.451643818E-12
 123.136978   -1.527313974E-12
 123.306351   -1.610885579E-12
 123.475731   -1.70156055E-12
 123.645111   -1.798374492E-12
 123.814484   -1.900225637E-12
 123.983864   -2.005909111E-12
 124.153236   -2.11415347E-12
 124.322617   -2.223660492E-12
 124.491989   -2.333142143E-12
 124.661369   -2.441356579E-12
 124.83075   -2.547140233E-12
 125.000122   -2.649436009E-12
 125.169502   -2.747317781E-12
 125.338875   -2.840009694E-12
 125.508255   -2.926902644E-12
 125.677628   -3.007566201E-12
 125.847008   -3.081754903E-12
 126.01638   -3.149410203E-12
 126.18576   -3.210658735E-12
 126.355141   -3.265803209E-12
 126.524513   -3.315308531E-12
 126.693893   -3.359786191E-12
 126.863266   -3.399969325E-12
 127.032646   -3.436690385E-12
 127.202019   -3.470852512E-12
 127.371399   -3.503402429E-12
 127.540779   -3.535301609E-12
 127.710152   -3.56749786E-12
 127.879532   -3.60089996E-12
 128.048904   -3.636348818E-12
 128.218277   -3.674589712E-12
 128.387665   -3.716245627E-12
 128.557037   -3.761790358E-12
 128.72641   -3.811525748E-12
 128.895798   -3.865555879E-12
 129.06517   -3.923775367E-12
 129.234543   -3.985858518E-12
 129.403915   -4.051255859E-12
 129.573303   -4.119201074E-12
 129.742676   -4.188724454E-12
 129.912048   -4.25866677E-12
 130.081436   -4.327701392E-12
 130.250809   -4.394359009E-12
 130.420181   -4.457047578E-12
 130.589554   -4.514076613E-12
 130.758942   -4.563681898E-12
 130.928314   -4.604048479E-12
 131.097687   -4.633342755E-12
 131.267059   -4.649739795E-12
 131.436447   -4.651466278E-12
 131.60582   -4.636839957E-12
 131.775192   -4.604314326E-12
 131.94458   -4.552526758E-12
 132.113953   -4.480336675E-12
 132.283325   -4.386867172E-12
 132.452698   -4.271526275E-12
 132.622086   -4.134028189E-12
 132.791458   -3.97440067E-12
 132.960831   -3.792983289E-12
 133.130219   -3.590419845E-12
 133.299591   -3.367642103E-12
 133.468964   -3.125858296E-12
 133.638336   -2.866530147E-12
 133.807724   -2.591350095E-12
 133.977097   -2.302217878E-12
 134.146469   -2.001206709E-12
 134.315857   -1.690531504E-12
 134.485229   -1.372506926E-12
 134.654602   -1.049503691E-12
 134.823975   -7.239037386E-13
 134.993362   -3.980549885E-13
 135.162735   -7.422717768E-14
 135.332108   2.454242322E-13
 135.501495   5.588903364E-13
 135.670868   8.643323145E-13
 135.84024   1.160103047E-12
 136.009613   1.444762062E-12
 136.179001   1.717091638E-12
 136.348373   1.976112633E-12
 136.517746   2.221099389E-12
 136.687119   2.451595784E-12
 136.856506   2.667426826E-12
 137.025879   2.868703972E-12
 137.195251   3.055823389E-12
 137.364639   3.229452296E-12
 137.534012   3.390505758E-12
 137.703384   3.540113515E-12
 137.872757   3.67957791E-12
 138.042145   3.810328355E-12
 138.211517   3.933871458E-12
 138.38089   4.051743316E-12
 138.550278   4.165465282E-12
 138.71965   4.276500595E-12
 138.889023   4.386220553E-12
 139.058395   4.495872424E-12
 139.227783   4.606554287E-12
 139.397156   4.719193352E-12
 139.566528   4.834527743E-12
 139.735916   4.953099562E-12
 139.905289   5.075250983E-12
 140.074661   5.201131192E-12
 140.244034   5.330711567E-12
 140.413422   5.46380996E-12
 140.582794   5.600118026E-12
 140.752167   5.739230272E-12
 140.921555   5.880668782E-12
 141.090927   6.0239062E-12
 141.2603   6.168380043E-12
 141.429672   6.313498335E-12
 141.59906   6.45864395E-12
 141.768433   6.60317287E-12
 141.937805   6.74641289E-12
 142.107193   6.88766405E-12
 142.276566   7.026205139E-12
 142.445938   7.161305403E-12
 142.615311   7.292244066E-12
 142.784698   7.418328972E-12
 142.954071   7.538926081E-12
 143.123444   7.653475076E-12
 143.292816   7.761511919E-12
 143.462204   7.862674921E-12
 143.631577   7.956718617E-12
 143.800949   8.043506833E-12
 143.970337   8.123021353E-12
 144.139709   8.19535672E-12
 144.309082   8.260725437E-12
 144.478455   8.319460572E-12
 144.647842   8.372011417E-12
 144.817215   8.418949565E-12
 144.986588   8.460955894E-12
 145.155975   8.498818836E-12
 145.325348   8.533409222E-12
 145.49472   8.565663803E-12
 145.664093   8.596560096E-12
 145.833481   8.627083423E-12
 146.002853   8.658203494E-12
 146.172226   8.690844919E-12
 146.341614   8.725862047E-12
 146.510986   8.764026831E-12
 146.680359   8.806007139E-12
 146.849731   8.852360685E-12
 147.019119   8.903526354E-12
 147.188492   8.959805987E-12
 147.357864   9.021357446E-12
 147.527252   9.088181596E-12
 147.696625   9.160117977E-12
 147.865997   9.23683352E-12
 148.03537   9.317832096E-12
 148.204758   9.402457979E-12
 148.37413   9.489913196E-12
 148.543503   9.579274006E-12
 148.712891   9.669516056E-12
 148.882263   9.759534327E-12
 149.051636   9.848171757E-12
 149.221008   9.93423746E-12
 149.390396   1.001652667E-11
 149.559769   1.009383983E-11
 149.729141   1.016499818E-11
 149.898514   1.022885075E-11
 150.067902   1.028429425E-11
 150.237274   1.033027743E-11
 150.406647   1.036582192E-11
 150.576035   1.039001957E-11
 150.745407   1.040204468E-11
 150.91478   1.040115303E-11
 151.084152   1.038667156E-11
 151.25354   1.035799311E-11
 151.422913   1.031454869E-11
 151.592285   1.025580749E-11
 151.761673   1.018126035E-11
 151.931046   1.009041635E-11
 152.100418   9.98281232E-12
 152.269791   9.858031058E-12
 152.439178   9.715720416E-12
 152.608551   9.555627123E-12
 152.777924   9.377628882E-12
 152.947311   9.181762989E-12
 153.116684   8.968263632E-12
 153.286057   8.737576634E-12
 153.455429   8.490373335E-12
 153.624817   8.227560126E-12
 153.794189   7.950264579E-12
 153.963562   7.659830235E-12
 154.13295   7.357798398E-12
 154.302322   7.045882541E-12
 154.471695   6.725942719E-12
 154.641068   6.399963458E-12
 154.810455   6.070016885E-12
 154.979828   5.738235841E-12
 155.1492   5.406777456E-12
 155.318588   5.077791052E-12
 155.487961   4.753381282E-12
 155.657333   4.435576038E-12
 155.826706   4.126291323E-12
 155.996094   3.827304793E-12
 156.165466   3.540220851E-12
 156.334839   3.266450695E-12
 156.504211   3.007188248E-12
 156.673599   2.763396716E-12
 156.842972   2.53580208E-12
 157.012344   2.324894183E-12
 157.181732   2.13093757E-12
 157.351105   1.953987102E-12
 157.520477   1.793915277E-12
 157.68985   1.650436732E-12
 157.859238   1.523145325E-12
 158.02861   1.411542758E-12
 158.197983   1.31507717E-12
 158.367371   1.233173177E-12
 158.536743   1.165264391E-12
 158.706116   1.110819011E-12
 158.875488   1.069360637E-12
 159.044876   1.040484864E-12
 159.214249   1.02386849E-12
 159.383621   1.019277544E-12
 159.553009   1.026569671E-12
 159.722382   1.04569554E-12
 159.891754   1.076697217E-12
 160.061127   1.119703614E-12
 160.230515   1.174924849E-12
 160.399887   1.242645635E-12
 160.56926   1.323219854E-12
 160.738647   1.417064816E-12
 160.90802   1.524657679E-12
 161.077393   1.646529918E-12
 161.246765   1.783259521E-12
 161.416153   1.935455485E-12
 161.585526   2.103736022E-12
 161.754898   2.28869766E-12
 161.924286   2.490879681E-12
 162.093658   2.710722705E-12
 162.263031   2.94852749E-12
 162.432404   3.204410695E-12
 162.601791   3.478268021E-12
 162.771164   3.76973756E-12
 162.940536   4.078170961E-12
 163.109909   4.402614991E-12
 163.279297   4.741798967E-12
 163.448669   5.094134316E-12
 163.618042   5.457725851E-12
 163.78743   5.830391291E-12
 163.956802   6.209687278E-12
 164.126175   6.592946675E-12
 164.295547   6.977321498E-12
 164.464935   7.359836698E-12
 164.634308   7.737441764E-12
 164.80368   8.107074907E-12
 164.973068   8.465726384E-12
 165.142441   8.810485327E-12
 165.311813   9.138594395E-12
 165.481186   9.447475788E-12
 165.650574   9.734756404E-12
 165.819946   9.998279982E-12
 165.989319   1.023611057E-11
 166.158707   1.044653079E-11
 166.328079   1.062804098E-11
 166.497452   1.077935224E-11
 166.666824   1.089938643E-11
 166.836212   1.098727099E-11
 167.005585   1.104233805E-11
 167.174957   1.106412184E-11
 167.344345   1.105236649E-11
 167.513718   1.100702949E-11
 167.68309   1.092827825E-11
 167.852463   1.08164944E-11
 168.021851   1.067226602E-11
 168.191223   1.049637634E-11
 168.360596   1.028979419E-11
 168.529968   1.005366883E-11