 0.   2.901068612E-18
 0.169056863   2.901130031E-18
 0.338113725   2.901241493E-18
 0.507170618   2.901382941E-18
 0.67622745   2.9015308E-18
 0.845284343   2.901662528E-18
 1.01434124   2.901761376E-18
 1.18339813   2.901820106E-18
 1.3524549   2.901842853E-18
 1.52151179   2.901843887E-18
 1.69056869   2.90184306E-18
 1.85962558   2.901862706E-18
 2.02868247   2.901919368E-18
 2.19773936   2.902021731E-18
 2.36679626   2.902167315E-18
 2.53585315   2.902343505E-18
 2.7049098   2.902530241E-18
 2.87396669   2.902704155E-18
 3.04302359   2.90284519E-18
 3.21208048   2.902939075E-18
 3.38113737   2.902983329E-18
 3.55019426   2.902986224E-18
 3.71925116   2.902963683E-18
 3.88830805   2.902938868E-18
 4.05736494   2.902934525E-18
 4.22642183   2.902968646E-18
 4.39547873   2.903049503E-18
 4.56453562   2.903174614E-18
 4.73359251   2.903330331E-18
 4.9026494   2.903496594E-18
 5.0717063   2.90365045E-18
 5.24076319   2.903772252E-18
 5.4098196   2.903850628E-18
 5.5788765   2.903883301E-18
 5.74793339   2.903879372E-18
 5.91699028   2.903857245E-18
 6.08604717   2.903837806E-18
 6.25510406   2.903842563E-18
 6.42416096   2.90388723E-18
 6.59321785   2.903977807E-18
 6.76227474   2.904109742E-18
 6.93133163   2.904269595E-18
 7.10038853   2.904435651E-18
 7.26944542   2.904585164E-18
 7.43850231   2.904698901E-18
 7.6075592   2.904765903E-18
 7.7766161   2.904785548E-18
 7.94567299   2.904766523E-18
 8.11472988   2.904727439E-18
 8.28378677   2.904690423E-18
 8.45284367   2.904676567E-18
 8.62190056   2.904701176E-18
 8.79095745   2.904769625E-18
 8.96001434   2.904875504E-18
 9.12907124   2.905004131E-18
 9.29812813   2.905134205E-18
 9.46718502   2.9052436E-18
 9.63624191   2.90531329E-18
 9.80529881   2.905334796E-18
 9.9743557   2.905308947E-18
 10.1434126   2.905246908E-18
 10.3124695   2.905168326E-18
 10.4815264   2.905096982E-18
 10.6505823   2.905053762E-18
 10.8196392   2.905051694E-18
 10.9886961   2.905096362E-18
 11.157753   2.905179493E-18
 11.3268099   2.905285372E-18
 11.4958668   2.905391458E-18
 11.6649237   2.905474797E-18
 11.8339806   2.905517397E-18
 12.0030375   2.905509125E-18
 12.1720943   2.90545391E-18
 12.3411512   2.905366022E-18
 12.5102081   2.90526614E-18
 12.679265   2.90517908E-18
 12.8483219   2.905124693E-18
 13.0173788   2.9051158E-18
 13.1864357   2.905155298E-18
 13.3554926   2.905232433E-18
 13.5245495   2.90532942E-18
 13.6936064   2.905423098E-18
 13.8626633   2.905490927E-18
 14.0317202   2.905515742E-18
 14.2007771   2.905490927E-18
 14.3698339   2.905419789E-18
 14.5388908   2.905316805E-18
 14.7079477   2.905202861E-18
 14.8770046   2.905101531E-18
 15.0460615   2.905031842E-18
 15.2151184   2.905004751E-18
 15.3841753   2.905020054E-18
 15.5532322   2.905066997E-18
 15.7222891   2.905125933E-18
 15.891346   2.90517391E-18
 16.0604019   2.905189833E-18
 16.2294598   2.905161088E-18
 16.3985157   2.90508354E-18
 16.5675735   2.904966287E-18
 16.7366295   2.90482608E-18
 16.9056873   2.90468546E-18
 17.0747433   2.904567586E-18
 17.2438011   2.904490865E-18
 17.4128571   2.904465223E-18
 17.5819149   2.904489211E-18
 17.7509708   2.90455249E-18
 17.9200287   2.904634795E-18
 18.0890846   2.904713997E-18
 18.2581425   2.904768178E-18
 18.4271984   2.904782447E-18
 18.5962563   2.904752048E-18
 18.7653122   2.904683805E-18
 18.93437   2.904592402E-18
 19.103426   2.904498724E-18
 19.2724838   2.904424277E-18
 19.4415398   2.904385607E-18
 19.6105976   2.904387675E-18
 19.7796535   2.904427793E-18
 19.9487114   2.904491072E-18
 20.1177673   2.904557453E-18
 20.2868252   2.904604396E-18
 20.4558811   2.904615149E-18
 20.624939   2.904579167E-18
 20.7939949   2.904497069E-18
 20.9630527   2.90438023E-18
 21.1321087   2.904248295E-18
 21.3011646   2.904123804E-18
 21.4702225   2.904027851E-18
 21.6392784   2.903974705E-18
 21.8083363   2.903967674E-18
 21.9773922   2.90400014E-18
 22.14645   2.904055562E-18
 22.315506   2.904113051E-18
 22.4845638   2.90415441E-18
 22.6536198   2.904167024E-18
 22.8226776   2.90414924E-18
 22.9917336   2.904109122E-18
 23.1607914   2.904063627E-18
 23.3298473   2.904031367E-18
 23.4989052   2.904026197E-18
 23.6679611   2.904052873E-18
 23.837019   2.904102504E-18
 24.0060749   2.904152755E-18
 24.1751328   2.904170126E-18
 24.3441887   2.904121322E-18
 24.5132465   2.903977393E-18
 24.6823025   2.903726757E-18
 24.8513603   2.903382857E-18
 25.0204163   2.902989119E-18
 25.1894741   2.902617508E-18
 25.35853   2.902362116E-18
 25.5275879   2.902326961E-18
 25.6966438   2.902599931E-18
 25.8657017   2.903234378E-18
 26.0347576   2.904228029E-18
 26.2038155   2.90550623E-18
 26.3728714   2.906916366E-18
 26.5419292   2.908239855E-18
 26.7109852   2.909213653E-18
 26.880043   2.909568307E-18
 27.049099   2.90907448E-18
 27.2181568   2.907591552E-18
 27.3872128   2.905113732E-18
 27.5562706   2.901801494E-18
 27.7253265   2.897997911E-18
 27.8943844   2.89421356E-18
 28.0634403   2.891082268E-18
 28.2324982   2.889285631E-18
 28.4015541   2.889448172E-18
 28.57061   2.892011398E-18
 28.7396679   2.897107658E-18
 28.9087238   2.904457985E-18
 29.0777817   2.913311713E-18
 29.2468376   2.922460537E-18
 29.4158955   2.93034605E-18
 29.5849514   2.935258675E-18
 29.7540092   2.935621394E-18
 29.9230652   2.930317926E-18
 30.092123   2.919013469E-18
 30.261179   2.902401407E-18
 30.4302368   2.882315394E-18
 30.5992928   2.861641462E-18
 30.7683506   2.844018172E-18
 30.9374065   2.833326656E-18
 31.1064644   2.833029491E-18
 31.2755203   2.845454571E-18
 31.4445782   2.871138529E-18
 31.6136341   2.908377167E-18
 31.782692   2.95308814E-18
 31.9517479   2.999080002E-18
 32.1208038   3.038742279E-18
 32.2898636   3.064105084E-18
 32.4589195   3.068145034E-18
 32.6279755   3.046139548E-18
 32.7970314   2.996845788E-18
 32.9660912   2.92326497E-18
 33.1351471   2.832800776E-18
 33.304203   2.736703689E-18
 33.473259   2.648805823E-18
 33.6423187   2.583668244E-18
 33.8113747   2.55438481E-18
 33.9804306   2.570372143E-18
 34.1494865   2.635501863E-18
 34.3185463   2.746906341E-18
 34.4876022   2.894701596E-18
 34.6566582   3.062739202E-18
 34.8257141   3.230339022E-18
 34.9947739   3.374809632E-18
 35.1638298   3.47443361E-18
 35.3328857   3.511516117E-18
 35.5019417   3.475085429E-18
 35.6709976   3.362868866E-18
 35.8400574   3.182242812E-18
 36.0091133   2.950006685E-18
 36.1781693   2.690936613E-18
 36.3472252   2.435230683E-18
 36.5162849   2.215097863E-18
 36.6853409   2.060840053E-18
 36.8543968   1.99687459E-18
 37.0234528   2.038189366E-18
 37.1925125   2.187713015E-18
 37.3615685   2.435032781E-18
 37.5306244   2.756751445E-18
 37.6996803   3.118586301E-18
 37.8687401   3.479065408E-18
 38.037796   3.794439184E-18
 38.206852   4.024183636E-18
 38.3759079   4.13633816E-18
 38.5449677   4.111904485E-18
 38.7140236   3.947625175E-18
 38.8830795   3.656701617E-18
 39.0521355   3.267350805E-18
 39.2211952   2.819418235E-18
 39.3902512   2.35958998E-18
 39.5593071   1.935920064E-18
 39.728363   1.592456269E-18
 39.8974228   1.364641216E-18
 40.0664787   1.275972727E-18
 40.2355347   1.336147842E-18
 40.4045906   1.540677864E-18
 40.5736504   1.871800745E-18
 40.7427063   2.300436433E-18
 40.9117622   2.788950898E-18
 41.0808182   3.294550158E-18
 41.2498779   3.773164098E-18
 41.4189339   4.183664058E-18
 41.5879898   4.492161067E-18
 41.7570457   4.675968458E-18
 41.9261055   4.726634924E-18
 42.0951614   4.651391267E-18
 42.2642174   4.472406753E-18
 42.4332733   4.223514725E-18
 42.6023293   3.944525315E-18
 42.771389   3.673779588E-18
 42.9404449   3.44014656E-18
 43.1095009   3.256018017E-18
 43.2785568   3.112927972E-18
 43.4476166   2.981147967E-18
 43.6166725   2.813984899E-18
 43.7857285   2.556613441E-18
 43.9547844   2.158372092E-18
 44.1238441   1.586591765E-18
 44.2929001   8.395035874E-19
 44.461956   -4.433196945E-20
 44.631012   -9.823016894E-19
 44.8000717   -1.851212427E-18
 44.9691277   -2.498443619E-18
 45.1381836   -2.76010132E-18
 45.3072395   -2.484476261E-18
 45.4762993   -1.558105629E-18
 45.6453552   6.876972171E-20
 45.8144112   2.360993085E-18
 45.9834671   5.184967016E-18
 46.1525269   8.305933116E-18
 46.3215828   1.139827835E-17
 46.4906387   1.406992532E-17
 46.6596947   1.590035194E-17
 46.8287544   1.649002749E-17
 46.9978104   1.55171539E-17
 47.1668663   1.279587362E-17
 47.3359222   8.328705398E-18
 47.504982   2.345252044E-18
 47.6740379   -4.680625898E-18
 47.8430939   -1.204166026E-17
 48.0121498   -1.884007739E-17
 48.1812096   -2.406312573E-17
 48.3502655   -2.668753324E-17
 48.5193214   -2.580465194E-17
 48.6883774   -2.075402609E-17
 48.8574371   -1.125004924E-17
 49.0264931   2.515092077E-18
 49.195549   1.980822778E-17
 49.3646049   3.934486569E-17
 49.5336647   5.933983941E-17
 49.7027206   7.762065007E-17
 49.8717766   9.17979699E-17
 50.0408325   9.948067123E-17
 50.2098885   9.851731022E-17
 50.3789482   8.724148851E-17
 50.5480042   6.469770662E-17
 50.7170601   3.082458774E-17
 50.886116   -1.342387906E-17
 51.0551758   -6.603327243E-17
 51.2242317   -1.239681952E-16
 51.3932877   -1.832971489E-16
 51.5623436   -2.393976101E-16
 51.7314034   -2.872293489E-16
 51.9004593   -3.216595176E-16
 52.0695152   -3.37818921E-16
 52.2385712   -3.314667563E-16
 52.4076309   -2.993407553E-16
 52.5766869   -2.394702432E-16
 52.7457428   -1.514331856E-16
 52.9147987   -3.654091863E-17
 53.0838585   1.020600123E-16
 53.2529144   2.593760733E-16
 53.4219704   4.286465287E-16
 53.5910263   6.01514783E-16
 53.7600861   7.682872058E-16
 53.929142   9.182751944E-16
 54.0981979   1.040216069E-15
 54.2672539   1.122765465E-15
 54.4363136   1.155053726E-15
 54.6053696   1.127294127E-15
 54.7744255   1.031427573E-15
 54.9434814   8.617764027E-16
 55.1125412   6.15678815E-16
 55.2815971   2.940626019E-16
 55.4506531   -9.808593222E-17
 55.619709   -5.514038903E-16
 55.7887688   -1.052027308E-15
 55.9578247   -1.581697445E-15
 56.1268806   -2.11811854E-15
 56.2959366   -2.635577955E-15
 56.4649963   -3.105816978E-15
 56.6340523   -3.499128892E-15
 56.8031082   -3.785643928E-15
 56.9721642   -3.936751217E-15
 57.1412201   -3.926599104E-15
 57.3102798   -3.733608153E-15
 57.4793358   -3.341939059E-15
 57.6483917   -2.742839643E-15
 57.8174477   -1.935810156E-15
 57.9865074   -9.295211449E-16
 58.1555634   2.5757859E-16
 58.3246193   1.597024612E-15
 58.4936752   3.050517373E-15
 58.662735   4.570550396E-15
 58.8317909   6.101508238E-15
 59.0008469   7.581222705E-15
 59.1699028   8.942957763E-15
 59.3389626   1.011775434E-14
 59.5080185   1.103707817E-14
 59.6770744   1.163564924E-14
 59.8461304   1.1854354E-14
 60.0151901   1.164313786E-14
 60.1842461   1.096375052E-14
 60.353302   9.792266688E-15
 60.5223579   8.121267195E-15
 60.6914177   5.961627947E-15
 60.8604736   3.343826037E-15
 61.0295296   3.187365128E-16
 61.1985855   -3.042142123E-15
 61.3676453   -6.647066066E-15
 61.5367012   -1.038502882E-14
 61.7057571   -1.412737115E-14
 61.8748131   -1.772999201E-14
 62.0438728   -2.103612931E-14
 62.2129288   -2.387963416E-14
 62.3819847   -2.608869609E-14
 62.5510406   -2.748984444E-14
 62.7201004   -2.791214119E-14
 62.8891563   -2.71914161E-14
 63.0582123   -2.517436976E-14
 63.2272682   -2.172244454E-14
 63.396328   -1.671525331E-14
 63.5653839   -1.005356619E-14
 63.7344398   -1.661680754E-15
 63.9034958   8.510824424E-15
 64.0725555   2.048797872E-14
 64.2416077   3.426690084E-14
 64.4106674   4.981784299E-14
 64.5797272   6.70847316E-14
 64.7487793   8.598611596E-14
 64.9178391   1.064163338E-13
 65.0868912   1.28247063E-13
 65.2559509   1.513288735E-13
 65.4250107   1.754930565E-13
 65.5940628   2.005534953E-13
 65.7631226   2.263086365E-13
 65.9321823   2.525436186E-13
 66.1012344   2.790325479E-13
 66.2702942   3.055409116E-13
 66.4393463   3.318281522E-13
 66.6084061   3.576504056E-13
 66.7774658   3.827633197E-13
 66.9465179   4.069249549E-13
 67.1155777   4.2989844E-13
 67.2846375   4.514552523E-13
 67.4536896   4.713778738E-13
 67.6227493   4.894623118E-13
 67.7918015   5.05521406E-13
 67.9608612   5.193868339E-13
 68.129921   5.30912174E-13
 68.2989731   5.399757247E-13
 68.4680328   5.464828893E-13
 68.6370926   5.503692662E-13
 68.8061447   5.516029799E-13
 68.9752045   5.501877708E-13
 69.1442566   5.461656518E-13
 69.3133163   5.39618968E-13
 69.4823761   5.306729448E-13
 69.6514282   5.194968262E-13
 69.820488   5.063053926E-13
 69.9895477   4.913586898E-13
 70.1585999   4.749613246E-13
 70.3276596   4.5746035E-13
 70.4967117   4.392419588E-13
 70.6657715   4.207261438E-13
 70.8348312   4.023604908E-13
 71.0038834   3.846119115E-13
 71.1729431   3.679574007E-13
 71.3419952   3.528733024E-13
 71.511055   3.398240348E-13
 71.6801147   3.292504615E-13
 71.8491669   3.215584266E-13
 72.0182266   3.171076954E-13
 72.1872864   3.162023052E-13
 72.3563385   3.190825425E-13
 72.5253983   3.259184101E-13
 72.6944504   3.368056702E-13
 72.8635101   3.517637299E-13
 73.0325699   3.707359669E-13
 73.201622   3.935917889E-13
 73.3706818   4.201307542E-13
 73.5397415   4.500885884E-13
 73.7087936   4.831437984E-13
 73.8778534   5.189262648E-13
 74.0469055   5.570261049E-13
 74.2159653   5.970032953E-13
 74.385025   6.38397809E-13
 74.5540771   6.807394275E-13
 74.7231369   7.235579323E-13
 74.8921967   7.663924833E-13
 75.0612488   8.088006718E-13
 75.2303085   8.503666521E-13
 75.3993607   8.907086765E-13
 75.5684204   9.294843541E-13
 75.7374802   9.663964507E-13
 75.9065323   1.00119522E-12
 76.075592   1.033681604E-12
 76.2446518   1.063706523E-12
 76.4137039   1.091171207E-12
 76.5827637   1.11602459E-12
 76.7518158   1.138260926E-12
 76.9208755   1.15791556E-12
 77.0899353   1.1750607E-12
 77.2589874   1.18980032E-12
 77.4280472   1.202265501E-12
 77.5971069   1.21260944E-12
 77.7661591   1.221001273E-12
 77.9352188   1.227622279E-12
 78.1042709   1.232661109E-12
 78.2733307   1.23630934E-12
 78.4423904   1.238756927E-12
 78.6114426   1.240189158E-12
 78.7805023   1.240781349E-12
 78.9495544   1.240696565E-12
 79.1186142   1.240080629E-12
 79.287674   1.239058227E-12
 79.4567261   1.237729645E-12
 79.6257858   1.236166551E-12
 79.7948456   1.2344083E-12
 79.9638977   1.232460206E-12
 80.1329575   1.230289525E-12
 80.3020096   1.227824808E-12
 80.4710693   1.224954816E-12
 80.6401291   1.221529171E-12
 80.8091812   1.21735933E-12
 80.978241   1.212221187E-12
 81.1473007   1.205858655E-12
 81.3163528   1.197988215E-12
 81.4854126   1.188304121E-12
 81.6544647   1.176484474E-12
 81.8235245   1.162198376E-12
 81.9925842   1.14511406E-12
 82.1616364   1.124906483E-12
 82.3306961   1.101266973E-12
 82.4997559   1.073911684E-12
 82.668808   1.042592011E-12
 82.8378677   1.007102821E-12
 83.0069199   9.672920017E-13
 83.1759796   9.230690214E-13
 83.3450394   8.744110579E-13
 83.5140915   8.213697734E-13
 83.6831512   7.640744049E-13
 83.852211   7.027337154E-13
 84.0212631   6.376351812E-13
 84.1903229   5.691415221E-13
 84.359375   4.976850637E-13
 84.5284348   4.237589012E-13
 84.6974945   3.479055694E-13
 84.8665466   2.707035442E-13
 85.0356064   1.927515222E-13
 85.2046585   1.14650951E-13
 85.3737183   3.698772313E-14
 85.542778   -3.968678007E-14
 85.7118301   -1.148741204E-13
 85.8808899   -1.881457772E-13
 86.0499496   -2.591583361E-13
 86.2190018   -3.27665114E-13
 86.3880615   -3.935244329E-13
 86.5571136   -4.567029263E-13
 86.7261734   -5.172744828E-13
 86.8952332   -5.754139569E-13
 87.0642853   -6.313865988E-13
 87.233345   -6.855326311E-13
 87.4024048   -7.382496307E-13
 87.5714569   -7.899707364E-13
 87.7405167   -8.411433984E-13
 87.9095688   -8.922057429E-13
 88.0786285   -9.435652129E-13
 88.2476883   -9.95577969E-13
 88.4167404   -1.048531162E-12
 88.5858002   -1.102627646E-12
 88.7548599   -1.157975408E-12
 88.923912   -1.214578785E-12
 89.0929718   -1.272336186E-12
 89.2620239   -1.331040204E-12
 89.4310837   -1.39038195E-12
 89.6001434   -1.449960811E-12
 89.7691956   -1.509295184E-12
 89.9382553   -1.567839825E-12
 90.1073151   -1.625002758E-12
 90.2763672   -1.680167615E-12
 90.4454269   -1.732714991E-12
 90.6144791   -1.782045973E-12
 90.7835388   -1.827605775E-12
 90.9525986   -1.868905638E-12
 91.1216507   -1.905545166E-12
 91.2907104   -1.93722924E-12
 91.4597702   -1.963784387E-12
 91.6288223   -1.985170492E-12
 91.7978821   -2.001487517E-12
 91.9669342   -2.012977458E-12
 92.135994   -2.020022604E-12
 92.3050537   -2.023135348E-12
 92.4741058   -2.022944746E-12
 92.6431656   -2.020176561E-12
 92.8122177   -2.015628983E-12
 92.9812775   -2.01014292E-12
 93.1503372   -2.004570121E-12
 93.3193893   -1.99973935E-12
 93.4884491   -1.996422125E-12
 93.6575089   -1.995299759E-12
 93.826561   -1.996934736E-12
 93.9956207   -2.00174469E-12
 94.1646729   -2.009984843E-12
 94.3337326   -2.021735427E-12
 94.5027924   -2.036898645E-12
 94.6718445   -2.055201495E-12
 94.8409042   -2.076206611E-12
 95.009964   -2.099329608E-12
 95.1790161   -2.123862718E-12
 95.3480759   -2.149002113E-12
 95.517128   -2.173878048E-12
 95.6861877   -2.197587381E-12
 95.8552475   -2.219227623E-12
 96.0242996   -2.237928592E-12
 96.1933594   -2.252883644E-12
 96.3624191   -2.263374601E-12
 96.5314713   -2.268796696E-12
 96.700531   -2.26867353E-12
 96.8695831   -2.262670303E-12
 97.0386429   -2.250596627E-12
 97.2077026   -2.232406968E-12
 97.3767548   -2.208193047E-12
 97.5458145   -2.178171922E-12
 97.7148743   -2.14267059E-12
 97.8839264   -2.102107334E-12
 98.0529861   -2.056970479E-12
 98.2220383   -2.007798008E-12
 98.391098   -1.955154788E-12
 98.5601578   -1.899612195E-12
 98.7292099   -1.841728593E-12
 98.8982697   -1.782031011E-12
 99.0673294   -1.720999103E-12
 99.2363815   -1.659052127E-12
 99.4054413   -1.596539199E-12
 99.5744934   -1.533732668E-12
 99.7435532   -1.470826174E-12
 99.9126129   -1.40793681E-12
 100.081665   -1.345110655E-12
 100.250725   -1.282332422E-12
 100.419777   -1.219538034E-12
 100.588837   -1.156630239E-12
 100.757896   -1.093494544E-12
 100.926949   -1.030016784E-12
 101.096008   -9.660993793E-13
 101.265068   -9.016772246E-13
 101.43412   -8.367316172E-13
 101.60318   -7.713015339E-13
 101.772232   -7.054926847E-13
 101.941292   -6.394836917E-13
 102.110352   -5.735291799E-13
 102.279404   -5.079595056E-13
 102.448463   -4.431778295E-13
 102.617523   -3.7965334E-13
 102.786575   -3.179121192E-13
 102.955635   -2.585252433E-13
 103.124687   -2.020947022E-13
 103.293747   -1.492382335E-13
 103.462807   -1.005732972E-13
 103.631859   -5.670108683E-14
 103.800919   -1.819074066E-14
 103.969978   1.443565895E-14
 104.13903   4.071707029E-14
 104.30809   6.02665636E-14
 104.477142   7.278331854E-14
 104.646202   7.806317984E-14
 104.815262   7.600823725E-14
 104.984314   6.663475381E-14
 105.153374   5.007910522E-14
 105.322433   2.660166094E-14
 105.491486   -3.412508974E-15
 105.660545   -3.945628207E-14
 105.829597   -8.090744871E-14
 105.998657   -1.270401292E-13
 106.167717   -1.770410262E-13
 106.336769   -2.300304858E-13
 106.505829   -2.850876002E-13
 106.674881   -3.412790612E-13
 106.843941   -3.976901003E-13
 107.013   -4.534562558E-13
 107.182053   -5.077944358E-13
 107.351112   -5.60030917E-13
 107.520172   -6.096252518E-13
 107.689224   -6.561875609E-13
 107.858284   -6.99489403E-13
 108.027336   -7.394670813E-13
 108.196396   -7.762172524E-13
 108.365456   -8.099870059E-13
 108.534508   -8.411575473E-13
 108.703568   -8.702250075E-13
 108.872627   -8.977780542E-13
 109.041679   -9.244746895E-13
 109.210739   -9.51018886E-13
 109.379791   -9.781370592E-13
 109.548851   -1.006556925E-12
 109.717911   -1.03698636E-12
 109.886963   -1.0700941E-12
 110.056023   -1.106491526E-12
 110.225082   -1.146715427E-12
 110.394135   -1.19121206E-12
 110.563194   -1.240321973E-12
 110.732246   -1.294266018E-12
 110.901306   -1.353132775E-12
 111.070366   -1.416868684E-12
 111.239418   -1.485269373E-12
 111.408478   -1.557974344E-12
 111.577538   -1.634465783E-12
 111.74659   -1.714071268E-12
 111.915649   -1.79597049E-12
 112.084702   -1.879209678E-12
 112.253761   -1.962720785E-12
 112.422821   -2.045346314E-12
 112.591873   -2.125869359E-12
 112.760933   -2.20305111E-12
 112.929993   -2.275665116E-12
 113.099045   -2.342537622E-12
 113.268105   -2.402583341E-12
 113.437157   -2.454839066E-12
 113.606216   -2.498491865E-12
 113.775276   -2.532902056E-12
 113.944328   -2.55761818E-12
 114.113388   -2.572385013E-12
 114.28244   -2.577146829E-12
 114.4515   -2.572041538E-12
 114.62056   -2.557391581E-12
 114.789612   -2.533690055E-12
 114.958672   -2.501583142E-12
 115.127731   -2.461848433E-12
 115.296783   -2.415372806E-12
 115.465843   -2.363128356E-12
 115.634895   -2.306145075E-12
 115.803955   -2.245486999E-12
 115.973015   -2.182225971E-12
 116.142067   -2.117417569E-12
 116.311127   -2.052078776E-12
 116.480186   -1.987168026E-12
 116.649239   -1.923566991E-12
 116.818298   -1.862064105E-12
 116.98735   -1.803341547E-12
 117.15641   -1.747962994E-12
 117.32547   -1.69636462E-12
 117.494522   -1.648847075E-12
 117.663582   -1.605572012E-12
 117.832642   -1.566561117E-12
 118.001694   -1.531699463E-12
 118.170753   -1.500743431E-12
 118.339806   -1.473333608E-12
 118.508865   -1.449013869E-12
 118.677925   -1.427254148E-12
 118.846977   -1.407480252E-12
 119.016037   -1.389104326E-12
 119.185097   -1.371560743E-12
 119.354149   -1.354339601E-12
 119.523209   -1.337019362E-12
 119.692261   -1.319295801E-12
 119.86132   -1.301005202E-12
 120.03038   -1.282139867E-12
 120.199432   -1.262857332E-12
 120.368492   -1.24347982E-12
 120.537552   -1.224486333E-12
 120.706604   -1.206496925E-12
 120.875664   -1.190251131E-12
 121.044716   -1.176580426E-12
 121.213776   -1.166378192E-12
 121.382835   -1.160567736E-12
 121.551888   -1.160069653E-12
 121.720947   -1.165768111E-12
 121.889999   -1.178479948E-12
 122.059059   -1.198923881E-12
 122.228119   -1.227691126E-12
 122.397171   -1.265220784E-12
 122.566231   -1.311777076E-12
 122.735291   -1.367432643E-12
 122.904343   -1.432057164E-12
 123.073402   -1.505313127E-12
 123.242455   -1.586658539E-12
 123.411514   -1.67535842E-12
 123.580574   -1.770503232E-12
 123.749626   -1.871036095E-12
 123.918686   -1.975783686E-12
 124.087746   -2.0834931E-12
 124.256798   -2.192869801E-12
 124.425858   -2.302617298E-12
 124.59491   -2.41147163E-12
 124.763969   -2.518236054E-12
 124.933029   -2.621811188E-12
 125.102081   -2.721220168E-12
 125.271141   -2.815629457E-12
 125.440201   -2.904367719E-12
 125.609253   -2.986937954E-12
 125.778313   -3.063025745E-12
 125.947365   -3.132504889E-12
 126.116425   -3.195434152E-12
 126.285484   -3.252052273E-12
 126.454536   -3.30276648E-12
 126.623596   -3.348135571E-12
 126.792656   -3.388850398E-12
 126.961708   -3.425709803E-12
 127.130768   -3.459594156E-12
 127.29982   -3.491437608E-12
 127.46888   -3.522200977E-12
 127.637939   -3.552842482E-12
 127.806992   -3.584290633E-12
 127.976051   -3.617417997E-12
 128.145111   -3.653012788E-12
 128.314163   -3.691752633E-12
 128.483215   -3.734176596E-12
 128.652283   -3.780661548E-12
 128.821335   -3.831398306E-12
 128.990387   -3.886373428E-12
 129.159454   -3.945357496E-12
 129.328506   -4.007899047E-12
 129.497559   -4.073328914E-12
 129.666626   -4.140766289E-12
 129.835678   -4.209137379E-12
 130.00473   -4.277192316E-12
 130.173782   -4.343528141E-12
 130.34285   -4.406610927E-12
 130.511902   -4.46479919E-12
 130.680954   -4.516368182E-12
 130.850021   -4.559532005E-12
 131.019073   -4.592473537E-12
 131.188126   -4.61337045E-12
 131.357193   -4.620434677E-12
 131.526245   -4.61194841E-12
 131.695297   -4.586310932E-12
 131.864365   -4.542081988E-12
 132.033417   -4.478025156E-12
 132.202469   -4.393148605E-12
 132.371536   -4.286735029E-12
 132.540588   -4.158364191E-12
 132.709641   -4.007924635E-12
 132.878693   -3.835619756E-12
 133.04776   -3.641956962E-12
 133.216812   -3.427741598E-12
 133.385864   -3.194058299E-12
 133.554932   -2.942254513E-12
 133.723984   -2.673919463E-12
 133.893036   -2.390858778E-12
 134.062103   -2.095065874E-12
 134.231155   -1.788690832E-12
 134.400208   -1.474002561E-12
 134.569275   -1.153345648E-12
 134.738327   -8.290976412E-13
 134.907379   -5.036218838E-13
 135.076431   -1.7922362E-13
 135.245499   1.418892402E-13
 135.414551   4.576411407E-13
 135.583603   7.661171502E-13
 135.75267   1.065584253E-12
 135.921722   1.354508844E-12
 136.090775   1.631573132E-12
 136.259842   1.895689118E-12
 136.428894   2.146014052E-12
 136.597946   2.381966152E-12
 136.767014   2.603238155E-12
 136.936066   2.809806207E-12
 137.105118   3.00193247E-12
 137.274185   3.180157093E-12
 137.443237   3.345280867E-12
 137.612289   3.498335953E-12
 137.781342   3.640549234E-12
 137.950409   3.77329808E-12
 138.119461   3.898062428E-12
 138.288513   4.016377942E-12
 138.457581   4.129785489E-12
 138.626633   4.239791244E-12
 138.795685   4.347825051E-12
 138.964752   4.455210506E-12
 139.133804   4.563134592E-12
 139.302856   4.6726247E-12
 139.471924   4.784528242E-12
 139.640976   4.899501378E-12
 139.810028   5.017999471E-12
 139.979095   5.140280562E-12
 140.148148   5.266414475E-12
 140.3172   5.39630363E-12
 140.486252   5.529708202E-12
 140.655319   5.666272139E-12
 140.824371   5.80555699E-12
 140.993423   5.94706142E-12
 141.162491   6.09024246E-12
 141.331543   6.234524615E-12
 141.500595   6.379307672E-12
 141.669662   6.523964962E-12
 141.838715   6.667842493E-12
 142.007767   6.81025852E-12
 142.176834   6.950505709E-12
 142.345886   7.087858512E-12
 142.514938   7.221590079E-12
 142.68399   7.350989609E-12
 142.853058   7.475386629E-12
 143.02211   7.594174421E-12
 143.191162   7.706828231E-12
 143.360229   7.812924786E-12
 143.529282   7.912145765E-12
 143.698334   8.004284735E-12
 143.867401   8.089251491E-12
 144.036453   8.167065114E-12
 144.205505   8.237862649E-12
 144.374573   8.301894762E-12
 144.543625   8.359531817E-12
 144.712677   8.411259536E-12
 144.881744   8.457680736E-12
 145.050797   8.499505787E-12
 145.219849   8.537543068E-12
 145.388901   8.57267729E-12
 145.557968   8.60584954E-12
 145.72702   8.63802866E-12
 145.896072   8.670186097E-12
 146.06514   8.703260335E-12
 146.234192   8.738142154E-12
 146.403244   8.775640804E-12
 146.572311   8.816478797E-12
 146.741364   8.861269357E-12
 146.910416   8.910512952E-12
 147.079483   8.964586018E-12
 147.248535   9.023724476E-12
 147.417587   9.088020267E-12
 147.586655   9.157404869E-12
 147.755707   9.231646697E-12
 147.924759   9.310344162E-12
 148.093811   9.392936949E-12
 148.262878   9.478710351E-12
 148.431931   9.566811753E-12
 148.600983   9.656275779E-12
 148.77005   9.746043382E-12
 148.939102   9.834984389E-12
 149.108154   9.921929597E-12
 149.277222   1.000567771E-11
 149.446274   1.00850283E-11
 149.615326   1.015879221E-11
 149.784393   1.022580284E-11
 149.953445   1.02849335E-11
 150.122498   1.03351069E-11
 150.29155   1.037530478E-11
 150.460617   1.040458344E-11
 150.629669   1.042207553E-11
 150.798721   1.04269952E-11
 150.967789   1.041863817E-11
 151.136841   1.039636953E-11
 151.305893   1.035961334E-11
 151.47496   1.030783011E-11
 151.644012   1.02405185E-11
 151.813065   1.015719106E-11
 151.982132   1.005738721E-11
 152.151184   9.940675887E-12
 152.320236   9.806678039E-12
 152.489304   9.655086626E-12
 152.658356   9.485706491E-12
 152.827408   9.298476052E-12
 152.99646   9.093508932E-12
 153.165527   8.871113046E-12
 153.334579   8.631815748E-12
 153.503632   8.376371645E-12
 153.672699   8.105766058E-12
 153.841751   7.821206356E-12
 154.010803   7.524108073E-12
 154.179871   7.216075393E-12
 154.348923   6.898880772E-12
 154.517975   6.574433706E-12
 154.687042   6.244756448E-12
 154.856094   5.911952785E-12
 155.025146   5.578173774E-12
 155.194214   5.245584783E-12
 155.363266   4.916331231E-12
 155.532318   4.592503461E-12
 155.70137   4.276103777E-12
 155.870438   3.969013486E-12
 156.03949   3.672965578E-12
 156.208542   3.389513713E-12
 156.377609   3.120009893E-12
 156.546661   2.865586024E-12
 156.715714   2.627139391E-12
 156.884781   2.405328541E-12
 157.053833   2.20057696E-12
 157.222885   2.013085228E-12
 157.391953   1.84284879E-12
 157.561005   1.689684742E-12
 157.730057   1.553260233E-12
 157.899109   1.433128464E-12
 158.068176   1.328759693E-12
 158.237228   1.239577017E-12
 158.406281   1.164988787E-12
 158.575348   1.104419074E-12
 158.7444   1.057331631E-12
 158.913452   1.023249085E-12
 159.08252   1.001769414E-12
 159.251572   9.925724522E-13
 159.420624   9.954276986E-13
 159.589691   1.010195725E-12
 159.758743   1.036828718E-12
 159.927795   1.07536831E-12
 160.096863   1.12594027E-12
 160.265915   1.188749836E-12
 160.434967   1.264074674E-12
 160.604019   1.352259992E-12
 160.773087   1.453712151E-12
 160.942139   1.568895729E-12
 161.111191   1.698326701E-12
 161.280258   1.842563211E-12
 161.44931   2.00219008E-12
 161.618362   2.177794837E-12
 161.78743   2.369936712E-12
 161.956482   2.57911097E-12
 162.125534   2.805706188E-12
 162.294601   3.049964144E-12
 162.463654   3.311937096E-12
 162.632706   3.591451355E-12
 162.801773   3.888072156E-12
 162.970825   4.201078721E-12
 163.139877   4.529443227E-12
 163.308929   4.871824732E-12
 163.477997   5.226569177E-12
 163.647049   5.591718928E-12
 163.816101   5.965037925E-12
 163.985168   6.344036841E-12
 164.154221   6.726014277E-12
 164.323273   7.108099265E-12
 164.49234   7.487303312E-12
 164.661392   7.860580242E-12
 164.830444   8.22488605E-12
 164.999512   8.577235276E-12
 165.168564   8.914759556E-12
 165.337616   9.234745781E-12
 165.506668   9.534673398E-12
 165.675735   9.812229154E-12
 165.844788   1.00653175E-11
 166.01384   1.029206841E-11
 166.182907   1.049083129E-11
 166.351959   1.066017413E-11
 166.521011   1.079887828E-11
 166.690079   1.090593588E-11
 166.859131   1.098054373E-11
 167.028183   1.102210944E-11
 167.19725   1.103024182E-11
 167.366302   1.100476047E-11
 167.535355   1.0945694E-11
 167.704422   1.085328528E-11
 167.873474   1.072798621E-11
 168.042526   1.05704499E-11
 168.211578   1.03815255E-11