   0.00000000         0.00000000    
  0.165000007         0.00000000    
  0.330000013         0.00000000    
  0.495000005         0.00000000    
  0.660000026         0.00000000    
  0.824999988         0.00000000    
  0.990000010         0.00000000    
   1.15499997         0.00000000    
   1.32000005         0.00000000    
   1.48500001         0.00000000    
   1.64999998         0.00000000    
   1.81500006         0.00000000    
   1.98000002         0.00000000    
   2.14499998         0.00000000    
   2.30999994         0.00000000    
   2.47499990         0.00000000    
   2.64000010         0.00000000    
   2.80500007         0.00000000    
   2.97000003         0.00000000    
   3.13499999         0.00000000    
   3.29999995         0.00000000    
   3.46499991         0.00000000    
   3.63000011         0.00000000    
   3.79500008         0.00000000    
   3.96000004         0.00000000    
   4.12500000         0.00000000    
   4.28999996         0.00000000    
   4.45499992         0.00000000    
   4.61999989         0.00000000    
   4.78499985         0.00000000    
   4.94999981         0.00000000    
   5.11499977         0.00000000    
   5.28000021         0.00000000    
   5.44500017         0.00000000    
   5.61000013         0.00000000    
   5.77500010         0.00000000    
   5.94000006         0.00000000    
   6.10500002         0.00000000    
   6.26999998         0.00000000    
   6.43499994         0.00000000    
   6.59999990         0.00000000    
   6.76499987         0.00000000    
   6.92999983         0.00000000    
   7.09499979         0.00000000    
   7.26000023         0.00000000    
   7.42500019         0.00000000    
   7.59000015         0.00000000    
   7.75500011         0.00000000    
   7.92000008         0.00000000    
   8.08500004         0.00000000    
   8.25000000         0.00000000    
   8.41499996         0.00000000    
   8.57999992         0.00000000    
   8.74499989         0.00000000    
   8.90999985         0.00000000    
   9.07499981         0.00000000    
   9.23999977         0.00000000    
   9.40499973         0.00000000    
   9.56999969         0.00000000    
   9.73499966         0.00000000    
   9.89999962         0.00000000    
   10.0649996         0.00000000    
   10.2299995         0.00000000    
   10.3950005         0.00000000    
   10.5600004         0.00000000    
   10.7250004         0.00000000    
   10.8900003         0.00000000    
   11.0550003         0.00000000    
   11.2200003        -3.91152908E-33
   11.3850002        -1.01282224E-32
   11.5500002        -9.42597916E-33
   11.7150002        -5.02648548E-33
   11.8800001         1.25531953E-32
   12.0450001         5.07684784E-32
   12.2100000         9.36840198E-32
   12.3750000         4.12277278E-31
   12.5400000         1.08129334E-30
   12.7049999         2.78882217E-30
   12.8699999         4.77665835E-30
   13.0349998         6.86380443E-30
   13.1999998         8.97448070E-30
   13.3649998         1.23690052E-29
   13.5299997         1.63457481E-29
   13.6949997         1.67666947E-29
   13.8599997         1.35055115E-29
   14.0249996        -5.41831689E-30
   14.1899996        -4.31902790E-29
   14.3549995        -1.11424195E-28
   14.5200005        -2.06339055E-28
   14.6850004        -3.17379966E-28
   14.8500004        -4.36015662E-28
   15.0150003        -5.24885821E-28
   15.1800003        -5.72805847E-28
   15.3450003        -5.82005581E-28
   15.5100002        -5.91988543E-28
   15.6750002        -6.56173432E-28
   15.8400002        -8.23447814E-28
   16.0049992        -1.07277986E-27
   16.1700001        -1.31019107E-27
   16.3349991        -1.32586622E-27
   16.5000000        -8.45969832E-28
   16.6650009         4.10775002E-28
   16.8299999         2.60218134E-27
   16.9950008         5.65606182E-27
   17.1599998         9.19920053E-27
   17.3250008         1.25512747E-26
   17.4899998         1.48346187E-26
   17.6550007         1.51733420E-26
   17.8199997         1.29274658E-26
   17.9850006         7.92967219E-27
   18.1499996         6.48414775E-28
   18.3150005        -7.77640206E-27
   18.4799995        -1.56805950E-26
   18.6450005        -2.12318939E-26
   18.8099995        -2.29913141E-26
   18.9750004        -2.06283352E-26
   19.1399994        -1.56238263E-26
   19.3050003        -1.17004027E-26
   19.4699993        -1.46173954E-26
   19.6350002        -3.10034230E-26
   19.7999992        -6.60709958E-26
   19.9650002        -1.20462351E-25
   20.1299992        -1.86980323E-25
   20.2950001        -2.48445850E-25
   20.4599991        -2.78103470E-25
   20.6250000        -2.43733491E-25
   20.7900009        -1.15715578E-25
   20.9549999         1.22066118E-25
   21.1200008         4.61080719E-25
   21.2849998         8.60450723E-25
   21.4500008         1.24648651E-24
   21.6149998         1.52203158E-24
   21.7800007         1.58569236E-24
   21.9449997         1.35775800E-24
   22.1100006         8.06548498E-25
   22.2749996        -3.27874874E-26
   22.4400005        -1.05440805E-24
   22.6049995        -2.09693389E-24
   22.7700005        -2.97626511E-24
   22.9349995        -3.52852434E-24
   23.1000004        -3.65079265E-24
   23.2649994        -3.32593737E-24
   23.4300003        -2.62122031E-24
   23.5949993        -1.65836213E-24
   23.7600002        -5.63342878E-25
   23.9249992         5.85902673E-25
   24.0900002         1.79069374E-24
   24.2549992         3.12142064E-24
   24.4200001         4.65763752E-24
   24.5849991         6.38894503E-24
   24.7500000         8.10790134E-24
   24.9150009         9.34116073E-24
   25.0799999         9.36754654E-24
   25.2450008         7.35661309E-24
   25.4099998         2.62891052E-24
   25.5750008        -5.00461523E-24
   25.7399998        -1.49103578E-23
   25.9050007        -2.54225336E-23
   26.0699997        -3.38735547E-23
   26.2350006        -3.69465624E-23
   26.3999996        -3.13618847E-23
   26.5650005        -1.48141862E-23
   26.7299995         1.30214927E-23
   26.8950005         4.96710750E-23
   27.0599995         8.95103998E-23
   27.2250004         1.24115916E-22
   27.3899994         1.43429857E-22
   27.5550003         1.37671715E-22
   27.7199993         9.97190172E-23
   27.8850002         2.74941186E-23
   28.0499992        -7.42180156E-23
   28.2150002        -1.93087654E-22
   28.3799992        -3.10107280E-22
   28.5450001        -4.02135112E-22
   28.7099991        -4.45865951E-22
   28.8750000        -4.22596523E-22
   29.0400009        -3.22851713E-22
   29.2049999        -1.49816386E-22
   29.3700008         7.93686210E-23
   29.5349998         3.35029277E-22
   29.7000008         5.79133663E-22
   29.8649998         7.71623903E-22
   30.0300007         8.77748086E-22
   30.1949997         8.74888497E-22
   30.3600006         7.57366751E-22
   30.5249996         5.38044840E-22
   30.6900005         2.46208512E-22
   30.8549995        -7.79560361E-23
   31.0200005        -3.91160353E-22
   31.1849995        -6.55372867E-22
   31.3500004        -8.44823026E-22
   31.5149994        -9.50001585E-22
   31.6800003        -9.77688104E-22
   31.8449993        -9.46988818E-22
   32.0099983        -8.82342008E-22
   32.1749992        -8.05225036E-22
   32.3400002        -7.26662063E-22
   32.5050011        -6.42487701E-22
   32.6699982        -5.32720874E-22
   32.8349991        -3.65481125E-22
   33.0000000        -1.04851687E-22
   33.1650009         2.78778269E-22
   33.3300018         7.97916069E-22
   33.4949989         1.43885664E-21
   33.6599998         2.15612684E-21
   33.8250008         2.87176813E-21
   33.9900017         3.47999205E-21
   34.1549988         3.85703697E-21
   34.3199997         3.87544739E-21
   34.4850006         3.42156475E-21
   34.6500015         2.41469874E-21
   34.8149986         8.26170063E-22
   34.9799995        -1.30384041E-21
   35.1450005        -3.85411114E-21
   35.3100014        -6.61750508E-21
   35.4749985        -9.30610824E-21
   35.6399994        -1.15685700E-20
   35.8050003        -1.30206339E-20
   35.9700012        -1.32879457E-20
   36.1349983        -1.20577544E-20
   36.2999992        -9.13353526E-21
   36.4650002        -4.48456898E-21
   36.6300011         1.71838836E-21
   36.7949982         9.08937399E-21
   36.9599991         1.70407591E-20
   37.1250000         2.48252605E-20
   37.2900009         3.16026066E-20
   37.4550018         3.65224862E-20
   37.6199989         3.88122740E-20
   37.7849998         3.78574265E-20
   37.9500008         3.32643930E-20
   38.1150017         2.49004693E-20
   38.2799988         1.29104872E-20
   38.4449997        -2.28444667E-21
   38.6100006        -1.99978216E-20
   38.7750015        -3.92903779E-20
   38.9399986        -5.89804204E-20
   39.1049995        -7.76546044E-20
   39.2700005        -9.36896492E-20
   39.4350014        -1.05301249E-19
   39.5999985        -1.10637527E-19
   39.7649994        -1.07930042E-19
   39.9300003        -9.57033945E-20
   40.0950012        -7.30290427E-20
   40.2599983        -3.97912067E-20
   40.4249992         3.08113590E-21
   40.5900002         5.34691228E-20
   40.7550011         1.08054313E-19
   40.9199982         1.62477272E-19
   41.0849991         2.11671590E-19
   41.2500000         2.50349418E-19
   41.4150009         2.73584042E-19
   41.5800018         2.77412467E-19
   41.7449989         2.59370262E-19
   41.9099998         2.18877496E-19
   42.0750008         1.57414138E-19
   42.2400017         7.84575318E-20
   42.4049988        -1.28103531E-20
   42.5699997        -1.09981624E-19
   42.7350006        -2.06018405E-19
   42.9000015        -2.93885278E-19
   43.0649986        -3.67140599E-19
   43.2299995        -4.20425481E-19
   43.3950005        -4.49812804E-19
   43.5600014        -4.53005566E-19
   43.7249985        -4.29393644E-19
   43.8899994        -3.79995503E-19
   44.0550003        -3.07312435E-19
   44.2200012        -2.15123350E-19
   44.3849983        -1.08238108E-19
   44.5499992         7.77778381E-21
   44.7150002         1.26900906E-19
   44.8800011         2.42961557E-19
   45.0449982         3.49957370E-19
   45.2099991         4.42350446E-19
   45.3750000         5.15326129E-19
   45.5400009         5.64992844E-19
   45.7050018         5.88510158E-19
   45.8699989         5.84145281E-19
   46.0349998         5.51275502E-19
   46.2000008         4.90362076E-19
   46.3650017         4.02931567E-19
   46.5299988         2.91589076E-19
   46.6949997         1.60077569E-19
   46.8600006         1.33703527E-20
   47.0250015        -1.42236963E-19
   47.1899986        -2.99091449E-19
   47.3549995        -4.48266648E-19
   47.5200005        -5.79820832E-19
   47.6850014        -6.83265403E-19
   47.8499985        -7.48242146E-19
   48.0149994        -7.65376004E-19
   48.1800003        -7.27232431E-19
   48.3450012        -6.29287008E-19
   48.5099983        -4.70807682E-19
   48.6749992        -2.55560009E-19
   48.8400002         7.73578016E-21
   49.0050011         3.05242700E-19
   49.1699982         6.18166444E-19
   49.3349991         9.23246681E-19
   49.5000000         1.19360105E-18
   49.6650009         1.39993195E-18
   49.8300018         1.51212907E-18
   49.9949989         1.50127584E-18
   50.1599998         1.34206043E-18
   50.3250008         1.01551888E-18
   50.4900017         5.11985301E-19
   50.6549988        -1.65981997E-19
   50.8199997        -1.00100290E-18
   50.9850006        -1.95897131E-18
   51.1500015        -2.98823980E-18
   51.3149986        -4.02023964E-18
   51.4799995        -4.97178810E-18
   51.6450005        -5.74918898E-18
   51.8100014        -6.25401483E-18
   51.9749985        -6.39029076E-18
   52.1399994        -6.07256945E-18
   52.3050003        -5.23428063E-18
   52.4700012        -3.83564022E-18
   52.6349983        -1.87043528E-18
   52.7999992         6.28954275E-19
   52.9650002         3.58877396E-18
   53.1300011         6.89367483E-18
   53.2949982         1.03891999E-17
   53.4599991         1.38869381E-17
   53.6250000         1.71721504E-17
   53.7900009         2.00135687E-17
   53.9550018         2.21749321E-17
   54.1199989         2.34277567E-17
   54.2849998         2.35647660E-17
   54.4500008         2.24133570E-17
   54.6150017         1.98484122E-17
   54.7799988         1.58037968E-17
   54.9449997         1.02818261E-17
   55.1100006         3.36011043E-18
   55.2750015        -4.80475510E-18
   55.4399986        -1.39770561E-17
   55.6049995        -2.38455739E-17
   55.7700005        -3.40309681E-17
   55.9350014        -4.40967801E-17
   56.0999985        -5.35636537E-17
   56.2649994        -6.19263538E-17
   56.4300003        -6.86729646E-17
   56.5950012        -7.33055929E-17
   56.7599983        -7.53619838E-17
   56.9249992        -7.44371694E-17
   57.0900002        -7.02045656E-17
   57.2550011        -6.24355728E-17
   57.4199982        -5.10171385E-17
   57.5849991        -3.59663490E-17
   57.7500000        -1.74415185E-17
   57.9150009         4.25079762E-18
   58.0800018         2.86533908E-17
   58.2449989         5.51607410E-17
   58.4099998         8.30264077E-17
   58.5750008         1.11375396E-16
   58.7400017         1.39221525E-16
   58.9049988         1.65489486E-16
   59.0699997         1.89041700E-16
   59.2350006         2.08709381E-16
   59.4000015         2.23327833E-16
   59.5649986         2.31775372E-16
   59.7299995         2.33015429E-16
   59.8950005         2.26140883E-16
   60.0600014         2.10419660E-16
   60.2249985         1.85340404E-16
   60.3899994         1.50656059E-16
   60.5550003         1.06424005E-16
   60.7200012         5.30405712E-17
   60.8849983        -8.73181367E-18
   61.0499992        -7.77468712E-17
   61.2150002        -1.52467214E-16
   61.3800011        -2.30969288E-16
   61.5449982        -3.10960724E-16
   61.7099991        -3.89811418E-16
   61.8750000        -4.64597889E-16
   62.0400009        -5.32161578E-16
   62.2050018        -5.89180024E-16
   62.3699989        -6.32250856E-16
   62.5349998        -6.57987264E-16
   62.7000008        -6.63122983E-16
   62.8650017        -6.44625848E-16
   63.0299988        -5.99815211E-16
   63.1949997        -5.26481534E-16
   63.3600006        -4.23003410E-16
   63.5250015        -2.88457229E-16
   63.6899986        -1.22715897E-16
   63.8549995         7.34685938E-17
   64.0199966         2.98402110E-16
   64.1849976         5.49408651E-16
   64.3499985         8.22815534E-16
   64.5149994         1.11396617E-15
   64.6800003         1.41725881E-15
   64.8450012         1.72621302E-15
   65.0100021         2.03356136E-15
   65.1750031         2.33136417E-15
   65.3399963         2.61114635E-15
   65.5049973         2.86405175E-15
   65.6699982         3.08101543E-15
   65.8349991         3.25294554E-15
   66.0000000         3.37091796E-15
   66.1650009         3.42637236E-15
   66.3300018         3.41131381E-15
   66.4950027         3.31850801E-15
   66.6600037         3.14166955E-15
   66.8249969         2.87563747E-15
   66.9899979         2.51653595E-15
   67.1549988         2.06191113E-15
   67.3199997         1.51084780E-15
   67.4850006         8.64056880E-16
   67.6500015         1.23939409E-16
   67.8150024        -7.05378598E-16
   67.9800034        -1.61803759E-15
   68.1449966        -2.60646289E-15
   68.3099976        -3.66140579E-15
   68.4749985        -4.77201507E-15
   68.6399994        -5.92592678E-15
   68.8050003        -7.10938808E-15
   68.9700012        -8.30739676E-15
   69.1350021        -9.50388162E-15
   69.3000031        -1.06818944E-14
   69.4649963        -1.18238481E-14
   69.6299973        -1.29117671E-14
   69.7949982        -1.39275747E-14
   69.9599991        -1.48533970E-14
   70.1250000        -1.56718883E-14
   70.2900009        -1.63665722E-14
   70.4550018        -1.69221936E-14
   70.6200027        -1.73250645E-14
   70.7850037        -1.75634145E-14
   70.9499969        -1.76277331E-14
   71.1149979        -1.75110916E-14
   71.2799988        -1.72094445E-14
   71.4449997        -1.67219008E-14
   71.6100006        -1.60509576E-14
   71.7750015        -1.52027015E-14
   71.9400024        -1.41869387E-14
   72.1050034        -1.30172913E-14
   72.2699966        -1.17112088E-14
   72.4349976        -1.02899256E-14
   72.5999985        -8.77832675E-15
   72.7649994        -7.20475976E-15
   72.9300003        -5.60074236E-15
   73.0950012        -4.00061454E-15
   73.2600021        -2.44110025E-15
   73.4250031        -9.60809166E-16
   73.5899963         4.00329079E-16
   73.7549973         1.60168456E-15
   73.9199982         2.60259216E-15
   74.0849991         3.36305813E-15
   74.2500000         3.84447545E-15
   74.4150009         4.01036346E-15
   74.5800018         3.82709857E-15
   74.7450027         3.26462464E-15
   74.9100037         2.29713662E-15
   75.0749969         9.03720839E-16
   75.2399979        -9.31066874E-16
   75.4049988        -3.21668576E-15
   75.5699997        -5.95618153E-15
   75.7350006        -9.14584164E-15
   75.9000015        -1.27749543E-14
   76.0650024        -1.68256674E-14
   76.2300034        -2.12729682E-14
   76.3949966        -2.60847642E-14
   76.5599976        -3.12221122E-14
   76.7249985        -3.66395519E-14
   76.8899994        -4.22855619E-14
   77.0550003        -4.81031569E-14
   77.2200012        -5.40306020E-14
   77.3850021        -6.00022148E-14
   77.5500031        -6.59492873E-14
   77.7149963        -7.18011127E-14
   77.8799973        -7.74860522E-14
   78.0449982        -8.29326435E-14
   78.2099991        -8.80708063E-14
   78.3750000        -9.28329950E-14
   78.5400009        -9.71553567E-14
   78.7050018        -1.00978897E-13
   78.8700027        -1.04250572E-13
   79.0350037        -1.06924330E-13
   79.1999969        -1.08962074E-13
   79.3649979        -1.10334518E-13
   79.5299988        -1.11021923E-13
   79.6949997        -1.11014760E-13
   79.8600006        -1.10314163E-13
   80.0250015        -1.08932293E-13
   80.1900024        -1.06892468E-13
   80.3550034        -1.04229227E-13
   80.5199966        -1.00988086E-13
   80.6849976        -9.72252403E-14
   80.8499985        -9.30070027E-14
   81.0149994        -8.84091113E-14
   81.1800003        -8.35158291E-14
   81.3450012        -7.84189608E-14
   81.5100021        -7.32166403E-14
   81.6750031        -6.80120429E-14
   81.8399963        -6.29120034E-14
   82.0049973        -5.80254974E-14
   82.1699982        -5.34621209E-14
   82.3349991        -4.93305212E-14
   82.5000000        -4.57367807E-14
   82.6650009        -4.27828854E-14
   82.8300018        -4.05651702E-14
   82.9950027        -3.91728953E-14
   83.1600037        -3.86868577E-14
   83.3249969        -3.91781198E-14
   83.4899979        -4.07068551E-14
   83.6549988        -4.33213442E-14
   83.8199997        -4.70570746E-14
   83.9850006        -5.19360081E-14
   84.1500015        -5.79660018E-14
   84.3150024        -6.51403370E-14
   84.4800034        -7.34374855E-14
   84.6449966        -8.28209232E-14
   84.8099976        -9.32391845E-14
   84.9749985        -1.04625998E-13
   85.1399994        -1.16900616E-13
   85.3050003        -1.29968234E-13
   85.4700012        -1.43720552E-13
   85.6350021        -1.58036602E-13
   85.8000031        -1.72783391E-13
   85.9649963        -1.87817088E-13
   86.1299973        -2.02983965E-13
   86.2949982        -2.18121663E-13
   86.4599991        -2.33060587E-13
   86.6250000        -2.47625244E-13
   86.7900009        -2.61635846E-13
   86.9550018        -2.74909923E-13
   87.1200027        -2.87264055E-13
   87.2850037        -2.98515688E-13
   87.4499969        -3.08484846E-13
   87.6149979        -3.16996212E-13
   87.7799988        -3.23880815E-13
   87.9449997        -3.28978191E-13
   88.1100006        -3.32138044E-13
   88.2750015        -3.33222301E-13
   88.4400024        -3.32106765E-13
   88.6050034        -3.28682936E-13
   88.7699966        -3.22859578E-13
   88.9349976        -3.14564293E-13
   89.0999985        -3.03744714E-13
   89.2649994        -2.90369752E-13
   89.4300003        -2.74430516E-13
   89.5950012        -2.55940993E-13
   89.7600021        -2.34938615E-13
   89.9250031        -2.11484408E-13
   90.0899963        -1.85662941E-13
   90.2549973        -1.57581915E-13
   90.4199982        -1.27371638E-13
   90.5849991        -9.51839044E-14
   90.7500000        -6.11909137E-14
   90.9150009        -2.55837205E-14
   91.0800018         1.14295771E-14
   91.2450027         4.96256953E-14
   91.4100037         8.87684159E-14
   91.5749969         1.28610854E-13
   91.7399979         1.68897950E-13
   91.9049988         2.09369035E-13
   92.0699997         2.49760363E-13
   92.2350006         2.89807945E-13
   92.4000015         3.29250082E-13
   92.5650024         3.67829953E-13
   92.7300034         4.05298435E-13
   92.8949966         4.41416299E-13
   93.0599976         4.75956731E-13
   93.2249985         5.08707659E-13
   93.3899994         5.39473522E-13
   93.5550003         5.68077269E-13
   93.7200012         5.94362016E-13
   93.8850021         6.18192563E-13
   94.0500031         6.39456261E-13
   94.2149963         6.58064369E-13
   94.3799973         6.73952647E-13
   94.5449982         6.87081739E-13
   94.7099991         6.97437930E-13
   94.8750000         7.05032875E-13
   95.0400009         7.09903544E-13
   95.2050018         7.12112010E-13
   95.3700027         7.11744899E-13
   95.5350037         7.08912421E-13
   95.6999969         7.03747282E-13
   95.8649979         6.96403818E-13
   96.0299988         6.87055989E-13
   96.1949997         6.75895754E-13
   96.3600006         6.63131225E-13
   96.5250015         6.48984447E-13
   96.6900024         6.33688577E-13
   96.8550034         6.17485609E-13
   97.0199966         6.00623501E-13
   97.1849976         5.83352702E-13
   97.3499985         5.65923393E-13
   97.5149994         5.48581905E-13
   97.6800003         5.31567574E-13
   97.8450012         5.15109060E-13
   98.0100021         4.99421414E-13
   98.1750031         4.84702664E-13
   98.3399963         4.71130784E-13
   98.5049973         4.58861031E-13
   98.6699982         4.48023102E-13
   98.8349991         4.38718994E-13
   99.0000000         4.31020887E-13
   99.1650009         4.24969657E-13
   99.3300018         4.20573597E-13
   99.4950027         4.17807661E-13
   99.6600037         4.16613006E-13
   99.8249969         4.16897555E-13
   99.9899979         4.18536218E-13
   100.154999         4.21372626E-13
   100.320000         4.25220460E-13
   100.485001         4.29865860E-13
   100.650002         4.35070139E-13
   100.815002         4.40572871E-13
   100.980003         4.46095499E-13
   101.144997         4.51345314E-13
   101.309998         4.56019391E-13
   101.474998         4.59809220E-13
   101.639999         4.62405179E-13
   101.805000         4.63500982E-13
   101.970001         4.62798636E-13
   102.135002         4.60012779E-13
   102.300003         4.54875178E-13
   102.464996         4.47139125E-13
   102.629997         4.36583007E-13
   102.794998         4.23014217E-13
   102.959999         4.06272021E-13
   103.125000         3.86230273E-13
   103.290001         3.62799526E-13
   103.455002         3.35928523E-13
   103.620003         3.05605286E-13
   103.785004         2.71857379E-13
   103.949997         2.34751861E-13
   104.114998         1.94394441E-13
   104.279999         1.50928451E-13
   104.445000         1.04532898E-13
   104.610001         5.54204205E-14
   104.775002         3.83473838E-15
   104.940002        -4.99522536E-14
   105.105003        -1.05643481E-13
   105.269997        -1.62920147E-13
   105.434998        -2.21445163E-13
   105.599998        -2.80866693E-13
   105.764999        -3.40821880E-13
   105.930000        -4.00940674E-13
   106.095001        -4.60849078E-13
   106.260002        -5.20173043E-13
   106.425003        -5.78541934E-13
   106.589996        -6.35591785E-13
   106.754997        -6.90968767E-13
   106.919998        -7.44332113E-13
   107.084999        -7.95356999E-13
   107.250000        -8.43737732E-13
   107.415001        -8.89189926E-13
   107.580002        -9.31452940E-13
   107.745003        -9.70292314E-13
   107.910004        -1.00550102E-12
   108.074997        -1.03690223E-12
   108.239998        -1.06434967E-12
   108.404999        -1.08772984E-12
   108.570000        -1.10696240E-12
   108.735001        -1.12200082E-12
   108.900002        -1.13283352E-12
   109.065002        -1.13948293E-12
   109.230003        -1.14200609E-12
   109.394997        -1.14049319E-12
   109.559998        -1.13506763E-12
   109.724998        -1.12588400E-12
   109.889999        -1.11312663E-12
   110.055000        -1.09700779E-12
   110.220001        -1.07776548E-12
   110.385002        -1.05566066E-12
   110.550003        -1.03097468E-12
   110.714996        -1.00400645E-12
   110.879997        -9.75068659E-13
   111.044998        -9.44485050E-13
   111.209999        -9.12586521E-13
   111.375000        -8.79707602E-13
   111.540001        -8.46182987E-13
   111.705002        -8.12343411E-13
   111.870003        -7.78512292E-13
   112.035004        -7.45002042E-13
   112.199997        -7.12110275E-13
   112.364998        -6.80116499E-13
   112.529999        -6.49278591E-13
   112.695000        -6.19829708E-13
   112.860001        -5.91975362E-13
   113.025002        -5.65890379E-13
   113.190002        -5.41716899E-13
   113.355003        -5.19561878E-13
   113.519997        -4.99495519E-13
   113.684998        -4.81549696E-13
   113.849998        -4.65717254E-13
   114.014999        -4.51951166E-13
   114.180000        -4.40164832E-13
   114.345001        -4.30232401E-13
   114.510002        -4.21989700E-13
   114.675003        -4.15235798E-13
   114.839996        -4.09734665E-13
   115.004997        -4.05217987E-13
   115.169998        -4.01387772E-13
   115.334999        -3.97919734E-13
   115.500000        -3.94467255E-13
   115.665001        -3.90665310E-13
   115.830002        -3.86135460E-13
   115.995003        -3.80490263E-13
   116.160004        -3.73338567E-13
   116.324997        -3.64290792E-13
   116.489998        -3.52964213E-13
   116.654999        -3.38988413E-13
   116.820000        -3.22011000E-13
   116.985001        -3.01702646E-13
   117.150002        -2.77762757E-13
   117.315002        -2.49924511E-13
   117.480003        -2.17959819E-13
   117.644997        -1.81683864E-13
   117.809998        -1.40959455E-13
   117.974998        -9.57005335E-14
   118.139999        -4.58757720E-14
   118.305000         8.48908109E-15
   118.470001         6.73090327E-14
   118.635002         1.30438602E-13
   118.800003         1.97671239E-13
   118.964996         2.68739620E-13
   119.129997         3.43316765E-13
   119.294998         4.21017794E-13
   119.459999         5.01402739E-13
   119.625000         5.83980021E-13
   119.790001         6.68210712E-13
   119.955002         7.53513679E-13
   120.120003         8.39271307E-13
   120.285004         9.24836163E-13
   120.449997         1.00953783E-12
   120.614998         1.09269082E-12
   120.779999         1.17360223E-12
   120.945000         1.25158000E-12
   121.110001         1.32594164E-12
   121.275002         1.39602197E-12
   121.440002         1.46118220E-12
   121.605003         1.52081765E-12
   121.769997         1.57436553E-12
   121.934998         1.62131300E-12
   122.099998         1.66120340E-12
   122.264999         1.69364316E-12
   122.430000         1.71830746E-12
   122.595001         1.73494498E-12
   122.760002         1.74338191E-12
   122.925003         1.74352525E-12
   123.089996         1.73536456E-12
   123.254997         1.71897349E-12
   123.419998         1.69450912E-12
   123.584999         1.66221182E-12
   123.750000         1.62240208E-12
   123.915001         1.57547890E-12
   124.080002         1.52191389E-12
   124.245003         1.46224818E-12
   124.410004         1.39708579E-12
   124.574997         1.32708742E-12
   124.739998         1.25296301E-12
   124.904999         1.17546435E-12
   125.070000         1.09537585E-12
   125.235001         1.01350688E-12
   125.400002         9.30681205E-13
   125.565002         8.47728409E-13
   125.730003         7.65473459E-13
   125.894997         6.84727828E-13
   126.059998         6.06279404E-13
   126.224998         5.30883605E-13
   126.389999         4.59254325E-13
   126.555000         3.92055502E-13
   126.720001         3.29893149E-13
   126.885002         2.73308069E-13
   127.050003         2.22769353E-13
   127.214996         1.78668414E-13
   127.379997         1.41314112E-13
   127.544998         1.10928851E-13
   127.709999         8.76456907E-14
   127.875000         7.15064672E-14
   128.039993         6.24612734E-14
   128.205002         6.03688513E-14
   128.369995         6.49982184E-14
   128.535004         7.60315408E-14
   128.699997         9.30680365E-14
   128.865005         1.15628603E-13
   129.029999         1.43161877E-13
   129.195007         1.75050932E-13
   129.360001         2.10620651E-13
   129.524994         2.49146298E-13
   129.690002         2.89862183E-13
   129.854996         3.31971728E-13
   130.020004         3.74657228E-13
   130.184998         4.17091085E-13
   130.350006         4.58446269E-13
   130.514999         4.97907163E-13
   130.679993         5.34680861E-13
   130.845001         5.68007772E-13
   131.009995         5.97171997E-13
   131.175003         6.21510547E-13
   131.339996         6.40423099E-13
   131.505005         6.53379640E-13
   131.669998         6.59928167E-13
   131.835007         6.59700864E-13
   132.000000         6.52419308E-13
   132.164993         6.37898968E-13
   132.330002         6.16051589E-13
   132.494995         5.86887418E-13
   132.660004         5.50514658E-13
   132.824997         5.07138981E-13
   132.990005         4.57060171E-13
   133.154999         4.00668593E-13
   133.320007         3.38439427E-13
   133.485001         2.70926023E-13