 0.   3.561247043E-18
 0.169056863   3.561156053E-18
 0.338113725   -7.406024633E-16
 0.507170618   -6.251569866E-15
 0.67622745   -2.723168913E-14
 0.845284343   -8.180283707E-14
 1.01434124   -1.906619665E-13
 1.18339813   -3.679011848E-13
 1.3524549   -6.126057235E-13
 1.52151179   -9.068221976E-13
 1.69056869   -1.221915581E-12
 1.85962558   -1.530026323E-12
 2.02868247   -1.813947647E-12
 2.19773936   -2.06982066E-12
 2.36679626   -2.301811302E-12
 2.53585315   -2.51322769E-12
 2.7049098   -2.700415846E-12
 2.87396669   -2.853327383E-12
 3.04302359   -2.961358806E-12
 3.21208048   -3.019282957E-12
 3.38113737   -3.028184474E-12
 3.55019426   -2.99041022E-12
 3.71925116   -2.902647307E-12
 3.88830805   -2.752874317E-12
 4.05736494   -2.524591647E-12
 4.22642183   -2.206094682E-12
 4.39547873   -1.79872122E-12
 4.56453562   -1.31798164E-12
 4.73359251   -7.863978023E-13
 4.9026494   -2.226417835E-13
 5.0717063   3.654441387E-13
 5.24076319   9.79205432E-13
 5.4098196   1.620193888E-12
 5.5788765   2.280410669E-12
 5.74793339   2.93928033E-12
 5.91699028   3.570197523E-12
 6.08604717   4.152424932E-12
 6.25510406   4.680162941E-12
 6.42416096   5.162079531E-12
 6.59321785   5.611240639E-12
 6.76227474   6.031561101E-12
 6.93133163   6.4100396E-12
 7.10038853   6.719463527E-12
 7.26944542   6.929397594E-12
 7.43850231   7.018055841E-12
 7.6075592   6.977282467E-12
 7.7766161   6.80842405E-12
 7.94567299   6.513308556E-12
 8.11472988   6.087977778E-12
 8.28378677   5.524300635E-12
 8.45284367   4.818221776E-12
 8.62190056   3.978025374E-12
 8.79095745   3.02529334E-12
 8.96001434   1.986319529E-12
 9.12907124   8.788689177E-13
 9.29812813   -2.967943003E-13
 9.46718502   -1.555646345E-12
 9.63624191   -2.914629475E-12
 9.80529881   -4.375843871E-12
 9.9743557   -5.916187679E-12
 10.1434126   -7.489474319E-12
 10.3124695   -9.039282343E-12
 10.4815264   -1.05143767E-11
 10.6505823   -1.187786848E-11
 10.8196392   -1.310630771E-11
 10.9886961   -1.418199759E-11
 11.157753   -1.508592383E-11
 11.3268099   -1.57971327E-11
 11.4958668   -1.629853717E-11
 11.6649237   -1.658365459E-11
 11.8339806   -1.665767177E-11
 12.0030375   -1.653036215E-11
 12.1720943   -1.620481874E-11
 12.3411512   -1.566978665E-11
 12.5102081   -1.490187661E-11
 12.679265   -1.387756056E-11
 12.8483219   -1.258873561E-11
 13.0173788   -1.105263971E-11
 13.1864357   -9.310694576E-12
 13.3554926   -7.417400895E-12
 13.5245495   -5.426152149E-12
 13.6936064   -3.38006771E-12
 13.8626633   -1.311369416E-12
 14.0317202   7.525022814E-13
 14.2007771   2.782383698E-12
 14.3698339   4.745526888E-12
 14.5388908   6.609185421E-12
 14.7079477   8.346053883E-12
 14.8770046   9.936630511E-12
 15.0460615   1.136576597E-11
 15.2151184   1.261602541E-11
 15.3841753   1.366300042E-11
 15.5532322   1.447662216E-11
 15.7222891   1.502884449E-11
 15.891346   1.530350673E-11
 16.0604019   1.530276079E-11
 16.2294598   1.504622295E-11
 16.3985157   1.456405135E-11
 16.5675735   1.388780931E-11
 16.7366295   1.304499998E-11
 16.9056873   1.205837947E-11
 17.0747433   1.09497203E-11
 17.2438011   9.743156802E-12
 17.4128571   8.465735925E-12
 17.5819149   7.144758743E-12
 17.7509708   5.804206074E-12
 17.9200287   4.46342182E-12
 18.0890846   3.139141074E-12
 18.2581425   1.849303913E-12
 18.4271984   6.154801603E-13
 18.5962563   -5.380216129E-13
 18.7653122   -1.588475445E-12
 18.93437   -2.519741577E-12
 19.103426   -3.32528948E-12
 19.2724838   -4.007663559E-12
 19.4415398   -4.575449394E-12
 19.6105976   -5.040066888E-12
 19.7796535   -5.414696035E-12
 19.9487114   -5.7150569E-12
 20.1177673   -5.960513767E-12
 20.2868252   -6.173497477E-12
 20.4558811   -6.376578952E-12
 20.624939   -6.588503614E-12
 20.7939949   -6.821506034E-12
 20.9630527   -7.081326844E-12
 21.1321087   -7.369826104E-12
 21.3011646   -7.68805939E-12
 21.4702225   -8.037757959E-12
 21.6392784   -8.420352957E-12
 21.8083363   -8.834723751E-12
 21.9773922   -9.275726021E-12
 22.14645   -9.734883039E-12
 22.315506   -1.020290623E-11
 22.4845638   -1.06719477E-11
 22.6536198   -1.11354927E-11
 22.8226776   -1.158574365E-11
 22.9917336   -1.200992084E-11
 23.1607914   -1.238851816E-11
 23.3298473   -1.269709164E-11
 23.4989052   -1.291151821E-11
 23.6679611   -1.30134549E-11
 23.837019   -1.299351859E-11
 24.0060749   -1.285022869E-11
 24.1751328   -1.258617169E-11
 24.3441887   -1.220392277E-11
 24.5132465   -1.170474481E-11
 24.6823025   -1.109017999E-11
 24.8513603   -1.036458593E-11
 25.0204163   -9.536210363E-12
 25.1894741   -8.615121637E-12
 25.35853   -7.609087839E-12
 25.5275879   -6.520868047E-12
 25.6966438   -5.3492215E-12
 25.8657017   -4.094075773E-12
 26.0347576   -2.763080129E-12
 26.2038155   -1.375450643E-12
 26.3728714   3.940258018E-14
 26.5419292   1.448421895E-12
 26.7109852   2.822607599E-12
 26.880043   4.141637554E-12
 27.049099   5.393571006E-12
 27.2181568   6.570363177E-12
 27.3872128   7.663150496E-12
 27.5562706   8.661015481E-12
 27.7253265   9.553672957E-12
 27.8943844   1.033587278E-11
 28.0634403   1.100958387E-11
 28.2324982   1.158204175E-11
 28.4015541   1.206032149E-11
 28.57061   1.244638507E-11
 28.7396679   1.273617323E-11
 28.9087238   1.29238573E-11
 29.0777817   1.300837563E-11
 29.2468376   1.299788922E-11
 29.4158955   1.290870015E-11
 29.5849514   1.275892326E-11
 29.7540092   1.256083605E-11
 29.9230652   1.231674485E-11
 30.092123   1.202087648E-11
 30.261179   1.166588354E-11
 30.4302368   1.124949092E-11
 30.5992928   1.077699041E-11
 30.7683506   1.025842085E-11
 30.9374065   9.702886064E-12
 31.1064644   9.114538985E-12
 31.2755203   8.493154097E-12
 31.4445782   7.838912679E-12
 31.6136341   7.157610008E-12
 31.782692   6.462361896E-12
 31.9517479   5.77015432E-12
 32.1208038   5.095571968E-12
 32.2898636   4.445753661E-12
 32.4589195   3.819969081E-12
 32.6279755   3.213874479E-12
 32.7970314   2.625240303E-12
 32.9660912   2.056888947E-12
 33.1351471   1.514869827E-12
 33.304203   1.003087045E-12
 33.473259   5.188366013E-13
 33.6423187   5.234226545E-14
 33.8113747   -4.087144848E-13
 33.9804306   -8.726389294E-13
 34.1494865   -1.339395066E-12
 34.3185463   -1.801223233E-12
 34.4876022   -2.247645212E-12
 34.6566582   -2.671480658E-12
 34.8257141   -3.072101384E-12
 34.9947739   -3.454286336E-12
 35.1638298   -3.824091217E-12
 35.3328857   -4.184970512E-12
 35.5019417   -4.536577711E-12
 35.6709976   -4.876474224E-12
 35.8400574   -5.202559737E-12
 36.0091133   -5.513746577E-12
 36.1781693   -5.80811137E-12
 36.3472252   -6.079984606E-12
 36.5162849   -6.318672582E-12
 36.6853409   -6.510562922E-12
 36.8543968   -6.644083287E-12
 37.0234528   -6.714538214E-12
 37.1925125   -6.726053308E-12
 37.3615685   -6.689294084E-12
 37.5306244   -6.616206281E-12
 37.6996803   -6.514991671E-12
 37.8687401   -6.387960039E-12
 38.037796   -6.23229246E-12
 38.206852   -6.043121299E-12
 38.3759079   -5.816141405E-12
 38.5449677   -5.548704291E-12
 38.7140236   -5.239622972E-12
 38.8830795   -4.8888389E-12
 39.0521355   -4.498587267E-12
 39.2211952   -4.074614344E-12
 39.3902512   -3.626506647E-12
 39.5593071   -3.165868392E-12
 39.728363   -2.702402972E-12
 39.8974228   -2.239774989E-12
 40.0664787   -1.773599713E-12
 40.2355347   -1.293146146E-12
 40.4045906   -7.855936496E-13
 40.5736504   -2.412371789E-13
 40.7427063   3.438673771E-13
 40.9117622   9.676995533E-13
 41.0808182   1.624206195E-12
 41.2498779   2.305468533E-12
 41.4189339   3.002551116E-12
 41.5879898   3.704994211E-12
 41.7570457   4.400319085E-12
 41.9261055   5.075347694E-12
 42.0951614   5.718844235E-12
 42.2642174   6.324396735E-12
 42.4332733   6.891366384E-12
 42.6023293   7.42273517E-12
 42.771389   7.92149072E-12
 42.9404449   8.38730127E-12
 43.1095009   8.815532505E-12
 43.2785568   9.199794572E-12
 43.4476166   9.535325654E-12
 43.6166725   9.821652172E-12
 43.7857285   1.006216985E-11
 43.9547844   1.026124932E-11
 44.1238441   1.042116133E-11
 44.2929001   1.054091883E-11
 44.461956   1.0618075E-11
 44.631012   1.06521918E-11
 44.8000717   1.064745167E-11
 44.9691277   1.061215525E-11
 45.1381836   1.055553041E-11
 45.3072395   1.048370592E-11
 45.4762993   1.039741557E-11
 45.6453552   1.029281955E-11
 45.8144112   1.016487415E-11
 45.9834671   1.001056009E-11
 46.1525269   9.829941548E-12
 46.3215828   9.624574575E-12
 46.4906387   9.394625702E-12
 46.6596947   9.137317639E-12
 46.8287544   8.84802908E-12
 46.9978104   8.523453644E-12
 47.1668663   8.164503795E-12
 47.3359222   7.776566717E-12
 47.504982   7.366544007E-12
 47.6740379   6.93820305E-12
 47.8430939   6.488847654E-12
 48.0121498   6.009492817E-12
 48.1812096   5.488612169E-12
 48.3502655   4.91726538E-12
 48.5193214   4.292610972E-12
 48.6883774   3.618011056E-12
 48.8574371   2.900253388E-12
 49.0264931   2.146119437E-12
 49.195549   1.360712649E-12
 49.3646049   5.484134739E-13
 49.5336647   -2.84760632E-13
 49.7027206   -1.129643146E-12
 49.8717766   -1.974799881E-12
 50.0408325   -2.809421532E-12
 50.2098885   -3.626175749E-12
 50.3789482   -4.421596769E-12
 50.5480042   -5.193417744E-12
 50.7170601   -5.936048961E-12
 50.886116   -6.637247175E-12
 51.0551758   -7.278041017E-12
 51.2242317   -7.836430289E-12
 51.3932877   -8.292696391E-12
 51.5623436   -8.633495828E-12
 51.7314034   -8.852769212E-12
 51.9004593   -8.949598874E-12
 52.0695152   -8.925282388E-12
 52.2385712   -8.781685448E-12
 52.4076309   -8.522028569E-12
 52.5766869   -8.152770993E-12
 52.7457428   -7.684811121E-12
 52.9147987   -7.132108272E-12
 53.0838585   -6.50810135E-12
 53.2529144   -5.822397252E-12
 53.4219704   -5.079403044E-12
 53.5910263   -4.280761075E-12
 53.7600861   -3.429404113E-12
 53.929142   -2.533526774E-12
 54.0981979   -1.607231167E-12
 54.2672539   -6.67915701E-13
 54.4363136   2.679234601E-13
 54.6053696   1.187968886E-12
 54.7744255   2.084672279E-12
 54.9434814   2.952915473E-12
 55.1125412   3.787403117E-12
 55.2815971   4.581178319E-12
 55.4506531   5.326893007E-12
 55.619709   6.018904992E-12
 55.7887688   6.654780459E-12
 55.9578247   7.234658185E-12
 56.1268806   7.758024258E-12
 56.2959366   8.221402725E-12
 56.4649963   8.617288307E-12
 56.6340523   8.937032538E-12
 56.8031082   9.174832769E-12
 56.9721642   9.331414114E-12
 57.1412201   9.414177771E-12
 57.3102798   9.434657049E-12
 57.4793358   9.404411278E-12
 57.6483917   9.331634424E-12
 57.8174477   9.22103973E-12
 57.9865074   9.07535852E-12
 58.1555634   8.897654315E-12
 58.3246193   8.692164176E-12
 58.4936752   8.463132105E-12
 58.662735   8.212817579E-12
 58.8317909   7.940469463E-12
 59.0008469   7.643875116E-12
 59.1699028   7.322191464E-12
 59.3389626   6.978637286E-12
 59.5080185   6.620936004E-12
 59.6770744   6.259122561E-12
 59.8461304   5.901978992E-12
 60.0151901   5.554081067E-12
 60.1842461   5.215471718E-12
 60.353302   4.883737078E-12
 60.5223579   4.556898262E-12
 60.6914177   4.235087975E-12
 60.8604736   3.920067829E-12
 61.0295296   3.613259865E-12
 61.1985855   3.314234087E-12
 61.3676453   3.020815152E-12
 61.5367012   2.730942208E-12
 61.7057571   2.444905823E-12
 61.8748131   2.166176743E-12
 62.0438728   1.9000346E-12
 62.2129288   1.650846885E-12
 62.3819847   1.419823785E-12
 62.5510406   1.204786921E-12
 62.7201004   1.002066052E-12
 62.8891563   8.092299617E-13
 63.0582123   6.267616634E-13
 63.2272682   4.576619574E-13
 63.396328   3.055904054E-13
 63.5653839   1.728198476E-13
 63.7344398   5.990652039E-14
 63.9034958   -3.316923762E-14
 64.0725555   -1.050987503E-13
 64.2416077   -1.526583222E-13
 64.4106674   -1.717372989E-13
 64.5797272   -1.599684198E-13
 64.7487793   -1.186732597E-13
 64.9178391   -5.28192873E-14
 65.0868912   3.111321422E-14
 65.2559509   1.282416014E-13
 65.4250107   2.372583738E-13
 65.5940628   3.599176621E-13
 65.7631226   4.984925775E-13
 65.9321823   6.527993749E-13
 66.1012344   8.187014977E-13
 66.2702942   9.888160169E-13
 66.4393463   1.154658509E-12
 66.6084061   1.308475247E-12
 66.7774658   1.443573451E-12
 66.9465179   1.553234971E-12
 67.1155777   1.629645637E-12
 67.2846375   1.664269308E-12
 67.4536896   1.650164922E-12
 67.6227493   1.584978459E-12
 67.7918015   1.472634297E-12
 67.9608612   1.322242012E-12
 68.129921   1.144517532E-12
 68.2989731   9.476523299E-13
 68.4680328   7.349913863E-13
 68.6370926   5.057999375E-13
 68.8061447   2.583792013E-13
 68.9752045   -6.543661978E-15
 69.1442566   -2.844149883E-13
 69.3133163   -5.681679628E-13
 69.4823761   -8.51034358E-13
 69.6514282   -1.128921175E-12
 69.820488   -1.400547213E-12
 69.9895477   -1.665783397E-12
 70.1585999   -1.92357805E-12
 70.3276596   -2.171267723E-12
 70.4967117   -2.406025899E-12
 70.6657715   -2.627338234E-12
 70.8348312   -2.838338072E-12
 71.0038834   -3.044385924E-12
 71.1729431   -3.249601976E-12
 71.3419952   -3.453015868E-12
 71.511055   -3.6469135E-12
 71.6801147   -3.819192358E-12
 71.8491669   -3.957702655E-12
 72.0182266   -4.054838496E-12
 72.1872864   -4.109213837E-12
 72.3563385   -4.123684467E-12
 72.5253983   -4.101439674E-12
 72.6944504   -4.042576603E-12
 72.8635101   -3.943429784E-12
 73.0325699   -3.798904767E-12
 73.201622   -3.605768678E-12
 73.3706818   -3.364569257E-12
 73.5397415   -3.078819101E-12
 73.7087936   -2.752185198E-12
 73.8778534   -2.38617676E-12
 74.0469055   -1.979951793E-12
 74.2159653   -1.532937297E-12
 74.385025   -1.047840092E-12
 74.5540771   -5.32110868E-13
 74.7231369   3.891511188E-15
 74.8921967   5.510878212E-13
 75.0612488   1.105484627E-12
 75.2303085   1.66898266E-12
 75.3993607   2.246308391E-12
 75.5684204   2.83984663E-12
 75.7374802   3.445411491E-12
 75.9065323   4.051662218E-12
 76.075592   4.643268409E-12
 76.2446518   5.205793262E-12
 76.4137039   5.728985862E-12
 76.5827637   6.206706156E-12
 76.7518158   6.634055718E-12
 76.9208755   7.003840216E-12
 77.0899353   7.305525108E-12
 77.2589874   7.527253126E-12
 77.4280472   7.659459005E-12
 77.5971069   7.697795526E-12
 77.7661591   7.642935763E-12
 77.9352188   7.497877319E-12
 78.1042709   7.264449459E-12
 78.2733307   6.942168628E-12
 78.4423904   6.530262876E-12
 78.6114426   6.03165521E-12
 78.7805023   5.456061384E-12
 78.9495544   4.819942622E-12
 79.1186142   4.142787675E-12
 79.287674   3.4418874E-12
 79.4567261   2.728955516E-12
 79.6257858   2.010286902E-12
 79.7948456   1.290215547E-12
 79.9638977   5.752945863E-13
 80.1329575   -1.237276476E-13
 80.3020096   -7.932777157E-13
 80.4710693   -1.420892484E-12
 80.6401291   -1.998760315E-12
 80.8091812   -2.524877009E-12
 80.978241   -3.000868434E-12
 81.1473007   -3.428918391E-12
 81.3163528   -3.809548163E-12
 81.4854126   -4.141934191E-12
 81.6544647   -4.426215904E-12
 81.8235245   -4.665453787E-12
 81.9925842   -4.865988688E-12
 82.1616364   -5.035005399E-12
 82.3306961   -5.177352037E-12
 82.4997559   -5.293608434E-12
 82.668808   -5.38107189E-12
 82.8378677   -5.437168077E-12
 83.0069199   -5.463060126E-12
 83.1759796   -5.465281873E-12
 83.3450394   -5.454447224E-12
 83.5140915   -5.441796753E-12
 83.6831512   -5.435758614E-12
 83.852211   -5.440545583E-12
 84.0212631   -5.457152525E-12
 84.1903229   -5.48576462E-12
 84.359375   -5.52756018E-12
 84.5284348   -5.584900164E-12
 84.6974945   -5.660115172E-12
 84.8665466   -5.754144123E-12
 85.0356064   -5.866085829E-12
 85.2046585   -5.994104518E-12
 85.3737183   -6.136590801E-12
 85.542778   -6.292515554E-12
 85.7118301   -6.460290636E-12
 85.8808899   -6.6358633E-12
 86.0499496   -6.811396065E-12
 86.2190018   -6.975693027E-12
 86.3880615   -7.116448056E-12
 86.5571136   -7.223142657E-12
 86.7261734   -7.289038297E-12
 86.8952332   -7.311289595E-12
 87.0642853   -7.289541366E-12
 87.233345   -7.224064229E-12
 87.4024048   -7.114816548E-12
 87.5714569   -6.96175409E-12
 87.7405167   -6.765732939E-12
 87.9095688   -6.529029921E-12
 88.0786285   -6.254908917E-12
 88.2476883   -5.946478986E-12
 88.4167404   -5.605930217E-12
 88.5858002   -5.234891947E-12
 88.7548599   -4.835812306E-12
 88.923912   -4.413459181E-12
 89.0929718   -3.975271067E-12
 89.2620239   -3.530072068E-12
 89.4310837   -3.0858688E-12
 89.6001434   -2.648094417E-12
 89.7691956   -2.219486313E-12
 89.9382553   -1.80171416E-12
 90.1073151   -1.397479897E-12
 90.2763672   -1.011679564E-12
 90.4454269   -6.507529975E-13
 90.6144791   -3.204708092E-13
 90.7835388   -2.386647297E-14
 90.9525986   2.394039827E-13
 91.1216507   4.716063152E-13
 91.2907104   6.747775624E-13
 91.4597702   8.492600069E-13
 91.6288223   9.938958294E-13
 91.7978821   1.108164667E-12
 91.9669342   1.19422148E-12
 92.135994   1.257696855E-12
 92.3050537   1.306190074E-12
 92.4741058   1.346389038E-12
 92.6431656   1.381980576E-12
 92.8122177   1.413212429E-12
 92.9812775   1.438970471E-12
 93.1503372   1.459564782E-12
 93.3193893   1.478416565E-12
 93.4884491   1.50094531E-12
 93.6575089   1.532453526E-12
 93.826561   1.574859926E-12
 93.9956207   1.626061915E-12
 94.1646729   1.681372923E-12
 94.3337326   1.736533226E-12
 94.5027924   1.790439325E-12
 94.6718445   1.844665263E-12
 94.8409042   1.90140243E-12
 95.009964   1.959956503E-12
 95.1790161   2.014990822E-12
 95.3480759   2.057044205E-12
 95.517128   2.07594727E-12
 95.6861877   2.063697737E-12
 95.8552475   2.015896131E-12
 96.0242996   1.930853264E-12
 96.1933594   1.80623344E-12
 96.3624191   1.636826091E-12
 96.5314713   1.415235876E-12
 96.700531   1.134209371E-12
 96.8695831   7.902652599E-13
 97.0386429   3.854002349E-13
 97.2077026   -7.364460875E-14
 97.3767548   -5.78598855E-13
 97.5458145   -1.123306851E-12
 97.7148743   -1.704887642E-12
 97.8839264   -2.322613889E-12
 98.0529861   -2.974788818E-12
 98.2220383   -3.656497848E-12
 98.391098   -4.359754311E-12
 98.5601578   -5.075836886E-12
 98.7292099   -5.798363525E-12
 98.8982697   -6.524638035E-12
 99.0673294   -7.254090991E-12
 99.2363815   -7.984936497E-12
 99.4054413   -8.710946894E-12
 99.5744934   -9.420591911E-12
 99.7435532   -1.009947941E-11
 99.9126129   -1.073424856E-11
 100.081665   -1.131603925E-11
 100.250725   -1.184110102E-11
 100.419777   -1.230885793E-11
 100.588837   -1.271863951E-11
 100.757896   -1.306741087E-11
 100.926949   -1.334988543E-11
 101.096008   -1.356063525E-11
 101.265068   -1.369638691E-11
 101.43412   -1.375680039E-11
 101.60318   -1.374317587E-11
 101.772232   -1.365614479E-11
 101.941292   -1.34943029E-11
 102.110352   -1.325495009E-11
 102.279404   -1.293667343E-11
 102.448463   -1.254209844E-11
 102.617523   -1.207876594E-11
 102.786575   -1.155738786E-11
 102.955635   -1.09882884E-11
 103.124687   -1.03781584E-11
 103.293747   -9.72908993E-12
 103.462807   -9.040251187E-12
 103.631859   -8.311157318E-12
 103.800919   -7.544395664E-12
 103.969978   -6.746277148E-12
 104.13903   -5.9251987E-12
 104.30809   -5.089218109E-12
 104.477142   -4.244383491E-12
 104.646202   -3.394888103E-12
 104.815262   -2.544624234E-12
 104.984314   -1.69882565E-12
 105.153374   -8.644445294E-13
 105.322433   -4.899317172E-14
 105.491486   7.412951546E-13
 105.660545   1.502674612E-12
 105.829597   2.233584628E-12
 105.998657   2.933100811E-12
 106.167717   3.599059635E-12
 106.336769   4.22744088E-12
 106.505829   4.813150746E-12
 106.674881   5.351802768E-12
 106.843941   5.84122594E-12
 107.013   6.281643608E-12
 107.182053   6.674476076E-12
 107.351112   7.020568588E-12
 107.520172   7.319053349E-12
 107.689224   7.567384219E-12
 107.858284   7.762487701E-12
 108.027336   7.90207743E-12
 108.196396   7.985401403E-12
 108.365456   8.01293927E-12
 108.534508   7.985300789E-12
 108.703568   7.902366261E-12
 108.872627   7.762923117E-12
 109.041679   7.565090047E-12
 109.210739   7.307074217E-12
 109.379791   6.987535116E-12
 109.548851   6.605906794E-12
 109.717911   6.162253867E-12
 109.886963   5.657429386E-12
 110.056023   5.093431319E-12
 110.225082   4.473731281E-12
 110.394135   3.803596327E-12
 110.563194   3.089601274E-12
 110.732246   2.339039335E-12
 110.901306   1.559222695E-12
 111.070366   7.569865958E-13
 111.239418   -6.07069733E-14
 111.408478   -8.860999499E-13
 111.577538   -1.710386065E-12
 111.74659   -2.523640802E-12
 111.915649   -3.315672173E-12
 112.084702   -4.076143069E-12
 112.253761   -4.795041968E-12
 112.422821   -5.46264943E-12
 112.591873   -6.069728054E-12
 112.760933   -6.608132878E-12
 112.929993   -7.072315823E-12
 113.099045   -7.460441119E-12
 113.268105   -7.774975976E-12
 113.437157   -8.02176988E-12
 113.606216   -8.207962955E-12
 113.775276   -8.339850512E-12
 113.944328   -8.42171298E-12
 114.113388   -8.456005861E-12
 114.28244   -8.444867201E-12
 114.4515   -8.391458535E-12
 114.62056   -8.300356062E-12
 114.789612   -8.176600889E-12
 114.958672   -8.024201095E-12
 115.127731   -7.845229674E-12
 115.296783   -7.640371842E-12
 115.465843   -7.410653688E-12
 115.634895   -7.159261031E-12
 115.803955   -6.892200786E-12
 115.973015   -6.617263595E-12
 116.142067   -6.341942596E-12
 116.311127   -6.071704337E-12
 116.480186   -5.809708617E-12
 116.649239   -5.558089145E-12
 116.818298   -5.31972166E-12
 116.98735   -5.099239607E-12
 117.15641   -4.902163744E-12
 117.32547   -4.732762359E-12
 117.494522   -4.592067612E-12
 117.663582   -4.477378971E-12
 117.832642   -4.383880845E-12
 118.001694   -4.307171807E-12
 118.170753   -4.245160647E-12
 118.339806   -4.198001322E-12
 118.508865   -4.165869472E-12
 118.677925   -4.146456182E-12
 118.846977   -4.133292666E-12
 119.016037   -4.116454139E-12
 119.185097   -4.084921203E-12
 119.354149   -4.029667225E-12
 119.523209   -3.945032235E-12
 119.692261   -3.828316136E-12
 119.86132   -3.678052654E-12
 120.03038   -3.49229673E-12
 120.199432   -3.268248302E-12
 120.368492   -3.003270159E-12
 120.537552   -2.696322332E-12
 120.706604   -2.348396E-12
 120.875664   -1.961740232E-12
 121.044716   -1.537672116E-12
 121.213776   -1.0751274E-12
 121.382835   -5.711283768E-13
 121.551888   -2.252617038E-14
 121.720947   5.711879537E-13
 121.889999   1.206102926E-12
 122.059059   1.874005942E-12
 122.228119   2.564707344E-12
 122.397171   3.268658347E-12
 122.566231   3.978836358E-12
 122.735291   4.690735213E-12
 122.904343   5.400829523E-12
 123.073402   6.104779009E-12
 123.242455   6.796517342E-12
 123.411514   7.468818099E-12
 123.580574   8.114626159E-12
 123.749626   8.728172698E-12
 123.918686   9.30510443E-12
 124.087746   9.84158588E-12
 124.256798   1.033326636E-11
 124.425858   1.077486711E-11
 124.59491   1.116093329E-11
 124.763969   1.148717406E-11
 124.933029   1.175150689E-11
 125.102081   1.195419718E-11
 125.271141   1.209684176E-11
 125.440201   1.21809134E-11
 125.609253   1.220692037E-11
 125.778313   1.217434313E-11
 125.947365   1.208261616E-11
 126.116425   1.193216879E-11
 126.285484   1.172470541E-11
 126.454536   1.146256354E-11
 126.623596   1.114746229E-11
 126.792656   1.077945806E-11
 126.961708   1.035673804E-11
 127.130768   9.876410453E-12
 127.29982   9.336067509E-12
 127.46888   8.734973682E-12
 127.637939   8.074726651E-12
 127.806992   7.359074287E-12
 127.976051   6.593317038E-12
 128.145111   5.783645264E-12
 128.314163   4.936615786E-12
 128.483215   4.058984919E-12
 128.652283   3.157528058E-12
 128.821335   2.238719626E-12
 128.990387   1.308460285E-12
 129.159454   3.719738547E-13
 129.328506   -5.659708813E-13
 129.497559   -1.500452648E-12
 129.666626   -2.425775292E-12
 129.835678   -3.334951672E-12
 130.00473   -4.219813301E-12
 130.173782   -5.071504414E-12
 130.34285   -5.881267695E-12
 130.511902   -6.641261326E-12
 130.680954   -7.345164407E-12
 130.850021   -7.988496149E-12
 131.019073   -8.568562526E-12
 131.188126   -9.083921115E-12
 131.357193   -9.533737515E-12
 131.526245   -9.916985635E-12
 131.695297   -1.023191688E-11
 131.864365   -1.047560563E-11
 132.033417   -1.064427279E-11
 132.202469   -1.073422861E-11
 132.371536   -1.074285626E-11
 132.540588   -1.066907673E-11
 132.709641   -1.051329683E-11
 132.878693   -1.027755572E-11
 133.04776   -9.964616805E-12
 133.216812   -9.578019801E-12
 133.385864   -9.121960132E-12
 133.554932   -8.601350535E-12
 133.723984   -8.021414262E-12
 133.893036   -7.386808179E-12
 134.062103   -6.700825658E-12
 134.231155   -5.964721772E-12
 134.400208   -5.177813473E-12
 134.569275   -4.339002681E-12
 134.738327   -3.448197457E-12
 134.907379   -2.507624317E-12
 135.076431   -1.52226376E-12
 135.245499   -4.985167552E-13
 135.414551   5.563396965E-13
 135.583603   1.635418363E-12
 135.75267   2.731947264E-12
 135.921722   3.838441717E-12
 136.090775   4.9459087E-12
 136.259842   6.044236726E-12
 136.428894   7.123415573E-12
 136.597946   8.174976321E-12
 136.767014   9.193063845E-12
 136.936066   1.01732945E-11
 137.105118   1.111143295E-11
 137.274185   1.200090721E-11
 137.443237   1.283265421E-11
 137.612289   1.359571483E-11
 137.781342   1.427990191E-11
 137.950409   1.487780212E-11
 138.119461   1.538590262E-11
 138.288513   1.580400047E-11
 138.457581   1.613364997E-11
 138.626633   1.637694147E-11
 138.795685   1.653622898E-11
 138.964752   1.661493165E-11
 139.133804   1.661834385E-11
 139.302856   1.655311652E-11
 139.471924   1.642573404E-11
 139.640976   1.6240502E-11
 139.810028   1.599856012E-11
 139.979095   1.56987999E-11
 140.148148   1.534044766E-11
 140.3172   1.492601182E-11
 140.486252   1.446272529E-11
 140.655319   1.396172761E-11
 140.824371   1.343519653E-11
 140.993423   1.289323162E-11
 141.162491   1.23419391E-11
 141.331543   1.17835585E-11
 141.500595   1.121805079E-11
 141.669662   1.064482617E-11
 141.838715   1.006352033E-11
 142.007767   9.473710878E-12
 142.176834   8.874287589E-12
 142.345886   8.263644109E-12
 142.514938   7.640831544E-12
 142.68399   7.00723507E-12
 142.853058   6.367395326E-12
 143.02211   5.728141919E-12
 143.191162   5.096164376E-12
 143.360229   4.475348477E-12
 143.529282   3.865317354E-12
 143.698334   3.262198888E-12
 143.867401   2.661040659E-12
 144.036453   2.058665521E-12
 144.205505   1.455326311E-12
 144.374573   8.545049976E-13
 144.543625   2.614536192E-13
 144.712677   -3.184339728E-13
 144.881744   -8.804020338E-13
 145.050797   -1.420158153E-12
 145.219849   -1.933093876E-12
 145.388901   -2.414256729E-12
 145.557968   -2.859055874E-12
 145.72702   -3.264525586E-12
 145.896072   -3.629985635E-12
 146.06514   -3.956741618E-12
 146.234192   -4.246669422E-12
 146.403244   -4.500648985E-12
 146.572311   -4.717638606E-12
 146.741364   -4.894834538E-12
 146.910416   -5.029450814E-12
 147.079483   -5.119880648E-12
 147.248535   -5.166820097E-12
 147.417587   -5.172222893E-12
 147.586655   -5.138795205E-12
 147.755707   -5.0687822E-12
 147.924759   -4.964200058E-12
 148.093811   -4.827456143E-12
 148.262878   -4.662164751E-12
 148.431931   -4.473249462E-12
 148.600983   -4.266212383E-12
 148.77005   -4.046055591E-12
 148.939102   -3.816773286E-12
 149.108154   -3.580925053E-12
 149.277222   -3.339914283E-12
 149.446274   -3.095048523E-12
 149.615326   -2.847158707E-12
 149.784393   -2.596479238E-12
 149.953445   -2.341738132E-12
 150.122498   -2.080109088E-12
 150.29155   -1.80778309E-12
 150.460617   -1.520932577E-12
 150.629669   -1.216403172E-12
 150.798721   -8.92290148E-13
 150.967789   -5.471166055E-13
 151.136841   -1.792371183E-13
 151.305893   2.136067744E-13
 151.47496   6.340238122E-13
 151.644012   1.084098631E-12
 151.813065   1.564698024E-12
 151.982132   2.075126963E-12
 152.151184   2.614132001E-12
 152.320236   3.18033642E-12
 152.489304   3.773101623E-12
 152.658356   4.392088256E-12
 152.827408   5.036825991E-12
 152.99646   5.706075369E-12
 153.165527   6.398191872E-12
 153.334579   7.111908285E-12
 153.503632   7.847065879E-12
 153.672699   8.604729776E-12
 153.841751   9.385913921E-12
 154.010803   1.018976917E-11
 154.179871   1.101195003E-11
 154.348923   1.184431199E-11
 154.517975   1.267600087E-11
 154.687042   1.349536108E-11
 154.856094   1.429141441E-11
 155.025146   1.505425992E-11
 155.194214   1.57742517E-11
 155.363266   1.644105165E-11
 155.532318   1.704338927E-11
 155.70137   1.756978937E-11
 155.870438   1.801021658E-11
 156.03949   1.835698607E-11
 156.208542   1.860467856E-11
 156.377609   1.874884449E-11
 156.546661   1.87846648E-11
 156.715714   1.870673581E-11
 156.884781   1.851023328E-11
 157.053833   1.819303562E-11
 157.222885   1.775736502E-11
 157.391953   1.720941098E-11
 157.561005   1.655749322E-11
 157.730057   1.580903811E-11
 157.899109   1.496886816E-11
 158.068176   1.403962623E-11
 158.237228   1.30237765E-11
 158.406281   1.192636007E-11
 158.575348   1.07563073E-11
 158.7444   9.525947739E-12
 158.913452   8.24857023E-12
 159.08252   6.936356871E-12
 159.251572   5.599438448E-12
 159.420624   4.246521537E-12
 159.589691   2.886356085E-12
 159.758743   1.528273059E-12
 159.927795   1.812545475E-13
 160.096863   -1.148095399E-12
 160.265915   -2.456867175E-12
 160.434967   -3.745610593E-12
 160.604019   -5.015833235E-12
 160.773087   -6.266749272E-12
 160.942139   -7.493200505E-12
 161.111191   -8.686076164E-12
 161.280258   -9.83510582E-12
 161.44931   -1.093223168E-11
 161.618362   -1.197369027E-11
 161.78743   -1.295938617E-11
 161.956482   -1.389030297E-11
 162.125534   -1.476558632E-11
 162.294601   -1.558097054E-11
 162.463654   -1.632931637E-11
 162.632706   -1.700257123E-11
 162.801773   -1.759346141E-11
 162.970825   -1.809561008E-11
 163.139877   -1.850247039E-11
 163.308929   -1.880608863E-11
 163.477997   -1.899730893E-11
 163.647049   -1.906725298E-11
 163.816101   -1.901024477E-11
 163.985168   -1.882540131E-11
 164.154221   -1.851636552E-11
 164.323273   -1.808878568E-11
 164.49234   -1.754675572E-11
 164.661392   -1.689095912E-11
 164.830444   -1.611949463E-11
 164.999512   -1.523010364E-11
 165.168564   -1.422375499E-11
 165.337616   -1.310681338E-11
 165.506668   -1.189047645E-11
 165.675735   -1.05887972E-11
 165.844788   -9.216113983E-12
 166.01384   -7.78587611E-12
 166.182907   -6.310759641E-12
 166.351959   -4.803628415E-12
 166.521011   -3.278068355E-12
 166.690079   -1.747829854E-12
 166.859131   -2.253248586E-13
 167.028183   1.2792586E-12
 167.19725   2.758218133E-12
 167.366302   4.204519979E-12