   0.00000000         0.00000000    
  0.165000007         0.00000000    
  0.330000013         9.05448525E-18
  0.495000005         7.27215174E-17
  0.660000026         3.09295987E-16
  0.824999988         9.21656021E-16
  0.990000010         2.15251845E-15
   1.15499997         4.18917762E-15
   1.32000005         7.06354539E-15
   1.48500001         1.06068871E-14
   1.64999998         1.44943888E-14
   1.81500006         1.83653379E-14
   1.98000002         2.19622734E-14
   2.14499998         2.52228878E-14
   2.30999994         2.82856658E-14
   2.47499990         3.14190304E-14
   2.64000010         3.49176085E-14
   2.80500007         3.90160858E-14
   2.97000003         4.38429099E-14
   3.13499999         4.94022175E-14
   3.29999995         5.55581853E-14
   3.46499991         6.20042076E-14
   3.63000011         6.82348871E-14
   3.79500008         7.35538678E-14
   3.96000004         7.71538188E-14
   4.12500000         7.82598744E-14
   4.28999996         7.62943582E-14
   4.45499992         7.09910917E-14
   4.61999989         6.24091707E-14
   4.78499985         5.08367762E-14
   4.94999981         3.66327384E-14
   5.11499977         2.00755482E-14
   5.28000021         1.27902314E-15
   5.44500017        -1.98055497E-14
   5.61000013        -4.33237871E-14
   5.77500010        -6.94346653E-14
   5.94000006        -9.82396537E-14
   6.10500002        -1.29734534E-13
   6.26999998        -1.63773387E-13
   6.43499994        -2.00031940E-13
   6.59999990        -2.37980452E-13
   6.76499987        -2.76888484E-13
   6.92999983        -3.15891492E-13
   7.09499979        -3.54106582E-13
   7.26000023        -3.90780019E-13
   7.42500019        -4.25394420E-13
   7.59000015        -4.57695622E-13
   7.75500011        -4.87629848E-13
   7.92000008        -5.15208698E-13
   8.08500004        -5.40384469E-13
   8.25000000        -5.62968509E-13
   8.41499996        -5.82620757E-13
   8.57999992        -5.98903197E-13
   8.74499989        -6.11345935E-13
   8.90999985        -6.19504773E-13
   9.07499981        -6.22999861E-13
   9.23999977        -6.21535646E-13
   9.40499973        -6.14927380E-13
   9.56999969        -6.03125568E-13
   9.73499966        -5.86223127E-13
   9.89999962        -5.64433266E-13
   10.0649996        -5.38021559E-13
   10.2299995        -5.07230922E-13
   10.3950005        -4.72227455E-13
   10.5600004        -4.33113398E-13
   10.7250004        -3.89996520E-13
   10.8900003        -3.43094639E-13
   11.0550003        -2.92819236E-13
   11.2200003        -2.39802264E-13
   11.3850002        -1.84859371E-13
   11.5500002        -1.28922833E-13
   11.7150002        -7.29828117E-14
   11.8800001        -1.80680446E-14
   12.0450001         3.47324606E-14
   12.2100000         8.42402049E-14
   12.3750000         1.29181835E-13
   12.5400000         1.68210037E-13
   12.7049999         1.99944960E-13
   12.8699999         2.23001684E-13
   13.0349998         2.35988204E-13
   13.1999998         2.37487628E-13
   13.3649998         2.26059907E-13
   13.5299997         2.00290115E-13
   13.6949997         1.58882646E-13
   13.8599997         1.00772926E-13
   14.0249996         2.51992082E-14
   14.1899996        -6.83039711E-14
   14.3549995        -1.79982724E-13
   14.5200005        -3.09944344E-13
   14.6850004        -4.58215280E-13
   14.8500004        -6.24700161E-13
   15.0150003        -8.09066952E-13
   15.1800003        -1.01063613E-12
   15.3450003        -1.22827594E-12
   15.5100002        -1.46040189E-12
   15.6750002        -1.70501720E-12
   15.8400002        -1.95976807E-12
   16.0049992        -2.22197087E-12
   16.1700001        -2.48857098E-12
   16.3349991        -2.75614124E-12
   16.5000000        -3.02095241E-12
   16.6650009        -3.27902462E-12
   16.8299999        -3.52633829E-12
   16.9950008        -3.75893414E-12
   17.1599998        -3.97304845E-12
   17.3250008        -4.16504158E-12
   17.4899998        -4.33136816E-12
   17.6550007        -4.46852017E-12
   17.8199997        -4.57310101E-12
   17.9850006        -4.64197257E-12
   18.1499996        -4.67242174E-12
   18.3150005        -4.66233389E-12
   18.4799995        -4.61024448E-12
   18.6450005        -4.51532518E-12
   18.8099995        -4.37733487E-12
   18.9750004        -4.19663132E-12
   19.1399994        -3.97425322E-12
   19.3050003        -3.71205280E-12
   19.4699993        -3.41276053E-12
   19.6350002        -3.08000175E-12
   19.7999992        -2.71818202E-12
   19.9650002        -2.33232010E-12
   20.1299992        -1.92795107E-12
   20.2950001        -1.51108314E-12
   20.4599991        -1.08823887E-12
   20.6250000        -6.66517460E-13
   20.7900009        -2.53536151E-13
   20.9549999         1.42722639E-13
   21.1200008         5.14169653E-13
   21.2849998         8.52864600E-13
   21.4500008         1.15119264E-12
   21.6149998         1.40194453E-12
   21.7800007         1.59833431E-12
   21.9449997         1.73404650E-12
   22.1100006         1.80336366E-12
   22.2749996         1.80138109E-12
   22.4400005         1.72420964E-12
   22.6049995         1.56911333E-12
   22.7700005         1.33452819E-12
   22.9349995         1.01998770E-12
   23.1000004         6.26050752E-13
   23.2649994         1.54262033E-13
   23.4300003        -3.92713856E-13
   23.5949993        -1.01098329E-12
   23.7600002        -1.69530525E-12
   23.9249992        -2.43909754E-12
   24.0900002        -3.23458794E-12
   24.2549992        -4.07293947E-12
   24.4200001        -4.94443288E-12
   24.5849991        -5.83850156E-12
   24.7500000        -6.74362823E-12
   24.9150009        -7.64748594E-12
   25.0799999        -8.53694806E-12
   25.2450008        -9.39831459E-12
   25.4099998        -1.02175785E-11
   25.5750008        -1.09807736E-11
   25.7399998        -1.16740142E-11
   25.9050007        -1.22837114E-11
   26.0699997        -1.27966067E-11
   26.2350006        -1.31998553E-11
   26.3999996        -1.34812239E-11
   26.5650005        -1.36293477E-11
   26.7299995        -1.36340045E-11
   26.8950005        -1.34863605E-11
   27.0599995        -1.31791236E-11
   27.2250004        -1.27065251E-11
   27.3899994        -1.20644605E-11
   27.5550003        -1.12505161E-11
   27.7199993        -1.02641342E-11
   27.8850002        -9.10671278E-12
   28.0499992        -7.78171191E-12
   28.2150002        -6.29462715E-12
   28.3799992        -4.65289829E-12
   28.5450001        -2.86579137E-12
   28.7099991        -9.44345080E-13
   28.8750000         1.09867681E-12
   29.0400009         3.24875912E-12
   29.2049999         5.48964650E-12
   29.3700008         7.80346621E-12
   29.5349998         1.01708234E-11
   29.7000008         1.25711004E-11
   29.8649998         1.49827616E-11
   30.0300007         1.73833985E-11
   30.1949997         1.97500592E-11
   30.3600006         2.20594740E-11
   30.5249996         2.42882606E-11
   30.6900005         2.64132136E-11
   30.8549995         2.84115214E-11
   31.0200005         3.02613351E-11
   31.1849995         3.19417652E-11
   31.3500004         3.34330480E-11
   31.5149994         3.47167885E-11
   31.6800003         3.57764061E-11
   31.8449993         3.65969269E-11
   32.0099983         3.71655762E-11
   32.1749992         3.74718485E-11
   32.3400002         3.75076498E-11
   32.5050011         3.72674253E-11
   32.6699982         3.67482815E-11
   32.8349991         3.59498646E-11
   33.0000000         3.48746934E-11
   33.1650009         3.35281490E-11
   33.3300018         3.19184019E-11
   33.4949989         3.00564157E-11
   33.6599998         2.79558876E-11
   33.8250008         2.56329229E-11
   33.9900017         2.31059616E-11
   34.1549988         2.03957233E-11
   34.3199997         1.75249867E-11
   34.4850006         1.45184212E-11
   34.6500015         1.14023825E-11
   34.8149986         8.20462014E-12
   34.9799995         4.95394004E-12
   35.1450005         1.67984073E-12
   35.3100014        -1.58771900E-12
   35.4749985        -4.81859431E-12
   35.6399994        -7.98275508E-12
   35.8050003        -1.10505875E-11
   35.9700012        -1.39932493E-11
   36.1349983        -1.67831166E-11
   36.2999992        -1.93941495E-11
   36.4650002        -2.18021538E-11
   36.6300011        -2.39851489E-11
   36.7949982        -2.59233451E-11
   36.9599991        -2.75994835E-11
   37.1250000        -2.89989855E-11
   37.2900009        -3.01101262E-11
   37.4550018        -3.09243013E-11
   37.6199989        -3.14361696E-11
   37.7849998        -3.16437258E-11
   37.9500008        -3.15482744E-11
   38.1150017        -3.11541834E-11
   38.2799988        -3.04690995E-11
   38.4449997        -2.95038369E-11
   38.6100006        -2.82723549E-11
   38.7750015        -2.67916661E-11
   38.9399986        -2.50817474E-11
   39.1049995        -2.31651833E-11
   39.2700005        -2.10668826E-11
   39.4350014        -1.88135844E-11
   39.5999985        -1.64336652E-11
   39.7649994        -1.39567186E-11
   39.9300003        -1.14134526E-11
   40.0950012        -8.83534305E-12
   40.2599983        -6.25427574E-12
   40.4249992        -3.70207814E-12
   40.5900002        -1.21009485E-12
   40.7550011         1.19120284E-12
   40.9199982         3.47267939E-12
   41.0849991         5.60673296E-12
   41.2500000         7.56759152E-12
   41.4150009         9.33164830E-12
   41.5800018         1.08778273E-11
   41.7449989         1.21879659E-11
   41.9099998         1.32471603E-11
   42.0750008         1.40439422E-11
   42.2400017         1.45703536E-11
   42.4049988         1.48219371E-11
   42.5699997         1.47977065E-11
   42.7350006         1.45001676E-11
   42.9000015         1.39353416E-11
   43.0649986         1.31128945E-11
   43.2299995         1.20460239E-11
   43.3950005         1.07513659E-11
   43.5600014         9.24867561E-12
   43.7249985         7.56055375E-12
   43.8899994         5.71205626E-12
   44.0550003         3.73043913E-12
   44.2200012         1.64482653E-12
   44.3849983        -5.14017160E-13
   44.5499992        -2.71411409E-12
   44.7150002        -4.92265777E-12
   44.8800011        -7.10654322E-12
   45.0449982        -9.23282804E-12
   45.2099991        -1.12690968E-11
   45.3750000        -1.31837796E-11
   45.5400009        -1.49464573E-11
   45.7050018        -1.65281799E-11
   45.8699989        -1.79018762E-11
   46.0349998        -1.90428142E-11
   46.2000008        -1.99290445E-11
   46.3650017        -2.05418408E-11
   46.5299988        -2.08659669E-11
   46.6949997        -2.08897830E-11
   46.8600006        -2.06054358E-11
   47.0250015        -2.00089407E-11
   47.1899986        -1.91003151E-11
   47.3549995        -1.78836494E-11
   47.5200005        -1.63672253E-11
   47.6850014        -1.45634633E-11
   47.8499985        -1.24888268E-11
   48.0149994        -1.01635974E-11
   48.1800003        -7.61165783E-12
   48.3450012        -4.86028015E-12
   48.5099983        -1.93992457E-12
   48.6749992         1.11605636E-12
   48.8400002         4.27176957E-12
   49.0050011         7.48919676E-12
   49.1699982         1.07287278E-11
   49.3349991         1.39496496E-11
   49.5000000         1.71106289E-11
   49.6650009         2.01701988E-11
   49.8300018         2.30871450E-11
   49.9949989         2.58209704E-11
   50.1599998         2.83323903E-11
   50.3250008         3.05838271E-11
   50.4900017         3.25399187E-11
   50.6549988         3.41679914E-11
   50.8199997         3.54384820E-11
   50.9850006         3.63253108E-11
   51.1500015         3.68062247E-11
   51.3149986         3.68632000E-11
   51.4799995         3.64827543E-11
   51.6450005         3.56562488E-11
   51.8100014         3.43800440E-11
   51.9749985         3.26556386E-11
   52.1399994         3.04896421E-11
   52.3050003         2.78938053E-11
   52.4700012         2.48848962E-11
   52.6349983         2.14846769E-11
   52.7999992         1.77197493E-11
   52.9650002         1.36213393E-11
   53.1300011         9.22502526E-12
   53.2949982         4.57047985E-12
   53.4599991        -2.98918523E-13
   53.6250000        -5.33644873E-12
   53.7900009        -1.04924316E-11
   53.9550018        -1.57146761E-11
   54.1199989        -2.09490793E-11
   54.2849998        -2.61400693E-11
   54.4500008        -3.12314341E-11
   54.6150017        -3.61668716E-11
   54.7799988        -4.08906242E-11
   54.9449997        -4.53481246E-11
   55.1100006        -4.94865121E-11
   55.2750015        -5.32551885E-11
   55.4399986        -5.66064279E-11
   55.6049995        -5.94959429E-11
   55.7700005        -6.18834220E-11
   55.9350014        -6.37328662E-11
   56.0999985        -6.50133072E-11
   56.2649994        -6.56987242E-11
   56.4300003        -6.57687446E-11
   56.5950012        -6.52089216E-11
   56.7599983        -6.40108799E-11
   56.9249992        -6.21727739E-11
   57.0900002        -5.96992872E-11
   57.2550011        -5.66016539E-11
   57.4199982        -5.28973879E-11
   57.5849991        -4.86102582E-11
   57.7500000        -4.37700952E-11
   57.9150009        -3.84125891E-11
   58.0800018        -3.25788702E-11
   58.2449989        -2.63152763E-11
   58.4099998        -1.96729213E-11
   58.5750008        -1.27071721E-11
   58.7400017        -5.47708190E-12
   58.9049988         1.95516303E-12
   59.0699997         9.52479241E-12
   59.2350006         1.71650871E-11
   59.4000015         2.48080168E-11
   59.5649986         3.23848413E-11
   59.7299995         3.98269924E-11
   59.8950005         4.70667810E-11
   60.0600014         5.40380865E-11
   60.2249985         6.06769357E-11
   60.3899994         6.69221692E-11
   60.5550003         7.27158264E-11
   60.7200012         7.80039505E-11
   60.8849983         8.27368313E-11
   61.0499992         8.68699696E-11
   61.2150002         9.03643341E-11
   61.3800011         9.31868679E-11
   61.5449982         9.53108356E-11
   61.7099991         9.67157882E-11
   61.8750000         9.73883196E-11
   62.0400009         9.73214356E-11
   62.2050018         9.65150945E-11
   62.3699989         9.49758397E-11
   62.5349998         9.27171603E-11
   62.7000008         8.97586797E-11
   62.8650017         8.61268765E-11
   63.0299988         8.18541276E-11
   63.1949997         7.69783334E-11
   63.3600006         7.15431048E-11
   63.5250015         6.55968196E-11
   63.6899986         5.91924357E-11
   63.8549995         5.23869247E-11
   64.0199966         4.52405648E-11
   64.1849976         3.78163056E-11
   64.3499985         3.01789704E-11
   64.5149994         2.23948169E-11
   64.6800003         1.45307317E-11
   64.8450012         6.65406922E-12
   65.0100021        -1.16829853E-12
   65.1750031        -8.87038793E-12
   65.3399963        -1.63877557E-11
   65.5049973        -2.36582056E-11
   65.6699982        -3.06224941E-11
   65.8349991        -3.72247996E-11
   66.0000000        -4.34133528E-11
   66.1650009        -4.91409587E-11
   66.3300018        -5.43652727E-11
   66.4950027        -5.90493210E-11
   66.6600037        -6.31617883E-11
   66.8249969        -6.66773373E-11
   66.9899979        -6.95767055E-11
   67.1549988        -7.18468687E-11
   67.3199997        -7.34809297E-11
   67.4850006        -7.44782708E-11
   67.6500015        -7.48443738E-11
   67.8150024        -7.45908543E-11
   67.9800034        -7.37354483E-11
   68.1449966        -7.23017896E-11
   68.3099976        -7.03190353E-11
   68.4749985        -6.78215262E-11
   68.6399994        -6.48484391E-11
   68.8050003        -6.14433573E-11
   68.9700012        -5.76533855E-11
   69.1350021        -5.35290839E-11
   69.3000031        -4.91234657E-11
   69.4649963        -4.44918685E-11
   69.6299973        -3.96909033E-11
   69.7949982        -3.47782185E-11
   69.9599991        -2.98118023E-11
   70.1250000        -2.48493049E-11
   70.2900009        -1.99474760E-11
   70.4550018        -1.51614069E-11
   70.6200027        -1.05439225E-11
   70.7850037        -6.14533424E-12
   70.9499969        -2.01242386E-12
   71.1149979         1.81194437E-12
   71.2799988         5.28926512E-12
   71.4449997         8.38596120E-12
   71.6100006         1.10736940E-11
   71.7750015         1.33295614E-11
   71.9400024         1.51363314E-11
   72.1050034         1.64827457E-11
   72.2699966         1.73633937E-11
   72.4349976         1.77787663E-11
   72.5999985         1.77352716E-11
   72.7649994         1.72451099E-11
   72.9300003         1.63261626E-11
   73.0950012         1.50017672E-11
   73.2600021         1.33004068E-11
   73.4250031         1.12553413E-11
   73.5899963         8.90413090E-12
   73.7549973         6.28821257E-12
   73.9199982         3.45239202E-12
   74.0849991         4.44315537E-13
   74.2500000        -2.68607857E-12
   74.4150009        -5.88720305E-12
   74.5800018        -9.10648900E-12
   74.7450027        -1.22910900E-11
   74.9100037        -1.53885654E-11
   75.0749969        -1.83475561E-11
   75.2399979        -2.11183484E-11
   75.4049988        -2.36535166E-11
   75.5699997        -2.59084750E-11
   75.7350006        -2.78419805E-11
   75.9000015        -2.94167884E-11
   76.0650024        -3.06001231E-11
   76.2300034        -3.13641543E-11
   76.3949966        -3.16863966E-11
   76.5599976        -3.15500542E-11
   76.7249985        -3.09441917E-11
   76.8899994        -2.98639967E-11
   77.0550003        -2.83109473E-11
   77.2200012        -2.62928169E-11
   77.3850021        -2.38236895E-11
   77.5500031        -2.09238460E-11
   77.7149963        -1.76194320E-11
   77.8799973        -1.39422016E-11
   78.0449982        -9.92916600E-12
   78.2099991        -5.62218414E-12
   78.3750000        -1.06756292E-12
   78.5400009         3.68430850E-12
   78.7050018         8.57945832E-12
   78.8700027         1.35609518E-11
   79.0350037         1.85695209E-11
   79.1999969         2.35443037E-11
   79.3649979         2.84235864E-11
   79.5299988         3.31455662E-11
   79.6949997         3.76490193E-11
   79.8600006         4.18740771E-11
   80.0250015         4.57629490E-11
   80.1900024         4.92606789E-11
   80.3550034         5.23157385E-11
   80.5199966         5.48807388E-11
   80.6849976         5.69129813E-11
   80.8499985         5.83749160E-11
   81.0149994         5.92345686E-11
   81.1800003         5.94661473E-11
   81.3450012         5.90502230E-11
   81.5100021         5.79743649E-11
   81.6750031         5.62331605E-11
   81.8399963         5.38285944E-11
   82.0049973         5.07700271E-11
   82.1699982         4.70741467E-11
   82.3349991         4.27649097E-11
   82.5000000         3.78732011E-11
   82.6650009         3.24368171E-11
   82.8300018         2.65000417E-11
   82.9950027         2.01132895E-11
   83.1600037         1.33326362E-11
   83.3249969         6.21940000E-12
   83.4899979        -1.16053575E-12
   83.6549988        -8.73731209E-12
   83.8199997        -1.64376776E-11
   83.9850006        -2.41857662E-11
   84.1500015        -3.19038233E-11
   84.3150024        -3.95129970E-11
   84.4800034        -4.69342135E-11
   84.6449966        -5.40891117E-11
   84.8099976        -6.09007983E-11
   84.9749985        -6.72945519E-11
   85.1399994        -7.31987249E-11
   85.3050003        -7.85452259E-11
   85.4700012        -8.32703281E-11
   85.6350021        -8.73155645E-11
   85.8000031        -9.06281369E-11
   85.9649963        -9.31617491E-11
   86.1299973        -9.48769813E-11
   86.2949982        -9.57418173E-11
   86.4599991        -9.57320195E-11
   86.6250000        -9.48313095E-11
   86.7900009        -9.30316657E-11
   86.9550018        -9.03336225E-11
   87.1200027        -8.67461519E-11
   87.2850037        -8.22867399E-11
   87.4499969        -7.69813241E-11
   87.6149979        -7.08639120E-11
   87.7799988        -6.39764977E-11
   87.9449997        -5.63686146E-11
   88.1100006        -4.80969674E-11
   88.2750015        -3.92251474E-11
   88.4400024        -2.98229601E-11
   88.6050034        -1.99659091E-11
   88.7699966        -9.73426981E-12
   88.9349976         7.87587877E-13
   89.0999985         1.15119754E-11
   89.2649994         2.23488155E-11
   89.4300003         3.32062329E-11
   89.5950012         4.39916194E-11
   89.7600021         5.46123077E-11
   89.9250031         6.49765450E-11
   90.0899963         7.49945592E-11
   90.2549973         8.45791909E-11
   90.4199982         9.36468333E-11
   90.5849991         1.02118057E-10
   90.7500000         1.09918498E-10
   90.9150009         1.16979607E-10
   91.0800018         1.23239224E-10
   91.2450027         1.28642805E-10
   91.4100037         1.33143011E-10
   91.5749969         1.36700790E-10
   91.7399979         1.39285861E-10
   91.9049988         1.40876366E-10
   92.0699997         1.41459303E-10
   92.2350006         1.41030715E-10
   92.4000015         1.39595738E-10
   92.5650024         1.37168762E-10
   92.7300034         1.33772882E-10
   92.8949966         1.29440014E-10
   93.0599976         1.24210295E-10
   93.2249985         1.18132143E-10
   93.3899994         1.11260945E-10
   93.5550003         1.03659456E-10
   93.7200012         9.53965795E-11
   93.8850021         8.65466449E-11
   94.0500031         7.71892203E-11
   94.2149963         6.74074199E-11
   94.3799973         5.72876885E-11
   94.5449982         4.69188056E-11
   94.7099991         3.63909701E-11
   94.8750000         2.57947969E-11
   95.0400009         1.52208662E-11
   95.2050018         4.75834823E-12
   95.3700027        -5.50555825E-12
   95.5350037        -1.54865287E-11
   95.6999969        -2.51042277E-11
   95.8649979        -3.42827121E-11
   96.0299988        -4.29512467E-11
   96.1949997        -5.10450397E-11
   96.3600006        -5.85057142E-11
   96.5250015        -6.52819743E-11
   96.6900024        -7.13299489E-11
   96.8550034        -7.66136668E-11
   97.0199966        -8.11053238E-11
   97.1849976        -8.47854079E-11
   97.3499985        -8.76429068E-11
   97.5149994        -8.96750590E-11
   97.6800003        -9.08876308E-11
   97.8450012        -9.12947079E-11
   98.0100021        -9.09180578E-11
   98.1750031        -8.97872957E-11
   98.3399963        -8.79390935E-11
   98.5049973        -8.54168819E-11
   98.6699982        -8.22700588E-11
   98.8349991        -7.85536219E-11
   99.0000000        -7.43273290E-11
   99.1650009        -6.96552191E-11
   99.3300018        -6.46048284E-11
   99.4950027        -5.92461913E-11
   99.6600037        -5.36512744E-11
   99.8249969        -4.78929604E-11
   99.9899979        -4.20439586E-11
   100.154999        -3.61764819E-11
   100.320000        -3.03611997E-11
   100.485001        -2.46663818E-11
   100.650002        -1.91574569E-11
   100.815002        -1.38958680E-11
   100.980003        -8.93880196E-12
   101.144997        -4.33835216E-12
   101.309998        -1.41148784E-13
   101.474998         3.61230447E-12
   101.639999         6.88768530E-12
   101.805000         9.65746493E-12
   101.970001         1.19009958E-11
   102.135002         1.36048933E-11
   102.300003         1.47631317E-11
   102.464996         1.53769931E-11
   102.629997         1.54550227E-11
   102.794998         1.50127202E-11
   102.959999         1.40723917E-11
   103.125000         1.26626747E-11
   103.290001         1.08183150E-11
   103.455002         8.57961098E-12
   103.620003         5.99201504E-12
   103.785004         3.10545600E-12
   103.949997        -2.63031326E-14
   104.114998        -3.34636702E-12
   104.279999        -6.79537329E-12
   104.445000        -1.03122320E-11
   104.610001        -1.38348638E-11
   104.775002        -1.73008639E-11
   104.940002        -2.06483754E-11
   105.105003        -2.38168964E-11
   105.269997        -2.67481280E-11
   105.434998        -2.93866945E-11
   105.599998        -3.16808732E-11
   105.764999        -3.35831571E-11
   105.930000        -3.50507470E-11
   106.095001        -3.60462771E-11
   106.260002        -3.65382100E-11
   106.425003        -3.65013297E-11
   106.589996        -3.59172241E-11
   106.754997        -3.47744333E-11
   106.919998        -3.30687630E-11
   107.084999        -3.08033009E-11
   107.250000        -2.79884779E-11
   107.415001        -2.46420610E-11
   107.580002        -2.07890077E-11
   107.745003        -1.64614728E-11
   107.910004        -1.16984001E-11
   108.074997        -6.54514941E-12
   108.239998        -1.05303103E-12
   108.404999         4.72132836E-12
   108.570000         1.07165171E-11
   108.735001         1.68670147E-11
   108.900002         2.31037967E-11
   109.065002         2.93549594E-11
   109.230003         3.55467496E-11
   109.394997         4.16041750E-11
   109.559998         4.74519590E-11
   109.724998         5.30154982E-11
   109.889999         5.82213583E-11
   110.055000         6.29985439E-11
   110.220001         6.72787798E-11
   110.385002         7.09978812E-11
   110.550003         7.40960973E-11
   110.714996         7.65190827E-11
   110.879997         7.82187648E-11
   111.044998         7.91536975E-11
   111.209999         7.92899219E-11
   111.375000         7.86009730E-11
   111.540001         7.70686223E-11
   111.705002         7.46829196E-11
   111.870003         7.14428031E-11
   112.035004         6.73557390E-11
   112.199997         6.24383531E-11
   112.364998         5.67161873E-11
   112.529999         5.02236412E-11
   112.695000         4.30035764E-11
   112.860001         3.51072331E-11
   113.025002         2.65937584E-11
   113.190002         1.75296652E-11
   113.355003         7.98845972E-12
   113.519997        -1.95018784E-12
   113.684998        -1.22011368E-11
   113.849998        -2.26746347E-11
   114.014999        -3.32771692E-11
   114.180000        -4.39123009E-11
   114.345001        -5.44814714E-11
   114.510002        -6.48851806E-11
   114.675003        -7.50235915E-11
   114.839996        -8.47977175E-11
   115.004997        -9.41104486E-11
   115.169998        -1.02867347E-10
   115.334999        -1.10977831E-10
   115.500000        -1.18356436E-10
   115.665001        -1.24922878E-10
   115.830002        -1.30603584E-10
   115.995003        -1.35331968E-10
   116.160004        -1.39049966E-10
   116.324997        -1.41707562E-10
   116.489998        -1.43264386E-10
   116.654999        -1.43689768E-10
   116.820000        -1.42962614E-10
   116.985001        -1.41072667E-10
   117.150002        -1.38019998E-10
   117.315002        -1.33815389E-10
   117.480003        -1.28479949E-10
   117.644997        -1.22045346E-10
   117.809998        -1.14553381E-10
   117.974998        -1.06056330E-10
   118.139999        -9.66153338E-11
   118.305000        -8.63008970E-11
   118.470001        -7.51915127E-11
   118.635002        -6.33736466E-11
   118.800003        -5.09405226E-11
   118.964996        -3.79912872E-11
   119.129997        -2.46302163E-11
   119.294998        -1.09656442E-11
   119.459999         2.89101317E-12
   119.625000         1.68262713E-11
   119.790001         3.07258108E-11
   119.955002         4.44752915E-11
   120.120003         5.79615037E-11
   120.285004         7.10734943E-11
   120.449997         8.37036690E-11
   120.614998         9.57484161E-11
   120.779999         1.07109578E-10
   120.945000         1.17695173E-10
   121.110001         1.27420297E-10
   121.275002         1.36207795E-10
   121.440002         1.43989307E-10
   121.605003         1.50705490E-10
   121.769997         1.56306884E-10
   121.934998         1.60754285E-10
   122.099998         1.64018771E-10
   122.264999         1.66082328E-10
   122.430000         1.66937991E-10
   122.595001         1.66589118E-10
   122.760002         1.65050071E-10
   122.925003         1.62345817E-10
   123.089996         1.58511884E-10
   123.254997         1.53593069E-10
   123.419998         1.47644202E-10
   123.584999         1.40728484E-10
   123.750000         1.32917441E-10
   123.915001         1.24290078E-10
   124.080002         1.14931842E-10
   124.245003         1.04933923E-10
   124.410004         9.43922440E-11
   124.574997         8.34062056E-11
   124.739998         7.20783364E-11
   124.904999         6.05125394E-11
   125.070000         4.88133076E-11
   125.235001         3.70848942E-11
   125.400002         2.54298423E-11
   125.565002         1.39486851E-11
   125.730003         2.73845248E-12
   125.894997        -8.10842365E-12
   126.059998        -1.85047290E-11
   126.224998        -2.83694214E-11
   126.389999        -3.76281575E-11
   126.555000        -4.62141575E-11
   126.720001        -5.40687391E-11
   126.885002        -6.11419596E-11
   127.050003        -6.73928760E-11
   127.214996        -7.27900101E-11
   127.379997        -7.73114628E-11
   127.544998        -8.09450146E-11
   127.709999        -8.36880842E-11
   127.875000        -8.55476454E-11
   128.039993        -8.65399002E-11
   128.205002        -8.66902175E-11
   128.369995        -8.60327573E-11
   128.535004        -8.46098330E-11
   128.699997        -8.24716268E-11
   128.865005        -7.96751901E-11
   129.029999        -7.62838057E-11
   129.195007        -7.23660507E-11
   129.360001        -6.79951304E-11
   129.524994        -6.32478098E-11
   129.690002        -5.82036710E-11
   129.854996        -5.29440554E-11
   130.020004        -4.75509042E-11
   130.184998        -4.21060825E-11
   130.350006        -3.66902168E-11
   130.514999        -3.13817097E-11
   130.679993        -2.62559783E-11
   130.845001        -2.13845278E-11
   131.009995        -1.68342285E-11
   131.175003        -1.26662196E-11
   131.339996        -8.93536807E-12
   131.505005        -5.68955083E-12
   131.669998        -2.96908960E-12
   131.835007        -8.06066422E-13
   132.000000         7.75760803E-13
   132.164993         1.76133392E-12
   132.330002         2.14428063E-12
   132.494995         1.92702690E-12
   132.660004         1.12113129E-12
   132.824997        -2.53211243E-13
   132.990005        -2.16729260E-12
   133.154999        -4.58391615E-12
   133.320007        -7.45810705E-12
   133.485001        -1.07378247E-11