 0.   8.933800062E-20
 0.169376865   8.928329684E-20
 0.33875373   -4.472257729E-16
 0.50813061   -3.652398869E-15
 0.67750746   -1.567355356E-14
 0.84688431   -4.687576214E-14
 1.01626122   -1.09552436E-13
 1.18563807   -2.131032438E-13
 1.35501492   -3.593266906E-13
 1.52439177   -5.408561511E-13
 1.69376862   -7.44168453E-13
 1.86314547   -9.559397544E-13
 2.03252244   -1.169518692E-12
 2.20189929   -1.388288898E-12
 2.37127614   -1.624657765E-12
 2.54065299   -1.895781275E-12
 2.71002984   -2.218758814E-12
 2.87940669   -2.607288083E-12
 3.04878354   -3.070256289E-12
 3.21816039   -3.611088858E-12
 3.38753724   -4.226520176E-12
 3.55691409   -4.904659144E-12
 3.72629094   -5.623942284E-12
 3.89566779   -6.355068815E-12
 4.06504488   -7.066481948E-12
 4.23442173   -7.732176878E-12
 4.40379858   -8.338274515E-12
 4.57317543   -8.885388085E-12
 4.74255228   -9.385246053E-12
 4.91192913   -9.853323886E-12
 5.08130598   -1.030121041E-11
 5.25068283   -1.073157188E-11
 5.42005968   -1.11376507E-11
 5.58943653   -1.150581106E-11
 5.75881338   -1.181963728E-11
 5.92819023   -1.206327746E-11
 6.09756708   -1.222382005E-11
 6.26694393   -1.229305373E-11
 6.43632078   -1.226946843E-11
 6.60569763   -1.215988248E-11
 6.77507448   -1.197952414E-11
 6.94445133   -1.174910429E-11
 7.11382818   -1.148895302E-11
 7.28320503   -1.121250141E-11
 7.45258188   -1.092162385E-11
 7.62195873   -1.060632658E-11
 7.79133558   -1.02487116E-11
 7.96071243   -9.829626696E-12
 8.13008976   -9.334698813E-12
 8.29946613   -8.757717641E-12
 8.46884346   -8.100808219E-12
 8.63821983   -7.372323238E-12
 8.80759716   -6.584104355E-12
 8.97697353   -5.749329398E-12
 9.14635086   -4.880929428E-12
 9.31572723   -3.990167571E-12
 9.48510456   -3.085248853E-12
 9.65448093   -2.170510733E-12
 9.82385826   -1.247247097E-12
 9.99323463   -3.166430063E-13
 10.162612   6.160367355E-13
 10.3319883   1.537810027E-12
 10.5013657   2.426978106E-12
 10.670742   3.255381208E-12
 10.8401194   3.992944864E-12
 11.0094957   4.612178695E-12
 11.1788731   5.090566423E-12
 11.3482494   5.410231724E-12
 11.5176268   5.555950231E-12
 11.6870031   5.513422184E-12
 11.8563805   5.269178757E-12
 12.0257568   4.811960726E-12
 12.1951342   4.134395083E-12
 12.3645105   3.233456471E-12
 12.5338879   2.109780232E-12
 12.7032642   7.663303043E-13
 12.8726416   -7.915655436E-13
 13.0420179   -2.554769764E-12
 13.2113953   -4.508002478E-12
 13.3807716   -6.628717106E-12
 13.550149   -8.888607732E-12
 13.7195253   -1.125710115E-11
 13.8889027   -1.370552023E-11
 14.058279   -1.620849982E-11
 14.2276564   -1.874229071E-11
 14.3970327   -2.128018421E-11
 14.5664101   -2.378844517E-11
 14.7357864   -2.622546277E-11
 14.9051638   -2.854488174E-11
 15.0745401   -3.07009973E-11
 15.2439175   -3.265386225E-11
 15.4132938   -3.437146054E-11
 15.5826712   -3.582836111E-11
 15.7520475   -3.700424689E-11
 15.9214249   -3.788259637E-11
 16.0908012   -3.845301855E-11
 16.2601795   -3.871373361E-11
 16.4295559   -3.867340476E-11
 16.5989323   -3.834875473E-11
 16.7683086   -3.775988203E-11
 16.9376869   -3.6924859E-11
 17.1070633   -3.585778549E-11
 17.2764397   -3.457097456E-11
 17.445816   -3.308062504E-11
 17.6151943   -3.141131105E-11
 17.7845707   -2.959693601E-11
 17.9539471   -2.767677233E-11
 18.1233234   -2.568940373E-11
 18.2927017   -2.366822884E-11
 18.4620781   -2.164120098E-11
 18.6314545   -1.963404786E-11
 18.8008308   -1.767378258E-11
 18.9702091   -1.578927787E-11
 19.1395855   -1.40077212E-11
 19.3089619   -1.234889621E-11
 19.4783382   -1.082160229E-11
 19.6477165   -9.424417843E-12
 19.8170929   -8.15075004E-12
 19.9864693   -6.994620595E-12
 20.1558456   -5.95321405E-12
 20.3252239   -5.024320369E-12
 20.4946003   -4.200249957E-12
 20.6639767   -3.462821826E-12
 20.833353   -2.783121173E-12
 21.0027313   -2.126578644E-12
 21.1721077   -1.460512484E-12
 21.3414841   -7.596230502E-13
 21.5108604   -6.723790734E-15
 21.6802387   8.106827384E-13
 21.8496151   1.704291547E-12
 22.0189915   2.685779333E-12
 22.1883678   3.763232347E-12
 22.3577461   4.935624392E-12
 22.5271225   6.18963214E-12
 22.6964989   7.501641669E-12
 22.8658752   8.844334119E-12
 23.0352535   1.019419358E-11
 23.2046299   1.153549131E-11
 23.3740063   1.285861435E-11
 23.5433826   1.415477544E-11
 23.7127609   1.541100234E-11
 23.8821373   1.660918451E-11
 24.0515137   1.773001537E-11
 24.22089   1.875840282E-11
 24.3902683   1.968690662E-11
 24.5596447   2.051422747E-11
 24.7290211   2.124017108E-11
 24.8983994   2.186048391E-11
 25.0677757   2.23655764E-11
 25.2371521   2.274394388E-11
 25.4065285   2.298800386E-11
 25.5759068   2.309831146E-11
 25.7452831   2.308352294E-11
 25.9146595   2.29558178E-11
 26.0840359   2.272490009E-11
 26.2534142   2.239509099E-11
 26.4227905   2.196649286E-11
 26.5921669   2.143929305E-11
 26.7615433   2.081828807E-11
 26.9309216   2.01140337E-11
 27.1002979   1.934051877E-11
 27.2696743   1.851137819E-11
 27.4390507   1.763746267E-11
 27.608429   1.672694275E-11
 27.7778053   1.578809132E-11
 27.9471817   1.48314503E-11
 28.1165581   1.38692547E-11
 28.2859364   1.291210108E-11
 28.4553127   1.196457863E-11
 28.6246891   1.102283889E-11
 28.7940655   1.007572584E-11
 28.9634438   9.109045983E-12
 29.1328201   8.110575579E-12
 29.3021965   7.073112929E-12
 29.4715729   5.994701263E-12
 29.6409512   4.876736168E-12
 29.8103275   3.721871769E-12
 29.9797039   2.533288466E-12
 30.1490803   1.315322742E-12
 30.3184586   7.434717853E-14
 30.4878349   -1.181471587E-12
 30.6572113   -2.443696938E-12
 30.8265877   -3.705721927E-12
 30.995966   -4.963735586E-12
 31.1653423   -6.215990396E-12
 31.3347187   -7.460800207E-12
 31.5040951   -8.694672586E-12
 31.6734734   -9.911632279E-12
 31.8428497   -1.110407252E-11
 32.0122261   -1.226404308E-11
 32.1816025   -1.338371254E-11
 32.3509789   -1.445466663E-11
 32.520359   -1.546668175E-11
 32.6897354   -1.64071378E-11
 32.8591118   -1.726209627E-11
 33.0284882   -1.801837499E-11
 33.1978645   -1.866529674E-11
 33.3672409   -1.919490608E-11
 33.5366173   -1.960016351E-11
 33.7059937   -1.987255673E-11
 33.8753738   -2.000083259E-11
 34.0447502   -1.997182801E-11
 34.2141266   -1.977308942E-11
 34.383503   -1.93954245E-11
 34.5528793   -1.8833754E-11
 34.7222557   -1.808563715E-11
 34.8916321   -1.714888648E-11
 35.0610085   -1.602018691E-11
 35.2303886   -1.469615055E-11
 35.399765   -1.317639053E-11
 35.5691414   -1.146649095E-11
 35.7385178   -9.578777008E-12
 35.9078941   -7.529686076E-12
 36.0772705   -5.335454734E-12
 36.2466469   -3.008273968E-12
 36.4160233   -5.555718103E-13
 36.5854034   2.017300172E-12
 36.7547798   4.703048281E-12
 36.9241562   7.489520289E-12
 37.0935326   1.035998457E-11
 37.2629089   1.329593467E-11
 37.4322853   1.628026533E-11
 37.6016617   1.929812039E-11
 37.7710381   2.233466884E-11
 37.9404182   2.537107503E-11
 38.1097946   2.838204845E-11
 38.279171   3.13372106E-11
 38.4485474   3.420554465E-11
 38.6179237   3.696156922E-11
 38.7873001   3.958892936E-11
 38.9566765   4.207914225E-11
 39.1260529   4.442680251E-11
 39.295433   4.66236251E-11
 39.4648094   4.865570447E-11
 39.6341858   5.050455887E-11
 39.8035622   5.215218535E-11
 39.9729385   5.358585103E-11
 40.1423149   5.479969603E-11
 40.3116913   5.579299175E-11
 40.4810715   5.656598107E-11
 40.6504478   5.711705414E-11
 40.8198242   5.744300174E-11
 40.9892006   5.754297733E-11
 41.158577   5.742191445E-11
 41.3279533   5.709168902E-11
 41.4973297   5.656743476E-11
 41.6667061   5.586171109E-11
 41.8360863   5.497911501E-11
 42.0054626   5.391532013E-11
 42.174839   5.266109077E-11
 42.3442154   5.120893987E-11
 42.5135918   4.955833313E-11
 42.6829681   4.771624762E-11
 42.8523445   4.569375434E-11
 43.0217209   4.350064059E-11
 43.1911011   4.114141666E-11
 43.3604774   3.861606521E-11
 43.5298538   3.592440928E-11
 43.6992302   3.307041099E-11
 43.8686066   3.006508237E-11
 44.0379829   2.692475756E-11
 44.2073593   2.366819414E-11
 44.3767357   2.031354078E-11
 44.5461159   1.687905545E-11
 44.7154922   1.338643779E-11
 44.8848686   9.864370605E-12
 45.054245   6.349499052E-12
 45.2236214   2.88289748E-12
 45.3929977   -4.960387027E-13
 45.5623741   -3.755656376E-12
 45.7317505   -6.87419132E-12
 45.9011307   -9.837521422E-12
 46.070507   -1.26338974E-11
 46.2398834   -1.524937641E-11
 46.4092598   -1.766630765E-11
 46.5786362   -1.986554844E-11
 46.7480125   -2.183034482E-11
 46.9173889   -2.354909323E-11
 47.0867653   -2.501534223E-11
 47.2561455   -2.622548359E-11
 47.4255219   -2.71760895E-11
 47.5948982   -2.78630452E-11
 47.7642746   -2.828293676E-11
 47.933651   -2.843552824E-11
 48.1030273   -2.832523278E-11
 48.2724037   -2.796029033E-11
 48.4417801   -2.735003023E-11
 48.6111603   -2.650209913E-11
 48.7805367   -2.542156936E-11
 48.949913   -2.411256091E-11
 49.1192894   -2.258130662E-11
 49.2886658   -2.083870923E-11
 49.4580421   -1.890067443E-11
 49.6274185   -1.678617315E-11
 49.7967987   -1.451425785E-11
 49.9661751   -1.210171633E-11
 50.1355515   -9.562577293E-12
 50.3049278   -6.9091898E-12
 50.4743042   -4.153774113E-12
 50.6436806   -1.309434115E-12
 50.8130569   1.609984607E-12
 50.9824333   4.590407481E-12
 51.1518135   7.617921051E-12
 51.3211899   1.067845465E-11
 51.4905663   1.37571933E-11
 51.6599426   1.68381073E-11
 51.829319   1.990450339E-11
 51.9986954   2.294003355E-11
 52.1680717   2.592963171E-11
 52.3374481   2.885992487E-11
 52.5068283   3.171893651E-11
 52.6762047   3.449530939E-11
 52.8455811   3.7178257E-11
 53.0149574   3.975749591E-11
 53.1843338   4.222408881E-11
 53.3537102   4.457047231E-11
 53.5230865   4.678985324E-11
 53.6924629   4.887531005E-11
 53.8618431   5.081897403E-11
 54.0312195   5.26119287E-11
 54.2005959   5.424515004E-11
 54.3699722   5.571032177E-11
 54.5393486   5.700021358E-11
 54.708725   5.81084382E-11
 54.8781013   5.902829614E-11
 55.0474777   5.975257789E-11
 55.2168579   6.027448679E-11
 55.3862343   6.058882562E-11
 55.5556107   6.069331843E-11
 55.724987   6.058849256E-11
 55.8943634   6.027644356E-11
 56.0637398   5.975814982E-11
 56.2331161   5.903284112E-11
 56.4024925   5.809825537E-11
 56.5718727   5.695290767E-11
 56.7412491   5.559839394E-11
 56.9106255   5.404098696E-11
 57.0800018   5.229079322E-11
 57.2493782   5.035966436E-11
 57.4187546   4.825886218E-11
 57.588131   4.599901363E-11
 57.7575111   4.359067968E-11
 57.9268875   4.104635382E-11
 58.0962639   3.838161039E-11
 58.2656403   3.561435521E-11
 58.4350166   3.27625288E-11
 58.604393   2.984201428E-11
 58.7737694   2.686647259E-11
 58.9431458   2.384838507E-11
 59.1125259   2.080150809E-11
 59.2819023   1.77424013E-11
 59.4512787   1.468975462E-11
 59.6206551   1.166203158E-11
 59.7900314   8.674614846E-12
 59.9594078   5.738663017E-12
 60.1287842   2.862393916E-12
 60.2981606   5.420256664E-14
 60.4675407   -2.6745071E-12
 60.6369171   -5.308446391E-12
 60.8062935   -7.83037437E-12
 60.9756699   -1.022480191E-11
 61.1450462   -1.248143516E-11
 61.3144226   -1.459641262E-11
 61.483799   -1.65710258E-11
 61.6531754   -1.840890461E-11
 61.8225555   -2.011350114E-11
 61.9919319   -2.168711218E-11
 62.1613083   -2.313146029E-11
 62.3306847   -2.444880062E-11
 62.500061   -2.564208047E-11
 62.6694374   -2.671375447E-11
 62.8388138   -2.766387466E-11
 63.0081902   -2.84888918E-11
 63.1775703   -2.918225731E-11
 63.3469467   -2.973673044E-11
 63.5163231   -3.014705846E-11
 63.6856995   -3.04113644E-11
 63.8550758   -3.052999173E-11
 64.0244522   -3.050239922E-11
 64.1938324   -3.032353188E-11
 64.363205   -2.998212442E-11
 64.5325851   -2.946176983E-11
 64.7019577   -2.874481382E-11
 64.8713379   -2.781700391E-11
 65.0407181   -2.667080966E-11
 65.2100906   -2.53062328E-11
 65.3794708   -2.372902569E-11
 65.5488434   -2.194790703E-11
 65.7182236   -1.99722322E-11
 65.8875961   -1.781131145E-11
 66.0569763   -1.547502924E-11
 66.2263489   -1.297464219E-11
 66.3957291   -1.032289185E-11
 66.5651093   -7.533121696E-12
 66.7344818   -4.618114051E-12
 66.903862   -1.59008787E-12
 67.0732346   1.537718195E-12
 67.2426147   4.748275991E-12
 67.4119873   8.018322117E-12
 67.5813675   1.131794918E-11
 67.7507477   1.461278841E-11
 67.9201202   1.786824161E-11
 68.0895004   2.105361545E-11
 68.258873   2.414436186E-11
 68.4282532   2.712134857E-11
 68.5976257   2.996796908E-11
 68.7670059   3.266681023E-11
 68.9363785   3.519777178E-11
 69.1057587   3.753858335E-11
 69.2751389   3.966702661E-11
 69.4445114   4.156339856E-11
 69.6138916   4.321191321E-11
 69.7832642   4.460051772E-11
 69.9526443   4.572011172E-11
 70.1220169   4.656408245E-11
 70.2913971   4.712903678E-11
 70.4607773   4.741642842E-11
 70.6301498   4.743396301E-11
 70.79953   4.719526853E-11
 70.9689026   4.671736262E-11
 71.1382828   4.601756823E-11
 71.3076553   4.511031132E-11
 71.4770355   4.400609391E-11
 71.6464081   4.271267715E-11
 71.8157883   4.123729136E-11
 71.9851685   3.958907507E-11
 72.154541   3.777953297E-11
 72.3239212   3.582191488E-11
 72.4932938   3.372905427E-11
 72.662674   3.151207073E-11
 72.8320465   2.918026237E-11
 73.0014267   2.674234792E-11
 73.1708069   2.420792039E-11
 73.3401794   2.15880161E-11
 73.5095596   1.889469137E-11
 73.6789322   1.613915078E-11
 73.8483124   1.332990489E-11
 74.0176849   1.047230705E-11
 74.1870651   7.569226496E-12
 74.3564453   4.623155157E-12
 74.5258179   1.638252468E-12
 74.6951981   -1.37825916E-12
 74.8645706   -4.416129355E-12
 75.0339508   -7.463046674E-12
 75.2033234   -1.050596762E-11
 75.3727036   -1.353217191E-11
 75.5420761   -1.652954509E-11
 75.7114563   -1.948644024E-11
 75.8808365   -2.239154695E-11
 76.050209   -2.523406657E-11
 76.2195892   -2.800403485E-11
 76.3889618   -3.069245205E-11
 76.558342   -3.329087006E-11
 76.7277145   -3.579009658E-11
 76.8970947   -3.817842223E-11
 77.0664749   -4.044034205E-11
 77.2358475   -4.25565104E-11
 77.4052277   -4.450538549E-11
 77.5746002   -4.626596328E-11
 77.7439804   -4.782089655E-11
 77.913353   -4.915868754E-11
 78.0827332   -5.027373309E-11
 78.2521057   -5.11645136E-11
 78.4214859   -5.18315009E-11
 78.5908661   -5.227423355E-11
 78.7602386   -5.249024479E-11
 78.9296188   -5.247520127E-11
 79.0989914   -5.222394045E-11
 79.2683716   -5.173188267E-11
 79.4377441   -5.099652992E-11
 79.6071243   -5.00178822E-11
 79.7765045   -4.879964488E-11
 79.9458771   -4.734990872E-11
 80.1152573   -4.568155576E-11
 80.2846298   -4.381239815E-11
 80.45401   -4.176394647E-11
 80.6233826   -3.955943906E-11
 80.7927628   -3.722095895E-11
 80.9621429   -3.476760199E-11
 81.1315155   -3.221536232E-11
 81.3008957   -2.957834672E-11
 81.4702682   -2.687142349E-11
 81.6396484   -2.41123857E-11
 81.809021   -2.132264157E-11
 81.9784012   -1.852640437E-11
 82.1477737   -1.574853442E-11
 82.3171539   -1.301206799E-11
 82.4865341   -1.033673928E-11
 82.6559067   -7.738606631E-12
 82.8252869   -5.230445417E-12
 82.9946594   -2.822285808E-12
 83.1640396   -5.218514423E-13
 83.3334122   1.664628179E-12
 83.5027924   3.731868547E-12
 83.6721725   5.674395415E-12
 83.8415451   7.48569956E-12
 84.0109253   9.157693701E-12
 84.1802979   1.068145745E-11
 84.349678   1.204872747E-11
 84.5190506   1.325382599E-11
 84.6884308   1.429496712E-11
 84.8578033   1.517421432E-11
 85.0271835   1.589640052E-11
 85.1965637   1.64675374E-11
 85.3659363   1.689341202E-11
 85.5353165   1.717907414E-11
 85.704689   1.732903404E-11
 85.8740692   1.73477864E-11
 86.0434418   1.724014681E-11
 86.212822   1.701124311E-11
 86.3822021   1.66662309E-11
 86.5515747   1.621008015E-11
 86.7209549   1.564747117E-11
 86.8903275   1.498273033E-11
 87.0597076   1.421962027E-11
 87.2290802   1.336072832E-11
 87.3984604   1.240691664E-11
 87.5678329   1.135698913E-11
 87.7372131   1.020813555E-11
 87.9065933   8.956821396E-12
 88.0759659   7.600134064E-12
 88.2453461   6.136690548E-12
 88.4147186   4.56703295E-12
 88.5840988   2.893358079E-12
 88.7534714   1.118905207E-12
 88.9228516   -7.525691767E-13
 89.0922318   -2.717132725E-12
 89.2616043   -4.770721145E-12
 89.4309845   -6.909104799E-12
 89.6003571   -9.127847783E-12
 89.7697372   -1.142197448E-11
 89.9391098   -1.378558726E-11
 90.10849   -1.621114354E-11
 90.2778702   -1.868894622E-11
 90.4472427   -2.120699276E-11
 90.6166229   -2.375155281E-11
 90.7859955   -2.630804082E-11
 90.9553757   -2.886197357E-11
 91.1247482   -3.139990698E-11
 91.2941284   -3.390940653E-11
 91.463501   -3.637850438E-11
 91.6328812   -3.879523092E-11
 91.8022614   -4.114708921E-11
 91.9716339   -4.342078433E-11
 92.1410141   -4.560230665E-11
 92.3103867   -4.767647041E-11
 92.4797668   -4.962713226E-11
 92.6491394   -5.143772214E-11
 92.8185196   -5.309213139E-11
 92.9878998   -5.457643018E-11
 93.1572723   -5.588037671E-11
 93.3266525   -5.69986662E-11
 93.4960251   -5.793083721E-11
 93.6654053   -5.867976244E-11
 93.8347778   -5.925026442E-11
 94.004158   -5.964748834E-11
 94.1735306   -5.987624979E-11
 94.3429108   -5.994089947E-11
 94.512291   -5.984619744E-11
 94.6816635   -5.959664012E-11
 94.8510437   -5.919660595E-11
 95.0204163   -5.864953662E-11
 95.1897964   -5.795746869E-11
 95.359169   -5.712187667E-11
 95.5285492   -5.614451959E-11
 95.6979294   -5.502804462E-11
 95.8673019   -5.377726042E-11
 96.0366821   -5.239757239E-11
 96.2060547   -5.089468777E-11
 96.3754349   -4.927258254E-11
 96.5448074   -4.753364022E-11
 96.7141876   -4.56791098E-11
 96.8835602   -4.371057336E-11
 97.0529404   -4.163077522E-11
 97.2223206   -3.944386137E-11
 97.3916931   -3.715509844E-11
 97.5610733   -3.476951019E-11
 97.7304459   -3.2292162E-11
 97.899826   -2.972798049E-11
 98.0691986   -2.708346221E-11
 98.2385788   -2.436701535E-11
 98.407959   -2.158975602E-11
 98.5773315   -1.876469466E-11
 98.7467117   -1.590535342E-11
 98.9160843   -1.302471846E-11
 99.0854645   -1.013477757E-11
 99.254837   -7.247509017E-12
 99.4242172   -4.375982649E-12
 99.5935974   -1.535641623E-12
 99.76297   1.255578649E-12
 99.9323502   3.978019737E-12
 100.101723   6.611606661E-12
 100.271103   9.136567371E-12
 100.440475   1.153360827E-11
 100.609856   1.3783189E-11
 100.779228   1.586503325E-11
 100.948608   1.775839718E-11
 101.117989   1.944371053E-11
 101.287361   2.090464087E-11
 101.456741   2.212983442E-11
 101.626114   2.311309477E-11
 101.795494   2.385200544E-11
 101.964867   2.434564182E-11
 102.134247   2.459267859E-11
 102.303627   2.459094733E-11
 102.473   2.433851384E-11
 102.64238   2.383550995E-11
 102.811752   2.308545889E-11
 102.981133   2.209546782E-11
 103.150505   2.087516271E-11
 103.319885   1.943563192E-11
 103.489258   1.778900117E-11
 103.658638   1.594915172E-11
 103.828018   1.39328913E-11
 103.997391   1.176025943E-11
 104.166771   9.453288846E-12
 104.336143   7.033526539E-12
 104.505524   4.51949719E-12
 104.674896   1.925565176E-12
 104.844276   -7.37059773E-13
 105.013657   -3.457781153E-12
 105.183029   -6.22409806E-12
 105.352409   -9.020529983E-12
 105.521782   -1.182959546E-11
 105.691162   -1.463402489E-11
 105.860535   -1.741868975E-11
 106.029915   -2.017123274E-11
 106.199295   -2.288098704E-11
 106.368668   -2.553778369E-11
 106.538048   -2.81311606E-11
 106.70742   -3.065099216E-11
 106.876801   -3.308922233E-11
 107.046173   -3.544051164E-11
 107.215553   -3.770193879E-11
 107.384926   -3.987046804E-11
 107.554306   -4.194056907E-11
 107.723686   -4.390279806E-11
 107.893059   -4.574416193E-11
 108.062439   -4.745076207E-11
 108.231812   -4.901022296E-11
 108.401192   -5.041342691E-11
 108.570564   -5.165398317E-11
 108.739944   -5.27267674E-11
 108.909325   -5.362631172E-11
 109.078697   -5.434707545E-11
 109.248077   -5.488376767E-11
 109.41745   -5.52335018E-11
 109.58683   -5.539590661E-11
 109.756203   -5.537244621E-11
 109.925583   -5.516517451E-11
 110.094955   -5.477504561E-11
 110.264336   -5.420178542E-11
 110.433716   -5.344564374E-11
 110.603088   -5.250929205E-11
 110.772469   -5.139886433E-11
 110.941841   -5.01242485E-11
 111.111221   -4.869680006E-11
 111.280594   -4.712757615E-11
 111.449974   -4.54258367E-11
 111.619354   -4.359865594E-11
 111.788727   -4.165235518E-11
 111.958107   -3.959331127E-11
 112.12748   -3.742867474E-11
 112.29686   -3.516589103E-11
 112.466232   -3.281242639E-11
 112.635612   -3.037551807E-11
 112.804985   -2.786232703E-11
 112.974365   -2.528133432E-11
 113.143745   -2.264278348E-11
 113.313118   -1.995844288E-11
 113.482498   -1.72409205E-11
 113.651871   -1.45022501E-11
 113.821251   -1.17524766E-11
 113.990623   -8.999863355E-12
 114.160004   -6.250945941E-12
 114.329384   -3.511915802E-12
 114.498756   -7.890610366E-13
 114.668137   1.910785766E-12
 114.837509   4.580475322E-12
 115.006889   7.21295159E-12
 115.176262   9.801329887E-12
 115.345642   1.233872639E-11
 115.515022   1.481802528E-11
 115.684395   1.723165534E-11
 115.853775   1.957181466E-11
 116.023148   2.183073167E-11
 116.192528   2.400111186E-11
 116.3619   2.607624013E-11
 116.531281   2.804998941E-11
 116.700653   2.991630901E-11
 116.870033   3.166932688E-11
 117.039413   3.330284659E-11
 117.208786   3.481053987E-11
 117.378166   3.618592578E-11
 117.547539   3.742239157E-11
 117.716919   3.851327243E-11
 117.886292   3.945215682E-11
 118.055672   4.023322994E-11
 118.225052   4.085167274E-11
 118.394424   4.130406434E-11
 118.563805   4.158820163E-11
 118.733177   4.170272808E-11
 118.902557   4.164647099E-11
 119.07193   4.141793852E-11
 119.24131   4.101531961E-11
 119.410683   4.043634524E-11
 119.580063   3.967925294E-11
 119.749443   3.874267226E-11
 119.918816   3.762608627E-11
 120.088196   3.632985926E-11
 120.257568   3.485539288E-11
 120.426949   3.320551473E-11
 120.596321   3.138543939E-11
 120.765701   2.940287944E-11
 120.935081   2.726790842E-11
 121.104454   2.499195122E-11
 121.273834   2.258646221E-11
 121.443207   2.006214812E-11
 121.612587   1.742878585E-11
 121.78196   1.469634484E-11
 121.95134   1.187630463E-11
 122.12072   8.98273643E-12
 122.290092   6.032170423E-12
 122.459473   3.042730998E-12
 122.628845   3.292868026E-14
 122.798225   -2.979213013E-12
 122.967598   -5.975826171E-12
 123.136978   -8.938608534E-12
 123.306351   -1.184821945E-11
 123.475731   -1.468468229E-11
 123.645111   -1.742872166E-11
 123.814484   -2.006335896E-11
 123.983864   -2.257473201E-11
 124.153236   -2.495152002E-11
 124.322617   -2.718322442E-11
 124.491989   -2.925843942E-11
 124.661369   -3.116407826E-11
 124.83075   -3.288621805E-11
 125.000122   -3.441184143E-11
 125.169502   -3.573038393E-11
 125.338875   -3.683396643E-11
 125.508255   -3.771614271E-11
 125.677628   -3.837047693E-11
 125.847008   -3.878958266E-11
 126.01638   -3.896552872E-11
 126.18576   -3.889194175E-11
 126.355141   -3.856556394E-11
 126.524513   -3.79865063E-11
 126.693893   -3.715733971E-11
 126.863266   -3.608037133E-11
 127.032646   -3.475612506E-11
 127.202019   -3.318342476E-11
 127.371399   -3.136143081E-11
 127.540779   -2.929230122E-11
 127.710152   -2.69827112E-11
 127.879532   -2.444377339E-11
 128.048904   -2.168875843E-11
 128.218277   -1.873051887E-11
 128.387665   -1.558021594E-11
 128.557037   -1.224772887E-11
 128.72641   -8.743580512E-12
 128.895798   -5.080649443E-12
 129.06517   -1.274725551E-12
 129.234543   2.656370566E-12
 129.403915   6.694310904E-12
 129.573303   1.082103157E-11
 129.742676   1.501777522E-11
 129.912048   1.926333919E-11
 130.081436   2.353237917E-11
 130.250809   2.779558701E-11
 130.420181   3.202156248E-11
 130.589554   3.61802012E-11
 130.758942   4.024541464E-11
 130.928314   4.419532448E-11
 131.097687   4.801090775E-11
 131.267059   5.167329412E-11
 131.436447   5.5161712E-11
 131.60582   5.845333939E-11
 131.775192   6.152540977E-11
 131.94458   6.435792871E-11
 132.113953   6.693560983E-11
 132.283325   6.924834317E-11
 132.452698   7.1289398E-11
 132.622086   7.3054153E-11
 132.791458   7.453893058E-11
 132.960831   7.57410662E-11
 133.130219   7.666065005E-11
 133.299591   7.730022178E-11
 133.468964   7.766485371E-11
 133.638336   7.776029126E-11
 133.807724   7.759155818E-11
 133.977097   7.716166595E-11
 134.146469   7.647348033E-11
 134.315857   7.55315463E-11
 134.485229   7.434475258E-11
 134.654602   7.292619286E-11
 134.823975   7.129297153E-11
 134.993362   6.946212355E-11
 135.162735   6.744936554E-11
 135.332108   6.526672258E-11
 135.501495   6.292439486E-11
 135.670868   6.043211764E-11
 135.84024   5.780122214E-11
 136.009613   5.504496164E-11
 136.179001   5.217832069E-11
 136.348373   4.921610341E-11
 136.517746   4.617233679E-11
 136.687119   4.306057247E-11
 136.856506   3.989425804E-11
 137.025879   3.668761475E-11
 137.195251   3.345511368E-11
 137.364639   3.021016076E-11
 137.534012   2.696429365E-11
 137.703384   2.372574533E-11
 137.872757   2.050006519E-11
 138.042145   1.729220413E-11
 138.211517   1.410886945E-11
 138.38089   1.09595024E-11
 138.550278   7.857256512E-12
 138.71965   4.817547836E-12
 138.889023   1.856909808E-12
 139.058395   -1.00813238E-12
 139.227783   -3.761505864E-12
 139.397156   -6.387565823E-12
 139.566528   -8.870970798E-12
 139.735916   -1.119710314E-11
 139.905289   -1.33526263E-11
 140.074661   -1.532592976E-11
 140.244034   -1.710704668E-11
 140.413422   -1.86872514E-11
 140.582794   -2.005822418E-11
 140.752167   -2.121154294E-11
 140.921555   -2.21386208E-11
 141.090927   -2.283117445E-11
 141.2603   -2.328196143E-11
 141.429672   -2.348559715E-11
 141.59906   -2.343916727E-11
 141.768433   -2.314273773E-11
 141.937805   -2.259954029E-11
 142.107193   -2.181580611E-11
 142.276566   -2.080004571E-11
 142.445938   -1.956186949E-11
 142.615311   -1.811066748E-11
 142.784698   -1.64547577E-11
 142.954071   -1.460120566E-11
 143.123444   -1.255654435E-11
 143.292816   -1.032786096E-11
 143.462204   -7.923750198E-12
 143.631577   -5.354666797E-12
 143.800949   -2.632884362E-12
 143.970337   2.276984482E-13
 144.139709   3.211426567E-12
 144.309082   6.300686535E-12
 144.478455   9.475937396E-12
 144.647842   1.271659427E-11
 144.817215   1.600288478E-11
 144.986588   1.931793787E-11
 145.155975   2.264901114E-11
 145.325348   2.598726269E-11
 145.49472   2.932562526E-11
 145.664093   3.265637413E-11
 145.833481   3.596921719E-11
 146.002853   3.925113359E-11
 146.172226   4.248815536E-11
 146.341614   4.566793471E-11
 146.510986   4.878098273E-11
 146.680359   5.182098847E-11
 146.849731   5.478316065E-11
 147.019119   5.766324571E-11
 147.188492   6.045608458E-11
 147.357864   6.31560082E-11
 147.527252   6.575692074E-11
 147.696625   6.825248006E-11
 147.865997   7.063505336E-11
 148.03537   7.289392007E-11
 148.204758   7.501359256E-11
 148.37413   7.697483623E-11
 148.543503   7.875721603E-11
 148.712891   8.034176102E-11
 148.882263   8.171394811E-11
 149.051636   8.286343833E-11
 149.221008   8.378234218E-11
 149.390396   8.446286726E-11
 149.559769   8.489386277E-11
 149.729141   8.50619436E-11
 149.898514   8.495211479E-11
 150.067902   8.455022099E-11
 150.237274   8.38453057E-11
 150.406647   8.282846631E-11
 150.576035   8.149352027E-11
 150.745407   7.983599892E-11
 150.91478   7.785348061E-11
 151.084152   7.554645104E-11
 151.25354   7.292053766E-11
 151.422913   6.998646801E-11
 151.592285   6.675951458E-11
 151.761673   6.325727442E-11
 151.931046   5.949813559E-11
 152.100418   5.550022594E-11
 152.269791   5.128283562E-11
 152.439178   4.686749253E-11
 152.608551   4.227945077E-11
 152.777924   3.754752412E-11
 152.947311   3.2702209E-11
 153.116684   2.777309112E-11
 153.286057   2.278723911E-11
 153.455429   1.776875175E-11
 153.624817   1.27399662E-11
 153.794189   7.723259532E-12
 153.963562   2.741911082E-12
 154.13295   -2.179473399E-12
 154.302322   -7.016293796E-12
 154.471695   -1.174501295E-11
 154.641068   -1.63436556E-11
 154.810455   -2.07916722E-11
 154.979828   -2.506875783E-11
 155.1492   -2.915429356E-11
 155.318588   -3.302734128E-11
 155.487961   -3.666752665E-11
 155.657333   -4.005598284E-11
 155.826706   -4.317577892E-11
 155.996094   -4.6011462E-11
 156.165466   -4.854787058E-11
 156.334839   -5.076978421E-11
 156.504211   -5.266198241E-11
 156.673599   -5.421084415E-11
 156.842972   -5.540650924E-11
 157.012344   -5.624419333E-11
 157.181732   -5.672453132E-11
 157.351105   -5.685202656E-11
 157.520477   -5.663288588E-11
 157.68985   -5.60734098E-11
 157.859238   -5.517908352E-11
 158.02861   -5.395514591E-11
 158.197983   -5.240796339E-11
 158.367371   -5.054572733E-11
 158.536743   -4.837877321E-11
 158.706116   -4.591903247E-11
 158.875488   -4.317921715E-11
 159.044876   -4.017285116E-11
 159.214249   -3.691454434E-11
 159.383621   -3.342036023E-11
 159.553009   -2.970821505E-11
 159.722382   -2.579718557E-11
 159.891754   -2.170612995E-11
 160.061127   -1.745281003E-11
 160.230515   -1.305385661E-11
 160.399887   -8.525496281E-12
 160.56926   -3.885228944E-12
 160.738647   8.465817565E-13
 160.90802   5.646410856E-12
 161.077393   1.048830293E-11
 161.246765   1.534527366E-11
 161.416153   2.019081083E-11
 161.585526   2.499944696E-11
 161.754898   2.97465802E-11
 161.924286   3.440774055E-11
 162.093658   3.895794451E-11
 162.263031   4.337139675E-11
 162.432404   4.762195499E-11
 162.601791   5.168353245E-11
 162.771164   5.553042748E-11
 162.940536   5.91376878E-11
 163.109909   6.248100648E-11
 163.279297   6.553713128E-11
 163.448669   6.828473204E-11
 163.618042   7.070524721E-11
 163.78743   7.2783439E-11
 163.956802   7.450796924E-11
 164.126175   7.58706431E-11
 164.295547   7.686590947E-11
 164.464935   7.749004216E-11
 164.634308   7.774041133E-11
 164.80368   7.761560838E-11
 164.973068   7.711506433E-11
 165.142441   7.624045145E-11
 165.311813   7.499567634E-11
 165.481186   7.338774033E-11
 165.650574   7.142665626E-11
 165.819946   6.912487249E-11
 165.989319   6.649619744E-11
 166.158707   6.355548726E-11
 166.328079   6.031716793E-11
 166.497452   5.679574866E-11
 166.666824   5.300585665E-11
 166.836212   4.896339584E-11
 167.005585   4.468587653E-11
 167.174957   4.019207883E-11
 167.344345   3.550149411E-11
 167.513718   3.063388432E-11