   0.00000000         0.00000000    
  0.165000007         0.00000000    
  0.330000013         4.83305268E-15
  0.495000005         2.62597408E-14
  0.660000026         7.66091427E-14
  0.824999988         1.62907733E-13
  0.990000010         2.85115708E-13
   1.15499997         4.39216426E-13
   1.32000005         6.22595617E-13
   1.48500001         8.37655086E-13
   1.64999998         1.09091599E-12
   1.81500006         1.38804376E-12
   1.98000002         1.72807797E-12
   2.14499998         2.10072476E-12
   2.30999994         2.48850983E-12
   2.47499990         2.87232933E-12
   2.64000010         3.23672339E-12
   2.80500007         3.57149900E-12
   2.97000003         3.86891127E-12
   3.13499999         4.11864379E-12
   3.29999995         4.30428349E-12
   3.46499991         4.40387310E-12
   3.63000011         4.39431911E-12
   3.79500008         4.25683317E-12
   3.96000004         3.97998344E-12
   4.12500000         3.55863212E-12
   4.28999996         2.98985619E-12
   4.45499992         2.26889926E-12
   4.61999989         1.38804972E-12
   4.78499985         3.39216529E-13
   4.94999981        -8.81550041E-13
   5.11499977        -2.27059409E-12
   5.28000021        -3.81640943E-12
   5.44500017        -5.50252378E-12
   5.61000013        -7.31135551E-12
   5.77500010        -9.22636446E-12
   5.94000006        -1.12311757E-11
   6.10500002        -1.33065147E-11
   6.26999998        -1.54272931E-11
   6.43499994        -1.75620057E-11
   6.59999990        -1.96749769E-11
   6.76499987        -2.17300847E-11
   6.92999983        -2.36936807E-11
   7.09499979        -2.55351851E-11
   7.26000023        -2.72254563E-11
   7.42500019        -2.87346449E-11
   7.59000015        -3.00314010E-11
   7.75500011        -3.10843434E-11
   7.92000008        -3.18650314E-11
   8.08500004        -3.23507297E-11
   8.25000000        -3.25254199E-11
   8.41499996        -3.23788774E-11
   8.57999992        -3.19049162E-11
   8.74499989        -3.11003757E-11
   8.90999985        -2.99658492E-11
   9.07499981        -2.85077639E-11
   9.23999977        -2.67404779E-11
   9.40499973        -2.46870354E-11
   9.56999969        -2.23781167E-11
   9.73499966        -1.98499828E-11
   9.89999962        -1.71427698E-11
   10.0649996        -1.43001678E-11
   10.2299995        -1.13704038E-11
   10.3950005        -8.40748391E-12
   10.5600004        -5.47139894E-12
   10.7250004        -2.62669639E-12
   10.8900003         6.00729929E-14
   11.0550003         2.52279881E-12
   11.2200003         4.69704180E-12
   11.3850002         6.51984283E-12
   11.5500002         7.92894396E-12
   11.7150002         8.86268316E-12
   11.8800001         9.26137552E-12
   12.0450001         9.06995139E-12
   12.2100000         8.24073535E-12
   12.3750000         6.73512201E-12
   12.5400000         4.52359851E-12
   12.7049999         1.58468692E-12
   12.8699999        -2.09595275E-12
   13.0349998        -6.52515802E-12
   13.1999998        -1.17004600E-11
   13.3649998        -1.76077538E-11
   13.5299997        -2.42198137E-11
   13.6949997        -3.14965935E-11
   13.8599997        -3.93871186E-11
   14.0249996        -4.78318392E-11
   14.1899996        -5.67639893E-11
   14.3549995        -6.61093125E-11
   14.5200005        -7.57846771E-11
   14.6850004        -8.56969426E-11
   14.8500004        -9.57435589E-11
   15.0150003        -1.05815058E-10
   15.1800003        -1.15798794E-10
   15.3450003        -1.25582100E-10
   15.5100002        -1.35053746E-10
   15.6750002        -1.44103604E-10
   15.8400002        -1.52621721E-10
   16.0049992        -1.60498448E-10
   16.1700001        -1.67626690E-10
   16.3349991        -1.73905806E-10
   16.5000000        -1.79245743E-10
   16.6650009        -1.83569535E-10
   16.8299999        -1.86813495E-10
   16.9950008        -1.88925819E-10
   17.1599998        -1.89865554E-10
   17.3250008        -1.89603305E-10
   17.4899998        -1.88123989E-10
   17.6550007        -1.85430657E-10
   17.8199997        -1.81547000E-10
   17.9850006        -1.76517440E-10
   18.1499996        -1.70404760E-10
   18.3150005        -1.63287037E-10
   18.4799995        -1.55255780E-10
   18.6450005        -1.46416532E-10
   18.8099995        -1.36890943E-10
   18.9750004        -1.26818667E-10
   19.1399994        -1.16356924E-10
   19.3050003        -1.05677189E-10
   19.4699993        -9.49601717E-11
   19.6350002        -8.43913897E-11
   19.7999992        -7.41588665E-11
   19.9650002        -6.44533316E-11
   20.1299992        -5.54690530E-11
   20.2950001        -4.74031682E-11
   20.4599991        -4.04522076E-11
   20.6250000        -3.48063453E-11
   20.7900009        -3.06434218E-11
   20.9549999        -2.81249642E-11
   21.1200008        -2.73950324E-11
   21.2849998        -2.85808963E-11
   21.4500008        -3.17932902E-11
   21.6149998        -3.71244112E-11
   21.7800007        -4.46434244E-11
   21.9449997        -5.43911270E-11
   22.1100006        -6.63760158E-11
   22.2749996        -8.05733535E-11
   22.4400005        -9.69268624E-11
   22.6049995        -1.15351055E-10
   22.7700005        -1.35732175E-10
   22.9349995        -1.57926727E-10
   23.1000004        -1.81758553E-10
   23.2649994        -2.07016654E-10
   23.4300003        -2.33455533E-10
   23.5949993        -2.60798660E-10
   23.7600002        -2.88743279E-10
   23.9249992        -3.16964816E-10
   24.0900002        -3.45119155E-10
   24.2549992        -3.72843201E-10
   24.4200001        -3.99755312E-10
   24.5849991        -4.25457503E-10
   24.7500000        -4.49540682E-10
   24.9150009        -4.71591266E-10
   25.0799999        -4.91198360E-10
   25.2450008        -5.07958731E-10
   25.4099998        -5.21480137E-10
   25.5750008        -5.31383493E-10
   25.7399998        -5.37305866E-10
   25.9050007        -5.38905254E-10
   26.0699997        -5.35867184E-10
   26.2350006        -5.27911603E-10
   26.3999996        -5.14798149E-10
   26.5650005        -4.96329478E-10
   26.7299995        -4.72352657E-10
   26.8950005        -4.42761022E-10
   27.0599995        -4.07496176E-10
   27.2250004        -3.66551955E-10
   27.3899994        -3.19978322E-10
   27.5550003        -2.67884021E-10
   27.7199993        -2.10437417E-10
   27.8850002        -1.47865109E-10
   28.0499992        -8.04501119E-11
   28.2150002        -8.53017396E-12
   28.3799992         6.75030518E-11
   28.5450001         1.47204721E-10
   28.7099991         2.30078512E-10
   28.8750000         3.15579951E-10
   29.0400009         4.03121592E-10
   29.2049999         4.92078822E-10
   29.3700008         5.81795723E-10
   29.5349998         6.71590117E-10
   29.7000008         7.60758234E-10
   29.8649998         8.48580317E-10
   30.0300007         9.34326727E-10
   30.1949997         1.01726616E-09
   30.3600006         1.09667309E-09
   30.5249996         1.17183596E-09
   30.6900005         1.24206390E-09
   30.8549995         1.30669220E-09
   31.0200005         1.36508904E-09
   31.1849995         1.41666145E-09
   31.3500004         1.46086354E-09
   31.5149994         1.49720258E-09
   31.6800003         1.52524626E-09
   31.8449993         1.54462665E-09
   32.0099983         1.55504398E-09
   32.1749992         1.55626967E-09
   32.3400002         1.54814928E-09
   32.5050011         1.53060642E-09
   32.6699982         1.50364565E-09
   32.8349991         1.46735413E-09
   33.0000000         1.42190115E-09
   33.1650009         1.36753697E-09
   33.3300018         1.30459010E-09
   33.4949989         1.23346455E-09
   33.6599998         1.15463783E-09
   33.8250008         1.06865838E-09
   33.9900017         9.76141945E-10
   34.1549988         8.77766471E-10
   34.3199997         7.74265374E-10
   34.4850006         6.66419309E-10
   34.6500015         5.55048563E-10
   34.8149986         4.41005593E-10
   34.9799995         3.25168753E-10
   35.1450005         2.08435477E-10
   35.3100014         9.17142057E-11
   35.4749985        -2.40849337E-11
   35.6399994        -1.38060355E-10
   35.8050003        -2.49329002E-10
   35.9700012        -3.57035040E-10
   36.1349983        -4.60357114E-10
   36.2999992        -5.58514623E-10
   36.4650002        -6.50774434E-10
   36.6300011        -7.36457895E-10
   36.7949982        -8.14949219E-10
   36.9599991        -8.85702678E-10
   37.1250000        -9.48249035E-10
   37.2900009        -1.00219921E-09
   37.4550018        -1.04724673E-09
   37.6199989        -1.08316900E-09
   37.7849998        -1.10982823E-09
   37.9500008        -1.12717458E-09
   38.1150017        -1.13524667E-09
   38.2799988        -1.13417309E-09
   38.4449997        -1.12417053E-09
   38.6100006        -1.10554044E-09
   38.7750015        -1.07866294E-09
   38.9399986        -1.04399234E-09
   39.1049995        -1.00205155E-09
   39.2700005        -9.53428114E-10
   39.4350014        -8.98768893E-10
   39.5999985        -8.38774272E-10
   39.7649994        -7.74189546E-10
   39.9300003        -7.05795367E-10
   40.0950012        -6.34397479E-10
   40.2599983        -5.60817448E-10
   40.4249992        -4.85884610E-10
   40.5900002        -4.10428497E-10
   40.7550011        -3.35271477E-10
   40.9199982        -2.61219490E-10
   41.0849991        -1.89052454E-10
   41.2500000        -1.19513816E-10
   41.4150009        -5.33016895E-11
   41.5800018         8.93840731E-12
   41.7449989         6.66189742E-11
   41.9099998         1.19215193E-10
   42.0750008         1.66269595E-10
   42.2400017         2.07397502E-10
   42.4049988         2.42292381E-10
   42.5699997         2.70730022E-10
   42.7350006         2.92570912E-10
   42.9000015         3.07760012E-10
   43.0649986         3.16325105E-10
   43.2299995         3.18374771E-10
   43.3950005         3.14096443E-10
   43.5600014         3.03754716E-10
   43.7249985         2.87689150E-10
   43.8899994         2.66310085E-10
   44.0550003         2.40092751E-10
   44.2200012         2.09569334E-10
   44.3849983         1.75320911E-10
   44.5499992         1.37969441E-10
   44.7150002         9.81706244E-11
   44.8800011         5.66066430E-11
   45.0449982         1.39783376E-11
   45.2099991        -2.90041203E-11
   45.3750000        -7.16315757E-11
   45.5400009        -1.13206465E-10
   45.7050018        -1.53052487E-10
   45.8699989        -1.90522972E-10
   46.0349998        -2.25008151E-10
   46.2000008        -2.55942212E-10
   46.3650017        -2.82810664E-10
   46.5299988        -3.05158038E-10
   46.6949997        -3.22595339E-10
   46.8600006        -3.34806072E-10
   47.0250015        -3.41550482E-10
   47.1899986        -3.42668227E-10
   47.3549995        -3.38079731E-10
   47.5200005        -3.27787436E-10
   47.6850014        -3.11876996E-10
   47.8499985        -2.90517915E-10
   48.0149994        -2.63962852E-10
   48.1800003        -2.32544775E-10
   48.3450012        -1.96672720E-10
   48.5099983        -1.56825983E-10
   48.6749992        -1.13548185E-10
   48.8400002        -6.74412678E-11
   49.0050011        -1.91593460E-11
   49.1699982         3.05983780E-11
   49.3349991         8.10960604E-11
   49.5000000         1.31571115E-10
   49.6650009         1.81244755E-10
   49.8300018         2.29333635E-10
   49.9949989         2.75059836E-10
   50.1599998         3.17658094E-10
   50.3250008         3.56383534E-10
   50.4900017         3.90520727E-10
   50.6549988         4.19394908E-10
   50.8199997         4.42383630E-10
   50.9850006         4.58926952E-10
   51.1500015         4.68535044E-10
   51.3149986         4.70793182E-10
   51.4799995         4.65365996E-10
   51.6450005         4.52002491E-10
   51.8100014         4.30541741E-10
   51.9749985         4.00919381E-10
   52.1399994         3.63172742E-10
   52.3050003         3.17442628E-10
   52.4700012         2.63972261E-10
   52.6349983         2.03104561E-10
   52.7999992         1.35278788E-10
   52.9650002         6.10283282E-11
   53.1300011        -1.90211180E-11
   53.2949982        -1.04154158E-10
   53.4599991        -1.93570909E-10
   53.6250000        -2.86395130E-10
   53.7900009        -3.81684545E-10
   53.9550018        -4.78441509E-10
   54.1199989        -5.75622994E-10
   54.2849998        -6.72149336E-10
   54.4500008        -7.66912922E-10
   54.6150017        -8.58788263E-10
   54.7799988        -9.46643874E-10
   54.9449997        -1.02935638E-09
   55.1100006        -1.10582399E-09
   55.2750015        -1.17497956E-09
   55.4399986        -1.23580157E-09
   55.6049995        -1.28732314E-09
   55.7700005        -1.32864231E-09
   55.9350014        -1.35893174E-09
   56.0999985        -1.37745115E-09
   56.2649994        -1.38355805E-09
   56.4300003        -1.37671741E-09
   56.5950012        -1.35650868E-09
   56.7599983        -1.32263078E-09
   56.9249992        -1.27490563E-09
   57.0900002        -1.21328148E-09
   57.2550011        -1.13783694E-09
   57.4199982        -1.04878450E-09
   57.5849991        -9.46471790E-10
   57.7500000        -8.31381020E-10
   57.9150009        -7.04124870E-10
   58.0800018        -5.65441305E-10
   58.2449989        -4.16187557E-10
   58.4099998        -2.57334487E-10
   58.5750008        -8.99602615E-11
   58.7400017         8.47566531E-11
   58.9049988         2.65546779E-10
   59.0699997         4.51061410E-10
   59.2350006         6.39885644E-10
   59.4000015         8.30552294E-10
   59.5649986         1.02155451E-09
   59.7299995         1.21135835E-09
   59.8950005         1.39841549E-09
   60.0600014         1.58117608E-09
   60.2249985         1.75810355E-09
   60.3899994         1.92769112E-09
   60.5550003         2.08847606E-09
   60.7200012         2.23905583E-09
   60.8849983         2.37809883E-09
   61.0499992         2.50435717E-09
   61.2150002         2.61667688E-09
   61.3800011         2.71400902E-09
   61.5449982         2.79542056E-09
   61.7099991         2.86010726E-09
   61.8750000         2.90740032E-09
   62.0400009         2.93677460E-09
   62.2050018         2.94785174E-09
   62.3699989         2.94040303E-09
   62.5349998         2.91435098E-09
   62.7000008         2.86977153E-09
   62.8650017         2.80689560E-09
   63.0299988         2.72610889E-09
   63.1949997         2.62794875E-09
   63.3600006         2.51309773E-09
   63.5250015         2.38237607E-09
   63.6899986         2.23673369E-09
   63.8549995         2.07723994E-09
   64.0199966         1.90507721E-09
   64.1849976         1.72153103E-09
   64.3499985         1.52797919E-09
   64.5149994         1.32587830E-09
   64.6800003         1.11674825E-09
   64.8450012         9.02156794E-10
   65.0100021         6.83704204E-10
   65.1750031         4.63009880E-10
   65.3399963         2.41699438E-10
   65.5049973         2.13914685E-11
   65.6699982        -1.96317129E-10
   65.8349991        -4.09867446E-10
   66.0000000        -6.17754625E-10
   66.1650009        -8.18542623E-10
   66.3300018        -1.01087638E-09
   66.4950027        -1.19349142E-09
   66.6600037        -1.36522293E-09
   66.8249969        -1.52501467E-09
   66.9899979        -1.67192893E-09
   67.1549988        -1.80515547E-09
   67.3199997        -1.92402028E-09
   67.4850006        -2.02798955E-09
   67.6500015        -2.11667284E-09
   67.8150024        -2.18982077E-09
   67.9800034        -2.24732521E-09
   68.1449966        -2.28921793E-09
   68.3099976        -2.31567054E-09
   68.4749985        -2.32699238E-09
   68.6399994        -2.32362685E-09
   68.8050003        -2.30614328E-09
   68.9700012        -2.27522712E-09
   69.1350021        -2.23167040E-09
   69.3000031        -2.17635998E-09
   69.4649963        -2.11026796E-09
   69.6299973        -2.03444439E-09
   69.7949982        -1.95000527E-09
   69.9599991        -1.85811966E-09
   70.1250000        -1.75999504E-09
   70.2900009        -1.65686231E-09
   70.4550018        -1.54996072E-09
   70.6200027        -1.44052492E-09
   70.7850037        -1.32977507E-09
   70.9499969        -1.21890475E-09
   71.1149979        -1.10906995E-09
   71.2799988        -1.00137520E-09
   71.4449997        -8.96861363E-10
   71.6100006        -7.96493038E-10
   71.7750015        -7.01149971E-10
   71.9400024        -6.11620365E-10
   72.1050034        -5.28595667E-10
   72.2699966        -4.52665877E-10
   72.4349976        -3.84313997E-10
   72.5999985        -3.23910759E-10
   72.7649994        -2.71710904E-10
   72.9300003        -2.27851987E-10
   73.0950012        -1.92355895E-10
   73.2600021        -1.65132796E-10
   73.4250031        -1.45985390E-10
   73.5899963        -1.34613320E-10
   73.7549973        -1.30617253E-10
   73.9199982        -1.33503847E-10
   74.0849991        -1.42692774E-10
   74.2500000        -1.57526089E-10
   74.4150009        -1.77279372E-10
   74.5800018        -2.01173495E-10
   74.7450027        -2.28385810E-10
   74.9100037        -2.58060406E-10
   75.0749969        -2.89318153E-10
   75.2399979        -3.21267596E-10
   75.4049988        -3.53017088E-10
   75.5699997        -3.83687998E-10
   75.7350006        -4.12427870E-10
   75.9000015        -4.38422326E-10
   76.0650024        -4.60905120E-10
   76.2300034        -4.79167206E-10
   76.3949966        -4.92564933E-10
   76.5599976        -5.00528841E-10
   76.7249985        -5.02572428E-10
   76.8899994        -4.98300401E-10
   77.0550003        -4.87415164E-10
   77.2200012        -4.69721040E-10
   77.3850021        -4.45125964E-10
   77.5500031        -4.13642509E-10
   77.7149963        -3.75388276E-10
   77.8799973        -3.30586142E-10
   78.0449982        -2.79563761E-10
   78.2099991        -2.22751401E-10
   78.3750000        -1.60677291E-10
   78.5400009        -9.39608946E-11
   78.7050018        -2.33047557E-11
   78.8700027         5.05140582E-11
   79.0350037         1.26652258E-10
   79.1999969         2.04208886E-10
   79.3649979         2.82234791E-10
   79.5299988         3.59743735E-10
   79.6949997         4.35725123E-10
   79.8600006         5.09157827E-10
   80.0250015         5.79023718E-10
   80.1900024         6.44319820E-10
   80.3550034         7.04070302E-10
   80.5199966         7.57337359E-10
   80.6849976         8.03233147E-10
   80.8499985         8.40932102E-10
   81.0149994         8.69684103E-10
   81.1800003         8.88825902E-10
   81.3450012         8.97791286E-10
   81.5100021         8.96118846E-10
   81.6750031         8.83458307E-10
   81.8399963         8.59576299E-10
   82.0049973         8.24361635E-10
   82.1699982         7.77831022E-10
   82.3349991         7.20133175E-10
   82.5000000         6.51550536E-10
   82.6650009         5.72498771E-10
   82.8300018         4.83523444E-10
   82.9950027         3.85295740E-10
   83.1600037         2.78607359E-10
   83.3249969         1.64365507E-10
   83.4899979         4.35872310E-11
   83.6549988        -8.26081911E-11
   83.8199997        -2.13009180E-10
   83.9850006        -3.46324164E-10
   84.1500015        -4.81195250E-10
   84.3150024        -6.16212081E-10
   84.4800034        -7.49925344E-10
   84.6449966        -8.80859219E-10
   84.8099976        -1.00752506E-09
   84.9749985        -1.12843590E-09
   85.1399994        -1.24212252E-09
   85.3050003        -1.34715072E-09
   85.4700012        -1.44213796E-09
   85.6350021        -1.52576840E-09
   85.8000031        -1.59680646E-09
   85.9649963        -1.65410885E-09
   86.1299973        -1.69663616E-09
   86.2949982        -1.72346581E-09
   86.4599991        -1.73380410E-09
   86.6250000        -1.72699832E-09
   86.7900009        -1.70254577E-09
   86.9550018        -1.66010083E-09
   87.1200027        -1.59947888E-09
   87.2850037        -1.52065871E-09
   87.4499969        -1.42378531E-09
   87.6149979        -1.30917110E-09
   87.7799988        -1.17729748E-09
   87.9449997        -1.02881348E-09
   88.1100006        -8.64532057E-10
   88.2750015        -6.85422663E-10
   88.4400024        -4.92602736E-10
   88.6050034        -2.87327273E-10
   88.7699966        -7.09796111E-11
   88.9349976         1.54939089E-10
   89.0999985         3.88820781E-10
   89.2649994         6.28963770E-10
   89.4300003         8.73588590E-10
   89.5950012         1.12085485E-09
   89.7600021         1.36887968E-09
   89.9250031         1.61575420E-09
   90.0899963         1.85956039E-09
   90.2549973         2.09838658E-09
   90.4199982         2.33034370E-09
   90.5849991         2.55358312E-09
   90.7500000         2.76631340E-09
   90.9150009         2.96682012E-09
   91.0800018         3.15348103E-09
   91.2450027         3.32478090E-09
   91.4100037         3.47932438E-09
   91.5749969         3.61584784E-09
   91.7399979         3.73322928E-09
   91.9049988         3.83049858E-09
   92.0699997         3.90684995E-09
   92.2350006         3.96164790E-09
   92.4000015         3.99443500E-09
   92.5650024         4.00493239E-09
   92.7300034         3.99304279E-09
   92.8949966         3.95884836E-09
   93.0599976         3.90261023E-09
   93.2249985         3.82476717E-09
   93.3899994         3.72592979E-09
   93.5550003         3.60687791E-09
   93.7200012         3.46854989E-09
   93.8850021         3.31203354E-09
   94.0500031         3.13855364E-09
   94.2149963         2.94945934E-09
   94.3799973         2.74621281E-09
   94.5449982         2.53037502E-09
   94.7099991         2.30359198E-09
   94.8750000         2.06757877E-09
   95.0400009         1.82410320E-09
   95.2050018         1.57496693E-09
   95.3700027         1.32198907E-09
   95.5350037         1.06698927E-09
   95.6999969         8.11772094E-10
   95.8649979         5.58111446E-10
   96.0299988         3.07734477E-10
   96.1949997         6.23059798E-11
   96.3600006        -1.76586940E-10
   96.5250015        -4.07448852E-10
   96.6900024        -6.28888219E-10
   96.8550034        -8.39628256E-10
   97.0199966        -1.03851627E-09
   97.1849976        -1.22453248E-09
   97.3499985        -1.39679723E-09
   97.5149994        -1.55457780E-09
   97.6800003        -1.69729175E-09
   97.8450012        -1.82451088E-09
   98.0100021        -1.93596028E-09
   98.1750031        -2.03151806E-09
   98.3399963        -2.11121276E-09
   98.5049973        -2.17522023E-09
   98.6699982        -2.22385776E-09
   98.8349991        -2.25757879E-09
   99.0000000        -2.27696395E-09
   99.1650009        -2.28271091E-09
   99.3300018        -2.27562413E-09
   99.4950027        -2.25660357E-09
   99.6600037        -2.22663199E-09
   99.8249969        -2.18676233E-09
   99.9899979        -2.13810458E-09
   100.154999        -2.08181183E-09
   100.320000        -2.01906425E-09
   100.485001        -1.95105532E-09
   100.650002        -1.87897697E-09
   100.815002        -1.80400472E-09
   100.980003        -1.72728587E-09
   101.144997        -1.64992597E-09
   101.309998        -1.57297575E-09
   101.474998        -1.49741952E-09
   101.639999        -1.42416312E-09
   101.805000        -1.35402412E-09
   101.970001        -1.28772326E-09
   102.135002        -1.22587829E-09
   102.300003        -1.16899823E-09
   102.464996        -1.11747911E-09
   102.629997        -1.07160036E-09
   102.794998        -1.03152287E-09
   102.959999        -9.97288030E-10
   103.125000        -9.68819136E-10
   103.290001        -9.45925338E-10
   103.455002        -9.28306321E-10
   103.620003        -9.15558962E-10
   103.785004        -9.07184439E-10
   103.949997        -9.02595942E-10
   104.114998        -9.01127617E-10
   104.279999        -9.02044772E-10
   104.445000        -9.04555542E-10
   104.610001        -9.07823872E-10
   104.775002        -9.10983178E-10
   104.940002        -9.13150111E-10
   105.105003        -9.13437714E-10
   105.269997        -9.10968745E-10
   105.434998        -9.04888720E-10
   105.599998        -8.94378960E-10
   105.764999        -8.78670525E-10
   105.930000        -8.57057647E-10
   106.095001        -8.28910052E-10
   106.260002        -7.93684840E-10
   106.425003        -7.50935536E-10
   106.589996        -7.00320690E-10
   106.754997        -6.41610598E-10
   106.919998        -5.74694015E-10
   107.084999        -4.99583375E-10
   107.250000        -4.16419649E-10
   107.415001        -3.25474453E-10
   107.580002        -2.27150437E-10
   107.745003        -1.21979288E-10
   107.910004        -1.06177428E-11
   108.074997         1.06157506E-10
   108.239998         2.27455652E-10
   108.404999         3.52278762E-10
   108.570000         4.79530082E-10
   108.735001         6.08024131E-10
   108.900002         7.36498973E-10
   109.065002         8.63629779E-10
   109.230003         9.88043980E-10
   109.394997         1.10833587E-09
   109.559998         1.22308197E-09
   109.724998         1.33085576E-09
   109.889999         1.43024348E-09
   110.055000         1.51986079E-09
   110.220001         1.59837021E-09
   110.385002         1.66449743E-09
   110.550003         1.71704873E-09
   110.714996         1.75492587E-09
   110.879997         1.77714021E-09
   111.044998         1.78282578E-09
   111.209999         1.77125115E-09
   111.375000         1.74183157E-09
   111.540001         1.69413961E-09
   111.705002         1.62791458E-09
   111.870003         1.54306956E-09
   112.035004         1.43969681E-09
   112.199997         1.31806999E-09
   112.364998         1.17864607E-09
   112.529999         1.02206443E-09
   112.695000         8.49145199E-10
   112.860001         6.60886623E-10
   113.025002         4.58459132E-10
   113.190002         2.43197990E-10
   113.355003         1.65933951E-11
   113.519997        -2.19721338E-10
   113.684998        -4.63982713E-10
   113.849998        -7.14311166E-10
   114.014999        -9.68726099E-10
   114.180000        -1.22516219E-09
   114.345001        -1.48148671E-09
   114.510002        -1.73551906E-09
   114.675003        -1.98505012E-09
   114.839996        -2.22786278E-09
   115.004997        -2.46175236E-09
   115.169998        -2.68454659E-09
   115.334999        -2.89412605E-09
   115.500000        -3.08844350E-09
   115.665001        -3.26554317E-09
   115.830002        -3.42358120E-09
   115.995003        -3.56084318E-09
   116.160004        -3.67576147E-09
   116.324997        -3.76693166E-09
   116.489998        -3.83312626E-09
   116.654999        -3.87330745E-09
   116.820000        -3.88663945E-09
   116.985001        -3.87249566E-09
   117.150002        -3.83047016E-09
   117.315002        -3.76038045E-09
   117.480003        -3.66227315E-09
   117.644997        -3.53642449E-09
   117.809998        -3.38334072E-09
   117.974998        -3.20375504E-09
   118.139999        -2.99862224E-09
   118.305000        -2.76911361E-09
   118.470001        -2.51660781E-09
   118.635002        -2.24267915E-09
   118.800003        -1.94908711E-09
   118.964996        -1.63776037E-09
   119.129997        -1.31078182E-09
   119.294998        -9.70371450E-10
   119.459999        -6.18867901E-10
   119.625000        -2.58708971E-10
   119.790001         1.07589444E-10
   119.955002         4.77454742E-10
   120.120003         8.48279558E-10
   120.285004         1.21744348E-09
   120.449997         1.58233548E-09
   120.614998         1.94037586E-09
   120.779999         2.28903851E-09
   120.945000         2.62587263E-09
   121.110001         2.94852365E-09
   121.275002         3.25475358E-09
   121.440002         3.54245921E-09
   121.605003         3.80968856E-09
   121.769997         4.05465839E-09
   121.934998         4.27576641E-09
   122.099998         4.47160708E-09
   122.264999         4.64098093E-09
   122.430000         4.78290429E-09
   122.595001         4.89661600E-09
   122.760002         4.98158093E-09
   122.925003         5.03749353E-09
   123.089996         5.06427744E-09
   123.254997         5.06208497E-09
   123.419998         5.03129272E-09
   123.584999         4.97249708E-09
   123.750000         4.88650631E-09
   123.915001         4.77432893E-09
   124.080002         4.63716310E-09
   124.245003         4.47638149E-09
   124.410004         4.29351887E-09
   124.574997         4.09025525E-09
   124.739998         3.86839893E-09
   124.904999         3.62986974E-09
   125.070000         3.37667738E-09
   125.235001         3.11090198E-09
   125.400002         2.83467272E-09
   125.565002         2.55014743E-09
   125.730003         2.25949393E-09
   125.894997         1.96486960E-09
   126.059998         1.66840231E-09
   126.224998         1.37217093E-09
   126.389999         1.07818565E-09
   126.555000         7.88369758E-10
   126.720001         5.04544018E-10
   126.885002         2.28411942E-10
   127.050003        -3.84520714E-11
   127.214996        -2.94613889E-10
   127.379997        -5.38789569E-10
   127.544998        -7.69854847E-10
   127.709999        -9.86851934E-10
   127.875000        -1.18899490E-09
   128.039993        -1.37567147E-09
   128.205002        -1.54644253E-09
   128.369995        -1.70103953E-09
   128.535004        -1.83936100E-09
   128.699997        -1.96146788E-09
   128.865005        -2.06757789E-09
   129.029999        -2.15805773E-09
   129.195007        -2.23341301E-09
   129.360001        -2.29427632E-09
   129.524994        -2.34139352E-09
   129.690002        -2.37560904E-09
   129.854996        -2.39785103E-09
   130.020004        -2.40911757E-09
   130.184998        -2.41046183E-09
   130.350006        -2.40297604E-09
   130.514999        -2.38777531E-09
   130.679993        -2.36598008E-09
   130.845001        -2.33869968E-09
   131.009995        -2.30701480E-09
   131.175003        -2.27196484E-09
   131.339996        -2.23453478E-09
   131.505005        -2.19564189E-09
   131.669998        -2.15612528E-09
   131.835007        -2.11673323E-09
   132.000000        -2.07811368E-09
   132.164993        -2.04080508E-09
   132.330002        -2.00522976E-09
   132.494995        -1.97169170E-09
   132.660004        -1.94037297E-09
   132.824997        -1.91133487E-09
   132.990005        -1.88451676E-09
   133.154999        -1.85973814E-09
   133.320007        -1.83670112E-09
   133.485001        -1.81499571E-09