 0.   3.561247043E-18
 0.169376865   3.561154812E-18
 0.33875373   -7.43425783E-16
 0.50813061   -6.282135897E-15
 0.67750746   -2.737511891E-14
 0.84688431   -8.222337199E-14
 1.01626122   -1.915543733E-13
 1.18563807   -3.693721219E-13
 1.35501492   -6.145468791E-13
 1.52439177   -9.088816939E-13
 1.69376862   -1.22362038E-12
 1.86314547   -1.530998418E-12
 2.03252244   -1.814080461E-12
 2.20189929   -2.069277258E-12
 2.37127614   -2.300861108E-12
 2.54065299   -2.512000373E-12
 2.71002984   -2.698815347E-12
 2.87940669   -2.851099998E-12
 3.04878354   -2.958344073E-12
 3.21816039   -3.015539424E-12
 3.38753724   -3.023921391E-12
 3.55691409   -2.985726033E-12
 3.72629094   -2.897262942E-12
 3.89566779   -2.746115618E-12
 4.06504488   -2.515678854E-12
 4.23442173   -2.194666541E-12
 4.40379858   -1.785116976E-12
 4.57317543   -1.303099881E-12
 4.74255228   -7.711991852E-13
 4.91192913   -2.075952799E-13
 5.08130598   3.805880307E-13
 5.25068283   9.950595035E-13
 5.42005968   1.637057026E-12
 5.58943653   2.297776119E-12
 5.75881338   2.95591546E-12
 5.92819023   3.584841191E-12
 6.09756708   4.164598354E-12
 6.26694393   4.690569114E-12
 6.43632078   5.172122713E-12
 6.60569763   5.622101309E-12
 6.77507448   6.043261377E-12
 6.94445133   6.421144866E-12
 7.11382818   6.72767007E-12
 7.28320503   6.932638057E-12
 7.45258188   7.0152586E-12
 7.62195873   6.968366422E-12
 7.79133558   6.793561373E-12
 7.96071243   6.492103296E-12
 8.13008976   6.059241216E-12
 8.29946613   5.48671655E-12
 8.46884346   4.771387712E-12
 8.63821983   3.923082345E-12
 8.80759716   2.964494535E-12
 8.97697353   1.921687852E-12
 9.14635086   8.107788529E-13
 9.31572723   -3.700714323E-13
 9.48510456   -1.637001732E-12
 9.65448093   -3.006200974E-12
 9.82385826   -4.477261877E-12
 9.99323463   -6.02404281E-12
 10.162612   -7.598319543E-12
 10.3319883   -9.143512336E-12
 10.5013657   -1.060979082E-11
 10.670742   -1.196207543E-11
 10.8401194   -1.317794398E-11
 11.0094957   -1.423958781E-11
 11.1788731   -1.512737852E-11
 11.3482494   -1.582027911E-11
 11.5176268   -1.630221479E-11
 11.6870031   -1.656839596E-11
 11.8563805   -1.662519254E-11
 12.0257568   -1.648199979E-11
 12.1951342   -1.613992273E-11
 12.3645105   -1.558531776E-11
 12.5338879   -1.479355527E-11
 12.7032642   -1.374228856E-11
 12.8726416   -1.242664825E-11
 13.0420179   -1.086776415E-11
 13.2113953   -9.109773699E-12
 13.3807716   -7.207682368E-12
 13.550149   -5.213514516E-12
 13.7195253   -3.168355552E-12
 13.8889027   -1.103224608E-12
 14.058279   9.543543256E-13
 14.2276564   2.974396554E-12
 14.3970327   4.923626177E-12
 14.5664101   6.769794794E-12
 14.7357864   8.486918633E-12
 14.9051638   1.005645567E-11
 15.0745401   1.146322794E-11
 15.2439175   1.26885065E-11
 15.4132938   1.370631039E-11
 15.5826712   1.448602956E-11
 15.7520475   1.500078707E-11
 15.9214249   1.52373808E-11
 16.0908012   1.520134886E-11
 16.2601795   1.491473264E-11
 16.4295559   1.440809191E-11
 16.5989323   1.371224488E-11
 16.7683086   1.285332431E-11
 16.9376869   1.1853637E-11
 17.1070633   1.073532062E-11
 17.2764397   9.523315296E-12
 17.445816   8.245161498E-12
 17.6151943   6.927720984E-12
 17.7845707   5.593930267E-12
 17.9539471   4.262359129E-12
 18.1233234   2.949621016E-12
 18.2927017   1.674398901E-12
 18.4620781   4.592884775E-13
 18.6314545   -6.712397565E-13
 18.8008308   -1.695495849E-12
 18.9702091   -2.599177817E-12
 19.1395855   -3.377734073E-12
 19.3089619   -4.035157625E-12
 19.4783382   -4.580532568E-12
 19.6477165   -5.025440133E-12
 19.8170929   -5.383402057E-12
 19.9864693   -5.670942015E-12
 20.1558456   -5.908464256E-12
 20.3252239   -6.118926112E-12
 20.4946003   -6.32451036E-12
 20.6639767   -6.542581147E-12
 20.833353   -6.783637888E-12
 21.0027313   -7.052164842E-12
 21.1721077   -7.349600095E-12
 21.3414841   -7.67723992E-12
 21.5108604   -8.037028508E-12
 21.6802387   -8.430072612E-12
 21.8496151   -8.854346943E-12
 22.0189915   -9.303735733E-12
 22.1883678   -9.769377148E-12
 22.3577461   -1.024236338E-11
 22.5271225   -1.071548839E-11
 22.6964989   -1.118241177E-11
 22.8658752   -1.163439657E-11
 23.0352535   -1.205678005E-11
 23.2046299   -1.242818869E-11
 23.3740063   -1.272354184E-11
 23.5433826   -1.291960983E-11
 23.7127609   -1.30002788E-11
 23.8821373   -1.295852488E-11
 24.0515137   -1.279435585E-11
 24.22089   -1.251049177E-11
 24.3902683   -1.210891803E-11
 24.5596447   -1.159055837E-11
 24.7290211   -1.095730104E-11
 24.8983994   -1.021467372E-11
 25.0677757   -9.371732557E-12
 25.2371521   -8.438139944E-12
 25.4065285   -7.420237168E-12
 25.5759068   -6.319032537E-12
 25.7452831   -5.132666861E-12
 25.9146595   -3.862605982E-12
 26.0840359   -2.519777356E-12
 26.2534142   -1.126939796E-12
 26.4227905   2.844877383E-13
 26.5921669   1.681942563E-12
 26.7615433   3.038820714E-12
 26.9309216   4.337668679E-12
 27.1002979   5.568145771E-12
 27.2696743   6.722129364E-12
 27.4390507   7.789886791E-12
 27.608429   8.760056916E-12
 27.7778053   9.623419249E-12
 27.9471817   1.037702216E-11
 28.1165581   1.102500816E-11
 28.2859364   1.157516791E-11
 28.4553127   1.203316613E-11
 28.6246891   1.239861425E-11
 28.7940655   1.266602101E-11
 28.9634438   1.283031754E-11
 29.1328201   1.289324897E-11
 29.3021965   1.286616126E-11
 29.4715729   1.276681538E-11
 29.6409512   1.261203295E-11
 29.8103275   1.241073997E-11
 29.9797039   1.216185225E-11
 30.1490803   1.185820279E-11
 30.3184586   1.149366192E-11
 30.4878349   1.106870064E-11
 30.6572113   1.059087453E-11
 30.8265877   1.007044968E-11
 30.995966   9.514855917E-12
 31.1653423   8.926173169E-12
 31.3347187   8.303580046E-12
 31.5040951   7.648786986E-12
 31.6734734   6.970425539E-12
 31.8428497   6.28376344E-12
 32.0122261   5.605699932E-12
 32.1816025   4.948413207E-12
 32.3509789   4.315820704E-12
 32.520359   3.705155106E-12
 32.6897354   3.112361063E-12
 32.8591118   2.537164923E-12
 33.0284882   1.984112527E-12
 33.1978645   1.459072771E-12
 33.3672409   9.636239289E-13
 33.5366173   4.919026883E-13
 33.7059937   3.231545551E-14
 33.8753738   -4.266269412E-13
 34.0447502   -8.901544866E-13
 34.2141266   -1.354710831E-12
 34.383503   -1.810704581E-12
 34.5528793   -2.248382687E-12
 34.7222557   -2.663116255E-12
 34.8916321   -3.056857502E-12
 35.0610085   -3.435422519E-12
 35.2303886   -3.804067738E-12
 35.399765   -4.164579705E-12
 35.5691414   -4.515447044E-12
 35.7385178   -4.854235069E-12
 35.9078941   -5.179446282E-12
 36.0772705   -5.490038112E-12
 36.2466469   -5.78279178E-12
 36.4160233   -6.049742304E-12
 36.5854034   -6.278379726E-12
 36.7547798   -6.4552131E-12
 36.9241562   -6.571152476E-12
 37.0935326   -6.625360417E-12
 37.2629089   -6.625263706E-12
 37.4322853   -6.58280765E-12
 37.6016617   -6.508722381E-12
 37.7710381   -6.408582866E-12
 37.9404182   -6.282121091E-12
 38.1097946   -6.125270863E-12
 38.279171   -5.933177994E-12
 38.4485474   -5.702262013E-12
 38.6179237   -5.430419569E-12
 38.7873001   -5.116710007E-12
 38.9566765   -4.761795125E-12
 39.1260529   -4.369142634E-12
 39.295433   -3.946241337E-12
 39.4648094   -3.504126893E-12
 39.6341858   -3.054225926E-12
 39.8035622   -2.603827527E-12
 39.9729385   -2.152904374E-12
 40.1423149   -1.693593074E-12
 40.3116913   -1.213474742E-12
 40.4810715   -7.00569431E-13
 40.6504478   -1.47707313E-13
 40.8198242   4.460100366E-13
 40.9892006   1.076431912E-12
 41.158577   1.73668946E-12
 41.3279533   2.418701957E-12
 41.4973297   3.112922246E-12
 41.6667061   3.807771806E-12
 41.8360863   4.490156077E-12
 42.0054626   5.147351295E-12
 42.174839   5.77016256E-12
 42.3442154   6.355135168E-12
 42.5135918   6.903880245E-12
 42.6829681   7.419898029E-12
 42.8523445   7.90485559E-12
 43.0217209   8.356112677E-12
 43.1911011   8.767707914E-12
 43.3604774   9.13371722E-12
 43.5298538   9.451484734E-12
 43.6992302   9.722779873E-12
 43.8686066   9.951939446E-12
 44.0379829   1.014242249E-11
 44.2073593   1.029454733E-11
 44.3767357   1.040603281E-11
 44.5461159   1.047495684E-11
 44.7154922   1.050306543E-11
 44.8848686   1.04969592E-11
 45.054245   1.046592934E-11
 45.2236214   1.041798245E-11
 45.3929977   1.035639283E-11
 45.5623741   1.027909702E-11
 45.7317505   1.018111637E-11
 45.9011307   1.00581531E-11
 46.070507   9.908894885E-12
 46.2398834   9.73445196E-12
 46.4092598   9.535774947E-12
 46.5786362   9.311251423E-12
 46.7480125   9.056611364E-12
 46.9173889   8.767422552E-12
 47.0867653   8.442455936E-12
 47.2561455   8.085308464E-12
 47.4255219   7.702749029E-12
 47.5948982   7.300444103E-12
 47.7642746   6.878672111E-12
 47.933651   6.430803372E-12
 48.1030273   5.945682748E-12
 48.2724037   5.412528932E-12
 48.4417801   4.825479426E-12
 48.6111603   4.185236793E-12
 48.7805367   3.497327428E-12
 48.949913   2.768641653E-12
 49.1192894   2.004830763E-12
 49.2886658   1.210234278E-12
 49.4580421   3.898986711E-13
 49.6274185   -4.48305916E-13
 49.7967987   -1.293570611E-12
 49.9661751   -2.134398127E-12
 50.1355515   -2.961831084E-12
 50.3049278   -3.771050746E-12
 50.4743042   -4.559817367E-12
 50.6436806   -5.324416689E-12
 50.8130569   -6.055461688E-12
 50.9824333   -6.736372311E-12
 51.1518135   -7.345681355E-12
 51.3211899   -7.8620669E-12
 51.4905663   -8.26917701E-12
 51.6599426   -8.557970305E-12
 51.829319   -8.725570613E-12
 51.9986954   -8.772343095E-12
 52.1680717   -8.699650375E-12
 52.3374481   -8.509716369E-12
 52.5068283   -8.207354935E-12
 52.6762047   -7.801698523E-12
 52.8455811   -7.305737612E-12
 53.0149574   -6.733498308E-12
 53.1843338   -6.096154397E-12
 53.3537102   -5.399763969E-12
 53.5230865   -4.646416064E-12
 53.6924629   -3.837974209E-12
 53.8618431   -2.980234115E-12
 54.0312195   -2.085113549E-12
 54.2005959   -1.169123392E-12
 54.3699722   -2.493480682E-13
 54.5393486   6.603005902E-13
 54.708725   1.550670183E-12
 54.8781013   2.416052167E-12
 55.0474777   3.251293115E-12
 55.2168579   4.049878922E-12
 55.3862343   4.804291513E-12
 55.5556107   5.508063623E-12
 55.724987   6.157746188E-12
 55.8943634   6.752875169E-12
 56.0637398   7.29348526E-12
 56.2331161   7.777294433E-12
 56.4024925   8.197886814E-12
 56.5718727   8.546469088E-12
 56.7412491   8.815704243E-12
 56.9106255   9.00382633E-12
 57.0800018   9.116062939E-12
 57.2493782   9.162851901E-12
 57.4187546   9.15602056E-12
 57.588131   9.105010149E-12
 57.7575111   9.015566939E-12
 57.9268875   8.890790881E-12
 58.0962639   8.733574627E-12
 58.2656403   8.547921919E-12
 58.4350166   8.33828926E-12
 58.604393   8.107589253E-12
 58.7737694   7.855886948E-12
 58.9431458   7.58105731E-12
 59.1125259   7.281329185E-12
 59.2819023   6.958496713E-12
 59.4512787   6.618925893E-12
 59.6206551   6.272214085E-12
 59.7900314   5.927843719E-12
 59.9594078   5.591675126E-12
 60.1287842   5.264965981E-12
 60.2981606   4.945749105E-12
 60.4675407   4.631745508E-12
 60.6369171   4.3224712E-12
 60.8062935   4.019333477E-12
 60.9756699   3.724050582E-12
 61.1450462   3.436669569E-12
 61.3144226   3.155274002E-12
 61.483799   2.877472132E-12
 61.6531754   2.602749179E-12
 61.8225555   2.333757753E-12
 61.9919319   2.075512288E-12
 62.1613083   1.832890827E-12
 62.3306847   1.608056136E-12
 62.500061   1.399614582E-12
 62.6694374   1.204061373E-12
 62.8388138   1.018461357E-12
 63.0081902   8.425181126E-13
 63.1775703   6.786917491E-13
 63.3469467   5.305722224E-13
 63.5163231   4.007885332E-13
 63.6856995   2.901645937E-13
 63.8550758   1.9867254E-13
 64.0244522   1.271837589E-13
 64.1938324   7.86212729E-14
 64.363205   5.718309263E-14
 64.5325851   6.593137088E-14
 64.7019577   1.045758532E-13
 64.8713379   1.688242374E-13
 65.0407181   2.523004321E-13
 65.2100906   3.494982624E-13
 65.3794708   4.581605277E-13
 65.5488434   5.79506278E-13
 65.7182236   7.15872511E-13
 65.8875961   8.677580681E-13
 66.0569763   1.03191327E-12
 66.2263489   1.201567058E-12
 66.3957291   1.368387933E-12
 66.5651093   1.52446404E-12
 66.7344818   1.662968266E-12
 66.903862   1.777222141E-12
 67.0732346   1.859495414E-12
 67.2426147   1.901068495E-12
 67.4119873   1.894201159E-12
 67.5813675   1.835228801E-12
 67.7507477   1.726668721E-12
 67.9201202   1.576728331E-12
 68.0895004   1.396095479E-12
 68.258873   1.193694124E-12
 68.4282532   9.738355955E-13
 68.5976257   7.364095228E-13
 68.7670059   4.796703941E-13
 68.9363785   2.037759474E-13
 69.1057587   -8.735084189E-14
 69.2751389   -3.869167085E-13
 69.4445114   -6.879225379E-13
 69.6138916   -9.85720186E-13
 69.7832642   -1.278579239E-12
 69.9526443   -1.566183272E-12
 70.1220169   -1.847556179E-12
 70.2913971   -2.120066492E-12
 70.4607773   -2.380518959E-12
 70.6301498   -2.627765843E-12
 70.79953   -2.864250503E-12
 70.9689026   -3.095162581E-12
 71.1382828   -3.325008021E-12
 71.3076553   -3.553574535E-12
 71.4770355   -3.774200136E-12
 71.6464081   -3.974891596E-12
 71.8157883   -4.143115972E-12
 71.9851685   -4.27019314E-12
 72.154541   -4.353731785E-12
 72.3239212   -4.39587906E-12
 72.4932938   -4.399772213E-12
 72.662674   -4.36585143E-12
 72.8320465   -4.290658974E-12
 73.0014267   -4.169028837E-12
 73.1708069   -3.997226595E-12
 73.3401794   -3.775213215E-12
 73.5095596   -3.506127029E-12
 73.6789322   -3.193643483E-12
 73.8483124   -2.839392133E-12
 74.0176849   -2.442620108E-12
 74.1870651   -2.0023603E-12
 74.3564453   -1.520760731E-12
 74.5258179   -1.00471324E-12
 74.6951981   -4.644600676E-13
 74.8645706   9.05470699E-14
 75.0339508   6.556031217E-13
 75.2033234   1.23202891E-12
 75.3727036   1.824469395E-12
 75.5420761   2.435749952E-12
 75.7114563   3.062449599E-12
 75.8808365   3.693836469E-12
 76.050209   4.314748645E-12
 76.2195892   4.910380696E-12
 76.3889618   5.469923126E-12
 76.558342   5.986749291E-12
 76.7277145   6.455621194E-12
 76.8970947   6.869291594E-12
 77.0664749   7.217179545E-12
 77.2358475   7.487075196E-12
 77.4052277   7.668814368E-12
 77.5746002   7.757260112E-12
 77.7439804   7.752516511E-12
 77.913353   7.657093709E-12
 78.0827332   7.47250959E-12
 78.2521057   7.198094985E-12
 78.4214859   6.832551885E-12
 78.5908661   6.378098136E-12
 78.7602386   5.843695753E-12
 78.9296188   5.245118142E-12
 79.0989914   4.601603387E-12
 79.2683716   3.930488747E-12
 79.4377441   3.243672692E-12
 79.6071243   2.547670842E-12
 79.7765045   1.846745413E-12
 79.9458771   1.147232699E-12
 80.1152573   4.596839944E-13
 80.2846298   -2.025161451E-13
 80.45401   -8.267522951E-13
 80.6233826   -1.405008596E-12
 80.7927628   -1.9348299E-12
 80.9621429   -2.417638572E-12
 81.1315155   -2.855381296E-12
 81.3008957   -3.248462046E-12
 81.4702682   -3.595945807E-12
 81.6396484   -3.897764056E-12
 81.809021   -4.156766511E-12
 81.9784012   -4.37910732E-12
 82.1477737   -4.571879333E-12
 82.3171539   -4.739808372E-12
 82.4865341   -4.883331586E-12
 82.6559067   -4.999580611E-12
 82.8252869   -5.085809378E-12
 82.9946594   -5.142867902E-12
 83.1640396   -5.176973E-12
 83.3334122   -5.198464922E-12
 83.5027924   -5.218326639E-12
 83.6721725   -5.244868342E-12
 83.8415451   -5.282218673E-12
 84.0109253   -5.331356016E-12
 84.1802979   -5.392469023E-12
 84.349678   -5.466695239E-12
 84.5190506   -5.556278094E-12
 84.6884308   -5.663359105E-12
 84.8578033   -5.788670324E-12
 85.0271835   -5.931157041E-12
 85.1965637   -6.088862053E-12
 85.3659363   -6.260127399E-12
 85.5353165   -6.443890126E-12
 85.704689   -6.638508319E-12
 85.8740692   -6.839826882E-12
 86.0434418   -7.039857412E-12
 86.212822   -7.227260457E-12
 86.3822021   -7.389647921E-12
 86.5515747   -7.516466616E-12
 86.7209549   -7.600958057E-12
 86.8903275   -7.640205309E-12
 87.0597076   -7.633689687E-12
 87.2290802   -7.58150747E-12
 87.3984604   -7.483492992E-12
 87.5678329   -7.339563853E-12
 87.7372131   -7.150667211E-12
 87.9065933   -6.919196553E-12
 88.0759659   -6.648495122E-12
 88.2453461   -6.341666341E-12
 88.4147186   -6.000843052E-12
 88.5840988   -5.627621199E-12
 88.7534714   -5.224534347E-12
 88.9228516   -4.796518217E-12
 89.0922318   -4.351179573E-12
 89.2616043   -3.897433591E-12
 89.4309845   -3.443247423E-12
 89.6003571   -2.9939625E-12
 89.7697372   -2.552287591E-12
 89.9391098   -2.120010114E-12
 90.10849   -1.700114116E-12
 90.2778702   -1.297829465E-12
 90.4472427   -9.19767951E-13
 90.6166229   -5.716871204E-13
 90.7859955   -2.565014173E-13
 90.9553757   2.619524267E-14
 91.1247482   2.786286013E-13
 91.2941284   5.025991017E-13
 91.463501   6.980497994E-13
 91.6328812   8.636747459E-13
 91.8022614   9.990138057E-13
 91.9716339   1.106441653E-12
 92.1410141   1.191786578E-12
 92.3103867   1.26265361E-12
 92.4797668   1.325476079E-12
 92.6491394   1.38352719E-12
 92.8185196   1.436784394E-12
 92.9878998   1.484181918E-12
 93.1572723   1.526372236E-12
 93.3266525   1.567070692E-12
 93.4960251   1.611971624E-12
 93.6654053   1.666128498E-12
 93.8347778   1.730943514E-12
 94.004158   1.803856435E-12
 94.1735306   1.879929372E-12
 94.3429108   1.955517779E-12
 94.512291   2.029584183E-12
 94.6816635   2.104172305E-12
 94.8510437   2.181131144E-12
 95.0204163   2.259270462E-12
 95.1897964   2.332505066E-12
 95.359169   2.391121372E-12
 95.5285492   2.424821628E-12
 95.6979294   2.426208323E-12
 95.8673019   2.391250392E-12
 96.0366821   2.318198801E-12
 96.2060547   2.204171741E-12
 96.3754349   2.043506857E-12
 96.5448074   1.828446249E-12
 96.7141876   1.551666564E-12
 96.8835602   1.210124991E-12
 97.0529404   8.06625437E-13
 97.2223206   3.480758704E-13
 97.3916931   -1.576105511E-13
 97.5610733   -7.048602695E-13
 97.7304459   -1.291358188E-12
 97.899826   -1.916329942E-12
 98.0691986   -2.577866306E-12
 98.2385788   -3.270487397E-12
 98.407959   -3.986028955E-12
 98.5773315   -4.715991053E-12
 98.7467117   -5.454633273E-12
 98.9160843   -6.199791548E-12
 99.0854645   -6.951048678E-12
 99.254837   -7.706030258E-12
 99.4242172   -8.457556704E-12
 99.5935974   -9.193277216E-12
 99.76297   -9.898472667E-12
 99.9323502   -1.056019855E-11
 100.101723   -1.117029906E-11
 100.271103   -1.172557884E-11
 100.440475   -1.222542293E-11
 100.609856   -1.266852682E-11
 100.779228   -1.305108799E-11
 100.948608   -1.336737405E-11
 101.117989   -1.361197353E-11
 101.287361   -1.378194867E-11
 101.456741   -1.387713815E-11
 101.626114   -1.389855158E-11
 101.795494   -1.384610395E-11
 101.964867   -1.371760604E-11
 102.134247   -1.350997439E-11
 102.303627   -1.32221083E-11
 102.473   -1.285735841E-11
 102.64238   -1.242391086E-11
 102.811752   -1.193245416E-11
 102.981133   -1.139249979E-11
 103.150505   -1.080955464E-11
 103.319885   -1.018463439E-11
 103.489258   -9.516542936E-12
 103.658638   -8.80513891E-12
 103.828018   -8.053685323E-12
 103.997391   -7.268950632E-12
 104.166771   -6.459268884E-12
 104.336143   -5.632145791E-12
 104.505524   -4.793015811E-12
 104.674896   -3.945799416E-12
 104.844276   -3.09463349E-12
 105.013657   -2.245228526E-12
 105.183029   -1.404910042E-12
 105.352409   -5.81130196E-13
 105.521782   2.203161427E-13
 105.691162   9.962096252E-13
 105.860535   1.745185485E-12
 106.029915   2.465906602E-12
 106.199295   3.155560015E-12
 106.368668   3.809464029E-12
 106.538048   4.422343134E-12
 106.70742   4.990048305E-12
 106.876801   5.510808389E-12
 107.046173   5.985029312E-12
 107.215553   6.413835175E-12
 107.384926   6.79738427E-12
 107.554306   7.133962691E-12
 107.723686   7.420473958E-12
 107.893059   7.653637273E-12
 108.062439   7.8313276E-12
 108.231812   7.952843245E-12
 108.401192   8.018464365E-12
 108.570564   8.028460709E-12
 108.739944   7.982002212E-12
 108.909325   7.877531093E-12
 109.078697   7.712768792E-12
 109.248077   7.485734255E-12
 109.41745   7.195135546E-12
 109.58683   6.840118316E-12
 109.756203   6.420777104E-12
 109.925583   5.937889069E-12
 110.094955   5.393595293E-12
 110.264336   4.791781121E-12
 110.433716   4.137990298E-12
 110.603088   3.439130708E-12
 110.772469   2.702273518E-12
 110.941841   1.934525673E-12
 111.111221   1.142605758E-12
 111.280594   3.336064877E-13
 111.449974   -4.844963948E-13
 111.619354   -1.302426591E-12
 111.788727   -2.110094651E-12
 111.958107   -2.8969817E-12
 112.12748   -3.652746508E-12
 112.29686   -4.367421355E-12
 112.466232   -5.031118317E-12
 112.635612   -5.634629048E-12
 112.804985   -6.170168976E-12
 112.974365   -6.632857891E-12
 113.143745   -7.021972847E-12
 113.313118   -7.340940356E-12
 113.482498   -7.596034912E-12
 113.651871   -7.79405273E-12
 113.821251   -7.940464258E-12
 113.990623   -8.038638331E-12
 114.160004   -8.090443246E-12
 114.329384   -8.098185317E-12
 114.498756   -8.06544935E-12
 114.668137   -7.997083031E-12
 114.837509   -7.897835164E-12
 115.006889   -7.770958356E-12
 115.176262   -7.617685129E-12
 115.345642   -7.438410131E-12
 115.515022   -7.234591398E-12
 115.684395   -7.010309867E-12
 115.853775   -6.772329225E-12
 116.023148   -6.528570219E-12
 116.192528   -6.285953529E-12
 116.3619   -6.049093084E-12
 116.531281   -5.820585767E-12
 116.700653   -5.602751769E-12
 116.870033   -5.399187174E-12
 117.039413   -5.215135615E-12
 117.208786   -5.055953919E-12
 117.378166   -4.924871708E-12
 117.547539   -4.821444025E-12
 117.716919   -4.74193124E-12
 117.886292   -4.681485234E-12
 118.055672   -4.636442272E-12
 118.225052   -4.605761085E-12
 118.394424   -4.590066608E-12
 118.563805   -4.588944676E-12
 118.733177   -4.598550273E-12
 118.902557   -4.610788314E-12
 119.07193   -4.614790321E-12
 119.24131   -4.599977083E-12
 119.410683   -4.558446502E-12
 119.580063   -4.485653602E-12
 119.749443   -4.379515847E-12
 119.918816   -4.23828854E-12
 120.088196   -4.059392579E-12
 120.257568   -3.839767046E-12
 120.426949   -3.577196699E-12
 120.596321   -3.271375575E-12
 120.765701   -2.923905042E-12
 120.935081   -2.536654263E-12
 121.104454   -2.109809289E-12
 121.273834   -1.641169839E-12
 121.443207   -1.126971563E-12
 121.612587   -5.646370958E-13
 121.78196   4.479491051E-14
 121.95134   6.956518152E-13
 122.12072   1.378771012E-12
 122.290092   2.084152512E-12
 122.459473   2.803430882E-12
 122.628845   3.530917963E-12
 122.798225   4.262773294E-12
 122.967598   4.995284134E-12
 123.136978   5.723325459E-12
 123.306351   6.440150496E-12
 123.475731   7.138407487E-12
 123.645111   7.811504915E-12
 123.814484   8.45431971E-12
 123.983864   9.062755754E-12
 124.153236   9.632645376E-12
 124.322617   1.015894053E-11
 124.491989   1.063587499E-11
 124.661369   1.105808587E-11
 124.83075   1.142194672E-11
 125.000122   1.172619987E-11
 125.169502   1.19715236E-11
 125.338875   1.21591617E-11
 125.508255   1.228969964E-11
 125.677628   1.236263869E-11
 125.847008   1.237689031E-11
 126.01638   1.233192975E-11
 126.18576   1.222847604E-11
 126.355141   1.206833938E-11
 126.524513   1.185332821E-11
 126.693893   1.158390397E-11
 126.863266   1.125873613E-11
 127.032646   1.087479846E-11
 127.202019   1.042871258E-11
 127.371399   9.918147033E-12
 127.540779   9.342986454E-12
 127.710152   8.705479913E-12
 127.879532   8.009668449E-12
 128.048904   7.260964833E-12
 128.218277   6.465447101E-12
 128.387665   5.629562354E-12
 128.557037   4.75990471E-12
 128.72641   3.862929508E-12
 128.895798   2.944639324E-12
 129.06517   2.010327235E-12
 129.234543   1.064705615E-12
 129.403915   1.123833828E-13
 129.573303   -8.414304952E-13
 129.742676   -1.790327869E-12
 129.912048   -2.72655596E-12
 130.081436   -3.641270879E-12
 130.250809   -4.525277722E-12
 130.420181   -5.369913281E-12
 130.589554   -6.167699598E-12
 130.758942   -6.912852235E-12
 130.928314   -7.601462862E-12
 131.097687   -8.231052125E-12
 131.267059   -8.800126426E-12
 131.436447   -9.307432429E-12
 131.60582   -9.750997752E-12
 131.775192   -1.012784908E-11
 131.94458   -1.043391762E-11
 132.113953   -1.066464712E-11
 132.283325   -1.081609888E-11
 132.452698   -1.088560665E-11
 132.622086   -1.087221025E-11
 132.791458   -1.077654199E-11
 132.960831   -1.060041378E-11
 133.130219   -1.034620306E-11
 133.299591   -1.00173151E-11
 133.468964   -9.617771857E-12
 133.638336   -9.152183351E-12
 133.807724   -8.625125787E-12
 133.977097   -8.040136265E-12
 134.146469   -7.39867629E-12
 134.315857   -6.700509071E-12
 134.485229   -5.943989658E-12
 134.654602   -5.127998286E-12
 134.823975   -4.253332062E-12
 134.993362   -3.323671416E-12
 135.162735   -2.344675669E-12
 135.332108   -1.323085413E-12
 135.501495   -2.659159514E-13
 135.670868   8.201904867E-13
 135.84024   1.928018942E-12
 136.009613   3.049140801E-12
 136.179001   4.173660983E-12
 136.348373   5.291191096E-12
 136.517746   6.392307256E-12
 136.687119   7.469771329E-12
 136.856506   8.518509682E-12
 137.025879   9.534079255E-12
 137.195251   1.051061842E-11
 137.364639   1.143937202E-11
 137.534012   1.230930722E-11
 137.703384   1.310906592E-11
 137.872757   1.3829278E-11
 138.042145   1.446423363E-11
 138.211517   1.501187542E-11
 138.38089   1.547250696E-11
 138.550278   1.584723672E-11
 138.71965   1.61375531E-11
 138.889023   1.634583788E-11
 139.058395   1.64761E-11
 139.227783   1.653415078E-11
 139.397156   1.652628208E-11
 139.566528   1.645729039E-11
 139.735916   1.632882371E-11
 139.905289   1.613969895E-11
 140.074661   1.588808772E-11
 140.244034   1.557458849E-11
 140.413422   1.520434473E-11
 140.582794   1.47870622E-11
 140.752167   1.433469749E-11
 140.921555   1.385820798E-11
 141.090927   1.336510069E-11
 141.2603   1.285885027E-11
 141.429672   1.234009769E-11
 141.59906   1.180840929E-11
 141.768433   1.126338779E-11
 141.937805   1.070466545E-11
 142.107193   1.013131072E-11
 142.276566   9.541690354E-12
 142.445938   8.93447382E-12
 142.615311   8.310256129E-12
 142.784698   7.672824182E-12
 142.954071   7.028797249E-12
 143.123444   6.385550508E-12
 143.292816   5.748385708E-12
 143.462204   5.118569197E-12
 143.631577   4.493384397E-12
 143.800949   3.868159699E-12
 143.970337   3.239135305E-12
 144.139709   2.605598029E-12
 144.309082   1.970286564E-12
 144.478455   1.338192578E-12
 144.647842   7.149185215E-13
 144.817215   1.056212477E-13
 144.986588   -4.850183298E-13
 145.155975   -1.052161179E-12
 145.325348   -1.590514504E-12
 145.49472   -2.095005593E-12
 145.664093   -2.561765253E-12
 145.833481   -2.989249907E-12
 146.002853   -3.378236926E-12
 146.172226   -3.730609571E-12
 146.341614   -4.047446406E-12
 146.510986   -4.327985886E-12
 146.680359   -4.569800701E-12
 146.849731   -4.769930111E-12
 147.019119   -4.92630936E-12
 147.188492   -5.038924573E-12
 147.357864   -5.109202991E-12
 147.527252   -5.139548075E-12
 147.696625   -5.132252262E-12
 147.865997   -5.089294871E-12
 148.03537   -5.012743692E-12
 148.204758   -4.905946309E-12
 148.37413   -4.773571295E-12
 148.543503   -4.621101245E-12
 148.712891   -4.453782829E-12
 148.882263   -4.275672698E-12
 149.051636   -4.089674779E-12
 149.221008   -3.897632651E-12
 149.390396   -3.700717684E-12
 149.559769   -3.500049426E-12
 149.729141   -3.295880496E-12
 149.898514   -3.087195647E-12
 150.067902   -2.871527452E-12
 150.237274   -2.644914019E-12
 150.406647   -2.403372857E-12
 150.576035   -2.143506293E-12
 150.745407   -1.862737829E-12
 150.91478   -1.559424681E-12
 151.084152   -1.231710263E-12
 151.25354   -8.771102876E-13
 151.422913   -4.927699416E-13
 151.592285   -7.61084243E-14
 151.761673   3.741677649E-13
 151.931046   8.580898036E-13
 152.100418   1.374703953E-12
 152.269791   1.923223083E-12
 152.439178   2.503178871E-12
 152.608551   3.114619023E-12
 152.777924   3.757414952E-12
 152.947311   4.430601285E-12
 153.116684   5.132632167E-12
 153.286057   5.862115914E-12
 153.455429   6.618781478E-12
 153.624817   7.403666222E-12
 153.794189   8.218163997E-12
 153.963562   9.061976863E-12
 154.13295   9.931657927E-12
 154.302322   1.081986237E-11
 154.471695   1.171619919E-11
 154.641068   1.260912989E-11
 154.810455   1.348744554E-11
 154.979828   1.434088005E-11
 155.1492   1.515944315E-11
 155.318588   1.593240644E-11
 155.487961   1.664795905E-11
 155.657333   1.729392844E-11
 155.826706   1.785937717E-11
 155.996094   1.833562122E-11
 156.165466   1.871639128E-11
 156.334839   1.899647974E-11
 156.504211   1.917048811E-11
 156.673599   1.923221825E-11
 156.842972   1.917574259E-11
 157.012344   1.899762812E-11
 157.181732   1.869849241E-11
 157.351105   1.828324644E-11
 157.520477   1.775921597E-11
 157.68985   1.713323407E-11
 157.859238   1.640968438E-11
 158.02861   1.559055662E-11
 158.197983   1.467755084E-11
 158.367371   1.367461352E-11
 158.536743   1.25896368E-11
 158.706116   1.143406897E-11
 158.875488   1.022059434E-11
 159.044876   8.961084479E-12
 159.214249   7.665491505E-12
 159.383621   6.342397961E-12
 159.553009   5.000405905E-12
 159.722382   3.648815625E-12
 159.891754   2.296798602E-12
 160.061127   9.514122346E-13
 160.230515   -3.840306708E-13
 160.399887   -1.709676671E-12
 160.56926   -3.026874975E-12
 160.738647   -4.334992001E-12
 160.90802   -5.628947829E-12
 161.077393   -6.899556013E-12
 161.246765   -8.136066473E-12
 161.416153   -9.32963342E-12
 161.585526   -1.047555098E-11
 161.754898   -1.15729171E-11
 161.924286   -1.262214378E-11
 162.093658   -1.362195773E-11
 162.263031   -1.456776366E-11
 162.432404   -1.545204589E-11
 162.601791   -1.62662106E-11
 162.771164   -1.70022503E-11
 162.940536   -1.765301794E-11
 163.109909   -1.821110797E-11
 163.279297   -1.866776872E-11
 163.448669   -1.901272195E-11
 163.618042   -1.923600342E-11
 163.78743   -1.933072973E-11
 163.956802   -1.929501871E-11
 164.126175   -1.913147071E-11
 164.295547   -1.884498634E-11
 164.464935   -1.843902114E-11
 164.634308   -1.791389953E-11
 164.80368   -1.7266924E-11
 164.973068   -1.649528777E-11
 165.142441   -1.559892493E-11
 165.311813   -1.458320444E-11
 165.481186   -1.345843229E-11
 165.650574   -1.223793289E-11
 165.819946   -1.093564475E-11
 165.989319   -9.564794269E-12
 166.158707   -8.13807962E-12
 166.328079   -6.668595363E-12
 166.497452   -5.169898364E-12
 166.666824   -3.655983502E-12
 166.836212   -2.139585818E-12
 167.005585   -6.308865106E-13
 167.174957   8.62121301E-13
 167.344345   2.332155302E-12
 167.513718   3.77056459E-12